 Entering Gaussian System, Link 0=g16
 Input=loose/species/CC(C)OC=CO/conformers/CC(C)OC=CO_39.com
 Output=loose/species/CC(C)OC=CO/conformers/CC(C)OC=CO_39.log
 Initial command:
 /shared/centos7/gaussian/g16/l1.exe "/scratch/harms.n/gauss_scrdir/Gau-19549.inp" -scrdir="/scratch/harms.n/gauss_scrdir/"
 Entering Link 1 = /shared/centos7/gaussian/g16/l1.exe PID=     19550.
  
 Copyright (c) 1988,1990,1992,1993,1995,1998,2003,2009,2016,
            Gaussian, Inc.  All Rights Reserved.
  
 This is part of the Gaussian(R) 16 program.  It is based on
 the Gaussian(R) 09 system (copyright 2009, Gaussian, Inc.),
 the Gaussian(R) 03 system (copyright 2003, Gaussian, Inc.),
 the Gaussian(R) 98 system (copyright 1998, Gaussian, Inc.),
 the Gaussian(R) 94 system (copyright 1995, Gaussian, Inc.),
 the Gaussian 92(TM) system (copyright 1992, Gaussian, Inc.),
 the Gaussian 90(TM) system (copyright 1990, Gaussian, Inc.),
 the Gaussian 88(TM) system (copyright 1988, Gaussian, Inc.),
 the Gaussian 86(TM) system (copyright 1986, Carnegie Mellon
 University), and the Gaussian 82(TM) system (copyright 1983,
 Carnegie Mellon University). Gaussian is a federally registered
 trademark of Gaussian, Inc.
  
 This software contains proprietary and confidential information,
 including trade secrets, belonging to Gaussian, Inc.
  
 This software is provided under written license and may be
 used, copied, transmitted, or stored only in accord with that
 written license.
  
 The following legend is applicable only to US Government
 contracts under FAR:
  
                    RESTRICTED RIGHTS LEGEND
  
 Use, reproduction and disclosure by the US Government is
 subject to restrictions as set forth in subparagraphs (a)
 and (c) of the Commercial Computer Software - Restricted
 Rights clause in FAR 52.227-19.
  
 Gaussian, Inc.
 340 Quinnipiac St., Bldg. 40, Wallingford CT 06492
  
  
 ---------------------------------------------------------------
 Warning -- This program may not be used in any manner that
 competes with the business of Gaussian, Inc. or will provide
 assistance to any competitor of Gaussian, Inc.  The licensee
 of this program is prohibited from giving any competitor of
 Gaussian, Inc. access to this program.  By using this program,
 the user acknowledges that Gaussian, Inc. is engaged in the
 business of creating and licensing software in the field of
 computational chemistry and represents and warrants to the
 licensee that it is not a competitor of Gaussian, Inc. and that
 it will not use this program in any manner prohibited above.
 ---------------------------------------------------------------
  

 Cite this work as:
 Gaussian 16, Revision A.03,
 M. J. Frisch, G. W. Trucks, H. B. Schlegel, G. E. Scuseria, 
 M. A. Robb, J. R. Cheeseman, G. Scalmani, V. Barone, 
 G. A. Petersson, H. Nakatsuji, X. Li, M. Caricato, A. V. Marenich, 
 J. Bloino, B. G. Janesko, R. Gomperts, B. Mennucci, H. P. Hratchian, 
 J. V. Ortiz, A. F. Izmaylov, J. L. Sonnenberg, D. Williams-Young, 
 F. Ding, F. Lipparini, F. Egidi, J. Goings, B. Peng, A. Petrone, 
 T. Henderson, D. Ranasinghe, V. G. Zakrzewski, J. Gao, N. Rega, 
 G. Zheng, W. Liang, M. Hada, M. Ehara, K. Toyota, R. Fukuda, 
 J. Hasegawa, M. Ishida, T. Nakajima, Y. Honda, O. Kitao, H. Nakai, 
 T. Vreven, K. Throssell, J. A. Montgomery, Jr., J. E. Peralta, 
 F. Ogliaro, M. J. Bearpark, J. J. Heyd, E. N. Brothers, K. N. Kudin, 
 V. N. Staroverov, T. A. Keith, R. Kobayashi, J. Normand, 
 K. Raghavachari, A. P. Rendell, J. C. Burant, S. S. Iyengar, 
 J. Tomasi, M. Cossi, J. M. Millam, M. Klene, C. Adamo, R. Cammi, 
 J. W. Ochterski, R. L. Martin, K. Morokuma, O. Farkas, 
 J. B. Foresman, and D. J. Fox, Gaussian, Inc., Wallingford CT, 2016.
 
 ******************************************
 Gaussian 16:  EM64L-G16RevA.03 25-Dec-2016
                29-Sep-2019 
 ******************************************
 %nprocshared=20
 Will use up to   20 processors via shared memory.
 %mem=5GB
 ----------------------------------------------------------------------
 #p m062x/cc-pVTZ opt=(calcfc,maxcycles=900,Tight) freq IOP(7/33=1,2/16
 =3) scf=(maxcycle=900)
 ----------------------------------------------------------------------
 1/6=900,7=10,10=4,18=20,19=15,26=3,38=1/1,3;
 2/9=110,12=2,16=3,17=6,18=5,40=1/2;
 3/5=16,6=1,11=2,25=1,30=1,71=2,74=-55,140=1/1,2,3;
 4//1;
 5/5=2,7=900,38=5/2;
 8/6=4,10=90,11=11/1;
 11/6=1,8=1,9=11,15=111,16=1/1,2,10;
 10/6=1,13=1/2;
 6/7=2,8=2,9=2,10=2,28=1/1;
 7/10=1,18=20,25=1,33=1/1,2,3,16;
 1/6=900,7=10,10=4,18=20,19=15,26=3/3(2);
 2/9=110,16=3/2;
 99//99;
 2/9=110,16=3/2;
 3/5=16,6=1,11=2,25=1,30=1,71=1,74=-55/1,2,3;
 4/5=5,16=3,69=1/1;
 5/5=2,7=900,38=5/2;
 7/33=1/1,2,3,16;
 1/6=900,7=10,18=20,19=15,26=3/3(-5);
 2/9=110,16=3/2;
 6/7=2,8=2,9=2,10=2,19=2,28=1/1;
 99/9=1/99;
 Leave Link    1 at Sun Sep 29 00:59:08 2019, MaxMem=   671088640 cpu:               4.3 elap:               2.2
 (Enter /shared/centos7/gaussian/g16/l101.exe)
 ------------------------------
 Gaussian input prepared by ASE
 ------------------------------
 Symbolic Z-matrix:
 Charge =  0 Multiplicity = 1
 O                     1.2019   -2.91954   0.58039 
 O                     2.72227  -0.07015   2.25381 
 C                    -0.15915  -2.95671   0.20618 
 C                    -0.3727   -2.28536  -1.15054 
 C                    -1.05943  -2.49027   1.30254 
 C                     1.62176  -1.63192   0.82463 
 C                     2.272    -1.33687   1.91283 
 H                    -0.36761  -4.05217   0.05499 
 H                     0.51422  -1.68815  -1.44871 
 H                    -0.53527  -3.06146  -1.92043 
 H                    -1.2653   -1.60283  -1.15842 
 H                    -1.56694  -1.50269   1.09324 
 H                    -0.49909  -2.39508   2.25597 
 H                    -1.89434  -3.22626   1.47807 
 H                     1.36763  -0.91215   0.03022 
 H                     2.54389  -2.0725    2.65536 
 H                     2.33525   0.57502   1.59369 
 
 ITRead=  0  0  0  0  0  0  0  0  0  0  0  0  0  0  0  0  0
 MicOpt= -1 -1 -1 -1 -1 -1 -1 -1 -1 -1 -1 -1 -1 -1 -1 -1 -1
 NAtoms=     17 NQM=       17 NQMF=       0 NMMI=      0 NMMIF=      0
                NMic=       0 NMicF=      0.
                    Isotopes and Nuclear Properties:
 (Nuclear quadrupole moments (NQMom) in fm**2, nuclear magnetic moments (NMagM)
  in nuclear magnetons)

  Atom         1           2           3           4           5           6           7           8           9          10
 IAtWgt=          16          16          12          12          12          12          12           1           1           1
 AtmWgt=  15.9949146  15.9949146  12.0000000  12.0000000  12.0000000  12.0000000  12.0000000   1.0078250   1.0078250   1.0078250
 NucSpn=           0           0           0           0           0           0           0           1           1           1
 AtZEff=  -0.0000000  -0.0000000  -0.0000000  -0.0000000  -0.0000000  -0.0000000  -0.0000000  -0.0000000  -0.0000000  -0.0000000
 NQMom=    0.0000000   0.0000000   0.0000000   0.0000000   0.0000000   0.0000000   0.0000000   0.0000000   0.0000000   0.0000000
 NMagM=    0.0000000   0.0000000   0.0000000   0.0000000   0.0000000   0.0000000   0.0000000   2.7928460   2.7928460   2.7928460
 AtZNuc=   8.0000000   8.0000000   6.0000000   6.0000000   6.0000000   6.0000000   6.0000000   1.0000000   1.0000000   1.0000000

  Atom        11          12          13          14          15          16          17
 IAtWgt=           1           1           1           1           1           1           1
 AtmWgt=   1.0078250   1.0078250   1.0078250   1.0078250   1.0078250   1.0078250   1.0078250
 NucSpn=           1           1           1           1           1           1           1
 AtZEff=  -0.0000000  -0.0000000  -0.0000000  -0.0000000  -0.0000000  -0.0000000  -0.0000000
 NQMom=    0.0000000   0.0000000   0.0000000   0.0000000   0.0000000   0.0000000   0.0000000
 NMagM=    2.7928460   2.7928460   2.7928460   2.7928460   2.7928460   2.7928460   2.7928460
 AtZNuc=   1.0000000   1.0000000   1.0000000   1.0000000   1.0000000   1.0000000   1.0000000
 Leave Link  101 at Sun Sep 29 00:59:10 2019, MaxMem=   671088640 cpu:               3.0 elap:               1.5
 (Enter /shared/centos7/gaussian/g16/l103.exe)

 GradGradGradGradGradGradGradGradGradGradGradGradGradGradGradGradGradGrad
 Berny optimization.
 Initialization pass.
                           ----------------------------
                           !    Initial Parameters    !
                           ! (Angstroms and Degrees)  !
 --------------------------                            --------------------------
 ! Name  Definition              Value          Derivative Info.                !
 --------------------------------------------------------------------------------
 ! R1    R(1,3)                  1.412          calculate D2E/DX2 analytically  !
 ! R2    R(1,6)                  1.3762         calculate D2E/DX2 analytically  !
 ! R3    R(2,7)                  1.3869         calculate D2E/DX2 analytically  !
 ! R4    R(2,17)                 1.0009         calculate D2E/DX2 analytically  !
 ! R5    R(3,4)                  1.5287         calculate D2E/DX2 analytically  !
 ! R6    R(3,5)                  1.4933         calculate D2E/DX2 analytically  !
 ! R7    R(3,8)                  1.1253         calculate D2E/DX2 analytically  !
 ! R8    R(4,9)                  1.1101         calculate D2E/DX2 analytically  !
 ! R9    R(4,10)                 1.1052         calculate D2E/DX2 analytically  !
 ! R10   R(4,11)                 1.1237         calculate D2E/DX2 analytically  !
 ! R11   R(5,12)                 1.1299         calculate D2E/DX2 analytically  !
 ! R12   R(5,13)                 1.11           calculate D2E/DX2 analytically  !
 ! R13   R(5,14)                 1.1267         calculate D2E/DX2 analytically  !
 ! R14   R(6,7)                  1.3016         calculate D2E/DX2 analytically  !
 ! R15   R(6,15)                 1.1017         calculate D2E/DX2 analytically  !
 ! R16   R(7,16)                 1.08           calculate D2E/DX2 analytically  !
 ! A1    A(3,1,6)              111.4526         calculate D2E/DX2 analytically  !
 ! A2    A(7,2,17)             107.5204         calculate D2E/DX2 analytically  !
 ! A3    A(1,3,4)              110.9944         calculate D2E/DX2 analytically  !
 ! A4    A(1,3,5)              112.2288         calculate D2E/DX2 analytically  !
 ! A5    A(1,3,8)              103.8738         calculate D2E/DX2 analytically  !
 ! A6    A(4,3,5)              115.4787         calculate D2E/DX2 analytically  !
 ! A7    A(4,3,8)              106.4029         calculate D2E/DX2 analytically  !
 ! A8    A(5,3,8)              106.9193         calculate D2E/DX2 analytically  !
 ! A9    A(3,4,9)              111.2874         calculate D2E/DX2 analytically  !
 ! A10   A(3,4,10)             109.2924         calculate D2E/DX2 analytically  !
 ! A11   A(3,4,11)             112.5776         calculate D2E/DX2 analytically  !
 ! A12   A(9,4,10)             107.9515         calculate D2E/DX2 analytically  !
 ! A13   A(9,4,11)             107.8191         calculate D2E/DX2 analytically  !
 ! A14   A(10,4,11)            107.7464         calculate D2E/DX2 analytically  !
 ! A15   A(3,5,12)             114.0663         calculate D2E/DX2 analytically  !
 ! A16   A(3,5,13)             110.6749         calculate D2E/DX2 analytically  !
 ! A17   A(3,5,14)             110.9199         calculate D2E/DX2 analytically  !
 ! A18   A(12,5,13)            108.1134         calculate D2E/DX2 analytically  !
 ! A19   A(12,5,14)            105.4829         calculate D2E/DX2 analytically  !
 ! A20   A(13,5,14)            107.2336         calculate D2E/DX2 analytically  !
 ! A21   A(1,6,7)              120.8574         calculate D2E/DX2 analytically  !
 ! A22   A(1,6,15)             114.3898         calculate D2E/DX2 analytically  !
 ! A23   A(7,6,15)             124.7505         calculate D2E/DX2 analytically  !
 ! A24   A(2,7,6)              125.0845         calculate D2E/DX2 analytically  !
 ! A25   A(2,7,16)             111.7977         calculate D2E/DX2 analytically  !
 ! A26   A(6,7,16)             123.1058         calculate D2E/DX2 analytically  !
 ! D1    D(6,1,3,4)             66.8365         calculate D2E/DX2 analytically  !
 ! D2    D(6,1,3,5)            -64.0518         calculate D2E/DX2 analytically  !
 ! D3    D(6,1,3,8)           -179.1883         calculate D2E/DX2 analytically  !
 ! D4    D(3,1,6,7)            130.7463         calculate D2E/DX2 analytically  !
 ! D5    D(3,1,6,15)           -49.7888         calculate D2E/DX2 analytically  !
 ! D6    D(17,2,7,6)             8.6316         calculate D2E/DX2 analytically  !
 ! D7    D(17,2,7,16)         -172.5985         calculate D2E/DX2 analytically  !
 ! D8    D(1,3,4,9)            -14.239          calculate D2E/DX2 analytically  !
 ! D9    D(1,3,4,10)           104.8947         calculate D2E/DX2 analytically  !
 ! D10   D(1,3,4,11)          -135.4162         calculate D2E/DX2 analytically  !
 ! D11   D(5,3,4,9)            114.9385         calculate D2E/DX2 analytically  !
 ! D12   D(5,3,4,10)          -125.9279         calculate D2E/DX2 analytically  !
 ! D13   D(5,3,4,11)            -6.2388         calculate D2E/DX2 analytically  !
 ! D14   D(8,3,4,9)           -126.6158         calculate D2E/DX2 analytically  !
 ! D15   D(8,3,4,10)            -7.4821         calculate D2E/DX2 analytically  !
 ! D16   D(8,3,4,11)           112.2069         calculate D2E/DX2 analytically  !
 ! D17   D(1,3,5,12)           111.1347         calculate D2E/DX2 analytically  !
 ! D18   D(1,3,5,13)           -11.038          calculate D2E/DX2 analytically  !
 ! D19   D(1,3,5,14)          -129.9366         calculate D2E/DX2 analytically  !
 ! D20   D(4,3,5,12)           -17.4361         calculate D2E/DX2 analytically  !
 ! D21   D(4,3,5,13)          -139.6087         calculate D2E/DX2 analytically  !
 ! D22   D(4,3,5,14)           101.4926         calculate D2E/DX2 analytically  !
 ! D23   D(8,3,5,12)          -135.5949         calculate D2E/DX2 analytically  !
 ! D24   D(8,3,5,13)           102.2325         calculate D2E/DX2 analytically  !
 ! D25   D(8,3,5,14)           -16.6662         calculate D2E/DX2 analytically  !
 ! D26   D(1,6,7,2)           -179.2657         calculate D2E/DX2 analytically  !
 ! D27   D(1,6,7,16)             2.0979         calculate D2E/DX2 analytically  !
 ! D28   D(15,6,7,2)             1.3274         calculate D2E/DX2 analytically  !
 ! D29   D(15,6,7,16)         -177.3091         calculate D2E/DX2 analytically  !
 --------------------------------------------------------------------------------
 Trust Radius=3.00D-01 FncErr=1.00D-07 GrdErr=1.00D-06 EigMax=2.50D+02 EigMin=1.00D-04
 Number of steps in this run=    102 maximum allowed number of steps=    102.
 GradGradGradGradGradGradGradGradGradGradGradGradGradGradGradGradGradGrad

 Leave Link  103 at Sun Sep 29 00:59:11 2019, MaxMem=   671088640 cpu:               1.7 elap:               0.9
 (Enter /shared/centos7/gaussian/g16/l202.exe)
                          Input orientation:                          
 ---------------------------------------------------------------------
 Center     Atomic      Atomic             Coordinates (Angstroms)
 Number     Number       Type             X           Y           Z
 ---------------------------------------------------------------------
      1          8           0        1.201899   -2.919544    0.580386
      2          8           0        2.722269   -0.070153    2.253806
      3          6           0       -0.159154   -2.956715    0.206181
      4          6           0       -0.372702   -2.285364   -1.150542
      5          6           0       -1.059430   -2.490269    1.302539
      6          6           0        1.621756   -1.631925    0.824626
      7          6           0        2.272002   -1.336873    1.912825
      8          1           0       -0.367613   -4.052175    0.054989
      9          1           0        0.514224   -1.688147   -1.448714
     10          1           0       -0.535273   -3.061460   -1.920433
     11          1           0       -1.265296   -1.602835   -1.158420
     12          1           0       -1.566941   -1.502690    1.093239
     13          1           0       -0.499086   -2.395076    2.255968
     14          1           0       -1.894338   -3.226256    1.478075
     15          1           0        1.367629   -0.912146    0.030224
     16          1           0        2.543889   -2.072497    2.655361
     17          1           0        2.335246    0.575019    1.593693
 ---------------------------------------------------------------------
                    Distance matrix (angstroms):
                    1          2          3          4          5
     1  O    0.000000
     2  O    3.637428   0.000000
     3  C    1.412047   4.563727   0.000000
     4  C    2.424390   5.106426   1.528729   0.000000
     5  C    2.412342   4.589457   1.493342   2.555619   0.000000
     6  C    1.376189   2.385962   2.304166   2.882037   2.855506
     7  C    2.329240   1.386935   3.383347   4.156719   3.577878
     8  H    2.005558   5.498968   1.125320   2.138914   2.115311
     9  H    2.471129   4.604565   2.191204   1.110050   3.269430
    10  H    3.048279   6.081427   2.162157   1.105209   3.314898
    11  H    3.293057   5.467456   2.217809   1.123668   2.624165
    12  H    3.152296   4.668661   2.209734   2.659575   1.129905
    13  H    2.444584   3.972706   2.152352   3.410619   1.109989
    14  H    3.238303   5.645866   2.168232   3.179667   1.126748
    15  H    2.088011   2.736479   2.557789   2.511710   3.162257
    16  H    2.612268   2.049987   3.753234   4.799657   3.871507
    17  H    3.810936   1.000891   4.540965   4.800583   4.583076
                    6          7          8          9         10
     6  C    0.000000
     7  C    1.301558   0.000000
     8  H    3.226071   4.218054   0.000000
     9  H    2.529400   3.809609   2.937241   0.000000
    10  H    3.772492   5.054588   2.216285   1.791633   0.000000
    11  H    3.502626   4.692095   2.877058   1.805059   1.800329
    12  H    3.202599   3.928956   3.002703   3.290466   3.546311
    13  H    2.670039   2.986045   2.758182   3.905280   4.229385
    14  H    3.915585   4.595342   2.244594   4.090604   3.663887
    15  H    1.101697   2.131307   3.587681   1.875563   3.470684
    16  H    2.096669   1.080011   4.376973   4.594637   5.603318
    17  H    2.443590   1.939376   5.575300   4.206457   5.814889
                   11         12         13         14         15
    11  H    0.000000
    12  H    2.273981   0.000000
    13  H    3.587864   1.813451   0.000000
    14  H    3.159477   1.796098   1.800752   0.000000
    15  H    2.970222   3.176546   3.261539   4.253446   0.000000
    16  H    5.410674   4.434391   3.085979   4.734451   3.101829
    17  H    5.028029   4.449089   4.158546   5.687921   2.364821
                   16         17
    16  H    0.000000
    17  H    2.860071   0.000000
 Stoichiometry    C5H10O2
 Framework group  C1[X(C5H10O2)]
 Deg. of freedom    45
 Full point group                 C1      NOp   1
 Largest Abelian subgroup         C1      NOp   1
 Largest concise Abelian subgroup C1      NOp   1
                         Standard orientation:                         
 ---------------------------------------------------------------------
 Center     Atomic      Atomic             Coordinates (Angstroms)
 Number     Number       Type             X           Y           Z
 ---------------------------------------------------------------------
      1          8           0        0.323997   -0.186295   -1.021834
      2          8           0       -2.984667   -0.023367    0.480525
      3          6           0        1.505897    0.132960   -0.318224
      4          6           0        2.013094   -1.071200    0.475352
      5          6           0        1.377129    1.403942    0.455141
      6          6           0       -0.723176   -0.429362   -0.162623
      7          6           0       -1.877370    0.146316   -0.337210
      8          1           0        2.261738    0.319212   -1.130850
      9          1           0        1.236704   -1.861115    0.549289
     10          1           0        2.891030   -1.503491   -0.038300
     11          1           0        2.326905   -0.798706    1.519334
     12          1           0        1.367713    1.262293    1.576093
     13          1           0        0.451704    1.945400    0.167939
     14          1           0        2.244796    2.091719    0.246152
     15          1           0       -0.491803   -1.139702    0.647080
     16          1           0       -2.087849    0.806854   -1.165348
     17          1           0       -2.689025   -0.541101    1.284472
 ---------------------------------------------------------------------
 Rotational constants (GHZ):           5.1801707           1.3710944           1.2959533
 Leave Link  202 at Sun Sep 29 00:59:12 2019, MaxMem=   671088640 cpu:               3.1 elap:               1.6
 (Enter /shared/centos7/gaussian/g16/l301.exe)
 Standard basis: CC-pVTZ (5D, 7F)
 Ernie: Thresh=  0.10000D-02 Tol=  0.10000D-05 Strict=F.
 Ernie:  21 primitive shells out of 262 were deleted.
 There are   395 symmetry adapted cartesian basis functions of A   symmetry.
 There are   350 symmetry adapted basis functions of A   symmetry.
   350 basis functions,   534 primitive gaussians,   395 cartesian basis functions
    28 alpha electrons       28 beta electrons
       nuclear repulsion energy       314.1305645144 Hartrees.
 IExCor= 4336 DFT=T Ex+Corr=M062X ExCW=0 ScaHFX=  0.540000
 ScaDFX=  1.000000  1.000000  1.000000  1.000000 ScalE2=  1.000000  1.000000
 IRadAn=      5 IRanWt=     -1 IRanGd=            0 ICorTp=0 IEmpDi=  4
 NAtoms=   17 NActive=   17 NUniq=   17 SFac= 1.00D+00 NAtFMM=   60 NAOKFM=F Big=F
 Integral buffers will be    131072 words long.
 Raffenetti 2 integral format.
 Two-electron integral symmetry is turned on.
 Leave Link  301 at Sun Sep 29 00:59:13 2019, MaxMem=   671088640 cpu:               1.9 elap:               1.0
 (Enter /shared/centos7/gaussian/g16/l302.exe)
 NPDir=0 NMtPBC=     1 NCelOv=     1 NCel=       1 NClECP=     1 NCelD=      1
         NCelK=      1 NCelE2=     1 NClLst=     1 CellRange=     0.0.
 One-electron integrals computed using PRISM.
 One-electron integral symmetry used in STVInt
 NBasis=   350 RedAO= T EigKep=  2.20D-04  NBF=   350
 NBsUse=   350 1.00D-06 EigRej= -1.00D+00 NBFU=   350
 Precomputing XC quadrature grid using
 IXCGrd= 4 IRadAn=           5 IRanWt=          -1 IRanGd=           0 AccXCQ= 0.00D+00.
 Generated NRdTot=       0 NPtTot=           0 NUsed=           0 NTot=          32
 NSgBfM=   395   395   395   395   395 MxSgAt=    17 MxSgA2=    17.
 Leave Link  302 at Sun Sep 29 01:00:39 2019, MaxMem=   671088640 cpu:             170.9 elap:              85.5
 (Enter /shared/centos7/gaussian/g16/l303.exe)
 DipDrv:  MaxL=1.
 Leave Link  303 at Sun Sep 29 01:00:43 2019, MaxMem=   671088640 cpu:               8.6 elap:               4.3
 (Enter /shared/centos7/gaussian/g16/l401.exe)
 ExpMin= 1.03D-01 ExpMax= 1.53D+04 ExpMxC= 5.22D+02 IAcc=3 IRadAn=         5 AccDes= 0.00D+00
 Harris functional with IExCor= 1009 and IRadAn=       5 diagonalized for initial guess.
 HarFok:  IExCor= 1009 AccDes= 0.00D+00 IRadAn=         5 IDoV= 1 UseB2=F ITyADJ=14
 ICtDFT=  3500011 ScaDFX=  1.000000  1.000000  1.000000  1.000000
 FoFCou: FMM=F IPFlag=           0 FMFlag=      100000 FMFlg1=           0
         NFxFlg=           0 DoJE=T BraDBF=F KetDBF=T FulRan=T
         wScrn=  0.000000 ICntrl=       500 IOpCl=  0 I1Cent=   200000004 NGrid=           0
         NMat0=    1 NMatS0=      1 NMatT0=    0 NMatD0=    1 NMtDS0=    0 NMtDT0=    0
 Petite list used in FoFCou.
 Harris En= -346.801864717186    
 JPrj=0 DoOrth=F DoCkMO=F.
 Leave Link  401 at Sun Sep 29 01:01:23 2019, MaxMem=   671088640 cpu:              80.8 elap:              40.5
 (Enter /shared/centos7/gaussian/g16/l502.exe)
 Integral symmetry usage will be decided dynamically.
 Closed shell SCF:
 Using DIIS extrapolation, IDIIS=  1040.
 NGot=   671088640 LenX=   670765141 LenY=   670608675
 Requested convergence on RMS density matrix=1.00D-08 within 900 cycles.
 Requested convergence on MAX density matrix=1.00D-06.
 Requested convergence on             energy=1.00D-06.
 No special actions if energy rises.
 Fock matrices will be formed incrementally for  20 cycles.
 Integral accuracy reduced to 1.0D-05 until final iterations.

 Cycle   1  Pass 0  IDiag  1:
 FoFJK:  IHMeth= 1 ICntrl=       0 DoSepK=F KAlg= 0 I1Cent=           0 FoldK=F
 IRaf= 950000000 NMat=       1 IRICut=       1 DoRegI=T DoRafI=F ISym2E= 0 IDoP0=0 IntGTp=1.
 FoFCou: FMM=F IPFlag=           0 FMFlag=      100000 FMFlg1=           0
         NFxFlg=           0 DoJE=F BraDBF=F KetDBF=F FulRan=T
         wScrn=  0.000000 ICntrl=         0 IOpCl=  0 I1Cent=           0 NGrid=           0
         NMat0=    1 NMatS0=      1 NMatT0=    0 NMatD0=    1 NMtDS0=    0 NMtDT0=    0
 Symmetry not used in FoFCou.
 E= -346.691911129163    
 DIIS: error= 2.39D-02 at cycle   1 NSaved=   1.
 NSaved= 1 IEnMin= 1 EnMin= -346.691911129163     IErMin= 1 ErrMin= 2.39D-02
 ErrMax= 2.39D-02  0.00D+00 EMaxC= 1.00D-01 BMatC= 2.84D-01 BMatP= 2.84D-01
 IDIUse=3 WtCom= 7.61D-01 WtEn= 2.39D-01
 Coeff-Com:  0.100D+01
 Coeff-En:   0.100D+01
 Coeff:      0.100D+01
 Gap=     0.342 Goal=   None    Shift=    0.000
 GapD=    0.342 DampG=1.000 DampE=0.500 DampFc=0.5000 IDamp=-1.
 Damping current iteration by 5.00D-01
 RMSDP=1.90D-03 MaxDP=9.29D-02              OVMax= 1.37D-01

 Cycle   2  Pass 0  IDiag  1:
 RMSU=  9.52D-04    CP:  9.98D-01
 E= -346.810680613703     Delta-E=       -0.118769484540 Rises=F Damp=T
 DIIS: error= 4.82D-03 at cycle   2 NSaved=   2.
 NSaved= 2 IEnMin= 2 EnMin= -346.810680613703     IErMin= 2 ErrMin= 4.82D-03
 ErrMax= 4.82D-03  0.00D+00 EMaxC= 1.00D-01 BMatC= 2.11D-02 BMatP= 2.84D-01
 IDIUse=3 WtCom= 9.52D-01 WtEn= 4.82D-02
 Coeff-Com: -0.139D+00 0.114D+01
 Coeff-En:   0.000D+00 0.100D+01
 Coeff:     -0.132D+00 0.113D+01
 Gap=     0.338 Goal=   None    Shift=    0.000
 RMSDP=4.35D-04 MaxDP=1.59D-02 DE=-1.19D-01 OVMax= 7.40D-02

 Cycle   3  Pass 0  IDiag  1:
 RMSU=  4.34D-04    CP:  1.00D+00  1.00D+00
 E= -346.917000632434     Delta-E=       -0.106320018731 Rises=F Damp=F
 DIIS: error= 2.31D-03 at cycle   3 NSaved=   3.
 NSaved= 3 IEnMin= 3 EnMin= -346.917000632434     IErMin= 3 ErrMin= 2.31D-03
 ErrMax= 2.31D-03  0.00D+00 EMaxC= 1.00D-01 BMatC= 2.84D-03 BMatP= 2.11D-02
 IDIUse=3 WtCom= 9.77D-01 WtEn= 2.31D-02
 Coeff-Com: -0.778D-01 0.282D+00 0.796D+00
 Coeff-En:   0.000D+00 0.000D+00 0.100D+01
 Coeff:     -0.760D-01 0.275D+00 0.801D+00
 Gap=     0.337 Goal=   None    Shift=    0.000
 RMSDP=1.11D-04 MaxDP=4.12D-03 DE=-1.06D-01 OVMax= 9.33D-03

 Cycle   4  Pass 0  IDiag  1:
 RMSU=  9.54D-05    CP:  1.00D+00  1.06D+00  9.37D-01
 E= -346.918554231178     Delta-E=       -0.001553598745 Rises=F Damp=F
 DIIS: error= 1.02D-03 at cycle   4 NSaved=   4.
 NSaved= 4 IEnMin= 4 EnMin= -346.918554231178     IErMin= 4 ErrMin= 1.02D-03
 ErrMax= 1.02D-03  0.00D+00 EMaxC= 1.00D-01 BMatC= 7.59D-04 BMatP= 2.84D-03
 IDIUse=3 WtCom= 9.90D-01 WtEn= 1.02D-02
 Coeff-Com: -0.258D-01 0.675D-01 0.388D+00 0.571D+00
 Coeff-En:   0.000D+00 0.000D+00 0.148D+00 0.852D+00
 Coeff:     -0.256D-01 0.668D-01 0.385D+00 0.574D+00
 Gap=     0.334 Goal=   None    Shift=    0.000
 RMSDP=4.26D-05 MaxDP=1.85D-03 DE=-1.55D-03 OVMax= 4.55D-03

 Cycle   5  Pass 0  IDiag  1:
 RMSU=  2.41D-05    CP:  1.00D+00  1.06D+00  9.66D-01  6.55D-01
 E= -346.919101895763     Delta-E=       -0.000547664584 Rises=F Damp=F
 DIIS: error= 2.39D-04 at cycle   5 NSaved=   5.
 NSaved= 5 IEnMin= 5 EnMin= -346.919101895763     IErMin= 5 ErrMin= 2.39D-04
 ErrMax= 2.39D-04  0.00D+00 EMaxC= 1.00D-01 BMatC= 2.37D-05 BMatP= 7.59D-04
 IDIUse=3 WtCom= 9.98D-01 WtEn= 2.39D-03
 Coeff-Com: -0.448D-02 0.842D-02 0.958D-01 0.218D+00 0.683D+00
 Coeff-En:   0.000D+00 0.000D+00 0.000D+00 0.000D+00 0.100D+01
 Coeff:     -0.447D-02 0.840D-02 0.956D-01 0.217D+00 0.683D+00
 Gap=     0.334 Goal=   None    Shift=    0.000
 RMSDP=1.07D-05 MaxDP=2.94D-04 DE=-5.48D-04 OVMax= 9.39D-04

 Cycle   6  Pass 0  IDiag  1:
 RMSU=  8.26D-06    CP:  1.00D+00  1.05D+00  9.74D-01  6.87D-01  8.28D-01
 E= -346.919118560899     Delta-E=       -0.000016665136 Rises=F Damp=F
 DIIS: error= 5.06D-05 at cycle   6 NSaved=   6.
 NSaved= 6 IEnMin= 6 EnMin= -346.919118560899     IErMin= 6 ErrMin= 5.06D-05
 ErrMax= 5.06D-05  0.00D+00 EMaxC= 1.00D-01 BMatC= 1.70D-06 BMatP= 2.37D-05
 IDIUse=1 WtCom= 1.00D+00 WtEn= 0.00D+00
 Coeff-Com:  0.134D-03-0.141D-02 0.122D-01 0.513D-01 0.257D+00 0.681D+00
 Coeff:      0.134D-03-0.141D-02 0.122D-01 0.513D-01 0.257D+00 0.681D+00
 Gap=     0.334 Goal=   None    Shift=    0.000
 RMSDP=3.17D-06 MaxDP=1.11D-04 DE=-1.67D-05 OVMax= 5.59D-04

 Initial convergence to 1.0D-05 achieved.  Increase integral accuracy.
 Cycle   7  Pass 1  IDiag  1:
 E= -346.919130049199     Delta-E=       -0.000011488300 Rises=F Damp=F
 DIIS: error= 2.34D-05 at cycle   1 NSaved=   1.
 NSaved= 1 IEnMin= 1 EnMin= -346.919130049199     IErMin= 1 ErrMin= 2.34D-05
 ErrMax= 2.34D-05  0.00D+00 EMaxC= 1.00D-01 BMatC= 7.58D-07 BMatP= 7.58D-07
 IDIUse=1 WtCom= 1.00D+00 WtEn= 0.00D+00
 Coeff-Com:  0.100D+01
 Coeff:      0.100D+01
 Gap=     0.334 Goal=   None    Shift=    0.000
 RMSDP=3.17D-06 MaxDP=1.11D-04 DE=-1.15D-05 OVMax= 4.20D-04

 Cycle   8  Pass 1  IDiag  1:
 RMSU=  8.70D-06    CP:  1.00D+00
 E= -346.919130179541     Delta-E=       -0.000000130342 Rises=F Damp=F
 DIIS: error= 2.66D-05 at cycle   2 NSaved=   2.
 NSaved= 2 IEnMin= 2 EnMin= -346.919130179541     IErMin= 1 ErrMin= 2.34D-05
 ErrMax= 2.66D-05  0.00D+00 EMaxC= 1.00D-01 BMatC= 4.22D-07 BMatP= 7.58D-07
 IDIUse=1 WtCom= 1.00D+00 WtEn= 0.00D+00
 Coeff-Com:  0.405D+00 0.595D+00
 Coeff:      0.405D+00 0.595D+00
 Gap=     0.334 Goal=   None    Shift=    0.000
 RMSDP=1.70D-06 MaxDP=6.58D-05 DE=-1.30D-07 OVMax= 3.63D-04

 Cycle   9  Pass 1  IDiag  1:
 RMSU=  1.70D-06    CP:  1.00D+00  1.00D+00
 E= -346.919130492930     Delta-E=       -0.000000313389 Rises=F Damp=F
 DIIS: error= 1.11D-05 at cycle   3 NSaved=   3.
 NSaved= 3 IEnMin= 3 EnMin= -346.919130492930     IErMin= 3 ErrMin= 1.11D-05
 ErrMax= 1.11D-05  0.00D+00 EMaxC= 1.00D-01 BMatC= 7.82D-08 BMatP= 4.22D-07
 IDIUse=1 WtCom= 1.00D+00 WtEn= 0.00D+00
 Coeff-Com: -0.115D-01 0.295D+00 0.717D+00
 Coeff:     -0.115D-01 0.295D+00 0.717D+00
 Gap=     0.334 Goal=   None    Shift=    0.000
 RMSDP=6.24D-07 MaxDP=1.83D-05 DE=-3.13D-07 OVMax= 1.06D-04

 Cycle  10  Pass 1  IDiag  1:
 RMSU=  3.16D-07    CP:  1.00D+00  1.04D+00  7.55D-01
 E= -346.919130558464     Delta-E=       -0.000000065534 Rises=F Damp=F
 DIIS: error= 1.69D-06 at cycle   4 NSaved=   4.
 NSaved= 4 IEnMin= 4 EnMin= -346.919130558464     IErMin= 4 ErrMin= 1.69D-06
 ErrMax= 1.69D-06  0.00D+00 EMaxC= 1.00D-01 BMatC= 2.32D-09 BMatP= 7.82D-08
 IDIUse=1 WtCom= 1.00D+00 WtEn= 0.00D+00
 Coeff-Com: -0.139D-01 0.127D+00 0.332D+00 0.555D+00
 Coeff:     -0.139D-01 0.127D+00 0.332D+00 0.555D+00
 Gap=     0.334 Goal=   None    Shift=    0.000
 RMSDP=8.75D-08 MaxDP=4.16D-06 DE=-6.55D-08 OVMax= 7.72D-06

 Cycle  11  Pass 1  IDiag  1:
 RMSU=  8.27D-08    CP:  1.00D+00  1.04D+00  7.62D-01  9.68D-01
 E= -346.919130560300     Delta-E=       -0.000000001836 Rises=F Damp=F
 DIIS: error= 2.87D-07 at cycle   5 NSaved=   5.
 NSaved= 5 IEnMin= 5 EnMin= -346.919130560300     IErMin= 5 ErrMin= 2.87D-07
 ErrMax= 2.87D-07  0.00D+00 EMaxC= 1.00D-01 BMatC= 8.60D-11 BMatP= 2.32D-09
 IDIUse=1 WtCom= 1.00D+00 WtEn= 0.00D+00
 Coeff-Com: -0.136D-02-0.814D-02-0.197D-01 0.114D+00 0.916D+00
 Coeff:     -0.136D-02-0.814D-02-0.197D-01 0.114D+00 0.916D+00
 Gap=     0.334 Goal=   None    Shift=    0.000
 RMSDP=4.29D-08 MaxDP=1.77D-06 DE=-1.84D-09 OVMax= 3.31D-06

 Cycle  12  Pass 1  IDiag  1:
 RMSU=  2.31D-08    CP:  1.00D+00  1.05D+00  7.62D-01  1.07D+00  1.05D+00
 E= -346.919130560383     Delta-E=       -0.000000000083 Rises=F Damp=F
 DIIS: error= 1.52D-07 at cycle   6 NSaved=   6.
 NSaved= 6 IEnMin= 6 EnMin= -346.919130560383     IErMin= 6 ErrMin= 1.52D-07
 ErrMax= 1.52D-07  0.00D+00 EMaxC= 1.00D-01 BMatC= 1.63D-11 BMatP= 8.60D-11
 IDIUse=1 WtCom= 1.00D+00 WtEn= 0.00D+00
 Coeff-Com:  0.863D-03-0.164D-01-0.432D-01-0.114D-01 0.377D+00 0.693D+00
 Coeff:      0.863D-03-0.164D-01-0.432D-01-0.114D-01 0.377D+00 0.693D+00
 Gap=     0.334 Goal=   None    Shift=    0.000
 RMSDP=1.12D-08 MaxDP=4.00D-07 DE=-8.32D-11 OVMax= 9.30D-07

 Cycle  13  Pass 1  IDiag  1:
 RMSU=  7.85D-09    CP:  1.00D+00  1.05D+00  7.62D-01  1.09D+00  1.09D+00
                    CP:  9.56D-01
 E= -346.919130560408     Delta-E=       -0.000000000025 Rises=F Damp=F
 DIIS: error= 2.92D-08 at cycle   7 NSaved=   7.
 NSaved= 7 IEnMin= 7 EnMin= -346.919130560408     IErMin= 7 ErrMin= 2.92D-08
 ErrMax= 2.92D-08  0.00D+00 EMaxC= 1.00D-01 BMatC= 9.83D-13 BMatP= 1.63D-11
 IDIUse=1 WtCom= 1.00D+00 WtEn= 0.00D+00
 Coeff-Com:  0.394D-03-0.487D-02-0.133D-01-0.125D-01 0.648D-01 0.238D+00
 Coeff-Com:  0.727D+00
 Coeff:      0.394D-03-0.487D-02-0.133D-01-0.125D-01 0.648D-01 0.238D+00
 Coeff:      0.727D+00
 Gap=     0.334 Goal=   None    Shift=    0.000
 RMSDP=3.03D-09 MaxDP=1.25D-07 DE=-2.55D-11 OVMax= 4.03D-07

 SCF Done:  E(RM062X) =  -346.919130560     A.U. after   13 cycles
            NFock= 13  Conv=0.30D-08     -V/T= 2.0061
 KE= 3.447999657905D+02 PE=-1.438239791410D+03 EE= 4.323901305443D+02
 Leave Link  502 at Sun Sep 29 01:15:39 2019, MaxMem=   671088640 cpu:            1709.9 elap:             855.5
 (Enter /shared/centos7/gaussian/g16/l801.exe)
 DoSCS=F DFT=T ScalE2(SS,OS)=  1.000000  1.000000
 Range of M.O.s used for correlation:     1   350
 NBasis=   350 NAE=    28 NBE=    28 NFC=     0 NFV=     0
 NROrb=    350 NOA=    28 NOB=    28 NVA=   322 NVB=   322

 **** Warning!!: The largest alpha MO coefficient is  0.17976064D+02

 Leave Link  801 at Sun Sep 29 01:15:40 2019, MaxMem=   671088640 cpu:               1.6 elap:               0.8
 (Enter /shared/centos7/gaussian/g16/l1101.exe)
 Using compressed storage, NAtomX=    17.
 Will process     18 centers per pass.
 Leave Link 1101 at Sun Sep 29 01:16:11 2019, MaxMem=   671088640 cpu:              63.3 elap:              31.7
 (Enter /shared/centos7/gaussian/g16/l1102.exe)
 Symmetrizing basis deriv contribution to polar:
 IMax=3 JMax=2 DiffMx= 0.00D+00
 Leave Link 1102 at Sun Sep 29 01:16:15 2019, MaxMem=   671088640 cpu:               6.1 elap:               3.1
 (Enter /shared/centos7/gaussian/g16/l1110.exe)
 Forming Gx(P) for the SCF density, NAtomX=    17.
 Integral derivatives from FoFJK, PRISM(SPDF).
 Do as many integral derivatives as possible in FoFJK.
 G2DrvN: MDV=     671087280.
 G2DrvN: will do    18 centers at a time, making    1 passes.
 Calling FoFCou, ICntrl=  3107 FMM=F I1Cent=   0 AccDes= 0.00D+00.
 FoFJK:  IHMeth= 1 ICntrl=    3107 DoSepK=F KAlg= 0 I1Cent=           0 FoldK=F
 IRaf=         0 NMat=       1 IRICut=       1 DoRegI=T DoRafI=F ISym2E= 0 IDoP0=0 IntGTp=1.
 FoFCou: FMM=F IPFlag=           0 FMFlag=      100000 FMFlg1=           0
         NFxFlg=           0 DoJE=F BraDBF=F KetDBF=F FulRan=T
         wScrn=  0.000000 ICntrl=      3107 IOpCl=  0 I1Cent=           0 NGrid=           0
         NMat0=    1 NMatS0=      1 NMatT0=    0 NMatD0=    1 NMtDS0=    0 NMtDT0=    0
 Symmetry not used in FoFCou.
 End of G2Drv F.D. properties file   721 does not exist.
 End of G2Drv F.D. properties file   722 does not exist.
 End of G2Drv F.D. properties file   788 does not exist.
 Leave Link 1110 at Sun Sep 29 01:41:17 2019, MaxMem=   671088640 cpu:            3004.0 elap:            1502.2
 (Enter /shared/centos7/gaussian/g16/l1002.exe)
 Minotr:  Closed shell wavefunction.
          IDoAtm=11111111111111111
          Direct CPHF calculation.
          Differentiating once with respect to nuclear coordinates.
          Requested convergence is 1.0D-08 RMS, and 1.0D-07 maximum.
          Secondary convergence is 1.0D-12 RMS, and 1.0D-12 maximum.
          NewPWx=T KeepS1=F KeepF1=F KeepIn=T MapXYZ=F SortEE=F KeepMc=T.
         5109 words used for storage of precomputed grid.
 Two-electron integrals replicated using symmetry.
          MDV=     671088640 using IRadAn=       1.
          Solving linear equations simultaneously, MaxMat=     380.
 FoF2E skips out because all densities are zero.
 CalDSu exits because no D1Ps are significant.
 FoFJK:  IHMeth= 1 ICntrl=       0 DoSepK=F KAlg= 0 I1Cent=           0 FoldK=F
 IRaf= 940000000 NMat=      51 IRICut=     127 DoRegI=T DoRafI=T ISym2E= 2 IDoP0=3 IntGTp=3.
 FoFCou: FMM=F IPFlag=           0 FMFlag=      100000 FMFlg1=           0
         NFxFlg=           0 DoJE=F BraDBF=F KetDBF=F FulRan=T
         wScrn=  0.000000 ICntrl=         0 IOpCl=  0 I1Cent=           0 NGrid=           0
         NMat0=   51 NMatS0=     51 NMatT0=    0 NMatD0=   51 NMtDS0=    0 NMtDT0=    0
 Integrals replicated using symmetry in FoFCou.
 Raff kept on since  91.00% of shell-pairs survive, threshold=   0.20 IRatSp=91.
          There are    54 degrees of freedom in the 1st order CPHF.  IDoFFX=6 NUNeed=     0.
     48 vectors produced by pass  0 Test12= 1.67D-14 1.85D-09 XBig12= 7.28D-02 4.70D-02.
 AX will form    48 AO Fock derivatives at one time.
     48 vectors produced by pass  1 Test12= 1.67D-14 1.85D-09 XBig12= 1.03D-02 2.08D-02.
     48 vectors produced by pass  2 Test12= 1.67D-14 1.85D-09 XBig12= 3.88D-04 2.33D-03.
     48 vectors produced by pass  3 Test12= 1.67D-14 1.85D-09 XBig12= 3.85D-06 2.13D-04.
     48 vectors produced by pass  4 Test12= 1.67D-14 1.85D-09 XBig12= 3.23D-08 1.91D-05.
     48 vectors produced by pass  5 Test12= 1.67D-14 1.85D-09 XBig12= 1.49D-10 1.25D-06.
     25 vectors produced by pass  6 Test12= 1.67D-14 1.85D-09 XBig12= 7.10D-13 9.57D-08.
      4 vectors produced by pass  7 Test12= 1.67D-14 1.85D-09 XBig12= 2.79D-15 4.38D-09.
 InvSVY:  IOpt=1 It=  1 EMax= 3.33D-16
 Solved reduced A of dimension   317 with    54 vectors.
 End of Minotr F.D. properties file   721 does not exist.
 End of Minotr F.D. properties file   722 does not exist.
 End of Minotr F.D. properties file   788 does not exist.
 Leave Link 1002 at Sun Sep 29 02:24:27 2019, MaxMem=   671088640 cpu:            5180.2 elap:            2590.5
 (Enter /shared/centos7/gaussian/g16/l601.exe)
 Copying SCF densities to generalized density rwf, IOpCl= 0 IROHF=0.

 **********************************************************************

            Population analysis using the SCF density.

 **********************************************************************

 Orbital symmetries:
       Occupied  (A) (A) (A) (A) (A) (A) (A) (A) (A) (A) (A) (A)
                 (A) (A) (A) (A) (A) (A) (A) (A) (A) (A) (A) (A)
                 (A) (A) (A) (A)
       Virtual   (A) (A) (A) (A) (A) (A) (A) (A) (A) (A) (A) (A)
                 (A) (A) (A) (A) (A) (A) (A) (A) (A) (A) (A) (A)
                 (A) (A) (A) (A) (A) (A) (A) (A) (A) (A) (A) (A)
                 (A) (A) (A) (A) (A) (A) (A) (A) (A) (A) (A) (A)
                 (A) (A) (A) (A) (A) (A) (A) (A) (A) (A) (A) (A)
                 (A) (A) (A) (A) (A) (A) (A) (A) (A) (A) (A) (A)
                 (A) (A) (A) (A) (A) (A) (A) (A) (A) (A) (A) (A)
                 (A) (A) (A) (A) (A) (A) (A) (A) (A) (A) (A) (A)
                 (A) (A) (A) (A) (A) (A) (A) (A) (A) (A) (A) (A)
                 (A) (A) (A) (A) (A) (A) (A) (A) (A) (A) (A) (A)
                 (A) (A) (A) (A) (A) (A) (A) (A) (A) (A) (A) (A)
                 (A) (A) (A) (A) (A) (A) (A) (A) (A) (A) (A) (A)
                 (A) (A) (A) (A) (A) (A) (A) (A) (A) (A) (A) (A)
                 (A) (A) (A) (A) (A) (A) (A) (A) (A) (A) (A) (A)
                 (A) (A) (A) (A) (A) (A) (A) (A) (A) (A) (A) (A)
                 (A) (A) (A) (A) (A) (A) (A) (A) (A) (A) (A) (A)
                 (A) (A) (A) (A) (A) (A) (A) (A) (A) (A) (A) (A)
                 (A) (A) (A) (A) (A) (A) (A) (A) (A) (A) (A) (A)
                 (A) (A) (A) (A) (A) (A) (A) (A) (A) (A) (A) (A)
                 (A) (A) (A) (A) (A) (A) (A) (A) (A) (A) (A) (A)
                 (A) (A) (A) (A) (A) (A) (A) (A) (A) (A) (A) (A)
                 (A) (A) (A) (A) (A) (A) (A) (A) (A) (A) (A) (A)
                 (A) (A) (A) (A) (A) (A) (A) (A) (A) (A) (A) (A)
                 (A) (A) (A) (A) (A) (A) (A) (A) (A) (A) (A) (A)
                 (A) (A) (A) (A) (A) (A) (A) (A) (A) (A) (A) (A)
                 (A) (A) (A) (A) (A) (A) (A) (A) (A) (A) (A) (A)
                 (A) (A) (A) (A) (A) (A) (A) (A) (A) (A)
 The electronic state is 1-A.
 Alpha  occ. eigenvalues --  -19.65008 -19.63809 -10.59577 -10.58607 -10.57657
 Alpha  occ. eigenvalues --  -10.53762 -10.53393  -1.18284  -1.16255  -0.89191
 Alpha  occ. eigenvalues --   -0.83634  -0.78687  -0.70806  -0.65918  -0.60505
 Alpha  occ. eigenvalues --   -0.56676  -0.55204  -0.51276  -0.50641  -0.47755
 Alpha  occ. eigenvalues --   -0.46544  -0.45921  -0.44279  -0.43064  -0.41653
 Alpha  occ. eigenvalues --   -0.38206  -0.36241  -0.27778
 Alpha virt. eigenvalues --    0.05651   0.06196   0.07165   0.09341   0.10219
 Alpha virt. eigenvalues --    0.11295   0.12502   0.14766   0.15473   0.15947
 Alpha virt. eigenvalues --    0.17671   0.20205   0.21263   0.23519   0.26323
 Alpha virt. eigenvalues --    0.26824   0.28873   0.30082   0.31329   0.33111
 Alpha virt. eigenvalues --    0.34706   0.36234   0.37968   0.38735   0.40171
 Alpha virt. eigenvalues --    0.41827   0.43521   0.44658   0.45737   0.45832
 Alpha virt. eigenvalues --    0.46767   0.47615   0.47994   0.48694   0.50371
 Alpha virt. eigenvalues --    0.51371   0.52630   0.52744   0.53286   0.54264
 Alpha virt. eigenvalues --    0.54889   0.56806   0.57038   0.59685   0.62064
 Alpha virt. eigenvalues --    0.64389   0.65366   0.68049   0.70908   0.71749
 Alpha virt. eigenvalues --    0.72751   0.76823   0.77444   0.82216   0.82778
 Alpha virt. eigenvalues --    0.83499   0.86098   0.87648   0.89555   0.90636
 Alpha virt. eigenvalues --    0.91626   0.94473   0.96051   0.96970   0.98789
 Alpha virt. eigenvalues --    0.99265   1.01805   1.03466   1.06391   1.07599
 Alpha virt. eigenvalues --    1.07984   1.09485   1.09770   1.10491   1.12374
 Alpha virt. eigenvalues --    1.14783   1.15867   1.17064   1.18330   1.18836
 Alpha virt. eigenvalues --    1.20855   1.21731   1.22732   1.24540   1.25949
 Alpha virt. eigenvalues --    1.29944   1.30413   1.32390   1.33284   1.34126
 Alpha virt. eigenvalues --    1.34699   1.36542   1.39480   1.40571   1.41068
 Alpha virt. eigenvalues --    1.42599   1.42753   1.44752   1.48428   1.51467
 Alpha virt. eigenvalues --    1.52574   1.53910   1.54775   1.59675   1.60229
 Alpha virt. eigenvalues --    1.62255   1.63520   1.69208   1.80849   1.83808
 Alpha virt. eigenvalues --    1.87471   1.91322   1.96391   1.99011   2.01411
 Alpha virt. eigenvalues --    2.07696   2.10077   2.14936   2.15998   2.19632
 Alpha virt. eigenvalues --    2.24899   2.27225   2.30327   2.32254   2.33281
 Alpha virt. eigenvalues --    2.34597   2.39546   2.41059   2.45436   2.45846
 Alpha virt. eigenvalues --    2.48657   2.50642   2.54043   2.54711   2.60045
 Alpha virt. eigenvalues --    2.61048   2.63017   2.64827   2.65998   2.67248
 Alpha virt. eigenvalues --    2.69005   2.70610   2.73573   2.78236   2.79847
 Alpha virt. eigenvalues --    2.80529   2.81365   2.82912   2.83494   2.85558
 Alpha virt. eigenvalues --    2.87955   2.89591   2.90255   2.91652   2.93202
 Alpha virt. eigenvalues --    2.93891   2.94193   2.96789   2.97916   2.98871
 Alpha virt. eigenvalues --    3.00585   3.02758   3.03426   3.04872   3.05113
 Alpha virt. eigenvalues --    3.07152   3.08908   3.09849   3.11337   3.14142
 Alpha virt. eigenvalues --    3.15733   3.16873   3.19180   3.20655   3.23257
 Alpha virt. eigenvalues --    3.23329   3.25861   3.27756   3.29604   3.30507
 Alpha virt. eigenvalues --    3.32249   3.32871   3.33714   3.35421   3.37704
 Alpha virt. eigenvalues --    3.38524   3.39718   3.40702   3.42498   3.43605
 Alpha virt. eigenvalues --    3.44643   3.45248   3.46216   3.47678   3.50772
 Alpha virt. eigenvalues --    3.52552   3.55953   3.58340   3.59704   3.61275
 Alpha virt. eigenvalues --    3.62171   3.63155   3.65031   3.67523   3.69597
 Alpha virt. eigenvalues --    3.71632   3.73421   3.75735   3.76845   3.78217
 Alpha virt. eigenvalues --    3.80107   3.81105   3.83056   3.85343   3.87304
 Alpha virt. eigenvalues --    3.88060   3.88786   3.90861   3.91981   3.92429
 Alpha virt. eigenvalues --    3.94759   3.95800   3.96962   3.99700   4.01234
 Alpha virt. eigenvalues --    4.01874   4.02520   4.05190   4.05940   4.06598
 Alpha virt. eigenvalues --    4.08220   4.10472   4.13015   4.15773   4.16306
 Alpha virt. eigenvalues --    4.18796   4.19139   4.22710   4.23478   4.24705
 Alpha virt. eigenvalues --    4.29001   4.30312   4.33195   4.36929   4.41942
 Alpha virt. eigenvalues --    4.44635   4.48006   4.48346   4.54349   4.55753
 Alpha virt. eigenvalues --    4.58043   4.59745   4.63829   4.66656   4.69835
 Alpha virt. eigenvalues --    4.72363   4.74183   4.76070   4.78788   4.79658
 Alpha virt. eigenvalues --    4.85347   4.85849   4.87907   4.88096   4.91489
 Alpha virt. eigenvalues --    4.93892   4.98205   4.99601   4.99867   5.03857
 Alpha virt. eigenvalues --    5.06410   5.07604   5.10368   5.13278   5.17341
 Alpha virt. eigenvalues --    5.20184   5.23235   5.23778   5.25566   5.27962
 Alpha virt. eigenvalues --    5.29027   5.30238   5.36327   5.39679   5.44621
 Alpha virt. eigenvalues --    5.49897   5.55839   5.60704   5.67008   5.73114
 Alpha virt. eigenvalues --    5.76470   5.78991   5.80461   5.81778   5.84374
 Alpha virt. eigenvalues --    5.90605   6.01662   6.12405   6.24136   6.32181
 Alpha virt. eigenvalues --    6.36396   6.46420   6.50148   6.58552   6.70355
 Alpha virt. eigenvalues --    6.74727   6.77999   6.78508   6.80904   7.01001
 Alpha virt. eigenvalues --    7.08305   7.12347   7.29227   7.31732   7.35926
 Alpha virt. eigenvalues --   10.36774  10.71632  11.70282  11.75894  12.90548
 Alpha virt. eigenvalues --   13.44366  14.28691
          Condensed to atoms (all electrons):
               1          2          3          4          5          6
     1  O    7.883813   0.003051   0.319091  -0.047473  -0.065551   0.301015
     2  O    0.003051   7.789436   0.000162   0.000019  -0.000113  -0.077801
     3  C    0.319091   0.000162   4.899142   0.322879   0.278443  -0.092844
     4  C   -0.047473   0.000019   0.322879   5.062792  -0.083598  -0.027716
     5  C   -0.065551  -0.000113   0.278443  -0.083598   5.107343   0.011472
     6  C    0.301015  -0.077801  -0.092844  -0.027716   0.011472   5.102422
     7  C   -0.055144   0.357129  -0.009062  -0.001763   0.005738   0.569088
     8  H   -0.027930   0.000005   0.421388  -0.055280  -0.051685   0.008082
     9  H   -0.002296  -0.000024  -0.036948   0.399095   0.003184  -0.004552
    10  H    0.002377  -0.000001  -0.036544   0.397811   0.007360   0.001205
    11  H    0.004728  -0.000004  -0.042393   0.387875  -0.002096   0.001408
    12  H    0.003939   0.000067  -0.037837  -0.006990   0.387232  -0.001650
    13  H   -0.004506  -0.000149  -0.041914   0.007487   0.392163   0.008028
    14  H    0.003412  -0.000003  -0.034872   0.005530   0.398253   0.000882
    15  H   -0.054073  -0.000716   0.008362   0.007743  -0.010079   0.392746
    16  H    0.005069  -0.031385   0.001226   0.000082  -0.000688  -0.079810
    17  H    0.000013   0.322627   0.000273  -0.000066  -0.000109  -0.012885
               7          8          9         10         11         12
     1  O   -0.055144  -0.027930  -0.002296   0.002377   0.004728   0.003939
     2  O    0.357129   0.000005  -0.000024  -0.000001  -0.000004   0.000067
     3  C   -0.009062   0.421388  -0.036948  -0.036544  -0.042393  -0.037837
     4  C   -0.001763  -0.055280   0.399095   0.397811   0.387875  -0.006990
     5  C    0.005738  -0.051685   0.003184   0.007360  -0.002096   0.387232
     6  C    0.569088   0.008082  -0.004552   0.001205   0.001408  -0.001650
     7  C    4.815845   0.000008   0.001079  -0.000029   0.000143  -0.001046
     8  H    0.000008   0.591130   0.003794  -0.014073   0.005425   0.007752
     9  H    0.001079   0.003794   0.583740  -0.028080  -0.033279   0.001110
    10  H   -0.000029  -0.014073  -0.028080   0.578558  -0.030368   0.000452
    11  H    0.000143   0.005425  -0.033279  -0.030368   0.602754  -0.001059
    12  H   -0.001046   0.007752   0.001110   0.000452  -0.001059   0.609074
    13  H   -0.001598   0.001650  -0.000517  -0.000498   0.000435  -0.033746
    14  H    0.000048  -0.016383  -0.000312  -0.000280  -0.000134  -0.034247
    15  H   -0.061840  -0.000368  -0.006277   0.000142  -0.003287  -0.000096
    16  H    0.412051  -0.000173  -0.000087   0.000002  -0.000020  -0.000090
    17  H   -0.044125  -0.000004  -0.000092   0.000000  -0.000003   0.000007
              13         14         15         16         17
     1  O   -0.004506   0.003412  -0.054073   0.005069   0.000013
     2  O   -0.000149  -0.000003  -0.000716  -0.031385   0.322627
     3  C   -0.041914  -0.034872   0.008362   0.001226   0.000273
     4  C    0.007487   0.005530   0.007743   0.000082  -0.000066
     5  C    0.392163   0.398253  -0.010079  -0.000688  -0.000109
     6  C    0.008028   0.000882   0.392746  -0.079810  -0.012885
     7  C   -0.001598   0.000048  -0.061840   0.412051  -0.044125
     8  H    0.001650  -0.016383  -0.000368  -0.000173  -0.000004
     9  H   -0.000517  -0.000312  -0.006277  -0.000087  -0.000092
    10  H   -0.000498  -0.000280   0.000142   0.000002   0.000000
    11  H    0.000435  -0.000134  -0.003287  -0.000020  -0.000003
    12  H   -0.033746  -0.034247  -0.000096  -0.000090   0.000007
    13  H    0.561000  -0.023609   0.002246   0.001015   0.000038
    14  H   -0.023609   0.581579   0.000019  -0.000000  -0.000001
    15  H    0.002246   0.000019   0.599940   0.006602   0.006384
    16  H    0.001015  -0.000000   0.006602   0.508939   0.007252
    17  H    0.000038  -0.000001   0.006384   0.007252   0.460239
 Mulliken charges:
               1
     1  O   -0.269536
     2  O   -0.362300
     3  C    0.081446
     4  C   -0.368427
     5  C   -0.377269
     6  C   -0.099090
     7  C    0.013476
     8  H    0.126660
     9  H    0.120462
    10  H    0.121966
    11  H    0.109874
    12  H    0.107129
    13  H    0.132475
    14  H    0.120119
    15  H    0.112551
    16  H    0.170014
    17  H    0.260450
 Sum of Mulliken charges =  -0.00000
 Mulliken charges with hydrogens summed into heavy atoms:
               1
     1  O   -0.269536
     2  O   -0.101851
     3  C    0.208107
     4  C   -0.016125
     5  C   -0.017546
     6  C    0.013462
     7  C    0.183490
 APT charges:
               1
     1  O   -0.168651
     2  O   -0.312231
     3  C   -0.275032
     4  C   -1.120705
     5  C   -1.074682
     6  C   -0.409403
     7  C   -0.313663
     8  H    0.485666
     9  H    0.204846
    10  H    0.498822
    11  H    0.353214
    12  H    0.310831
    13  H    0.213850
    14  H    0.514412
    15  H    0.253559
    16  H    0.425067
    17  H    0.414101
 Sum of APT charges =  -0.00000
 APT charges with hydrogens summed into heavy atoms:
               1
     1  O   -0.168651
     2  O    0.101871
     3  C    0.210635
     4  C   -0.063824
     5  C   -0.035590
     6  C   -0.155844
     7  C    0.111404
 Electronic spatial extent (au):  <R**2>=            984.7379
 Charge=             -0.0000 electrons
 Dipole moment (field-independent basis, Debye):
    X=              1.5824    Y=             -0.3169    Z=              1.7453  Tot=              2.3771
 Quadrupole moment (field-independent basis, Debye-Ang):
   XX=            -46.6479   YY=            -43.4569   ZZ=            -43.2760
   XY=              1.4020   XZ=             -1.4325   YZ=             -3.2069
 Traceless Quadrupole moment (field-independent basis, Debye-Ang):
   XX=             -2.1876   YY=              1.0033   ZZ=              1.1843
   XY=              1.4020   XZ=             -1.4325   YZ=             -3.2069
 Octapole moment (field-independent basis, Debye-Ang**2):
  XXX=             18.8312  YYY=             -1.0136  ZZZ=              4.7214  XYY=             -4.4804
  XXY=             -2.3285  XXZ=             -1.6509  XZZ=            -10.7392  YZZ=             -0.8791
  YYZ=             -0.2946  XYZ=              5.9799
 Hexadecapole moment (field-independent basis, Debye-Ang**3):
 XXXX=           -978.5689 YYYY=           -239.4610 ZZZZ=           -145.3915 XXXY=             10.7651
 XXXZ=            -22.0383 YYYX=              1.8565 YYYZ=             -3.9473 ZZZX=            -17.0447
 ZZZY=             -5.3311 XXYY=           -184.1705 XXZZ=           -151.2447 YYZZ=            -65.4273
 XXYZ=            -14.2420 YYXZ=             -6.3178 ZZXY=              4.1760
 N-N= 3.141305645144D+02 E-N=-1.438239793479D+03  KE= 3.447999657905D+02
  Exact polarizability:   0.000   0.000   0.000   0.000   0.000   0.000
 Approx polarizability:  92.860  -5.326  71.783  -1.543  -4.561  74.696
 No NMR shielding tensors so no spin-rotation constants.
 Leave Link  601 at Sun Sep 29 02:24:52 2019, MaxMem=   671088640 cpu:              49.6 elap:              24.8
 (Enter /shared/centos7/gaussian/g16/l701.exe)
 SCFChk:  SCF convergence  3.03D-09 required  1.00D-08
 ... and contract with generalized density number  0.
 Compute integral second derivatives.
 Entering OneElI...
 Calculate overlap and kinetic energy integrals
    NBasis = 395  MinDer = 2  MaxDer = 2
 Requested accuracy = 0.1000D-12
 PrmmSu-InSpLW:  IPartL=    0 NPrtUS=   20 NPrtUL=    1 DoSpLW=F IThBeg=    0 IThEnd=   19 NThAct=   20.
 PrsmSu:  NPrtUS=  20 ThrOK=T IAlg=1 NPAlg=1 LenDen=           0 ISkipM=0 DoSpLW=F IThBeg=    0 IThEnd=   19.
 Prism:   IPart=     0 DynPar=F LinDyn=F Incr=           4.
 PRISM was handed    33313400 working-precision words and  8424 shell-pairs
 PRISM was handed    33313400 working-precision words and  8424 shell-pairs
 PRISM was handed    33313400 working-precision words and  8424 shell-pairs
 PRISM was handed    33313400 working-precision words and  8424 shell-pairs
 PRISM was handed    33313400 working-precision words and  8424 shell-pairs
 PRISM was handed    33313400 working-precision words and  8424 shell-pairs
 PRISM was handed    33313400 working-precision words and  8424 shell-pairs
 PRISM was handed    33313400 working-precision words and  8424 shell-pairs
 PRISM was handed    33313400 working-precision words and  8424 shell-pairs
 PRISM was handed    33313400 working-precision words and  8424 shell-pairs
 PRISM was handed    33313400 working-precision words and  8424 shell-pairs
 PRISM was handed    33313400 working-precision words and  8424 shell-pairs
 PRISM was handed    33313400 working-precision words and  8424 shell-pairs
 PRISM was handed    33313400 working-precision words and  8424 shell-pairs
 PRISM was handed    33313400 working-precision words and  8424 shell-pairs
 PRISM was handed    33313400 working-precision words and  8424 shell-pairs
 IPart=  0 NShTot=         464 NBatch=          81 AvBLen=         5.7
 IPart=  6 NShTot=         432 NBatch=          61 AvBLen=         7.1
 PRISM was handed    33313400 working-precision words and  8424 shell-pairs
 PRISM was handed    33313400 working-precision words and  8424 shell-pairs
 PRISM was handed    33313400 working-precision words and  8424 shell-pairs
 IPart= 19 NShTot=         393 NBatch=          36 AvBLen=        10.9
 IPart=  2 NShTot=         455 NBatch=          73 AvBLen=         6.2
 PRISM was handed    33313400 working-precision words and  8424 shell-pairs
 IPart= 13 NShTot=         403 NBatch=          40 AvBLen=        10.1
 IPart= 10 NShTot=         416 NBatch=          49 AvBLen=         8.5
 IPart=  1 NShTot=         462 NBatch=          80 AvBLen=         5.8
 IPart=  3 NShTot=         447 NBatch=          69 AvBLen=         6.5
 IPart=  8 NShTot=         421 NBatch=          53 AvBLen=         7.9
 IPart= 17 NShTot=         397 NBatch=          39 AvBLen=        10.2
 IPart=  9 NShTot=         419 NBatch=          51 AvBLen=         8.2
 IPart= 12 NShTot=         405 NBatch=          41 AvBLen=         9.9
 IPart= 16 NShTot=         399 NBatch=          39 AvBLen=        10.2
 IPart= 14 NShTot=         402 NBatch=          40 AvBLen=        10.1
 IPart=  7 NShTot=         422 NBatch=          53 AvBLen=         8.0
 IPart= 18 NShTot=         395 NBatch=          37 AvBLen=        10.7
 IPart=  4 NShTot=         439 NBatch=          65 AvBLen=         6.8
 IPart= 11 NShTot=         415 NBatch=          49 AvBLen=         8.5
 IPart= 15 NShTot=         400 NBatch=          40 AvBLen=        10.0
 IPart=  5 NShTot=         438 NBatch=          64 AvBLen=         6.8
 PrSmSu:  NxtVal=             81.
 Entering OneElI...
 Calculate potential energy integrals
    NBasis = 395  MinDer = 2  MaxDer = 2
 Requested accuracy = 0.1000D-12
 PrmmSu-InSpLW:  IPartL=    0 NPrtUS=   20 NPrtUL=    1 DoSpLW=F IThBeg=    0 IThEnd=   19 NThAct=   20.
 PrsmSu:  NPrtUS=  20 ThrOK=T IAlg=1 NPAlg=1 LenDen=           0 ISkipM=0 DoSpLW=F IThBeg=    0 IThEnd=   19.
 Prism:   IPart=     0 DynPar=F LinDyn=F Incr=          65.
 PRISM was handed    33355662 working-precision words and  7701 shell-pairs
 PRISM was handed    33355662 working-precision words and  7701 shell-pairs
 PRISM was handed    33355662 working-precision words and  7701 shell-pairs
 PRISM was handed    33355662 working-precision words and  7701 shell-pairs
 PRISM was handed    33355662 working-precision words and  7701 shell-pairs
 PRISM was handed    33355662 working-precision words and  7701 shell-pairs
 PRISM was handed    33355662 working-precision words and  7701 shell-pairs
 PRISM was handed    33355662 working-precision words and  7701 shell-pairs
 PRISM was handed    33355662 working-precision words and  7701 shell-pairs
 PRISM was handed    33355662 working-precision words and  7701 shell-pairs
 PRISM was handed    33355662 working-precision words and  7701 shell-pairs
 PRISM was handed    33355662 working-precision words and  7701 shell-pairs
 PRISM was handed    33355662 working-precision words and  7701 shell-pairs
 PRISM was handed    33355662 working-precision words and  7701 shell-pairs
 PRISM was handed    33355662 working-precision words and  7701 shell-pairs
 PRISM was handed    33355662 working-precision words and  7701 shell-pairs
 PRISM was handed    33355662 working-precision words and  7701 shell-pairs
 PRISM was handed    33355662 working-precision words and  7701 shell-pairs
 PRISM was handed    33355662 working-precision words and  7701 shell-pairs
 PRISM was handed    33355662 working-precision words and  7701 shell-pairs
 IPart=  5 NShTot=        6732 NBatch=         396 AvBLen=        17.0
 IPart=  9 NShTot=        6460 NBatch=         380 AvBLen=        17.0
 IPart= 15 NShTot=        6256 NBatch=         368 AvBLen=        17.0
 IPart=  8 NShTot=        6545 NBatch=         385 AvBLen=        17.0
 IPart= 11 NShTot=        6375 NBatch=         375 AvBLen=        17.0
 IPart=  6 NShTot=        6698 NBatch=         394 AvBLen=        17.0
 IPart= 16 NShTot=        6239 NBatch=         367 AvBLen=        17.0
 IPart= 14 NShTot=        6307 NBatch=         371 AvBLen=        17.0
 IPart= 12 NShTot=        6358 NBatch=         374 AvBLen=        17.0
 IPart= 18 NShTot=        6171 NBatch=         363 AvBLen=        17.0
 IPart=  4 NShTot=        6868 NBatch=         404 AvBLen=        17.0
 IPart= 17 NShTot=        6222 NBatch=         366 AvBLen=        17.0
 IPart=  0 NShTot=        7174 NBatch=         422 AvBLen=        17.0
 IPart=  7 NShTot=        6562 NBatch=         386 AvBLen=        17.0
 IPart= 19 NShTot=        6120 NBatch=         360 AvBLen=        17.0
 IPart= 10 NShTot=        6443 NBatch=         379 AvBLen=        17.0
 IPart= 13 NShTot=        6341 NBatch=         373 AvBLen=        17.0
 IPart=  1 NShTot=        7072 NBatch=         416 AvBLen=        17.0
 IPart=  2 NShTot=        7021 NBatch=         413 AvBLen=        17.0
 IPart=  3 NShTot=        6953 NBatch=         409 AvBLen=        17.0
 PrSmSu:  NxtVal=           1301.
 Polarizability after L701:
                1             2             3 
      1  0.000000D+00
      2  0.000000D+00  0.000000D+00
      3  0.000000D+00  0.000000D+00  0.000000D+00
 Dipole Derivatives after L701:
                 1             2             3             4             5 
      1  -0.265164D+00 -0.626555D-01 -0.373526D-01  0.582467D+00 -0.740973D+00
      2  -0.108808D+00 -0.234197D+00  0.457254D-01  0.364051D-01 -0.543887D+00
      3  -0.621880D-01 -0.405770D-01 -0.659287D-02 -0.188625D+00  0.356101D+00
                 6             7             8             9            10 
      1   0.803526D+00 -0.650672D+00 -0.265581D+00  0.884442D+00 -0.127005D+01
      2   0.254228D+00 -0.180763D+00  0.212309D+00  0.137524D+00  0.114407D+00
      3  -0.975273D+00  0.139667D+00  0.699397D-01 -0.386733D+00 -0.383660D-01
                11            12            13            14            15 
      1   0.851104D+00 -0.550785D+00 -0.869922D+00 -0.808774D+00 -0.484928D+00
      2  -0.111713D+01  0.133810D+00 -0.110511D-01 -0.139035D+01 -0.277478D+00
      3   0.385369D-01 -0.974937D+00 -0.203786D-01 -0.580487D-01 -0.963780D+00
                16            17            18            19            20 
      1  -0.564668D+00  0.158836D+00  0.108894D+00 -0.372163D+00  0.414771D+00
      2   0.140728D+00 -0.275572D+00  0.261276D+00  0.253811D+00 -0.216806D+00
      3   0.989182D-01  0.275739D+00 -0.387968D+00  0.426798D-01  0.253670D+00
                21            22            23            24            25 
      1  -0.247488D+00  0.808730D+00  0.161888D+00 -0.567023D+00 -0.133838D+00
      2   0.341095D+00  0.839330D-01  0.200505D+00 -0.726565D-01  0.542652D+00
      3  -0.352022D+00 -0.308626D+00 -0.733983D-01  0.447764D+00 -0.140573D+00
                26            27            28            29            30 
      1  -0.284308D+00  0.761479D-01  0.101188D+01 -0.412286D+00 -0.549747D+00
      2   0.628876D+00 -0.878836D-01 -0.467379D+00  0.320739D+00  0.258848D+00
      3  -0.136905D+00  0.119499D+00 -0.576389D-01  0.219155D-02  0.163848D+00
                31            32            33            34            35 
      1   0.311371D+00  0.183663D+00  0.821841D+00  0.113698D+00 -0.502807D-01
      2  -0.659512D-01  0.671030D-01 -0.227830D+00  0.175396D-01  0.832517D-01
      3   0.167472D+00  0.161825D+00  0.681167D+00  0.226668D-01 -0.868335D-01
                36            37            38            39            40 
      1   0.473647D+00  0.384967D-01  0.483875D-01  0.180876D-01  0.801094D+00
      2   0.407369D+00 -0.632976D+00  0.487986D+00 -0.135122D+00  0.625232D+00
      3   0.735542D+00 -0.882550D-02  0.164113D-01  0.115068D+00  0.328791D-01
                41            42            43            44            45 
      1   0.566826D+00 -0.191659D+00  0.743137D-01  0.950307D-01 -0.156060D+00
      2   0.618531D+00 -0.137309D+00 -0.173127D+00  0.392951D+00 -0.350761D+00
      3   0.655630D-01  0.123611D+00  0.672634D-01 -0.200624D+00  0.293411D+00
                46            47            48            49            50 
      1   0.369320D+00 -0.527231D+00  0.729837D+00  0.151091D-01  0.671583D+00
      2  -0.113360D+00  0.355331D+00 -0.321860D+00 -0.612933D-01  0.410351D+00
      3   0.115940D+00 -0.319100D+00  0.550551D+00  0.137735D+00 -0.324491D+00
                51 
      1  -0.113138D+01
      2  -0.228976D+00
      3   0.816844D+00
 Hessian after L701:
                1             2             3             4             5 
      1  0.504803D+01
      2 -0.270660D+01  0.174079D+02
      3  0.501006D+00 -0.212708D+00  0.128243D+02
      4  0.409863D+00 -0.931901D-02 -0.302880D+00  0.712815D+01
      5 -0.523881D-01 -0.221214D+00  0.366800D-01  0.178124D-02  0.133531D+02
      6 -0.277550D+00  0.136845D-01 -0.977413D-01  0.346884D+01  0.271609D+01
      7 -0.243268D+01  0.167388D+01  0.346123D+01  0.149156D+00 -0.254247D-02
      8  0.168934D+01 -0.892620D+01  0.807252D+00  0.971095D-02 -0.763442D-01
      9  0.334364D+01  0.789371D+00 -0.679297D+01 -0.100320D-01 -0.377897D-03
     10  0.251434D-01 -0.430067D+00  0.302965D+00  0.115992D+00 -0.491159D-01
     11 -0.331297D+00  0.987264D-01 -0.329682D+00 -0.109427D-01 -0.616908D-01
     12  0.281165D+00 -0.399022D+00  0.853383D-01 -0.184037D-01  0.694453D-02
     13 -0.247712D+00  0.164862D+00  0.101719D-01  0.155746D+00  0.703423D-01
     14  0.517789D-01  0.595359D+00  0.360968D+00  0.415912D-01 -0.688643D-01
     15 -0.273052D-01  0.447043D+00  0.607558D-01 -0.237345D-01  0.103510D-02
     16 -0.296907D+01  0.158905D+01 -0.445286D+01  0.260741D+00 -0.155037D+00
     17  0.166988D+01 -0.934971D+01 -0.872008D+00 -0.962433D-01  0.228896D+00
     18 -0.426169D+01 -0.790100D+00 -0.610755D+01  0.695420D-01  0.231186D+00
     19  0.107640D+00 -0.105867D+00  0.141783D+00 -0.277975D+01  0.822701D+00
     20 -0.118111D+00  0.465230D-01  0.106403D+00  0.847645D+00 -0.851153D+01
     21  0.132226D+00  0.138706D+00 -0.691488D-01 -0.444414D+01 -0.671539D+00
     22 -0.972450D-01  0.980990D-02 -0.215375D+00  0.262842D-01 -0.892031D-03
     23  0.583012D-02  0.679020D-01 -0.532760D-01  0.474073D-02 -0.672893D-02
     24 -0.268901D+00 -0.729776D-01  0.109163D+00 -0.189216D-01  0.176699D-02
     25 -0.424314D-01  0.682040D-02 -0.770322D-02 -0.477701D-03 -0.357354D-02
     26 -0.558234D-01  0.229701D-01 -0.694073D-01 -0.299309D-01  0.360844D-02
     27  0.386144D-01 -0.412386D-01 -0.160999D-01  0.350725D-02 -0.127205D-02
     28  0.960166D-01 -0.771912D-01  0.497144D-01  0.201139D-01 -0.878868D-02
     29 -0.728618D-01 -0.945044D-02 -0.268394D-01 -0.859013D-02 -0.181385D-02
     30  0.191701D-01 -0.125888D-01 -0.381175D-01 -0.738685D-02  0.285153D-02
     31  0.211208D-01 -0.437018D-02  0.103104D+00  0.176156D-01 -0.531560D-02
     32 -0.599969D-02 -0.522768D-01 -0.602543D-02  0.903128D-03 -0.705432D-02
     33  0.110241D+00 -0.893379D-02  0.103215D+00  0.196362D-01 -0.494119D-02
     34 -0.256122D-01  0.263306D-01  0.657065D-01  0.227839D-01  0.714361D-02
     35  0.270931D-01 -0.267031D-01  0.597816D-01  0.685385D-02 -0.941313D-02
     36  0.715376D-01  0.692448D-01  0.121730D+00  0.299547D-01  0.391019D-02
     37 -0.439443D-01 -0.385305D-01 -0.147207D-01 -0.238078D-02  0.108543D-01
     38  0.216220D-01  0.204425D-01  0.911048D-01  0.390735D-01  0.678337D-03
     39  0.178583D-01  0.483814D-01  0.101011D-01 -0.876884D-02 -0.329768D-02
     40  0.386175D-01  0.944334D-01  0.504869D-01  0.207025D-01  0.690837D-02
     41  0.905463D-01  0.543986D-01  0.572648D-01  0.159617D-01 -0.252734D-02
     42  0.310740D-01  0.378273D-01 -0.243699D-01 -0.320893D-02 -0.270285D-03
     43  0.147948D-01 -0.135286D+00  0.382801D+00  0.648546D-01 -0.614739D-01
     44 -0.145115D+00  0.327143D+00  0.537882D-01 -0.797140D-01 -0.778178D-02
     45  0.330900D+00  0.115835D-01 -0.120769D+00  0.521479D-01 -0.319500D-01
     46  0.919019D-01 -0.622390D-01 -0.558204D-01 -0.133842D-01 -0.768104D-01
     47 -0.905484D-01 -0.417350D-01  0.143521D-01 -0.547511D-01  0.107079D+00
     48  0.135393D-01 -0.100868D-01 -0.744710D-01  0.160914D+00  0.252362D-01
     49  0.555578D-02  0.428306D-02 -0.196094D-01 -0.559601D+01 -0.503793D+00
     50  0.226516D-01 -0.140614D-01 -0.176483D-01 -0.678771D+00 -0.471842D+01
     51 -0.555296D-01 -0.818566D-02  0.266592D-01  0.103293D+01 -0.231206D+01
                6             7             8             9            10 
      6  0.798217D+01
      7 -0.350788D-01  0.158067D+02
      8  0.184084D-02 -0.110676D+01  0.195650D+02
      9 -0.805269D-01 -0.271770D+01 -0.596367D+00  0.198164D+02
     10  0.129615D-01 -0.515415D+01 -0.143478D+01  0.869279D+00  0.134969D+02
     11  0.282433D-02 -0.139179D+01 -0.336027D+01 -0.174694D+01  0.109279D+01
     12 -0.683697D-01  0.837532D+00 -0.178531D+01 -0.476102D+01 -0.830824D+00
     13  0.136994D-01 -0.619402D+01  0.114208D-01 -0.649309D-01  0.349287D-01
     14  0.405440D-02 -0.382718D-01 -0.278678D+01  0.198969D+01  0.534259D-01
     15 -0.932283D-01 -0.106957D+00  0.200809D+01 -0.503634D+01  0.367827D-01
     16  0.123857D+00  0.452252D+00  0.196416D+00  0.708443D-01  0.828463D-01
     17  0.208379D+00  0.199450D+00  0.203684D+00  0.271267D-01 -0.148697D+00
     18 -0.420041D-01 -0.538706D-01  0.110826D-02  0.244939D-01  0.132973D+00
     19 -0.425087D+01  0.153258D+00  0.404362D-01  0.100548D+00  0.917031D-01
     20 -0.705026D+00  0.326992D-01 -0.849545D-01  0.138962D-01 -0.557569D-01
     21 -0.507251D+01  0.697237D-01  0.134727D-01 -0.110447D+00  0.354841D-01
     22 -0.441964D-02 -0.323477D+01  0.343104D+00 -0.137635D+01  0.200207D+00
     23 -0.945793D-04  0.335918D+00 -0.449215D+01 -0.337526D+00  0.299427D-01
     24 -0.394962D-02 -0.127123D+01 -0.318645D+00 -0.323352D+01 -0.596629D-01
     25 -0.127461D-02  0.103961D+00  0.475776D-01 -0.517899D-02 -0.299589D+01
     26 -0.378700D-02 -0.324620D-01 -0.305735D-01  0.460050D-01  0.152677D+01
     27 -0.114963D-01  0.196267D-01  0.491878D-01  0.527817D-01 -0.276959D+00
     28  0.117887D-02  0.510238D-01  0.450972D-01 -0.468707D-01 -0.237975D+01
     29 -0.522900D-03  0.484600D-01 -0.146916D-01  0.367834D-01 -0.776535D+00
     30 -0.557629D-02 -0.626050D-01  0.571588D-01  0.717381D-01 -0.783753D+00
     31  0.759538D-02  0.199480D-01  0.745886D-01 -0.122356D+00 -0.363533D+01
     32  0.110694D-02  0.754639D-01  0.559052D-01  0.124475D+00  0.150927D+00
     33  0.582232D-03 -0.880572D-01  0.932728D-01 -0.135385D-01  0.632265D+00
     34  0.100830D-01  0.927284D-01 -0.652822D-02 -0.868462D-02 -0.248513D-01
     35  0.215242D-02  0.959700D-02 -0.609299D-02 -0.169514D+00  0.192617D-01
     36  0.401070D-03  0.124220D-01 -0.128088D+00 -0.161349D-01  0.771171D-02
     37 -0.174677D-02  0.664005D-01  0.410108D-01  0.328113D-01  0.770817D-02
     38  0.109117D-02  0.127832D+00 -0.348226D-01 -0.346885D-01 -0.949440D-01
     39 -0.179842D-01  0.490034D-01 -0.400472D-01  0.102769D+00  0.893176D-02
     40  0.182894D-02  0.708367D-01 -0.199493D-01 -0.462545D-01 -0.377650D-01
     41  0.186957D-02 -0.415311D-01 -0.217079D-01 -0.807784D-01  0.198166D-01
     42 -0.642241D-02 -0.471181D-01 -0.846993D-01  0.267945D-01 -0.458992D-02
     43  0.238341D-01  0.204685D-02  0.780197D-01 -0.349936D-01  0.153693D+00
     44 -0.237024D-01  0.120017D+00  0.274960D-01 -0.485893D-01  0.103767D+00
     45 -0.391156D-01 -0.757148D-01 -0.667685D-01 -0.445444D-01 -0.827008D-01
     46  0.196449D+00  0.363358D-01 -0.118921D-01  0.232446D-01  0.122512D-01
     47  0.317555D-01 -0.210787D-01 -0.121623D-01 -0.114354D-01 -0.138568D-01
     48 -0.141348D+00  0.307471D-01 -0.782389D-02 -0.147147D-02  0.172972D-01
     49  0.710612D+00  0.109783D-01  0.318247D-02 -0.701889D-02  0.638405D-02
     50 -0.225172D+01  0.111117D-01 -0.536443D-02 -0.113509D-02  0.705374D-02
     51 -0.230288D+01 -0.219547D-01 -0.363995D-02 -0.450253D-02 -0.181616D-01
               11            12            13            14            15 
     11  0.132787D+02
     12  0.123347D+01  0.143069D+02
     13 -0.172354D-01 -0.520735D-02  0.144608D+02
     14  0.620371D-01  0.862399D-01 -0.487110D+00  0.125328D+02
     15 -0.685233D-01  0.437774D-01 -0.376955D+00 -0.152601D+01  0.147012D+02
     16 -0.251848D-01  0.691900D-01  0.243455D-01  0.245636D+00  0.103995D+00
     17 -0.653489D-01 -0.323228D-01  0.295346D+00 -0.809765D-01  0.108951D+00
     18 -0.238889D-01 -0.998058D-01  0.118573D+00  0.116506D+00 -0.252721D+00
     19 -0.314724D-01  0.239534D-01  0.335400D+00  0.108431D+00  0.551329D-01
     20 -0.611959D-01 -0.747800D-02  0.130556D+00 -0.139194D+00  0.219118D-01
     21 -0.393592D-02 -0.705002D-01  0.609385D-01  0.188610D-01 -0.148557D+00
     22  0.851064D-02 -0.327922D-01  0.175181D+00  0.634564D-01  0.318930D-01
     23 -0.227435D-01  0.185030D+00  0.491694D-01  0.137401D-01 -0.168134D+00
     24  0.196987D+00 -0.213221D-01  0.676697D-02 -0.178915D+00 -0.349000D-01
     25  0.122552D+01 -0.172528D+00 -0.290218D-01  0.187952D-01 -0.586511D-02
     26 -0.273887D+01 -0.141934D+00  0.154859D-01  0.898946D-01 -0.703086D-02
     27 -0.211000D+00 -0.416035D+01 -0.172404D-03 -0.662680D-02 -0.357493D-01
     28 -0.746939D+00 -0.867792D+00  0.677121D-02 -0.954792D-01 -0.189556D-01
     29 -0.348827D+01  0.477710D+00 -0.794141D-01  0.964428D-01  0.293005D-01
     30  0.417564D+00 -0.347415D+01 -0.230938D-01  0.349799D-01 -0.414557D-01
     31  0.217503D+00  0.733990D+00 -0.102639D-01 -0.388026D-01  0.285350D-01
     32 -0.379656D+01  0.425433D+00 -0.319131D-01  0.485245D-02 -0.263527D-01
     33  0.566166D+00 -0.161819D+01  0.382066D-01 -0.546141D-01  0.104420D-01
     34  0.868459D-02  0.530684D-02 -0.391464D+01 -0.229105D-01  0.774626D-01
     35  0.161064D-02 -0.342987D-02 -0.105181D-01 -0.397136D+01 -0.139501D+00
     36  0.186918D-01  0.412252D-02  0.798509D-02 -0.320502D+00 -0.133410D+01
     37 -0.906950D-01  0.869578D-02 -0.236857D+01 -0.102836D+01  0.489268D+00
     38  0.105661D+00 -0.197355D-01 -0.132235D+01 -0.352018D+01 -0.380698D+00
     39 -0.149562D-01 -0.478954D-01  0.441187D+00 -0.280378D+00 -0.407935D+01
     40  0.375905D-01 -0.583362D-03 -0.243159D+01  0.118661D+01 -0.271928D+00
     41  0.134750D+00 -0.577691D-02  0.123018D+01 -0.276712D+01 -0.282229D+00
     42 -0.149997D-01 -0.438534D-01 -0.237686D+00 -0.240879D+00 -0.377522D+01
     43  0.610520D-01 -0.353447D-01 -0.264268D-01 -0.593192D-01 -0.146232D-03
     44 -0.774105D-01 -0.121288D-01 -0.294284D-01 -0.466885D-01 -0.883233D-02
     45 -0.144440D-01 -0.713800D-01 -0.403100D-02  0.424740D-02  0.178360D-01
     46 -0.546103D-02  0.617089D-02  0.249524D-01 -0.401893D-02  0.112076D-01
     47 -0.530083D-02 -0.401877D-02 -0.881129D-02 -0.958272D-02 -0.224147D-02
     48 -0.278274D-02 -0.453234D-02  0.363141D-01 -0.621487D-02 -0.410232D-02
     49 -0.637864D-03 -0.252934D-02  0.413552D-02  0.454881D-02 -0.243084D-02
     50 -0.380054D-02 -0.367150D-02  0.194158D-01 -0.433506D-02 -0.678333D-02
     51 -0.454928D-02  0.123354D-02 -0.217656D-01 -0.141053D-02  0.167926D-02
               16            17            18            19            20 
     16  0.953740D+01
     17  0.268107D+01  0.235393D+02
     18  0.377849D+01  0.416133D+01  0.208022D+02
     19 -0.293916D+01 -0.473172D+01  0.127696D-01  0.917514D+01
     20 -0.454493D+01 -0.110040D+02 -0.232323D+01  0.382072D+01  0.233215D+02
     21  0.353710D-02 -0.235222D+01 -0.114440D+02  0.374076D+01  0.402533D+01
     22  0.177891D+00  0.569750D-01 -0.942630D-01  0.397057D-01 -0.187731D-02
     23  0.577408D-01 -0.434156D-01 -0.227620D-01  0.402777D-02 -0.108964D-01
     24 -0.104929D+00 -0.251591D-01 -0.190285D-01 -0.219698D-01 -0.251064D-03
     25 -0.538271D-01  0.199654D-02  0.368079D-01  0.122692D-01 -0.156544D-01
     26 -0.443239D-01  0.196583D-01 -0.540527D-01 -0.450967D-01  0.829618D-02
     27  0.440401D-01 -0.329865D-01 -0.989602D-03  0.178920D-01 -0.948823D-02
     28  0.597327D-01 -0.221160D-01 -0.269845D-02  0.219964D-01 -0.834550D-02
     29 -0.250766D-01 -0.129442D-01  0.280958D-02 -0.104583D-01 -0.255848D-02
     30 -0.780672D-02  0.420638D-02 -0.195120D-01 -0.477677D-02  0.113767D-02
     31  0.411392D-01 -0.846078D-02  0.375931D-01  0.196784D-01 -0.653770D-02
     32 -0.356794D-02 -0.224588D-01  0.147932D-02 -0.275245D-02 -0.678400D-02
     33  0.507754D-01 -0.564924D-02  0.782128D-02  0.246520D-01 -0.445702D-02
     34  0.467815D-02  0.212189D-01  0.175482D-01  0.431376D-02  0.422238D-02
     35  0.156172D-01 -0.565661D-02  0.907281D-02  0.299994D-02 -0.976004D-02
     36  0.285525D-01  0.259661D-01  0.702550D-02  0.288719D-01  0.784777D-02
     37 -0.543415D-01  0.231464D-01  0.652018D-02 -0.180417D-01 -0.555785D-02
     38  0.722874D-01  0.796410D-01  0.329939D-01  0.319787D-01 -0.103414D-01
     39  0.128354D-01  0.184136D-01 -0.656146D-01 -0.648603D-02 -0.561930D-02
     40  0.286420D-01  0.359759D-01  0.106426D-02  0.252137D-01  0.139681D-01
     41  0.393352D-01  0.117565D-01  0.142675D-02  0.200018D-01  0.178253D-03
     42  0.269494D-02  0.104237D-02 -0.173073D-01  0.557048D-03  0.924665D-03
     43 -0.462398D+01 -0.279639D+00  0.327840D+00 -0.312800D-01  0.320136D+00
     44 -0.406506D+00 -0.347677D+01 -0.156927D+01  0.355854D+00 -0.111355D+00
     45  0.453708D+00 -0.149266D+01 -0.289332D+01 -0.211917D+00  0.204674D+00
     46  0.436741D-02  0.352196D+00 -0.237560D+00 -0.439646D+01 -0.391857D+00
     47  0.320000D+00 -0.361469D-01  0.203155D+00 -0.327030D+00 -0.351321D+01
     48 -0.215606D+00  0.215578D+00  0.186526D+00  0.451806D+00 -0.136176D+01
     49 -0.336597D-01 -0.503805D-01  0.110361D+00  0.178376D+00 -0.213226D-01
     50 -0.125259D-01  0.145166D-01  0.222344D-01  0.472402D-01  0.893324D-01
     51  0.386808D-01  0.420202D-01 -0.662796D-01 -0.102702D+00  0.351851D-01
               21            22            23            24            25 
     21  0.194459D+02
     22 -0.100608D-01  0.266090D+01
     23 -0.362195D-03 -0.513747D+00  0.461235D+01
     24 -0.444094D-02  0.182868D+01  0.454517D+00  0.303729D+01
     25  0.755685D-02  0.175240D-03  0.227794D-01 -0.223363D-01  0.322665D+01
     26 -0.105737D-01  0.354982D-01  0.306170D-01 -0.440903D-01 -0.113264D+01
     27 -0.142606D-01 -0.237394D-01 -0.327580D-01  0.119646D-01  0.214056D+00
     28 -0.120846D-02  0.244232D-01  0.351904D-01 -0.200529D-01 -0.177527D+00
     29 -0.141437D-03  0.326350D-01 -0.576891D-01  0.585462D-01 -0.593725D-01
     30 -0.521901D-02 -0.165704D-01  0.588467D-01  0.187355D-02  0.848255D-01
     31  0.108897D-01 -0.242404D-01 -0.374315D-02  0.899318D-02 -0.198172D-01
     32 -0.855997D-03  0.207703D-02 -0.825637D-02 -0.350588D-01 -0.128754D+00
     33  0.435244D-03 -0.139772D-01 -0.377610D-01  0.758954D-01 -0.133076D+00
     34  0.103739D-01 -0.154960D-01 -0.810906D-02 -0.328684D-01 -0.582266D-02
     35  0.245883D-02 -0.169434D-01 -0.185983D-01  0.411302D-01  0.299583D-02
     36  0.660135D-02 -0.564039D-01  0.324330D-01  0.990788D-01  0.563711D-02
     37 -0.429635D-02  0.208018D-01 -0.162513D-01 -0.221568D-01 -0.314725D-02
     38 -0.987804D-03 -0.280196D-01  0.458663D-02  0.195833D-01  0.552404D-02
     39 -0.267614D-01 -0.153971D-01  0.107712D-01 -0.486658D-03 -0.272821D-03
     40  0.433404D-03  0.470752D-01 -0.306673D-02  0.587427D-03  0.300663D-02
     41  0.926409D-03  0.445273D-02 -0.681336D-01 -0.924746D-01  0.420643D-02
     42 -0.768088D-02  0.503038D-02 -0.863236D-01 -0.214318D-01 -0.922108D-03
     43 -0.194357D+00 -0.325601D-02 -0.117276D-02  0.103097D-02 -0.148995D-01
     44  0.201320D+00  0.555359D-02  0.463472D-03 -0.463387D-02  0.289191D-02
     45  0.141955D+00 -0.578654D-02 -0.174169D-02  0.402067D-02  0.847286D-03
     46  0.553179D+00  0.189049D-02  0.561118D-03 -0.254909D-02 -0.240982D-02
     47 -0.136948D+01 -0.408413D-02 -0.125221D-02  0.218674D-02  0.176951D-02
     48 -0.264833D+01  0.588087D-02  0.574032D-03 -0.407764D-02 -0.213122D-02
     49  0.289617D-01  0.472498D-03  0.189658D-03 -0.478910D-03 -0.783649D-03
     50  0.902414D-02  0.349130D-02  0.206761D-03 -0.251144D-02 -0.879764D-03
     51  0.269178D-01 -0.634342D-02 -0.143317D-02  0.388011D-02  0.155748D-02
               26            27            28            29            30 
     26  0.247707D+01
     27  0.385618D+00  0.408731D+01
     28 -0.651181D-01  0.113221D+00  0.217171D+01
     29  0.109638D+00  0.308441D-01  0.920922D+00  0.332401D+01
     30  0.266169D-01  0.682353D-01  0.715086D+00 -0.496433D+00  0.358807D+01
[...]
 -3.0495517301,2.2687627133\H,-2.1222129165,-2.72318709,1.0980945731\H,
 1.7316867433,-0.9919809087,-0.1365490565\H,2.1276131849,-1.8659833151,
 2.7873883786\H,2.8012904023,0.488390749,1.360751587\\Version=EM64L-G16
 RevA.03\State=1-A\HF=-346.9397254\RMSD=2.175e-09\RMSF=4.151e-07\ZeroPo
 int=0.1470574\Thermal=0.1556059\Dipole=-0.5620514,0.3032711,-0.5503936
 \DipoleDeriv=-0.9532924,-0.3122813,-0.2650049,-0.5375992,-0.8703194,-0
 .3359301,-0.2025551,-0.1048044,-0.608593,-0.6586907,-0.3823363,-0.2447
 863,-0.6149424,-1.1008656,-0.5365236,-0.0810917,-0.0981852,-0.3231769,
 0.9346919,0.1894369,0.1876943,0.0450082,0.2960511,-0.0011273,0.1578626
 ,0.0713063,0.5878139,-0.0349846,-0.0263588,-0.0319133,0.0344349,0.0374
 476,0.0727079,-0.0729833,0.0626501,-0.1201826,-0.094887,-0.0105343,0.0
 188688,0.052286,0.038248,-0.0184759,0.0957887,-0.0472995,-0.0885066,-0
 .0498131,0.2142371,0.1027206,0.6361141,0.6169122,0.2883232,-0.0608679,
 -0.1465392,0.1032229,0.2472286,0.4444873,0.296089,0.6090889,0.8664691,
 0.4564704,0.2157428,0.111424,0.2922521,-0.0168118,-0.0163893,-0.018665
 ,-0.0331051,-0.1443001,-0.0300666,-0.0089814,-0.0193812,-0.0035508,0.0
 758268,-0.0108852,0.0167772,-0.0071204,-0.1173445,0.0000476,0.0045175,
 -0.0480471,0.0341995,-0.0049186,0.0337848,0.1110617,0.0358423,0.043711
 5,-0.0155828,0.0700223,-0.0029197,-0.0480592,-0.0968725,-0.0458701,-0.
 077426,-0.0520731,0.0595923,-0.0172622,-0.0428486,-0.0071222,0.0415345
 ,0.0791917,-0.0328796,0.0071748,-0.009452,-0.0970027,-0.0331691,0.0200
 102,0.0067874,0.0331231,0.0605153,0.0413145,-0.0402937,0.0209438,0.022
 8386,0.0597978,-0.0016054,0.0534065,-0.095372,-0.1223601,-0.0408241,-0
 .0313622,-0.0392773,0.0703197,-0.0083644,-0.0567906,-0.0110119,0.05787
 68,0.1612191,-0.0268221,0.0118515,-0.1229467,-0.0737045,0.0410013,0.00
 35551,0.0909881,-0.0323116,0.1445448,-0.0437602,-0.0098103,-0.0551782,
 0.013251,0.0458958,-0.0055349,0.0527004,0.0386723,0.3294126,0.0256807,
 -0.0329761,0.037976,0.338696,0.032258,-0.0342405,0.0360474,0.1310576\P
 olar=67.5514861,11.4476028,64.2121835,8.8644129,4.7109182,72.3004023\Q
 uadrupole=-0.6502365,1.068677,-0.4184405,2.252357,-1.118975,-2.5886055
 \PG=C01 [X(C5H10O2)]\NImag=0\\0.37478657,0.11175249,0.41855076,0.08892
 446,0.03565733,0.13369883,0.00581457,-0.01359450,-0.00934686,0.1143216
 6,-0.01250667,-0.00892186,-0.00643921,0.16462798,0.48488359,-0.0073130
 5,-0.00178240,-0.00304630,0.04092888,-0.16558402,0.49757186,-0.1841416
 0,-0.00487515,-0.03475986,0.00441481,0.00591601,0.00222437,0.44529332,
 0.01529816,-0.08688413,0.00454191,0.00200613,-0.00018867,-0.00158493,0
 .01435464,0.64552589,-0.03113618,0.00105481,-0.06902169,0.00269939,0.0
 0343367,-0.00016862,-0.01037236,0.01832473,0.49484212,-0.02685033,0.01
 376896,-0.03855060,-0.00065026,-0.00108009,-0.00037804,-0.07665889,0.0
 0479091,-0.00784532,0.58568680,-0.00224611,0.00519753,-0.00437257,-0.0
 0001553,-0.00027280,-0.00000667,0.00891116,-0.11670645,0.05346084,0.00
 751621,0.55800009,-0.01215153,0.00321982,-0.00984553,-0.00004262,0.000
 00987,0.00002023,-0.01266527,0.04887660,-0.16723135,-0.02267468,0.0394
 0998,0.50792760,-0.04757073,0.00692862,0.02127568,-0.00086537,-0.00153
 334,-0.00030452,-0.10582265,0.01879320,0.04826039,0.00740733,-0.001932
 85,-0.00004284,0.54998160,-0.00419293,0.00467206,0.00363313,0.00055077
 ,-0.00006177,0.00013713,0.02384951,-0.10059590,-0.03487852,-0.01009371
 ,0.00530690,0.01394115,0.01751171,0.57029960,-0.00776980,0.00177540,0.
 00900825,-0.00010446,-0.00066317,-0.00030721,0.05413879,-0.03247258,-0
 .15480117,0.01919325,-0.00881598,-0.02955195,0.04832627,-0.02528631,0.
 53433443,-0.09035891,-0.05839857,-0.01978878,-0.00596045,-0.01435965,-
 0.01672234,-0.02364270,-0.04123833,-0.00777498,0.00005667,0.00141818,-
 0.00089189,-0.00161622,0.00016088,0.00046226,0.27477725,-0.08197850,-0
 .28010395,-0.01756355,-0.01840359,-0.01554026,-0.03673127,-0.03172334,
 -0.01400414,-0.01062684,0.00468040,0.00431516,0.00030066,0.00549073,0.
 00249854,0.00287139,0.18621765,0.56039355,-0.02507874,-0.01564016,-0.0
 7254338,-0.00248132,-0.01021151,0.00362482,-0.00729601,-0.01471854,-0.
 00737996,-0.00153840,-0.00268076,-0.00008592,0.00181268,0.00256338,0.0
 0121026,0.20062732,0.01542801,0.80985819,-0.00616957,-0.00523775,-0.00
 991185,-0.09891823,-0.11691516,-0.02429351,-0.00174662,-0.00248362,-0.
 00323102,0.00013603,-0.00021124,0.00009869,0.00073378,0.00017057,-0.00
 002999,-0.11952133,-0.06350422,-0.15650808,0.26668704,-0.02150992,-0.0
 2112409,-0.03706189,-0.10779566,-0.27037002,-0.01069655,0.00302101,-0.
 00307756,-0.00310026,0.00044608,-0.00059578,0.00025313,0.00093849,0.00
 043832,0.00029687,-0.05863666,-0.13721838,-0.09000484,0.20168984,0.596
 76061,-0.00359367,-0.01305004,0.00175035,-0.04537871,-0.05258135,-0.11
 785041,0.00344881,0.00329170,0.00101345,0.00011624,-0.00000965,-0.0000
 3628,0.00078448,-0.00104573,0.00069744,-0.15368871,-0.08914551,-0.4795
 7785,0.18921734,-0.01465557,0.86017120,-0.02223470,-0.04067328,-0.0089
 7022,-0.00023699,-0.00113551,-0.00079261,-0.04609970,-0.01838420,-0.00
 035451,0.00157322,0.00615333,0.00060930,0.00257610,0.02061467,0.003871
 85,-0.00456265,0.00124960,-0.00266584,-0.00020507,-0.00077333,0.000853
 40,0.06961362,-0.00565062,-0.00326933,-0.00167150,-0.00011683,-0.00043
 786,-0.00012789,-0.02928494,-0.30788850,-0.03325806,-0.00024237,-0.015
 28314,-0.00001548,0.00042669,-0.00909427,-0.00184812,0.00003391,0.0029
 9481,-0.00029949,0.00004060,0.00018424,0.00020665,0.03238583,0.3300210
 0,-0.00653489,-0.01064204,-0.00062615,-0.00007078,-0.00029246,-0.00018
 544,-0.00125113,-0.03060807,-0.05472292,0.00205285,0.03123941,0.001671
 13,-0.00078317,-0.02646471,-0.00464175,-0.00125394,0.00060893,-0.00025
 057,-0.00001201,-0.00012819,0.00035304,0.00630098,0.03559494,0.0629607
 0,0.00029617,-0.00071415,0.00036747,0.00016858,0.00036043,0.00008560,-
 0.00044883,0.00709821,0.00142055,-0.04700982,-0.00736106,0.00013176,-0
 .00020242,-0.00067459,0.00021107,-0.00045751,0.00036035,-0.00022977,-0
 .00027097,-0.00054683,-0.00012022,0.00062957,0.00057616,-0.00102782,0.
 04785301,0.00082133,0.00118893,0.00025206,-0.00013116,-0.00006167,0.00
 002805,-0.00178900,-0.01788217,-0.00198989,-0.00722750,-0.30957508,-0.
 03181727,0.00030938,0.00106728,-0.00108359,-0.00139060,-0.00151217,0.0
 0019874,0.00026951,0.00082044,-0.00007702,0.00087834,0.00026641,0.0030
 8265,0.00947745,0.33825213,0.00053353,-0.00152793,0.00113712,0.0001228
 3,0.00023238,-0.00001214,0.00349966,0.03182248,0.00427343,0.00007326,-
 0.03290058,-0.05166864,-0.00037192,0.00094009,0.00218063,-0.00076677,-
 0.00099137,0.00051110,-0.00015076,-0.00025160,-0.00027569,-0.00131199,
 0.00267897,-0.00504710,0.00173742,0.03314079,0.05433794,0.00161571,-0.
 00008431,0.00036195,0.00013782,0.00020156,0.00004290,0.00325278,-0.002
 43119,-0.00633924,-0.16655359,0.04902133,0.12660498,0.00005393,0.00022
 223,-0.00127633,0.00010283,-0.00028325,-0.00008317,-0.00010178,-0.0001
 5482,-0.00005671,0.00003320,-0.00034996,0.00054553,0.00113330,-0.00075
 430,-0.00270712,0.17734121,-0.00052519,0.00001445,-0.00164796,-0.00006
 274,-0.00002852,0.00000724,-0.01259922,0.00450103,0.01117315,0.0499698
 5,-0.06936665,-0.05217897,0.00116506,-0.00115038,0.00233934,0.00026518
 ,0.00067402,-0.00030414,-0.00005371,-0.00019409,0.00017134,-0.00049689
 ,0.00046400,-0.00063909,0.02204592,-0.00694335,-0.02196654,-0.05418014
 ,0.07010336,0.00030702,-0.00035008,0.00365478,0.00008289,0.00012954,0.
 00006780,0.02099374,-0.00933967,-0.02102100,0.12453651,-0.05133055,-0.
 17683207,-0.00271852,0.00414065,-0.00445036,-0.00044838,-0.00058748,-0
 .00048491,-0.00012575,-0.00012784,0.00012670,-0.00016013,0.00012464,0.
 00098069,0.00131403,-0.00057045,-0.00252389,-0.13757808,0.05481479,0.1
 9330047,0.00021595,0.00032034,-0.00230965,-0.00020850,-0.00036725,-0.0
 0008172,-0.00674197,-0.00223193,0.00049073,-0.27467846,-0.06261996,-0.
 07877959,-0.00019354,-0.00010289,0.00037590,0.00065751,0.00114061,0.00
 033105,0.00015281,0.00024035,-0.00004032,0.00027893,0.00044078,-0.0000
 0815,0.00011724,0.00004005,0.00058074,-0.01774358,-0.00552405,-0.00729
 799,0.29721510,0.00309956,-0.00066119,0.00481128,-0.00004776,0.0000567
 0,0.00005717,0.01482830,0.00352932,0.00295091,-0.06362172,-0.06233980,
 -0.02156406,-0.00034665,0.00002764,-0.00031296,-0.00117736,-0.00187779
 ,0.00034032,0.00026120,0.00064758,-0.00005223,0.00018653,0.00032713,-0
 .00081428,-0.03027173,-0.00711505,-0.01006091,0.00852454,0.00141674,0.
 00382546,0.06831402,0.06550710,-0.00411640,0.00222081,-0.00587698,-0.0
 0021209,-0.00038212,-0.00011611,-0.02505550,-0.01065975,-0.00581431,-0
 .07707643,-0.02102837,-0.07350275,0.00026792,-0.00040849,0.00070773,0.
 00105436,0.00241979,-0.00000450,0.00000754,-0.00012505,0.00007641,0.00
 027382,0.00013467,0.00127632,-0.00311292,-0.00090055,-0.00225490,0.020
 70914,0.00700948,0.00836276,0.08633381,0.02157876,0.07739998,0.0012193
 6,-0.00143999,-0.00123506,0.00002286,0.00030151,0.00002598,0.00282715,
 0.02208876,0.00350561,0.00012008,0.00002173,-0.00135657,-0.04942624,-0
 .03137086,-0.00465091,-0.00082006,0.00022930,0.00044430,-0.00086819,-0
 .00070275,-0.00031981,-0.00209638,0.00112670,0.00328171,0.00032792,-0.
 00044706,0.00002241,-0.00008031,-0.00000499,-0.00015892,-0.00001177,-0
 .00012453,-0.00005679,0.05120572,0.00047967,0.00079654,0.00005273,-0.0
 0015276,-0.00022185,-0.00000345,-0.00093833,-0.01258342,-0.00229951,0.
 00000862,0.00104683,0.00080494,-0.03008838,-0.30642147,-0.03698735,-0.
 00161579,-0.00041670,-0.00038164,-0.00033013,0.00055523,0.00085504,0.0
 0128282,0.00102129,-0.00157106,-0.00014301,0.00046257,-0.00067026,0.00
 009426,0.00028063,0.00007482,0.00009895,-0.00000185,0.00006661,0.03334
 483,0.33330082,-0.00117109,0.00113217,0.00081707,-0.00000193,-0.000175
 39,-0.00003590,-0.00457266,-0.02741046,-0.00527904,-0.00063289,-0.0013
 8552,0.00167007,-0.00422926,-0.03649144,-0.05334833,0.00017078,0.00049
 678,0.00045916,0.00023382,0.00042788,0.00001427,0.00341994,-0.00112779
 ,-0.00336700,0.00012938,0.00072450,-0.00033798,0.00000749,0.00040056,0
 .00028513,0.00002634,-0.00001846,-0.00005125,0.00267387,0.04304350,0.0
 5649270,0.00219504,0.00001346,-0.00083480,0.00012172,0.00021850,-0.000
 01125,0.00353470,-0.01113142,0.01795718,-0.00264982,0.00142943,0.00257
 974,-0.06106964,0.03059249,-0.05430345,-0.00004466,-0.00040344,-0.0001
 0603,-0.00005702,-0.00021654,0.00004112,0.00053825,-0.00011451,-0.0009
 0756,-0.00013228,0.00014436,-0.00013677,0.00047939,-0.00029507,0.00120
 200,0.00024695,0.00012217,0.00022323,-0.00004596,-0.00211205,0.0041877
 0,0.06248028,-0.00107941,-0.00033706,0.00035218,-0.00005454,-0.0001499
 8,-0.00014043,-0.00335951,0.00519458,-0.01035688,0.00153194,-0.0001812
 4,-0.00130995,0.03043078,-0.11241726,0.11192608,0.00008566,0.00026544,
 -0.00005362,0.00013479,0.00009276,0.00021512,-0.00078979,0.00061181,0.
 00023243,0.00010743,0.00040333,-0.00029417,0.00014709,0.00069224,-0.00
 053937,0.00016605,-0.00011867,0.00018664,0.00803578,-0.01378477,0.0271
 6410,-0.03417106,0.11716383,-0.00121440,-0.00043313,0.00289756,0.00000
 032,0.00001834,0.00009585,-0.00775037,0.01302814,-0.02238333,0.0043110
 1,-0.00283376,-0.00260867,-0.05209437,0.11038371,-0.23940807,0.0005470
 2,0.00042747,-0.00004847,0.00009436,0.00009319,-0.00037979,-0.00035630
 ,-0.00028074,0.00074106,0.00001967,-0.00001168,0.00023399,-0.00025462,
 0.00087583,-0.00140137,-0.00005979,-0.00013793,0.00033077,0.00163686,-
 0.00275565,0.00509602,0.05602241,-0.12059023,0.26170252,-0.00448012,0.
 00036236,0.00365134,-0.00029733,-0.00054046,-0.00010549,-0.01650523,-0
 .00539966,-0.00835328,0.00049120,-0.00025382,-0.00080392,-0.29392437,-
 0.04698724,-0.05824269,0.00108584,0.00224673,0.00030410,0.00033271,0.0
 0032239,-0.00005179,0.00050813,0.00052984,-0.00011438,-0.00012101,0.00
 003995,0.00006662,0.00033305,0.00023285,0.00005238,0.00050641,-0.00000
 885,0.00056602,-0.00221408,-0.00030219,-0.00033950,-0.00547365,-0.0010
 4852,-0.00088022,0.31974021,0.00350207,0.00035742,-0.00226029,-0.00005
 488,0.00007111,-0.00001459,0.00978421,0.00060066,0.00388259,-0.0001786
 0,0.00012036,0.00015267,-0.04751364,-0.05448190,-0.01131386,-0.0010652
 7,-0.00078680,-0.00055536,-0.00003167,0.00014764,0.00071778,-0.0003449
 9,0.00002397,0.00060518,-0.00015469,-0.00006908,-0.00005425,0.00006630
 ,-0.00017176,0.00008050,-0.00006193,0.00029326,0.00011866,-0.03099720,
 -0.00395171,-0.00694436,0.01581627,0.00251008,0.00231717,0.05100743,0.
 05526172,0.00677561,-0.00091524,-0.00252736,0.00010591,0.00024212,0.00
 014039,0.02079949,0.00708751,0.00727277,-0.00055204,0.00018334,0.00030
 011,-0.06025456,-0.01146375,-0.06151323,-0.00072461,-0.00180764,-0.000
 47818,-0.00025489,0.00014249,0.00007215,-0.00076210,-0.00017644,0.0008
 9766,-0.00001946,0.00011300,-0.00000277,-0.00016099,-0.00013193,0.0003
 2733,0.00021050,0.00006960,-0.00079892,-0.00381378,-0.00015492,-0.0022
 6422,-0.02576786,-0.00664204,-0.00497721,0.06418636,0.01338361,0.06353
 042,0.00129707,-0.01141992,0.00852050,-0.00242397,0.00475869,0.0013619
 3,0.00254882,-0.00034245,0.00150212,-0.00046795,0.00034682,-0.00061588
 ,-0.00015252,-0.00002075,-0.00005868,-0.03942848,-0.01108831,0.0009004
 3,0.00607973,0.00351119,-0.00917568,-0.00015345,0.00019165,-0.00021226
 ,-0.00187881,-0.00036754,-0.00116555,0.00003356,0.00001004,-0.00008681
 ,0.00018990,0.00017788,0.00018693,-0.00009821,0.00014175,0.00018868,0.
 00005972,0.00008030,-0.00007641,-0.00002072,0.00009349,0.00005935,0.02
 850358,-0.01011157,-0.03145411,0.02175449,0.00306943,0.00191834,-0.001
 02166,0.00524528,-0.00002993,0.00245533,-0.00035004,0.00036278,-0.0000
 9655,-0.00079465,-0.00018931,-0.00046863,-0.00899961,-0.12975366,0.122
 87440,-0.00209456,0.00703521,-0.00754395,-0.00044953,0.00000174,-0.000
 24534,-0.00010980,0.00077343,-0.00010068,-0.00002952,-0.00028444,-0.00
 031908,0.00010854,0.00035016,-0.00028208,-0.00002662,0.00002781,0.0000
 4264,0.00014617,-0.00005117,-0.00015955,-0.00029159,0.00013780,0.00017
 211,0.01799342,0.15060201,0.00152552,-0.00031977,0.01027644,0.00157889
 ,-0.00051538,0.00209504,-0.00104803,0.00000126,0.00034675,-0.00101905,
 0.00097600,-0.00021362,0.00002946,0.00010893,-0.00001159,-0.00050180,0
 .12138282,-0.24212860,0.00274277,0.01978507,-0.01795632,0.00011337,0.0
 0005983,-0.00001484,-0.00092760,-0.00096912,-0.00056011,0.00017166,0.0
 0006905,-0.00039548,0.00021235,-0.00059322,0.00022416,0.00005717,-0.00
 004348,-0.00012573,-0.00003291,-0.00006543,0.00002342,0.00001913,-0.00
 006918,-0.00004046,0.00165057,-0.13727678,0.25201582,-0.00527977,0.001
 93601,0.00284018,-0.00077636,-0.01355302,0.01308719,0.00026557,-0.0006
 1218,-0.00041355,-0.00001231,-0.00002903,-0.00001590,0.00006624,-0.000
 06580,-0.00012179,0.01000624,0.00640979,-0.00922338,-0.04443840,-0.006
 08313,-0.00082672,-0.00017344,-0.00002563,-0.00001816,0.00005229,0.000
 09309,0.00001686,-0.00002314,0.00003122,0.00008402,-0.00002267,0.00004
 385,-0.00000239,0.00002044,0.00022368,-0.00010731,-0.00018711,-0.00025
 517,0.00004146,0.00000418,0.00009936,0.00016735,0.00587740,-0.00351101
 ,-0.00372241,0.03339236,0.00308082,0.00064821,-0.00037569,-0.00504717,
 -0.02419395,0.02415643,-0.00029228,0.00032080,0.00005901,-0.00012018,-
 0.00000430,-0.00003811,0.00001285,0.00013424,-0.00006605,-0.00228769,0
 .00817767,-0.00682913,-0.00781835,-0.14365416,0.13482294,0.00007119,0.
 00000164,-0.00001793,0.00001696,-0.00012237,0.00001165,0.00002750,0.00
 001902,0.00001850,-0.00002796,-0.00006582,0.00000929,0.00004310,-0.000
 14108,0.00012795,-0.00000909,0.00010094,0.00007758,0.00001169,-0.00009
 087,-0.00007290,-0.00356485,0.00056262,-0.00110522,0.01889807,0.161649
 21,0.00235211,0.00031514,0.00227098,0.00028062,-0.00444726,0.00979778,
 -0.00042941,-0.00017064,-0.00031181,-0.00002324,0.00018408,-0.00002931
 ,0.00011657,0.00011826,-0.00006588,0.00115749,0.01866359,-0.01582904,0
 .00233424,0.13864530,-0.25426951,-0.00003101,0.00002310,0.00001007,0.0
 0005212,-0.00016448,-0.00004803,0.00000581,0.00005520,0.00003484,0.000
 01224,-0.00012327,0.00007146,-0.00008565,-0.00001676,-0.00003897,-0.00
 011075,-0.00006974,0.00009715,0.00006710,-0.00003897,0.00004320,-0.003
 52791,-0.00116077,-0.00262054,-0.00058013,-0.14929535,0.25917266,-0.00
 035472,0.00135539,-0.00023391,-0.01466457,-0.01439353,-0.00775432,-0.0
 0032896,-0.00017501,-0.00001553,0.00006013,-0.00014859,0.00001622,0.00
 002473,-0.00016407,-0.00002128,-0.00027335,-0.00064053,0.00079086,-0.0
 0182493,-0.01374970,0.01879095,0.00001136,0.00003270,0.00001317,-0.000
 05644,0.00003371,-0.00004244,-0.00001438,0.00002188,0.00000199,0.00001
 967,0.00004056,0.00000976,-0.00008234,0.00000806,0.00001665,0.00000410
 ,0.00003817,0.00001336,0.00003476,0.00003374,0.00000573,0.00003431,0.0
 0020566,-0.00084910,0.00122847,-0.00299461,-0.00159020,0.01618215,0.00
 176682,0.00132983,0.00033755,-0.02477718,-0.16648052,0.19330784,-0.001
 04833,0.00016858,-0.00028506,0.00020123,-0.00002440,0.00005157,0.00020
 202,-0.00003232,0.00010953,0.00098810,0.00189465,0.00027433,-0.0038861
 1,-0.03044795,0.03788047,0.00022520,0.00005505,0.00005963,-0.00006707,
 0.00004641,-0.00000806,-0.00003732,-0.00002628,-0.00004437,0.00006629,
 0.00002453,0.00004171,-0.00007771,0.00003114,-0.00000663,-0.00002966,0
 .00000512,-0.00001876,0.00007907,0.00002811,-0.00002892,-0.00050143,-0
 .00000929,-0.00142539,-0.00360010,-0.00334178,-0.00251744,0.03049617,0
 .19677913,-0.00033850,-0.00071469,-0.00202399,0.01183904,0.23722596,-0
 .39169161,0.00009574,-0.00000969,0.00038669,0.00000757,-0.00008925,0.0
 0001696,-0.00007428,0.00007253,-0.00003919,-0.00145701,-0.00514577,0.0
 0314785,-0.00021088,-0.00349214,0.00607083,-0.00003796,-0.00001727,-0.
 00003489,-0.00003129,0.00004425,0.00005704,0.00000680,-0.00004737,-0.0
 0003142,0.00000356,0.00004382,-0.00002987,0.00002958,-0.00001355,0.000
 01398,-0.00000199,-0.00001471,-0.00001142,-0.00002179,-0.00000727,0.00
 001832,0.00054867,0.00137613,-0.00091435,-0.00120532,-0.00148298,0.001
 71497,-0.00915192,-0.22772799,0.38335009\\-0.00000009,0.00000001,-0.00
 000047,0.00000065,-0.00000058,0.,-0.00000012,0.00000021,-0.00000016,-0
 .00000053,0.00000062,0.00000009,0.00000023,-0.00000010,0.00000030,0.,-
 0.00000029,-0.00000022,0.00000033,-0.00000071,-0.00000034,-0.00000034,
 0.00000028,-0.00000049,-0.00000034,0.00000058,0.00000042,-0.00000073,0
 .00000083,-0.00000015,-0.00000057,0.00000085,0.00000029,0.00000026,-0.
 00000018,0.00000054,0.00000034,-0.00000042,-0.00000002,0.,0.00000009,0
 .00000045,-0.00000010,0.00000013,-0.00000003,0.00000060,-0.00000084,-0
 .00000041,0.00000042,-0.00000048,0.00000019\\\@


 WE LEARN WISDOM FROM FAILURE MUCH MORE THAN FROM SUCCESS.
 WE DISCOVER WHAT WILL DO BY FINDING OUT WHAT WILL NOT DO...
 AND HE WHO NEVER MADE A MISTAKE NEVER MADE A DISCOVERY
 Job cpu time:       0 days  3 hours 37 minutes 56.4 seconds.
 Elapsed time:       0 days  1 hours 49 minutes  0.7 seconds.
 File lengths (MBytes):  RWF=   1392 Int=      0 D2E=      0 Chk=     32 Scr=     32
 Normal termination of Gaussian 16 at Sun Sep 29 10:31:49 2019.
01,-
 0.00000047,0.00000065,-0.00000058,0.,-0.00000012,0.00000021,-0.0000001
 6,-0.00000053,0.00000062,0.00000009,0.00000023,-0.00000010,0.00000030,
 0.,-0.00000029,-0.00000022,0.00000033,-0.00000071,-0.00000034,-0.00000
 034,0.00000028,-0.00000049,-0.00000034,0.00000058,0.00000042,-0.000000
 73,0.00000083,-0.00000015,-0.00000057,0.00000085,0.00000029,0.00000026
 ,-0.00000018,0.00000054,0.00000034,-0.00000042,-0.00000002,0.,0.000000
 09,0.00000045,-0.00000010,0.00000013,-0.00000003,0.00000060,-0.0000008
 4,-0.00000041,0.00000042,-0.00000048,0.00000019\\\@


 THE THINKER DIES, BUT HIS THOUGHTS ARE BEYOND THE 
 REACH OF DESTRUCTION.  MEN ARE MORTAL; BUT IDEAS 
 ARE IMMORTAL.
                              -- WALTER LIPPMANN
 Job cpu time:       0 days  3 hours 13 minutes 12.7 seconds.
 Elapsed time:       0 days  1 hours 36 minutes 38.0 seconds.
 File lengths (MBytes):  RWF=   1392 Int=      0 D2E=      0 Chk=     32 Scr=     32
 Normal termination of Gaussian 16 at Sun Sep 29 04:12:55 2019.
