 Entering Gaussian System, Link 0=g16
 Input=loose/species/CC(C)OC=CO/conformers/CC(C)OC=CO_126.com
 Output=loose/species/CC(C)OC=CO/conformers/CC(C)OC=CO_126.log
 Initial command:
 /shared/centos7/gaussian/g16/l1.exe "/scratch/harms.n/gauss_scrdir/Gau-43577.inp" -scrdir="/scratch/harms.n/gauss_scrdir/"
 Entering Link 1 = /shared/centos7/gaussian/g16/l1.exe PID=     43579.
  
 Copyright (c) 1988,1990,1992,1993,1995,1998,2003,2009,2016,
            Gaussian, Inc.  All Rights Reserved.
  
 This is part of the Gaussian(R) 16 program.  It is based on
 the Gaussian(R) 09 system (copyright 2009, Gaussian, Inc.),
 the Gaussian(R) 03 system (copyright 2003, Gaussian, Inc.),
 the Gaussian(R) 98 system (copyright 1998, Gaussian, Inc.),
 the Gaussian(R) 94 system (copyright 1995, Gaussian, Inc.),
 the Gaussian 92(TM) system (copyright 1992, Gaussian, Inc.),
 the Gaussian 90(TM) system (copyright 1990, Gaussian, Inc.),
 the Gaussian 88(TM) system (copyright 1988, Gaussian, Inc.),
 the Gaussian 86(TM) system (copyright 1986, Carnegie Mellon
 University), and the Gaussian 82(TM) system (copyright 1983,
 Carnegie Mellon University). Gaussian is a federally registered
 trademark of Gaussian, Inc.
  
 This software contains proprietary and confidential information,
 including trade secrets, belonging to Gaussian, Inc.
  
 This software is provided under written license and may be
 used, copied, transmitted, or stored only in accord with that
 written license.
  
 The following legend is applicable only to US Government
 contracts under FAR:
  
                    RESTRICTED RIGHTS LEGEND
  
 Use, reproduction and disclosure by the US Government is
 subject to restrictions as set forth in subparagraphs (a)
 and (c) of the Commercial Computer Software - Restricted
 Rights clause in FAR 52.227-19.
  
 Gaussian, Inc.
 340 Quinnipiac St., Bldg. 40, Wallingford CT 06492
  
  
 ---------------------------------------------------------------
 Warning -- This program may not be used in any manner that
 competes with the business of Gaussian, Inc. or will provide
 assistance to any competitor of Gaussian, Inc.  The licensee
 of this program is prohibited from giving any competitor of
 Gaussian, Inc. access to this program.  By using this program,
 the user acknowledges that Gaussian, Inc. is engaged in the
 business of creating and licensing software in the field of
 computational chemistry and represents and warrants to the
 licensee that it is not a competitor of Gaussian, Inc. and that
 it will not use this program in any manner prohibited above.
 ---------------------------------------------------------------
  

 Cite this work as:
 Gaussian 16, Revision A.03,
 M. J. Frisch, G. W. Trucks, H. B. Schlegel, G. E. Scuseria, 
 M. A. Robb, J. R. Cheeseman, G. Scalmani, V. Barone, 
 G. A. Petersson, H. Nakatsuji, X. Li, M. Caricato, A. V. Marenich, 
 J. Bloino, B. G. Janesko, R. Gomperts, B. Mennucci, H. P. Hratchian, 
 J. V. Ortiz, A. F. Izmaylov, J. L. Sonnenberg, D. Williams-Young, 
 F. Ding, F. Lipparini, F. Egidi, J. Goings, B. Peng, A. Petrone, 
 T. Henderson, D. Ranasinghe, V. G. Zakrzewski, J. Gao, N. Rega, 
 G. Zheng, W. Liang, M. Hada, M. Ehara, K. Toyota, R. Fukuda, 
 J. Hasegawa, M. Ishida, T. Nakajima, Y. Honda, O. Kitao, H. Nakai, 
 T. Vreven, K. Throssell, J. A. Montgomery, Jr., J. E. Peralta, 
 F. Ogliaro, M. J. Bearpark, J. J. Heyd, E. N. Brothers, K. N. Kudin, 
 V. N. Staroverov, T. A. Keith, R. Kobayashi, J. Normand, 
 K. Raghavachari, A. P. Rendell, J. C. Burant, S. S. Iyengar, 
 J. Tomasi, M. Cossi, J. M. Millam, M. Klene, C. Adamo, R. Cammi, 
 J. W. Ochterski, R. L. Martin, K. Morokuma, O. Farkas, 
 J. B. Foresman, and D. J. Fox, Gaussian, Inc., Wallingford CT, 2016.
 
 ******************************************
 Gaussian 16:  EM64L-G16RevA.03 25-Dec-2016
                26-Sep-2019 
 ******************************************
 %nprocshared=20
 Will use up to   20 processors via shared memory.
 %mem=5GB
 ----------------------------------------------------------------------
 #p m062x/cc-pVTZ opt=(calcfc,maxcycles=900,Tight) freq IOP(7/33=1,2/16
 =3) scf=(maxcycle=900)
 ----------------------------------------------------------------------
 1/6=900,7=10,10=4,18=20,19=15,26=3,38=1/1,3;
 2/9=110,12=2,16=3,17=6,18=5,40=1/2;
 3/5=16,6=1,11=2,25=1,30=1,71=2,74=-55,140=1/1,2,3;
 4//1;
 5/5=2,7=900,38=5/2;
 8/6=4,10=90,11=11/1;
 11/6=1,8=1,9=11,15=111,16=1/1,2,10;
 10/6=1,13=1/2;
 6/7=2,8=2,9=2,10=2,28=1/1;
 7/10=1,18=20,25=1,33=1/1,2,3,16;
 1/6=900,7=10,10=4,18=20,19=15,26=3/3(2);
 2/9=110,16=3/2;
 99//99;
 2/9=110,16=3/2;
 3/5=16,6=1,11=2,25=1,30=1,71=1,74=-55/1,2,3;
 4/5=5,16=3,69=1/1;
 5/5=2,7=900,38=5/2;
 7/33=1/1,2,3,16;
 1/6=900,7=10,18=20,19=15,26=3/3(-5);
 2/9=110,16=3/2;
 6/7=2,8=2,9=2,10=2,19=2,28=1/1;
 99/9=1/99;
 Leave Link    1 at Thu Sep 26 05:13:36 2019, MaxMem=   671088640 cpu:               4.7 elap:               2.4
 (Enter /shared/centos7/gaussian/g16/l101.exe)
 ------------------------------
 Gaussian input prepared by ASE
 ------------------------------
 Symbolic Z-matrix:
 Charge =  0 Multiplicity = 1
 O                     1.50289  -0.82688   3.52727 
 O                     0.66204   1.42975   1.51219 
 C                     0.64878   0.12871   4.11991 
 C                     1.37599   0.91648   5.20967 
 C                    -0.62563  -0.46899   4.61863 
 C                     1.8138   -0.61103   2.20416 
 C                     1.4743    0.3164    1.35641 
 H                     0.3811    0.86161   3.30901 
 H                     2.34832   0.45142   5.47519 
 H                     1.58044   1.95058   4.8775 
 H                     0.75753   0.96253   6.14669 
 H                    -0.66509  -0.50151   5.74738 
 H                    -0.79297  -1.51077   4.27402 
 H                    -1.4973    0.15313   4.26832 
 H                     2.49902  -1.40142   1.85849 
 H                     1.86061   0.23308   0.3513 
 H                     1.01829   1.95765   2.28433 
 
 ITRead=  0  0  0  0  0  0  0  0  0  0  0  0  0  0  0  0  0
 MicOpt= -1 -1 -1 -1 -1 -1 -1 -1 -1 -1 -1 -1 -1 -1 -1 -1 -1
 NAtoms=     17 NQM=       17 NQMF=       0 NMMI=      0 NMMIF=      0
                NMic=       0 NMicF=      0.
                    Isotopes and Nuclear Properties:
 (Nuclear quadrupole moments (NQMom) in fm**2, nuclear magnetic moments (NMagM)
  in nuclear magnetons)

  Atom         1           2           3           4           5           6           7           8           9          10
 IAtWgt=          16          16          12          12          12          12          12           1           1           1
 AtmWgt=  15.9949146  15.9949146  12.0000000  12.0000000  12.0000000  12.0000000  12.0000000   1.0078250   1.0078250   1.0078250
 NucSpn=           0           0           0           0           0           0           0           1           1           1
 AtZEff=  -0.0000000  -0.0000000  -0.0000000  -0.0000000  -0.0000000  -0.0000000  -0.0000000  -0.0000000  -0.0000000  -0.0000000
 NQMom=    0.0000000   0.0000000   0.0000000   0.0000000   0.0000000   0.0000000   0.0000000   0.0000000   0.0000000   0.0000000
 NMagM=    0.0000000   0.0000000   0.0000000   0.0000000   0.0000000   0.0000000   0.0000000   2.7928460   2.7928460   2.7928460
 AtZNuc=   8.0000000   8.0000000   6.0000000   6.0000000   6.0000000   6.0000000   6.0000000   1.0000000   1.0000000   1.0000000

  Atom        11          12          13          14          15          16          17
 IAtWgt=           1           1           1           1           1           1           1
 AtmWgt=   1.0078250   1.0078250   1.0078250   1.0078250   1.0078250   1.0078250   1.0078250
 NucSpn=           1           1           1           1           1           1           1
 AtZEff=  -0.0000000  -0.0000000  -0.0000000  -0.0000000  -0.0000000  -0.0000000  -0.0000000
 NQMom=    0.0000000   0.0000000   0.0000000   0.0000000   0.0000000   0.0000000   0.0000000
 NMagM=    2.7928460   2.7928460   2.7928460   2.7928460   2.7928460   2.7928460   2.7928460
 AtZNuc=   1.0000000   1.0000000   1.0000000   1.0000000   1.0000000   1.0000000   1.0000000
 Leave Link  101 at Thu Sep 26 05:13:38 2019, MaxMem=   671088640 cpu:               2.1 elap:               1.1
 (Enter /shared/centos7/gaussian/g16/l103.exe)

 GradGradGradGradGradGradGradGradGradGradGradGradGradGradGradGradGradGrad
 Berny optimization.
 Initialization pass.
                           ----------------------------
                           !    Initial Parameters    !
                           ! (Angstroms and Degrees)  !
 --------------------------                            --------------------------
 ! Name  Definition              Value          Derivative Info.                !
 --------------------------------------------------------------------------------
 ! R1    R(1,3)                  1.412          calculate D2E/DX2 analytically  !
 ! R2    R(1,6)                  1.3762         calculate D2E/DX2 analytically  !
 ! R3    R(2,7)                  1.3869         calculate D2E/DX2 analytically  !
 ! R4    R(2,17)                 1.0009         calculate D2E/DX2 analytically  !
 ! R5    R(3,4)                  1.5287         calculate D2E/DX2 analytically  !
 ! R6    R(3,5)                  1.4933         calculate D2E/DX2 analytically  !
 ! R7    R(3,8)                  1.1253         calculate D2E/DX2 analytically  !
 ! R8    R(4,9)                  1.1101         calculate D2E/DX2 analytically  !
 ! R9    R(4,10)                 1.1052         calculate D2E/DX2 analytically  !
 ! R10   R(4,11)                 1.1237         calculate D2E/DX2 analytically  !
 ! R11   R(5,12)                 1.1299         calculate D2E/DX2 analytically  !
 ! R12   R(5,13)                 1.11           calculate D2E/DX2 analytically  !
 ! R13   R(5,14)                 1.1267         calculate D2E/DX2 analytically  !
 ! R14   R(6,7)                  1.3016         calculate D2E/DX2 analytically  !
 ! R15   R(6,15)                 1.1017         calculate D2E/DX2 analytically  !
 ! R16   R(7,16)                 1.08           calculate D2E/DX2 analytically  !
 ! A1    A(3,1,6)              115.7231         calculate D2E/DX2 analytically  !
 ! A2    A(7,2,17)             107.5529         calculate D2E/DX2 analytically  !
 ! A3    A(1,3,4)              111.1113         calculate D2E/DX2 analytically  !
 ! A4    A(1,3,5)              112.6748         calculate D2E/DX2 analytically  !
 ! A5    A(1,3,8)              106.3916         calculate D2E/DX2 analytically  !
 ! A6    A(4,3,5)              111.9712         calculate D2E/DX2 analytically  !
 ! A7    A(4,3,8)              106.9308         calculate D2E/DX2 analytically  !
 ! A8    A(5,3,8)              107.3568         calculate D2E/DX2 analytically  !
 ! A9    A(3,4,9)              111.7961         calculate D2E/DX2 analytically  !
 ! A10   A(3,4,10)             110.8491         calculate D2E/DX2 analytically  !
 ! A11   A(3,4,11)             110.7162         calculate D2E/DX2 analytically  !
 ! A12   A(9,4,10)             107.5688         calculate D2E/DX2 analytically  !
 ! A13   A(9,4,11)             107.4461         calculate D2E/DX2 analytically  !
 ! A14   A(10,4,11)            108.3068         calculate D2E/DX2 analytically  !
 ! A15   A(3,5,12)             112.0208         calculate D2E/DX2 analytically  !
 ! A16   A(3,5,13)             113.6172         calculate D2E/DX2 analytically  !
 ! A17   A(3,5,14)             109.5957         calculate D2E/DX2 analytically  !
 ! A18   A(12,5,13)            106.1326         calculate D2E/DX2 analytically  !
 ! A19   A(12,5,14)            107.4249         calculate D2E/DX2 analytically  !
 ! A20   A(13,5,14)            107.7619         calculate D2E/DX2 analytically  !
 ! A21   A(1,6,7)              132.769          calculate D2E/DX2 analytically  !
 ! A22   A(1,6,15)             109.2475         calculate D2E/DX2 analytically  !
 ! A23   A(7,6,15)             117.9747         calculate D2E/DX2 analytically  !
 ! A24   A(2,7,6)              130.6626         calculate D2E/DX2 analytically  !
 ! A25   A(2,7,16)             112.0821         calculate D2E/DX2 analytically  !
 ! A26   A(6,7,16)             117.2511         calculate D2E/DX2 analytically  !
 ! D1    D(6,1,3,4)           -113.9182         calculate D2E/DX2 analytically  !
 ! D2    D(6,1,3,5)            119.5006         calculate D2E/DX2 analytically  !
 ! D3    D(6,1,3,8)              2.1197         calculate D2E/DX2 analytically  !
 ! D4    D(3,1,6,7)             -0.1247         calculate D2E/DX2 analytically  !
 ! D5    D(3,1,6,15)           178.7407         calculate D2E/DX2 analytically  !
 ! D6    D(17,2,7,6)            54.8867         calculate D2E/DX2 analytically  !
 ! D7    D(17,2,7,16)         -125.891          calculate D2E/DX2 analytically  !
 ! D8    D(1,3,4,9)            -12.1788         calculate D2E/DX2 analytically  !
 ! D9    D(1,3,4,10)           107.8322         calculate D2E/DX2 analytically  !
 ! D10   D(1,3,4,11)          -131.944          calculate D2E/DX2 analytically  !
 ! D11   D(5,3,4,9)            114.7889         calculate D2E/DX2 analytically  !
 ! D12   D(5,3,4,10)          -125.2001         calculate D2E/DX2 analytically  !
 ! D13   D(5,3,4,11)            -4.9763         calculate D2E/DX2 analytically  !
 ! D14   D(8,3,4,9)           -127.8839         calculate D2E/DX2 analytically  !
 ! D15   D(8,3,4,10)            -7.8729         calculate D2E/DX2 analytically  !
 ! D16   D(8,3,4,11)           112.3509         calculate D2E/DX2 analytically  !
 ! D17   D(1,3,5,12)           108.8504         calculate D2E/DX2 analytically  !
 ! D18   D(1,3,5,13)           -11.4126         calculate D2E/DX2 analytically  !
 ! D19   D(1,3,5,14)          -132.0151         calculate D2E/DX2 analytically  !
 ! D20   D(4,3,5,12)           -17.2695         calculate D2E/DX2 analytically  !
 ! D21   D(4,3,5,13)          -137.5325         calculate D2E/DX2 analytically  !
 ! D22   D(4,3,5,14)           101.865          calculate D2E/DX2 analytically  !
 ! D23   D(8,3,5,12)          -134.341          calculate D2E/DX2 analytically  !
 ! D24   D(8,3,5,13)           105.396          calculate D2E/DX2 analytically  !
 ! D25   D(8,3,5,14)           -15.2065         calculate D2E/DX2 analytically  !
 ! D26   D(1,6,7,2)              0.0747         calculate D2E/DX2 analytically  !
 ! D27   D(1,6,7,16)          -179.1146         calculate D2E/DX2 analytically  !
 ! D28   D(15,6,7,2)          -178.7123         calculate D2E/DX2 analytically  !
 ! D29   D(15,6,7,16)            2.0984         calculate D2E/DX2 analytically  !
 --------------------------------------------------------------------------------
 Trust Radius=3.00D-01 FncErr=1.00D-07 GrdErr=1.00D-06 EigMax=2.50D+02 EigMin=1.00D-04
 Number of steps in this run=    102 maximum allowed number of steps=    102.
 GradGradGradGradGradGradGradGradGradGradGradGradGradGradGradGradGradGrad

 Leave Link  103 at Thu Sep 26 05:13:38 2019, MaxMem=   671088640 cpu:               1.4 elap:               0.7
 (Enter /shared/centos7/gaussian/g16/l202.exe)
                          Input orientation:                          
 ---------------------------------------------------------------------
 Center     Atomic      Atomic             Coordinates (Angstroms)
 Number     Number       Type             X           Y           Z
 ---------------------------------------------------------------------
      1          8           0        1.502888   -0.826884    3.527272
      2          8           0        0.662044    1.429751    1.512188
      3          6           0        0.648776    0.128707    4.119907
      4          6           0        1.375992    0.916483    5.209667
      5          6           0       -0.625629   -0.468987    4.618627
      6          6           0        1.813799   -0.611033    2.204155
      7          6           0        1.474304    0.316397    1.356412
      8          1           0        0.381095    0.861607    3.309012
      9          1           0        2.348323    0.451424    5.475193
     10          1           0        1.580443    1.950577    4.877498
     11          1           0        0.757529    0.962525    6.146691
     12          1           0       -0.665088   -0.501506    5.747375
     13          1           0       -0.792971   -1.510774    4.274025
     14          1           0       -1.497301    0.153135    4.268322
     15          1           0        2.499023   -1.401424    1.858487
     16          1           0        1.860615    0.233083    0.351303
     17          1           0        1.018287    1.957646    2.284328
 ---------------------------------------------------------------------
                    Distance matrix (angstroms):
                    1          2          3          4          5
     1  O    0.000000
     2  O    3.140061   0.000000
     3  C    1.412047   2.914290   0.000000
     4  C    2.426085   3.800594   1.528729   0.000000
     5  C    2.418621   3.861771   1.493342   2.505064   0.000000
     6  C    1.376189   2.443390   2.361058   3.399718   3.435209
     7  C    2.453679   1.386935   2.890264   3.900941   3.958357
     8  H    2.038887   1.905333   1.125320   2.146002   2.121101
     9  H    2.478554   4.416568   2.197591   1.110050   3.228816
    10  H    3.089242   3.527043   2.182008   1.105209   3.284518
    11  H    3.258666   4.658974   2.194296   1.123668   2.509449
    12  H    3.120072   4.840232   2.184505   2.542800   1.129905
    13  H    2.509245   4.288531   2.188672   3.386946   1.109989
    14  H    3.242024   3.726767   2.151341   3.118436   1.126748
    15  H    2.026629   3.392634   3.298292   4.226618   4.272150
    16  H    3.367236   2.053348   3.960028   4.930071   4.988424
    17  H    3.087614   1.000891   2.617424   3.125634   3.746994
                    6          7          8          9         10
     6  C    0.000000
     7  C    1.301558   0.000000
     8  H    2.332813   2.303259   0.000000
     9  H    3.480549   4.212659   2.954755   0.000000
    10  H    3.709860   3.883279   2.254870   1.787272   0.000000
    11  H    4.374401   4.886514   2.864317   1.800766   1.806733
    12  H    4.325654   4.952425   2.982984   3.172192   3.436831
    13  H    3.448064   4.122081   2.817423   3.893681   4.240074
    14  H    3.975942   4.163689   2.224990   4.041576   3.615854
    15  H    1.101697   2.062290   3.422127   4.066487   4.603708
    16  H    2.036612   1.080011   3.366313   5.151678   4.849199
    17  H    2.690238   1.939762   1.630120   3.770852   2.653413
                   11         12         13         14         15
    11  H    0.000000
    12  H    2.080068   0.000000
    13  H    3.468161   1.790457   0.000000
    14  H    3.044280   1.818992   1.806850   0.000000
    15  H    5.197091   5.093614   4.084606   4.918797   0.000000
    16  H    5.944360   6.003032   5.046811   5.159944   2.313177
    17  H    3.997013   4.568794   4.389703   3.677047   3.695575
                   16         17
    16  H    0.000000
    17  H    2.724008   0.000000
 Stoichiometry    C5H10O2
 Framework group  C1[X(C5H10O2)]
 Deg. of freedom    45
 Full point group                 C1      NOp   1
 Largest Abelian subgroup         C1      NOp   1
 Largest concise Abelian subgroup C1      NOp   1
                         Standard orientation:                         
 ---------------------------------------------------------------------
 Center     Atomic      Atomic             Coordinates (Angstroms)
 Number     Number       Type             X           Y           Z
 ---------------------------------------------------------------------
      1          8           0       -0.194300    1.136928   -0.195938
      2          8           0        1.761745   -1.270045    0.294319
      3          6           0       -0.883124   -0.072757    0.040831
      4          6           0       -1.650546   -0.521888   -1.202695
      5          6           0       -1.761702   -0.008444    1.246664
      6          6           0        1.179345    1.056329   -0.173604
      7          6           0        2.003611    0.069435    0.028082
      8          1           0       -0.096462   -0.852441    0.239831
      9          1           0       -1.699797    0.280056   -1.968641
     10          1           0       -1.165712   -1.398969   -1.668691
     11          1           0       -2.706521   -0.801046   -0.938841
     12          1           0       -2.857618    0.006688    0.972027
     13          1           0       -1.588871    0.889832    1.875396
     14          1           0       -1.587585   -0.916959    1.889973
     15          1           0        1.604972    2.048784   -0.391804
     16          1           0        3.059689    0.294129    0.002876
     17          1           0        1.172844   -1.621187   -0.434843
 ---------------------------------------------------------------------
 Rotational constants (GHZ):           3.9020228           1.7610318           1.6409946
 Leave Link  202 at Thu Sep 26 05:13:40 2019, MaxMem=   671088640 cpu:               3.5 elap:               1.8
 (Enter /shared/centos7/gaussian/g16/l301.exe)
 Standard basis: CC-pVTZ (5D, 7F)
 Ernie: Thresh=  0.10000D-02 Tol=  0.10000D-05 Strict=F.
 Ernie:  21 primitive shells out of 262 were deleted.
 There are   395 symmetry adapted cartesian basis functions of A   symmetry.
 There are   350 symmetry adapted basis functions of A   symmetry.
   350 basis functions,   534 primitive gaussians,   395 cartesian basis functions
    28 alpha electrons       28 beta electrons
       nuclear repulsion energy       320.7224074600 Hartrees.
 IExCor= 4336 DFT=T Ex+Corr=M062X ExCW=0 ScaHFX=  0.540000
 ScaDFX=  1.000000  1.000000  1.000000  1.000000 ScalE2=  1.000000  1.000000
 IRadAn=      5 IRanWt=     -1 IRanGd=            0 ICorTp=0 IEmpDi=  4
 NAtoms=   17 NActive=   17 NUniq=   17 SFac= 1.00D+00 NAtFMM=   60 NAOKFM=F Big=F
 Integral buffers will be    131072 words long.
 Raffenetti 2 integral format.
 Two-electron integral symmetry is turned on.
 Leave Link  301 at Thu Sep 26 05:13:41 2019, MaxMem=   671088640 cpu:               1.7 elap:               0.8
 (Enter /shared/centos7/gaussian/g16/l302.exe)
 NPDir=0 NMtPBC=     1 NCelOv=     1 NCel=       1 NClECP=     1 NCelD=      1
         NCelK=      1 NCelE2=     1 NClLst=     1 CellRange=     0.0.
 One-electron integrals computed using PRISM.
 One-electron integral symmetry used in STVInt
 NBasis=   350 RedAO= T EigKep=  3.69D-04  NBF=   350
 NBsUse=   350 1.00D-06 EigRej= -1.00D+00 NBFU=   350
 Precomputing XC quadrature grid using
 IXCGrd= 4 IRadAn=           5 IRanWt=          -1 IRanGd=           0 AccXCQ= 0.00D+00.
 Generated NRdTot=       0 NPtTot=           0 NUsed=           0 NTot=          32
 NSgBfM=   395   395   395   395   395 MxSgAt=    17 MxSgA2=    17.
 Leave Link  302 at Thu Sep 26 05:14:36 2019, MaxMem=   671088640 cpu:             110.7 elap:              55.4
 (Enter /shared/centos7/gaussian/g16/l303.exe)
 DipDrv:  MaxL=1.
 Leave Link  303 at Thu Sep 26 05:14:42 2019, MaxMem=   671088640 cpu:              10.5 elap:               5.3
 (Enter /shared/centos7/gaussian/g16/l401.exe)
 ExpMin= 1.03D-01 ExpMax= 1.53D+04 ExpMxC= 5.22D+02 IAcc=3 IRadAn=         5 AccDes= 0.00D+00
 Harris functional with IExCor= 1009 and IRadAn=       5 diagonalized for initial guess.
 HarFok:  IExCor= 1009 AccDes= 0.00D+00 IRadAn=         5 IDoV= 1 UseB2=F ITyADJ=14
 ICtDFT=  3500011 ScaDFX=  1.000000  1.000000  1.000000  1.000000
 FoFCou: FMM=F IPFlag=           0 FMFlag=      100000 FMFlg1=           0
         NFxFlg=           0 DoJE=T BraDBF=F KetDBF=T FulRan=T
         wScrn=  0.000000 ICntrl=       500 IOpCl=  0 I1Cent=   200000004 NGrid=           0
         NMat0=    1 NMatS0=      1 NMatT0=    0 NMatD0=    1 NMtDS0=    0 NMtDT0=    0
 Petite list used in FoFCou.
 Harris En= -346.791561681476    
 JPrj=0 DoOrth=F DoCkMO=F.
 Leave Link  401 at Thu Sep 26 05:15:12 2019, MaxMem=   671088640 cpu:              60.5 elap:              30.3
 (Enter /shared/centos7/gaussian/g16/l502.exe)
 Integral symmetry usage will be decided dynamically.
 Closed shell SCF:
 Using DIIS extrapolation, IDIIS=  1040.
 NGot=   671088640 LenX=   670765141 LenY=   670608675
 Requested convergence on RMS density matrix=1.00D-08 within 900 cycles.
 Requested convergence on MAX density matrix=1.00D-06.
 Requested convergence on             energy=1.00D-06.
 No special actions if energy rises.
 Fock matrices will be formed incrementally for  20 cycles.
 Integral accuracy reduced to 1.0D-05 until final iterations.

 Cycle   1  Pass 0  IDiag  1:
 FoFJK:  IHMeth= 1 ICntrl=       0 DoSepK=F KAlg= 0 I1Cent=           0 FoldK=F
 IRaf= 970000000 NMat=       1 IRICut=       1 DoRegI=T DoRafI=F ISym2E= 0 IDoP0=0 IntGTp=1.
 FoFCou: FMM=F IPFlag=           0 FMFlag=      100000 FMFlg1=           0
         NFxFlg=           0 DoJE=F BraDBF=F KetDBF=F FulRan=T
         wScrn=  0.000000 ICntrl=         0 IOpCl=  0 I1Cent=           0 NGrid=           0
         NMat0=    1 NMatS0=      1 NMatT0=    0 NMatD0=    1 NMtDS0=    0 NMtDT0=    0
 Symmetry not used in FoFCou.
 E= -346.679977480580    
 DIIS: error= 2.43D-02 at cycle   1 NSaved=   1.
 NSaved= 1 IEnMin= 1 EnMin= -346.679977480580     IErMin= 1 ErrMin= 2.43D-02
 ErrMax= 2.43D-02  0.00D+00 EMaxC= 1.00D-01 BMatC= 2.83D-01 BMatP= 2.83D-01
 IDIUse=3 WtCom= 7.57D-01 WtEn= 2.43D-01
 Coeff-Com:  0.100D+01
 Coeff-En:   0.100D+01
 Coeff:      0.100D+01
 Gap=     0.352 Goal=   None    Shift=    0.000
 GapD=    0.352 DampG=1.000 DampE=0.500 DampFc=0.5000 IDamp=-1.
 Damping current iteration by 5.00D-01
 RMSDP=1.96D-03 MaxDP=8.93D-02              OVMax= 1.49D-01

 Cycle   2  Pass 0  IDiag  1:
 RMSU=  9.82D-04    CP:  1.00D+00
 E= -346.798334802018     Delta-E=       -0.118357321438 Rises=F Damp=T
 DIIS: error= 3.98D-03 at cycle   2 NSaved=   2.
 NSaved= 2 IEnMin= 2 EnMin= -346.798334802018     IErMin= 2 ErrMin= 3.98D-03
 ErrMax= 3.98D-03  0.00D+00 EMaxC= 1.00D-01 BMatC= 2.13D-02 BMatP= 2.83D-01
 IDIUse=3 WtCom= 9.60D-01 WtEn= 3.98D-02
 Coeff-Com: -0.143D+00 0.114D+01
 Coeff-En:   0.000D+00 0.100D+01
 Coeff:     -0.137D+00 0.114D+01
 Gap=     0.322 Goal=   None    Shift=    0.000
 RMSDP=4.38D-04 MaxDP=1.39D-02 DE=-1.18D-01 OVMax= 7.29D-02

 Cycle   3  Pass 0  IDiag  1:
 RMSU=  4.36D-04    CP:  1.00D+00  9.79D-01
 E= -346.903831007086     Delta-E=       -0.105496205068 Rises=F Damp=F
 DIIS: error= 2.29D-03 at cycle   3 NSaved=   3.
 NSaved= 3 IEnMin= 3 EnMin= -346.903831007086     IErMin= 3 ErrMin= 2.29D-03
 ErrMax= 2.29D-03  0.00D+00 EMaxC= 1.00D-01 BMatC= 3.39D-03 BMatP= 2.13D-02
 IDIUse=3 WtCom= 9.77D-01 WtEn= 2.29D-02
 Coeff-Com: -0.836D-01 0.308D+00 0.776D+00
 Coeff-En:   0.000D+00 0.000D+00 0.100D+01
 Coeff:     -0.817D-01 0.301D+00 0.781D+00
 Gap=     0.324 Goal=   None    Shift=    0.000
 RMSDP=1.59D-04 MaxDP=8.15D-03 DE=-1.05D-01 OVMax= 1.45D-02

 Cycle   4  Pass 0  IDiag  1:
 RMSU=  1.23D-04    CP:  1.00D+00  1.07D+00  8.81D-01
 E= -346.905649166835     Delta-E=       -0.001818159749 Rises=F Damp=F
 DIIS: error= 1.30D-03 at cycle   4 NSaved=   4.
 NSaved= 4 IEnMin= 4 EnMin= -346.905649166835     IErMin= 4 ErrMin= 1.30D-03
 ErrMax= 1.30D-03  0.00D+00 EMaxC= 1.00D-01 BMatC= 9.89D-04 BMatP= 3.39D-03
 IDIUse=3 WtCom= 9.87D-01 WtEn= 1.30D-02
 Coeff-Com: -0.282D-01 0.737D-01 0.394D+00 0.560D+00
 Coeff-En:   0.000D+00 0.000D+00 0.184D+00 0.816D+00
 Coeff:     -0.279D-01 0.727D-01 0.391D+00 0.564D+00
 Gap=     0.319 Goal=   None    Shift=    0.000
 RMSDP=6.86D-05 MaxDP=3.10D-03 DE=-1.82D-03 OVMax= 7.59D-03

 Cycle   5  Pass 0  IDiag  1:
 RMSU=  2.86D-05    CP:  1.00D+00  1.05D+00  9.39D-01  5.54D-01
 E= -346.906377936491     Delta-E=       -0.000728769655 Rises=F Damp=F
 DIIS: error= 2.76D-04 at cycle   5 NSaved=   5.
 NSaved= 5 IEnMin= 5 EnMin= -346.906377936491     IErMin= 5 ErrMin= 2.76D-04
 ErrMax= 2.76D-04  0.00D+00 EMaxC= 1.00D-01 BMatC= 2.88D-05 BMatP= 9.89D-04
 IDIUse=3 WtCom= 9.97D-01 WtEn= 2.76D-03
 Coeff-Com: -0.507D-02 0.988D-02 0.101D+00 0.217D+00 0.677D+00
 Coeff-En:   0.000D+00 0.000D+00 0.000D+00 0.000D+00 0.100D+01
 Coeff:     -0.506D-02 0.986D-02 0.101D+00 0.217D+00 0.678D+00
 Gap=     0.319 Goal=   None    Shift=    0.000
 RMSDP=1.36D-05 MaxDP=4.55D-04 DE=-7.29D-04 OVMax= 1.98D-03

 Cycle   6  Pass 0  IDiag  1:
 RMSU=  8.84D-06    CP:  1.00D+00  1.05D+00  9.44D-01  6.17D-01  7.84D-01
 E= -346.906400512419     Delta-E=       -0.000022575928 Rises=F Damp=F
 DIIS: error= 6.61D-05 at cycle   6 NSaved=   6.
 NSaved= 6 IEnMin= 6 EnMin= -346.906400512419     IErMin= 6 ErrMin= 6.61D-05
 ErrMax= 6.61D-05  0.00D+00 EMaxC= 1.00D-01 BMatC= 2.60D-06 BMatP= 2.88D-05
 IDIUse=1 WtCom= 1.00D+00 WtEn= 0.00D+00
 Coeff-Com: -0.187D-03-0.886D-03 0.175D-01 0.595D-01 0.287D+00 0.637D+00
 Coeff:     -0.187D-03-0.886D-03 0.175D-01 0.595D-01 0.287D+00 0.637D+00
 Gap=     0.319 Goal=   None    Shift=    0.000
 RMSDP=4.17D-06 MaxDP=1.63D-04 DE=-2.26D-05 OVMax= 5.57D-04

 Initial convergence to 1.0D-05 achieved.  Increase integral accuracy.
 Cycle   7  Pass 1  IDiag  1:
 E= -346.906408335815     Delta-E=       -0.000007823397 Rises=F Damp=F
 DIIS: error= 3.29D-05 at cycle   1 NSaved=   1.
 NSaved= 1 IEnMin= 1 EnMin= -346.906408335815     IErMin= 1 ErrMin= 3.29D-05
 ErrMax= 3.29D-05  0.00D+00 EMaxC= 1.00D-01 BMatC= 6.88D-07 BMatP= 6.88D-07
 IDIUse=1 WtCom= 1.00D+00 WtEn= 0.00D+00
 Coeff-Com:  0.100D+01
 Coeff:      0.100D+01
 Gap=     0.319 Goal=   None    Shift=    0.000
 RMSDP=4.17D-06 MaxDP=1.63D-04 DE=-7.82D-06 OVMax= 4.46D-04

 Cycle   8  Pass 1  IDiag  1:
 RMSU=  7.69D-06    CP:  1.00D+00
 E= -346.906408455122     Delta-E=       -0.000000119307 Rises=F Damp=F
 DIIS: error= 2.50D-05 at cycle   2 NSaved=   2.
 NSaved= 2 IEnMin= 2 EnMin= -346.906408455122     IErMin= 2 ErrMin= 2.50D-05
 ErrMax= 2.50D-05  0.00D+00 EMaxC= 1.00D-01 BMatC= 4.82D-07 BMatP= 6.88D-07
 IDIUse=1 WtCom= 1.00D+00 WtEn= 0.00D+00
 Coeff-Com:  0.442D+00 0.558D+00
 Coeff:      0.442D+00 0.558D+00
 Gap=     0.319 Goal=   None    Shift=    0.000
 RMSDP=1.78D-06 MaxDP=7.38D-05 DE=-1.19D-07 OVMax= 2.92D-04

 Cycle   9  Pass 1  IDiag  1:
 RMSU=  1.76D-06    CP:  1.00D+00  9.61D-01
 E= -346.906408779966     Delta-E=       -0.000000324843 Rises=F Damp=F
 DIIS: error= 8.39D-06 at cycle   3 NSaved=   3.
 NSaved= 3 IEnMin= 3 EnMin= -346.906408779966     IErMin= 3 ErrMin= 8.39D-06
 ErrMax= 8.39D-06  0.00D+00 EMaxC= 1.00D-01 BMatC= 6.46D-08 BMatP= 4.82D-07
 IDIUse=1 WtCom= 1.00D+00 WtEn= 0.00D+00
 Coeff-Com: -0.124D-01 0.261D+00 0.752D+00
 Coeff:     -0.124D-01 0.261D+00 0.752D+00
 Gap=     0.319 Goal=   None    Shift=    0.000
 RMSDP=5.44D-07 MaxDP=2.01D-05 DE=-3.25D-07 OVMax= 9.69D-05

 Cycle  10  Pass 1  IDiag  1:
 RMSU=  2.96D-07    CP:  1.00D+00  9.97D-01  7.95D-01
 E= -346.906408830901     Delta-E=       -0.000000050935 Rises=F Damp=F
 DIIS: error= 1.29D-06 at cycle   4 NSaved=   4.
 NSaved= 4 IEnMin= 4 EnMin= -346.906408830901     IErMin= 4 ErrMin= 1.29D-06
 ErrMax= 1.29D-06  0.00D+00 EMaxC= 1.00D-01 BMatC= 1.70D-09 BMatP= 6.46D-08
 IDIUse=1 WtCom= 1.00D+00 WtEn= 0.00D+00
 Coeff-Com: -0.151D-01 0.867D-01 0.299D+00 0.629D+00
 Coeff:     -0.151D-01 0.867D-01 0.299D+00 0.629D+00
 Gap=     0.319 Goal=   None    Shift=    0.000
 RMSDP=8.98D-08 MaxDP=4.22D-06 DE=-5.09D-08 OVMax= 7.83D-06

 Cycle  11  Pass 1  IDiag  1:
 RMSU=  8.04D-08    CP:  1.00D+00  9.99D-01  8.13D-01  1.07D+00
 E= -346.906408832294     Delta-E=       -0.000000001393 Rises=F Damp=F
 DIIS: error= 4.42D-07 at cycle   5 NSaved=   5.
 NSaved= 5 IEnMin= 5 EnMin= -346.906408832294     IErMin= 5 ErrMin= 4.42D-07
 ErrMax= 4.42D-07  0.00D+00 EMaxC= 1.00D-01 BMatC= 1.20D-10 BMatP= 1.70D-09
 IDIUse=1 WtCom= 1.00D+00 WtEn= 0.00D+00
 Coeff-Com: -0.199D-02-0.158D-01-0.213D-01 0.138D+00 0.902D+00
 Coeff:     -0.199D-02-0.158D-01-0.213D-01 0.138D+00 0.902D+00
 Gap=     0.319 Goal=   None    Shift=    0.000
 RMSDP=4.35D-08 MaxDP=1.62D-06 DE=-1.39D-09 OVMax= 4.95D-06

 Cycle  12  Pass 1  IDiag  1:
 RMSU=  2.84D-08    CP:  1.00D+00  1.00D+00  8.20D-01  1.17D+00  1.04D+00
 E= -346.906408832435     Delta-E=       -0.000000000141 Rises=F Damp=F
 DIIS: error= 1.79D-07 at cycle   6 NSaved=   6.
 NSaved= 6 IEnMin= 6 EnMin= -346.906408832435     IErMin= 6 ErrMin= 1.79D-07
 ErrMax= 1.79D-07  0.00D+00 EMaxC= 1.00D-01 BMatC= 2.24D-11 BMatP= 1.20D-10
 IDIUse=1 WtCom= 1.00D+00 WtEn= 0.00D+00
 Coeff-Com:  0.921D-03-0.158D-01-0.395D-01-0.217D-01 0.359D+00 0.717D+00
 Coeff:      0.921D-03-0.158D-01-0.395D-01-0.217D-01 0.359D+00 0.717D+00
 Gap=     0.319 Goal=   None    Shift=    0.000
 RMSDP=1.99D-08 MaxDP=7.53D-07 DE=-1.41D-10 OVMax= 2.02D-06

 Cycle  13  Pass 1  IDiag  1:
 RMSU=  1.21D-08    CP:  1.00D+00  1.00D+00  8.23D-01  1.21D+00  1.14D+00
                    CP:  8.57D-01
 E= -346.906408832472     Delta-E=       -0.000000000037 Rises=F Damp=F
 DIIS: error= 6.09D-08 at cycle   7 NSaved=   7.
 NSaved= 7 IEnMin= 7 EnMin= -346.906408832472     IErMin= 7 ErrMin= 6.09D-08
 ErrMax= 6.09D-08  0.00D+00 EMaxC= 1.00D-01 BMatC= 2.83D-12 BMatP= 2.24D-11
 IDIUse=1 WtCom= 1.00D+00 WtEn= 0.00D+00
 Coeff-Com:  0.615D-03-0.581D-02-0.158D-01-0.248D-01 0.743D-01 0.314D+00
 Coeff-Com:  0.657D+00
 Coeff:      0.615D-03-0.581D-02-0.158D-01-0.248D-01 0.743D-01 0.314D+00
 Coeff:      0.657D+00
 Gap=     0.319 Goal=   None    Shift=    0.000
 RMSDP=4.60D-09 MaxDP=1.84D-07 DE=-3.68D-11 OVMax= 6.55D-07

 SCF Done:  E(RM062X) =  -346.906408832     A.U. after   13 cycles
            NFock= 13  Conv=0.46D-08     -V/T= 2.0060
 KE= 3.448324157829D+02 PE=-1.451318324333D+03 EE= 4.388570922573D+02
 Leave Link  502 at Thu Sep 26 05:25:31 2019, MaxMem=   671088640 cpu:            1238.6 elap:             619.4
 (Enter /shared/centos7/gaussian/g16/l801.exe)
 DoSCS=F DFT=T ScalE2(SS,OS)=  1.000000  1.000000
 Range of M.O.s used for correlation:     1   350
 NBasis=   350 NAE=    28 NBE=    28 NFC=     0 NFV=     0
 NROrb=    350 NOA=    28 NOB=    28 NVA=   322 NVB=   322

 **** Warning!!: The largest alpha MO coefficient is  0.12104198D+02

 Leave Link  801 at Thu Sep 26 05:25:32 2019, MaxMem=   671088640 cpu:               1.4 elap:               0.7
 (Enter /shared/centos7/gaussian/g16/l1101.exe)
 Using compressed storage, NAtomX=    17.
 Will process     18 centers per pass.
 Leave Link 1101 at Thu Sep 26 05:26:02 2019, MaxMem=   671088640 cpu:              59.6 elap:              29.8
 (Enter /shared/centos7/gaussian/g16/l1102.exe)
 Symmetrizing basis deriv contribution to polar:
 IMax=3 JMax=2 DiffMx= 0.00D+00
 Leave Link 1102 at Thu Sep 26 05:26:04 2019, MaxMem=   671088640 cpu:               4.5 elap:               2.3
 (Enter /shared/centos7/gaussian/g16/l1110.exe)
 Forming Gx(P) for the SCF density, NAtomX=    17.
 Integral derivatives from FoFJK, PRISM(SPDF).
 Do as many integral derivatives as possible in FoFJK.
 G2DrvN: MDV=     671087280.
 G2DrvN: will do    18 centers at a time, making    1 passes.
 Calling FoFCou, ICntrl=  3107 FMM=F I1Cent=   0 AccDes= 0.00D+00.
 FoFJK:  IHMeth= 1 ICntrl=    3107 DoSepK=F KAlg= 0 I1Cent=           0 FoldK=F
 IRaf=         0 NMat=       1 IRICut=       1 DoRegI=T DoRafI=F ISym2E= 0 IDoP0=0 IntGTp=1.
 FoFCou: FMM=F IPFlag=           0 FMFlag=      100000 FMFlg1=           0
         NFxFlg=           0 DoJE=F BraDBF=F KetDBF=F FulRan=T
         wScrn=  0.000000 ICntrl=      3107 IOpCl=  0 I1Cent=           0 NGrid=           0
         NMat0=    1 NMatS0=      1 NMatT0=    0 NMatD0=    1 NMtDS0=    0 NMtDT0=    0
 Symmetry not used in FoFCou.
 End of G2Drv F.D. properties file   721 does not exist.
 End of G2Drv F.D. properties file   722 does not exist.
 End of G2Drv F.D. properties file   788 does not exist.
 Leave Link 1110 at Thu Sep 26 05:44:24 2019, MaxMem=   671088640 cpu:            2199.0 elap:            1099.7
 (Enter /shared/centos7/gaussian/g16/l1002.exe)
 Minotr:  Closed shell wavefunction.
          IDoAtm=11111111111111111
          Direct CPHF calculation.
          Differentiating once with respect to nuclear coordinates.
          Requested convergence is 1.0D-08 RMS, and 1.0D-07 maximum.
          Secondary convergence is 1.0D-12 RMS, and 1.0D-12 maximum.
          NewPWx=T KeepS1=F KeepF1=F KeepIn=T MapXYZ=F SortEE=F KeepMc=T.
         5088 words used for storage of precomputed grid.
 Two-electron integrals replicated using symmetry.
          MDV=     671088640 using IRadAn=       1.
          Solving linear equations simultaneously, MaxMat=     380.
 FoF2E skips out because all densities are zero.
 CalDSu exits because no D1Ps are significant.
 FoFJK:  IHMeth= 1 ICntrl=       0 DoSepK=F KAlg= 0 I1Cent=           0 FoldK=F
 IRaf= 950000000 NMat=      51 IRICut=     127 DoRegI=T DoRafI=T ISym2E= 2 IDoP0=3 IntGTp=3.
 FoFCou: FMM=F IPFlag=           0 FMFlag=      100000 FMFlg1=           0
         NFxFlg=           0 DoJE=F BraDBF=F KetDBF=F FulRan=T
         wScrn=  0.000000 ICntrl=         0 IOpCl=  0 I1Cent=           0 NGrid=           0
         NMat0=   51 NMatS0=     51 NMatT0=    0 NMatD0=   51 NMtDS0=    0 NMtDT0=    0
 Integrals replicated using symmetry in FoFCou.
 Raff kept on since  92.48% of shell-pairs survive, threshold=   0.20 IRatSp=92.
          There are    54 degrees of freedom in the 1st order CPHF.  IDoFFX=6 NUNeed=     0.
     48 vectors produced by pass  0 Test12= 1.67D-14 1.85D-09 XBig12= 7.02D-02 4.37D-02.
 AX will form    48 AO Fock derivatives at one time.
     48 vectors produced by pass  1 Test12= 1.67D-14 1.85D-09 XBig12= 8.40D-03 3.08D-02.
     48 vectors produced by pass  2 Test12= 1.67D-14 1.85D-09 XBig12= 2.50D-04 2.15D-03.
     48 vectors produced by pass  3 Test12= 1.67D-14 1.85D-09 XBig12= 3.04D-06 1.75D-04.
     48 vectors produced by pass  4 Test12= 1.67D-14 1.85D-09 XBig12= 1.92D-08 1.55D-05.
     48 vectors produced by pass  5 Test12= 1.67D-14 1.85D-09 XBig12= 9.27D-11 1.13D-06.
     26 vectors produced by pass  6 Test12= 1.67D-14 1.85D-09 XBig12= 4.77D-13 6.38D-08.
      6 vectors produced by pass  7 Test12= 1.67D-14 1.85D-09 XBig12= 2.13D-15 4.35D-09.
 InvSVY:  IOpt=1 It=  1 EMax= 2.50D-16
 Solved reduced A of dimension   320 with    54 vectors.
 End of Minotr F.D. properties file   721 does not exist.
 End of Minotr F.D. properties file   722 does not exist.
 End of Minotr F.D. properties file   788 does not exist.
 Leave Link 1002 at Thu Sep 26 06:15:56 2019, MaxMem=   671088640 cpu:            3784.7 elap:            1892.6
 (Enter /shared/centos7/gaussian/g16/l601.exe)
 Copying SCF densities to generalized density rwf, IOpCl= 0 IROHF=0.

 **********************************************************************

            Population analysis using the SCF density.

 **********************************************************************

 Orbital symmetries:
       Occupied  (A) (A) (A) (A) (A) (A) (A) (A) (A) (A) (A) (A)
                 (A) (A) (A) (A) (A) (A) (A) (A) (A) (A) (A) (A)
                 (A) (A) (A) (A)
       Virtual   (A) (A) (A) (A) (A) (A) (A) (A) (A) (A) (A) (A)
                 (A) (A) (A) (A) (A) (A) (A) (A) (A) (A) (A) (A)
                 (A) (A) (A) (A) (A) (A) (A) (A) (A) (A) (A) (A)
                 (A) (A) (A) (A) (A) (A) (A) (A) (A) (A) (A) (A)
                 (A) (A) (A) (A) (A) (A) (A) (A) (A) (A) (A) (A)
                 (A) (A) (A) (A) (A) (A) (A) (A) (A) (A) (A) (A)
                 (A) (A) (A) (A) (A) (A) (A) (A) (A) (A) (A) (A)
                 (A) (A) (A) (A) (A) (A) (A) (A) (A) (A) (A) (A)
                 (A) (A) (A) (A) (A) (A) (A) (A) (A) (A) (A) (A)
                 (A) (A) (A) (A) (A) (A) (A) (A) (A) (A) (A) (A)
                 (A) (A) (A) (A) (A) (A) (A) (A) (A) (A) (A) (A)
                 (A) (A) (A) (A) (A) (A) (A) (A) (A) (A) (A) (A)
                 (A) (A) (A) (A) (A) (A) (A) (A) (A) (A) (A) (A)
                 (A) (A) (A) (A) (A) (A) (A) (A) (A) (A) (A) (A)
                 (A) (A) (A) (A) (A) (A) (A) (A) (A) (A) (A) (A)
                 (A) (A) (A) (A) (A) (A) (A) (A) (A) (A) (A) (A)
                 (A) (A) (A) (A) (A) (A) (A) (A) (A) (A) (A) (A)
                 (A) (A) (A) (A) (A) (A) (A) (A) (A) (A) (A) (A)
                 (A) (A) (A) (A) (A) (A) (A) (A) (A) (A) (A) (A)
                 (A) (A) (A) (A) (A) (A) (A) (A) (A) (A) (A) (A)
                 (A) (A) (A) (A) (A) (A) (A) (A) (A) (A) (A) (A)
                 (A) (A) (A) (A) (A) (A) (A) (A) (A) (A) (A) (A)
                 (A) (A) (A) (A) (A) (A) (A) (A) (A) (A) (A) (A)
                 (A) (A) (A) (A) (A) (A) (A) (A) (A) (A) (A) (A)
                 (A) (A) (A) (A) (A) (A) (A) (A) (A) (A) (A) (A)
                 (A) (A) (A) (A) (A) (A) (A) (A) (A) (A) (A) (A)
                 (A) (A) (A) (A) (A) (A) (A) (A) (A) (A)
 The electronic state is 1-A.
 Alpha  occ. eigenvalues --  -19.65002 -19.64943 -10.59270 -10.59021 -10.57939
 Alpha  occ. eigenvalues --  -10.53731 -10.53348  -1.18982  -1.16361  -0.89865
 Alpha  occ. eigenvalues --   -0.84365  -0.78159  -0.71026  -0.67165  -0.60437
 Alpha  occ. eigenvalues --   -0.57532  -0.53161  -0.52447  -0.50937  -0.48469
 Alpha  occ. eigenvalues --   -0.46727  -0.45958  -0.43452  -0.42606  -0.42057
 Alpha  occ. eigenvalues --   -0.39252  -0.35352  -0.28195
 Alpha virt. eigenvalues --    0.03701   0.08273   0.08988   0.09281   0.10771
 Alpha virt. eigenvalues --    0.11193   0.13581   0.14473   0.15614   0.16579
 Alpha virt. eigenvalues --    0.17008   0.18556   0.21362   0.23510   0.26480
 Alpha virt. eigenvalues --    0.27716   0.29310   0.30071   0.32340   0.34128
 Alpha virt. eigenvalues --    0.34933   0.35748   0.35961   0.36762   0.38051
 Alpha virt. eigenvalues --    0.40327   0.41813   0.42341   0.44570   0.45614
 Alpha virt. eigenvalues --    0.47243   0.47847   0.48164   0.49114   0.49986
 Alpha virt. eigenvalues --    0.50704   0.52004   0.52425   0.53280   0.54256
 Alpha virt. eigenvalues --    0.55206   0.55680   0.57267   0.59768   0.61862
 Alpha virt. eigenvalues --    0.65234   0.67956   0.69500   0.71580   0.71947
 Alpha virt. eigenvalues --    0.74204   0.78596   0.79390   0.81250   0.83734
 Alpha virt. eigenvalues --    0.85470   0.86534   0.87939   0.89488   0.90573
 Alpha virt. eigenvalues --    0.92374   0.95693   0.97136   0.98296   1.01041
 Alpha virt. eigenvalues --    1.01900   1.03484   1.03860   1.04584   1.05974
 Alpha virt. eigenvalues --    1.07691   1.08643   1.10463   1.10973   1.12705
 Alpha virt. eigenvalues --    1.14467   1.15036   1.17327   1.20042   1.20775
 Alpha virt. eigenvalues --    1.21409   1.23549   1.24161   1.25810   1.27383
 Alpha virt. eigenvalues --    1.28479   1.30752   1.31728   1.32460   1.33736
 Alpha virt. eigenvalues --    1.34616   1.36106   1.38275   1.38944   1.39842
 Alpha virt. eigenvalues --    1.43175   1.45563   1.47275   1.49049   1.50759
 Alpha virt. eigenvalues --    1.53610   1.55086   1.56278   1.57248   1.59094
 Alpha virt. eigenvalues --    1.61287   1.63442   1.72141   1.76262   1.83671
 Alpha virt. eigenvalues --    1.92585   1.97150   2.00662   2.03944   2.05972
 Alpha virt. eigenvalues --    2.09694   2.11392   2.12764   2.14521   2.17920
 Alpha virt. eigenvalues --    2.19933   2.22674   2.26874   2.28654   2.30902
 Alpha virt. eigenvalues --    2.35627   2.37520   2.39707   2.41709   2.43183
 Alpha virt. eigenvalues --    2.47937   2.49990   2.53407   2.55139   2.56625
 Alpha virt. eigenvalues --    2.60055   2.60938   2.63429   2.64775   2.67310
 Alpha virt. eigenvalues --    2.69409   2.72078   2.76419   2.78043   2.79648
 Alpha virt. eigenvalues --    2.80328   2.81318   2.82054   2.84460   2.85386
 Alpha virt. eigenvalues --    2.86457   2.87885   2.92509   2.93337   2.95076
 Alpha virt. eigenvalues --    2.96807   2.97390   2.98629   2.99577   3.00754
 Alpha virt. eigenvalues --    3.02272   3.02361   3.03716   3.05598   3.07723
 Alpha virt. eigenvalues --    3.08756   3.10599   3.12427   3.12682   3.13518
 Alpha virt. eigenvalues --    3.14812   3.16647   3.18518   3.20368   3.23055
 Alpha virt. eigenvalues --    3.23459   3.27132   3.27370   3.28777   3.30469
 Alpha virt. eigenvalues --    3.31963   3.32602   3.33307   3.35802   3.37068
 Alpha virt. eigenvalues --    3.37364   3.38603   3.41505   3.42505   3.43818
 Alpha virt. eigenvalues --    3.45900   3.47077   3.48581   3.50617   3.51613
 Alpha virt. eigenvalues --    3.56760   3.57916   3.60834   3.61314   3.63950
 Alpha virt. eigenvalues --    3.66246   3.66603   3.69821   3.70463   3.72213
 Alpha virt. eigenvalues --    3.74297   3.75931   3.76334   3.77067   3.78786
 Alpha virt. eigenvalues --    3.80363   3.81937   3.83836   3.84990   3.85519
 Alpha virt. eigenvalues --    3.86541   3.89228   3.89823   3.91770   3.93586
 Alpha virt. eigenvalues --    3.95065   3.96503   3.98272   4.00336   4.00905
 Alpha virt. eigenvalues --    4.01808   4.04915   4.05730   4.08317   4.09455
 Alpha virt. eigenvalues --    4.10382   4.12969   4.13968   4.16163   4.17244
 Alpha virt. eigenvalues --    4.21611   4.21957   4.23115   4.24348   4.29194
 Alpha virt. eigenvalues --    4.31814   4.33977   4.36075   4.36827   4.38320
 Alpha virt. eigenvalues --    4.43440   4.47143   4.48471   4.50139   4.51889
 Alpha virt. eigenvalues --    4.54195   4.59186   4.67014   4.67892   4.70157
 Alpha virt. eigenvalues --    4.71928   4.74841   4.75011   4.77083   4.81033
 Alpha virt. eigenvalues --    4.81746   4.87913   4.89101   4.92093   4.92990
 Alpha virt. eigenvalues --    4.93718   4.97109   5.00566   5.01351   5.03403
 Alpha virt. eigenvalues --    5.05277   5.07726   5.07845   5.10225   5.17552
 Alpha virt. eigenvalues --    5.19945   5.23333   5.24588   5.26082   5.28192
 Alpha virt. eigenvalues --    5.29669   5.34896   5.37279   5.38826   5.46733
 Alpha virt. eigenvalues --    5.52541   5.55457   5.61775   5.67018   5.69340
 Alpha virt. eigenvalues --    5.74254   5.78331   5.79591   5.80298   5.82425
 Alpha virt. eigenvalues --    5.93681   6.00309   6.11350   6.24075   6.35712
 Alpha virt. eigenvalues --    6.39890   6.43511   6.55100   6.65985   6.70188
 Alpha virt. eigenvalues --    6.73116   6.76597   6.84966   6.92554   6.99130
 Alpha virt. eigenvalues --    7.04094   7.12098   7.26508   7.32744   7.43981
 Alpha virt. eigenvalues --    9.99863  10.85733  11.56378  12.43971  13.01366
 Alpha virt. eigenvalues --   13.45757  14.24182
          Condensed to atoms (all electrons):
               1          2          3          4          5          6
     1  O    7.842977   0.005340   0.251772  -0.045800  -0.044842   0.356617
     2  O    0.005340   7.812375  -0.032712   0.000443   0.001716  -0.068945
     3  C    0.251772  -0.032712   5.025623   0.301926   0.301903  -0.039956
     4  C   -0.045800   0.000443   0.301926   5.016763  -0.059701  -0.000426
     5  C   -0.044842   0.001716   0.301903  -0.059701   5.002023   0.004789
     6  C    0.356617  -0.068945  -0.039956  -0.000426   0.004789   4.996877
     7  C   -0.066190   0.316172  -0.016038   0.001860   0.001517   0.494652
     8  H   -0.044685   0.015833   0.402242  -0.054738  -0.058379  -0.033859
     9  H    0.004972  -0.000253  -0.036280   0.377395   0.003056   0.000716
    10  H    0.003163   0.001093  -0.039701   0.393558   0.009593  -0.001202
    11  H    0.003682  -0.000030  -0.040548   0.402481  -0.012352   0.000076
    12  H    0.001992  -0.000068  -0.048769  -0.014990   0.409209  -0.000373
    13  H    0.004645  -0.000175  -0.041421   0.007173   0.386210   0.000145
    14  H    0.003777   0.000497  -0.044171   0.005803   0.399457  -0.000126
    15  H   -0.036696   0.003895   0.007242  -0.000390  -0.000159   0.409788
    16  H    0.004528  -0.044396  -0.001223   0.000197   0.000070  -0.084777
    17  H    0.001447   0.330588   0.008814  -0.003091   0.002010  -0.008874
               7          8          9         10         11         12
     1  O   -0.066190  -0.044685   0.004972   0.003163   0.003682   0.001992
     2  O    0.316172   0.015833  -0.000253   0.001093  -0.000030  -0.000068
     3  C   -0.016038   0.402242  -0.036280  -0.039701  -0.040548  -0.048769
     4  C    0.001860  -0.054738   0.377395   0.393558   0.402481  -0.014990
     5  C    0.001517  -0.058379   0.003056   0.009593  -0.012352   0.409209
     6  C    0.494652  -0.033859   0.000716  -0.001202   0.000076  -0.000373
     7  C    5.031780   0.006536  -0.000037  -0.000520  -0.000241  -0.000060
     8  H    0.006536   0.690821   0.007484  -0.014944   0.003834   0.007274
     9  H   -0.000037   0.007484   0.572015  -0.031983  -0.026124   0.001891
    10  H   -0.000520  -0.014944  -0.031983   0.620036  -0.035070   0.000603
    11  H   -0.000241   0.003834  -0.026124  -0.035070   0.596390  -0.002365
    12  H   -0.000060   0.007274   0.001891   0.000603  -0.002365   0.613631
    13  H    0.000091   0.005161  -0.000226  -0.000599   0.000745  -0.029872
    14  H   -0.000136  -0.009508  -0.000370  -0.000451  -0.000524  -0.037213
    15  H   -0.064554  -0.000487  -0.000221   0.000072   0.000040   0.000030
    16  H    0.429089   0.001418  -0.000056   0.000005  -0.000003  -0.000002
    17  H   -0.045658  -0.026375   0.000166   0.003390   0.000076  -0.000050
              13         14         15         16         17
     1  O    0.004645   0.003777  -0.036696   0.004528   0.001447
     2  O   -0.000175   0.000497   0.003895  -0.044396   0.330588
     3  C   -0.041421  -0.044171   0.007242  -0.001223   0.008814
     4  C    0.007173   0.005803  -0.000390   0.000197  -0.003091
     5  C    0.386210   0.399457  -0.000159   0.000070   0.002010
     6  C    0.000145  -0.000126   0.409788  -0.084777  -0.008874
     7  C    0.000091  -0.000136  -0.064554   0.429089  -0.045658
     8  H    0.005161  -0.009508  -0.000487   0.001418  -0.026375
     9  H   -0.000226  -0.000370  -0.000221  -0.000056   0.000166
    10  H   -0.000599  -0.000451   0.000072   0.000005   0.003390
    11  H    0.000745  -0.000524   0.000040  -0.000003   0.000076
    12  H   -0.029872  -0.037213   0.000030  -0.000002  -0.000050
    13  H    0.565566  -0.023138  -0.000255  -0.000020  -0.000121
    14  H   -0.023138   0.592285   0.000029  -0.000009  -0.000231
    15  H   -0.000255   0.000029   0.540907  -0.007607  -0.000434
    16  H   -0.000020  -0.000009  -0.007607   0.554556   0.002124
    17  H   -0.000121  -0.000231  -0.000434   0.002124   0.468746
 Mulliken charges:
               1
     1  O   -0.246698
     2  O   -0.341374
     3  C    0.041297
     4  C   -0.328465
     5  C   -0.346120
     6  C   -0.025122
     7  C   -0.088264
     8  H    0.102371
     9  H    0.127855
    10  H    0.092958
    11  H    0.109933
    12  H    0.099131
    13  H    0.126092
    14  H    0.114028
    15  H    0.148799
    16  H    0.146107
    17  H    0.267473
 Sum of Mulliken charges =  -0.00000
 Mulliken charges with hydrogens summed into heavy atoms:
               1
     1  O   -0.246698
     2  O   -0.073901
     3  C    0.143668
     4  C    0.002280
     5  C   -0.006869
     6  C    0.123677
     7  C    0.057843
 APT charges:
               1
     1  O   -0.206327
     2  O   -0.337030
     3  C    0.111172
     4  C   -1.154253
     5  C   -1.252794
     6  C   -0.439046
     7  C   -0.541177
     8  H    0.212365
     9  H    0.347455
    10  H    0.285498
    11  H    0.449975
    12  H    0.445403
    13  H    0.350456
    14  H    0.332347
    15  H    0.519841
    16  H    0.571130
    17  H    0.304982
 Sum of APT charges =  -0.00000
 APT charges with hydrogens summed into heavy atoms:
               1
     1  O   -0.206327
     2  O   -0.032048
     3  C    0.323538
     4  C   -0.071324
     5  C   -0.124587
     6  C    0.080795
     7  C    0.029954
 Electronic spatial extent (au):  <R**2>=            862.9965
 Charge=             -0.0000 electrons
 Dipole moment (field-independent basis, Debye):
    X=             -0.6131    Y=             -0.5755    Z=             -0.9450  Tot=              1.2649
 Quadrupole moment (field-independent basis, Debye-Ang):
   XX=            -43.4197   YY=            -44.0652   ZZ=            -45.0205
   XY=              3.5956   XZ=             -1.9325   YZ=              1.8631
 Traceless Quadrupole moment (field-independent basis, Debye-Ang):
   XX=              0.7488   YY=              0.1033   ZZ=             -0.8520
   XY=              3.5956   XZ=             -1.9325   YZ=              1.8631
 Octapole moment (field-independent basis, Debye-Ang**2):
  XXX=              6.5064  YYY=             -1.3566  ZZZ=              0.4858  XYY=              3.8158
  XXY=              8.1388  XXZ=             -2.2852  XZZ=             -0.3073  YZZ=             -0.6432
  YYZ=             -3.7467  XYZ=              2.0389
 Hexadecapole moment (field-independent basis, Debye-Ang**3):
 XXXX=           -667.9046 YYYY=           -222.1759 ZZZZ=           -222.7747 XXXY=              8.3919
 XXXZ=              0.9428 YYYX=              0.7486 YYYZ=              1.6380 ZZZX=              2.2739
 ZZZY=             -2.6589 XXYY=           -162.1415 XXZZ=           -160.9975 YYZZ=            -73.3210
 XXYZ=              1.0461 YYXZ=             -8.0039 ZZXY=             -7.1140
 N-N= 3.207224074600D+02 E-N=-1.451318314160D+03  KE= 3.448324157829D+02
  Exact polarizability:   0.000   0.000   0.000   0.000   0.000   0.000
 Approx polarizability:  85.943  -6.070  84.069   2.543  -2.415  67.870
 No NMR shielding tensors so no spin-rotation constants.
 Leave Link  601 at Thu Sep 26 06:16:25 2019, MaxMem=   671088640 cpu:              57.1 elap:              28.6
 (Enter /shared/centos7/gaussian/g16/l701.exe)
 SCFChk:  SCF convergence  4.60D-09 required  1.00D-08
 ... and contract with generalized density number  0.
 Compute integral second derivatives.
 Entering OneElI...
 Calculate overlap and kinetic energy integrals
    NBasis = 395  MinDer = 2  MaxDer = 2
 Requested accuracy = 0.1000D-12
 PrmmSu-InSpLW:  IPartL=    0 NPrtUS=   20 NPrtUL=    1 DoSpLW=F IThBeg=    0 IThEnd=   19 NThAct=   20.
 PrsmSu:  NPrtUS=  20 ThrOK=T IAlg=1 NPAlg=1 LenDen=           0 ISkipM=0 DoSpLW=F IThBeg=    0 IThEnd=   19.
 Prism:   IPart=     0 DynPar=F LinDyn=F Incr=           4.
 PRISM was handed    33310142 working-precision words and  8488 shell-pairs
 PRISM was handed    33310142 working-precision words and  8488 shell-pairs
 PRISM was handed    33310142 working-precision words and  8488 shell-pairs
 PRISM was handed    33310142 working-precision words and  8488 shell-pairs
 PRISM was handed    33310142 working-precision words and  8488 shell-pairs
 IPart= 16 NShTot=         404 NBatch=          40 AvBLen=        10.1
 PRISM was handed    33310142 working-precision words and  8488 shell-pairs
 PRISM was handed    33310142 working-precision words and  8488 shell-pairs
 PRISM was handed    33310142 working-precision words and  8488 shell-pairs
 PRISM was handed    33310142 working-precision words and  8488 shell-pairs
 IPart=  0 NShTot=         469 NBatch=          84 AvBLen=         5.6
 PRISM was handed    33310142 working-precision words and  8488 shell-pairs
 IPart=  1 NShTot=         459 NBatch=          77 AvBLen=         6.0
 PRISM was handed    33310142 working-precision words and  8488 shell-pairs
 IPart=  5 NShTot=         443 NBatch=          66 AvBLen=         6.7
 PRISM was handed    33310142 working-precision words and  8488 shell-pairs
 PRISM was handed    33310142 working-precision words and  8488 shell-pairs
 PRISM was handed    33310142 working-precision words and  8488 shell-pairs
 IPart=  4 NShTot=         446 NBatch=          68 AvBLen=         6.6
 PRISM was handed    33310142 working-precision words and  8488 shell-pairs
 PRISM was handed    33310142 working-precision words and  8488 shell-pairs
 PRISM was handed    33310142 working-precision words and  8488 shell-pairs
 PRISM was handed    33310142 working-precision words and  8488 shell-pairs
 PRISM was handed    33310142 working-precision words and  8488 shell-pairs
 IPart= 11 NShTot=         415 NBatch=          49 AvBLen=         8.5
 PRISM was handed    33310142 working-precision words and  8488 shell-pairs
 IPart= 14 NShTot=         405 NBatch=          41 AvBLen=         9.9
 IPart=  7 NShTot=         428 NBatch=          52 AvBLen=         8.2
 IPart=  9 NShTot=         418 NBatch=          50 AvBLen=         8.4
 IPart=  8 NShTot=         426 NBatch=          52 AvBLen=         8.2
 IPart= 13 NShTot=         406 NBatch=          42 AvBLen=         9.7
 IPart= 18 NShTot=         399 NBatch=          37 AvBLen=        10.8
 IPart=  2 NShTot=         454 NBatch=          73 AvBLen=         6.2
 IPart=  6 NShTot=         438 NBatch=          62 AvBLen=         7.1
 IPart= 19 NShTot=         397 NBatch=          36 AvBLen=        11.0
 IPart= 12 NShTot=         408 NBatch=          43 AvBLen=         9.5
 IPart= 15 NShTot=         405 NBatch=          41 AvBLen=         9.9
 IPart= 17 NShTot=         402 NBatch=          38 AvBLen=        10.6
 IPart= 10 NShTot=         415 NBatch=          49 AvBLen=         8.5
 IPart=  3 NShTot=         451 NBatch=          71 AvBLen=         6.4
 PrSmSu:  NxtVal=             81.
 Entering OneElI...
 Calculate potential energy integrals
    NBasis = 395  MinDer = 2  MaxDer = 2
 Requested accuracy = 0.1000D-12
 PrmmSu-InSpLW:  IPartL=    0 NPrtUS=   20 NPrtUL=    1 DoSpLW=F IThBeg=    0 IThEnd=   19 NThAct=   20.
 PrsmSu:  NPrtUS=  20 ThrOK=T IAlg=1 NPAlg=1 LenDen=           0 ISkipM=0 DoSpLW=F IThBeg=    0 IThEnd=   19.
 Prism:   IPart=     0 DynPar=F LinDyn=F Incr=          66.
 PRISM was handed    33353627 working-precision words and  7828 shell-pairs
 PRISM was handed    33353627 working-precision words and  7828 shell-pairs
 PRISM was handed    33353627 working-precision words and  7828 shell-pairs
 PRISM was handed    33353627 working-precision words and  7828 shell-pairs
 PRISM was handed    33353627 working-precision words and  7828 shell-pairs
 PRISM was handed    33353627 working-precision words and  7828 shell-pairs
 PRISM was handed    33353627 working-precision words and  7828 shell-pairs
 PRISM was handed    33353627 working-precision words and  7828 shell-pairs
 PRISM was handed    33353627 working-precision words and  7828 shell-pairs
 PRISM was handed    33353627 working-precision words and  7828 shell-pairs
 PRISM was handed    33353627 working-precision words and  7828 shell-pairs
 PRISM was handed    33353627 working-precision words and  7828 shell-pairs
 PRISM was handed    33353627 working-precision words and  7828 shell-pairs
 PRISM was handed    33353627 working-precision words and  7828 shell-pairs
 PRISM was handed    33353627 working-precision words and  7828 shell-pairs
 PRISM was handed    33353627 working-precision words and  7828 shell-pairs
 PRISM was handed    33353627 working-precision words and  7828 shell-pairs
 PRISM was handed    33353627 working-precision words and  7828 shell-pairs
 PRISM was handed    33353627 working-precision words and  7828 shell-pairs
 PRISM was handed    33353627 working-precision words and  7828 shell-pairs
 IPart=  5 NShTot=        6868 NBatch=         404 AvBLen=        17.0
 IPart= 13 NShTot=        6426 NBatch=         378 AvBLen=        17.0
 IPart=  8 NShTot=        6647 NBatch=         391 AvBLen=        17.0
 IPart=  9 NShTot=        6545 NBatch=         385 AvBLen=        17.0
 IPart=  7 NShTot=        6664 NBatch=         392 AvBLen=        17.0
 IPart= 11 NShTot=        6494 NBatch=         382 AvBLen=        17.0
 IPart= 16 NShTot=        6392 NBatch=         376 AvBLen=        17.0
 IPart= 17 NShTot=        6358 NBatch=         374 AvBLen=        17.0
 IPart= 14 NShTot=        6409 NBatch=         377 AvBLen=        17.0
 IPart=  2 NShTot=        7072 NBatch=         416 AvBLen=        17.0
 IPart=  3 NShTot=        6970 NBatch=         410 AvBLen=        17.0
 IPart= 18 NShTot=        6307 NBatch=         371 AvBLen=        17.0
 IPart=  0 NShTot=        7327 NBatch=         431 AvBLen=        17.0
 IPart= 19 NShTot=        6273 NBatch=         369 AvBLen=        17.0
 IPart=  6 NShTot=        6851 NBatch=         403 AvBLen=        17.0
 IPart=  4 NShTot=        6902 NBatch=         406 AvBLen=        17.0
 IPart= 15 NShTot=        6392 NBatch=         376 AvBLen=        17.0
 IPart= 12 NShTot=        6460 NBatch=         380 AvBLen=        17.0
 IPart= 10 NShTot=        6528 NBatch=         384 AvBLen=        17.0
 IPart=  1 NShTot=        7191 NBatch=         423 AvBLen=        17.0
 PrSmSu:  NxtVal=           1321.
 Polarizability after L701:
                1             2             3 
      1  0.000000D+00
      2  0.000000D+00  0.000000D+00
      3  0.000000D+00  0.000000D+00  0.000000D+00
 Dipole Derivatives after L701:
                 1             2             3             4             5 
      1  -0.296622D+00  0.922791D-02  0.290448D-01  0.118082D+00 -0.749827D-02
      2  -0.256582D+00 -0.884816D-01 -0.173514D-01 -0.519662D+00 -0.578810D+00
      3   0.764194D-01 -0.208954D-01 -0.233879D+00 -0.166010D+00 -0.239530D+00
                 6             7             8             9            10 
      1   0.440544D+00  0.372645D+00 -0.989501D-01 -0.561704D-01 -0.132841D+01
      2  -0.672854D+00  0.162332D+00 -0.308423D+00  0.130108D+00 -0.114346D+00
      3  -0.550361D+00 -0.976969D-01  0.829772D-01  0.269294D+00 -0.203299D+00
                11            12            13            14            15 
      1  -0.159303D+00 -0.586245D+00 -0.150331D+01  0.545975D-01  0.727635D+00
      2  -0.954995D+00 -0.229761D+00  0.199059D-01 -0.926504D+00  0.638701D-01
      3  -0.116576D+00 -0.117935D+01  0.318919D+00  0.319513D-01 -0.132857D+01
                16            17            18            19            20 
      1  -0.624605D+00 -0.930355D-01 -0.129324D+00 -0.115471D+01 -0.501009D+00
      2  -0.886819D-01 -0.722066D+00  0.146163D+00  0.544779D-01 -0.437482D+00
      3  -0.304095D-01  0.174429D+00  0.295323D-01  0.429847D-01  0.173079D+00
                21            22            23            24            25 
      1   0.247854D+00  0.150410D+00  0.514606D-01 -0.424061D-01  0.139723D+00
      2   0.177175D+00 -0.228322D+00  0.352110D+00  0.392239D-01 -0.130993D-01
      3  -0.313356D-01  0.209928D-01 -0.156458D-01  0.134576D+00  0.484379D-01
                26            27            28            29            30 
      1  -0.401161D+00  0.457388D+00 -0.326183D-01  0.260157D+00  0.172879D+00
      2   0.233386D+00 -0.135127D+00 -0.251776D+00  0.537610D+00  0.238752D+00
      3  -0.520397D+00  0.669258D+00 -0.237388D+00  0.482914D+00  0.351504D+00
                31            32            33            34            35 
      1   0.113547D+01  0.236892D+00 -0.278554D+00  0.118018D+01  0.333112D-01
      2   0.310616D+00  0.160474D+00 -0.668186D-01 -0.105346D-01  0.827612D-01
      3   0.298078D+00  0.772521D-01  0.539798D-01 -0.302011D+00 -0.101407D-01
                36            37            38            39            40 
      1   0.252988D+00  0.821194D-01 -0.438471D+00 -0.343538D+00  0.413839D-01
      2   0.439065D-02  0.432925D-01  0.426959D+00  0.251969D+00 -0.870087D-01
      3   0.732684D-01  0.569023D-01  0.599366D+00  0.542291D+00  0.105444D+00
                41            42            43            44            45 
      1   0.428248D+00 -0.335468D+00  0.470785D+00  0.579178D+00 -0.158403D+00
      2   0.438011D+00 -0.235705D+00  0.333339D+00  0.957275D+00 -0.219807D+00
      3  -0.594795D+00  0.517647D+00 -0.633969D-01 -0.156030D+00  0.131462D+00
                46            47            48            49            50 
      1   0.140548D+01  0.274623D+00  0.569733D-02 -0.156004D+00 -0.228267D+00
      2   0.919263D-01  0.226692D+00 -0.440634D-02  0.554123D+00  0.601483D+00
      3  -0.599523D-02 -0.547503D-02  0.812148D-01  0.138027D+00  0.575185D-01
                51 
      1  -0.403922D+00
      2   0.530180D+00
      3   0.469468D+00
 Hessian after L701:
                1             2             3             4             5 
      1  0.493475D+01
      2 -0.302466D+01  0.125764D+02
      3  0.625747D+00  0.109128D+01  0.179627D+02
      4  0.113656D+00 -0.545066D+00  0.113994D+00  0.120625D+02
      5 -0.532924D+00  0.336792D+00 -0.168836D+00 -0.153411D+01  0.604924D+01
      6  0.143251D+00 -0.208039D+00 -0.344247D+00 -0.263095D+01 -0.627582D-01
      7 -0.550691D+01  0.385879D+01 -0.775609D+00  0.255773D+00 -0.863650D-01
      8  0.356709D+01 -0.344348D+01 -0.109143D+01 -0.269791D+00 -0.901950D-01
      9 -0.734271D+00 -0.106064D+01 -0.849449D+01 -0.662099D-01  0.216286D-01
     10 -0.154586D-01  0.127409D+00  0.359364D+00  0.190545D+00 -0.609033D-01
     11  0.211319D+00 -0.590774D-01  0.328071D+00 -0.103124D+00 -0.136667D+00
     12  0.322322D+00  0.212653D+00  0.111776D+00  0.115901D+00 -0.329081D-01
     13 -0.204031D-01  0.702322D-01 -0.387769D+00  0.203870D+00 -0.117647D+00
     14  0.145844D+00 -0.167473D+00 -0.225268D+00 -0.135822D+00 -0.110709D+00
     15 -0.356055D+00 -0.133582D+00  0.267142D+00 -0.775129D-01  0.258202D-01
     16  0.373145D+00 -0.317228D+00  0.127863D+00  0.210147D+00 -0.548817D+00
     17 -0.480510D-01 -0.968481D+01 -0.169151D+00 -0.431928D+00  0.136290D+00
     18  0.345817D-01 -0.149220D+00 -0.100114D+02 -0.132630D-01  0.804282D-01
     19 -0.837817D-01 -0.166341D+00 -0.830044D-01 -0.852237D+01  0.182376D+01
     20 -0.322715D+00  0.188286D+00  0.111911D+00  0.157012D+01 -0.394245D+00
     21  0.972380D-03  0.883856D-01  0.311654D+00 -0.578094D-01 -0.121060D+01
     22  0.281203D+00 -0.238572D+00  0.516497D-01 -0.199308D+00 -0.409399D-02
     23 -0.144362D+00 -0.615294D-01  0.145940D+00  0.389952D-01 -0.174625D+00
     24  0.324341D-01  0.133117D+00  0.168193D+00  0.202890D+00 -0.701460D-01
     25 -0.456139D-01  0.837392D-01  0.405299D-01  0.108392D-01 -0.834730D-02
     26  0.416711D-01 -0.170978D-01  0.390089D-01 -0.223558D-01 -0.386558D-02
     27  0.666446D-01  0.109581D+00 -0.306787D-02  0.263893D-01 -0.100984D-01
     28 -0.376925D-01  0.286165D-01  0.172839D-01  0.274681D-01  0.564090D-02
     29  0.386899D-01  0.933140D-01  0.776020D-01  0.347877D-01 -0.261042D-01
     30  0.249198D-01  0.797714D-01 -0.692521D-02  0.612275D-01  0.794725D-02
     31  0.954696D-01  0.108212D+00  0.186985D-01  0.431656D-01 -0.111776D-02
     32  0.878558D-01  0.171357D-01  0.100664D-01  0.717068D-03 -0.105349D-01
     33  0.122630D-01  0.100547D-01 -0.470229D-01  0.325606D-02 -0.515907D-03
     34  0.105224D+00  0.679773D-01 -0.495170D-01  0.358635D-01 -0.882901D-02
     35  0.523614D-01 -0.209508D-01 -0.168921D-01 -0.643834D-02 -0.834711D-02
     36 -0.324684D-01 -0.156346D-01 -0.318459D-01 -0.113953D-03  0.115418D-03
     37 -0.345046D-01  0.493149D-01 -0.587124D-01  0.960549D-02 -0.142143D-01
     38  0.103358D-01 -0.665079D-01 -0.480394D-02 -0.328611D-01  0.600164D-02
     39 -0.879725D-01 -0.714208D-01  0.419569D-01 -0.236077D-01  0.139782D-01
     40 -0.215342D-01  0.473128D-01 -0.413863D-01  0.336773D-01 -0.669776D-02
     41  0.537322D-01  0.600686D-01 -0.943556D-01  0.208694D-01 -0.238797D-01
     42 -0.503970D-01 -0.956032D-01  0.329883D-01 -0.492085D-01  0.218841D-02
     43 -0.287540D+00 -0.864137D-01  0.265873D-01 -0.475976D-01  0.208909D-01
     44 -0.493025D-01  0.210043D+00 -0.141477D-01 -0.141479D-01  0.173079D+00
     45  0.779321D-02 -0.207544D-01  0.117324D+00  0.304449D-02 -0.468448D-01
     46  0.187776D+00 -0.505646D-01  0.191859D-02  0.208382D+00 -0.203941D+00
     47 -0.227700D-01 -0.418931D-01  0.316078D-02 -0.184231D+00 -0.287946D+00
     48  0.861972D-02  0.171279D-02 -0.388417D-01 -0.166357D-01  0.994306D-02
     49 -0.377908D-01 -0.127621D-01  0.123623D-01 -0.463626D+01  0.127772D+01
     50 -0.641122D-01  0.807761D-01 -0.221637D-01  0.161439D+01 -0.543428D+01
     51 -0.183852D-01  0.283349D-01 -0.359293D-01  0.240861D+01  0.144066D+01
                6             7             8             9            10 
      6  0.125506D+02
      7 -0.574677D-01  0.177782D+02
      8 -0.198759D-01 -0.290667D+01  0.179887D+02
      9 -0.180495D+00  0.686426D+00  0.346848D+00  0.208054D+02
     10  0.192567D+00 -0.491715D+01  0.807189D+00  0.175529D+01  0.137954D+02
     11 -0.663390D-01  0.727126D+00 -0.538978D+01  0.132123D+01 -0.750942D+00
     12 -0.810937D-01  0.168558D+01  0.137982D+01 -0.323080D+01 -0.121403D+01
     13 -0.981994D-01 -0.487690D+01 -0.437811D-01 -0.207345D+01 -0.946638D-01
     14  0.334810D-01 -0.817982D-01 -0.626939D+01 -0.459561D-01 -0.201142D-01
     15 -0.126552D+00 -0.199480D+01 -0.918433D-01 -0.337126D+01 -0.118395D+00
     16  0.242449D-01  0.417741D+00  0.367225D+00 -0.642965D-01  0.137130D+00
     17  0.106373D+00  0.324734D+00  0.370700D-01  0.318292D-01  0.159925D+00
     18  0.171085D+00 -0.529095D-01  0.469571D-01 -0.129483D+00  0.105063D+00
     19 -0.787946D-01  0.317042D+00 -0.219599D-01  0.822841D-01  0.169352D+00
     20 -0.137201D+01 -0.882731D-02 -0.162672D+00  0.237160D-01  0.174283D-01
     21 -0.800408D+01  0.884165D-01  0.243769D-01 -0.147028D+00  0.782183D-01
     22  0.237365D+00 -0.387246D+01 -0.145742D+01  0.332237D+00  0.949878D-02
     23 -0.393035D-01 -0.172894D+01 -0.322379D+01 -0.468571D+00  0.509911D-01
     24 -0.162836D+00  0.393997D+00 -0.467643D+00 -0.514163D+01 -0.281868D+00
     25  0.157496D-01  0.753234D-01  0.668328D-02 -0.447452D-01 -0.395792D+01
     26 -0.179212D-01 -0.836551D-02  0.113827D+00 -0.439324D-01 -0.855852D-01
     27  0.912694D-02 -0.182989D-01  0.142899D-03 -0.249908D-01  0.428858D-01
     28  0.389350D-01  0.104940D+00 -0.544507D-01 -0.500930D-01 -0.370221D+01
     29  0.272676D-01 -0.247710D-01  0.485152D-01 -0.983890D-01 -0.904196D+00
     30  0.142098D-01 -0.128688D-01 -0.983999D-01 -0.736881D-01 -0.570898D+00
     31  0.187535D-01 -0.131359D-01 -0.504697D-01 -0.449861D-01 -0.152803D+01
     32  0.308502D-03 -0.735576D-01  0.425040D-01 -0.283816D-01  0.619661D+00
     33 -0.955285D-02 -0.953854D-01 -0.458719D-01  0.771954D-01 -0.379835D+00
     34  0.228465D-02 -0.737608D-02  0.104778D-01  0.885094D-01  0.109966D-01
     35  0.456977D-04  0.362563D-02  0.107216D+00 -0.441734D-02  0.114801D-01
     36 -0.835173D-02  0.129338D+00 -0.409336D-02  0.736855D-01  0.327162D-01
     37 -0.811178D-02  0.106775D+00  0.409361D-01  0.414593D-01 -0.494671D-01
     38  0.971143D-02  0.194494D-01  0.875078D-01 -0.272805D-01  0.327734D-02
     39 -0.763658D-02  0.194739D-01 -0.711306D-01 -0.167901D-01  0.121988D-01
     40 -0.250557D-01  0.399961D-01 -0.712447D-01  0.119099D+00 -0.480496D-01
     41 -0.592099D-02 -0.606418D-01  0.940300D-01  0.471520D-01  0.187843D-02
     42 -0.676696D-02  0.106157D+00  0.697316D-01 -0.352161D-01 -0.329270D-02
     43 -0.758966D-02  0.788898D-01  0.118113D+00 -0.229515D-01  0.817893D-02
     44 -0.471439D-01  0.145950D+00  0.712441D-01 -0.230294D-01  0.200787D-01
     45 -0.249030D-01 -0.323418D-01 -0.253654D-01 -0.446161D-01  0.172254D-02
     46 -0.418343D-01  0.280358D-01 -0.105930D-01  0.122004D-02  0.257790D-01
     47 -0.388391D-02  0.425557D-02 -0.119412D-01  0.101056D-02  0.683850D-02
     48  0.150336D+00  0.435721D-03 -0.163609D-03 -0.926211D-02  0.699352D-02
     49  0.227485D+01 -0.881828D-02 -0.313336D-01 -0.551947D-02 -0.339284D-01
     50  0.166601D+01 -0.103996D+00  0.639973D-03  0.718711D-02 -0.441675D-02
     51 -0.393887D+01 -0.701433D-01  0.479388D-01 -0.565557D-01 -0.186992D-01
               11            12            13            14            15 
     11  0.147053D+02
     12 -0.128008D+01  0.132524D+02
     13  0.134961D-01  0.387955D-01  0.137815D+02
     14 -0.879836D-01  0.368204D-01  0.374643D-02  0.153438D+02
     15  0.450375D-01  0.213806D+00  0.180676D+01  0.255446D+00  0.130143D+02
     16  0.186280D+00  0.934489D-01  0.161001D+00  0.141725D+00 -0.173783D+00
     17 -0.589244D-01  0.494921D-01  0.122436D+00 -0.122150D+00 -0.597461D-01
     18  0.613032D-01 -0.104348D+00 -0.179044D+00 -0.630329D-01 -0.725088D-01
     19  0.352452D-01  0.519036D-01  0.170002D+00  0.132952D-01 -0.512212D-01
     20 -0.111604D+00  0.389054D-02 -0.751914D-03 -0.110202D+00  0.254437D-02
     21  0.107181D-01 -0.905038D-01 -0.575880D-01  0.449614D-03 -0.900438D-01
     22  0.262248D-01 -0.261965D+00 -0.217453D-01  0.725157D-01  0.205372D+00
     23  0.207958D+00  0.833066D-01  0.104514D+00  0.154850D+00 -0.114564D+00
     24  0.572021D-01 -0.121887D+00  0.202086D+00 -0.897754D-01  0.408424D-01
     25 -0.201038D+00  0.148446D+00 -0.374826D-01  0.122222D-02 -0.315359D-02
     26 -0.278108D+01 -0.118507D+01 -0.393726D-02 -0.297944D-01 -0.225054D-01
     27 -0.135137D+01 -0.269881D+01 -0.255866D-02 -0.191515D-01  0.860686D-01
     28 -0.753146D+00 -0.444968D+00 -0.492900D-01 -0.256300D-01 -0.410931D-01
     29 -0.247352D+01  0.874723D+00 -0.274256D-01  0.385861D-02  0.112867D+00
     30  0.946158D+00 -0.354436D+01 -0.451734D-01  0.984506D-01  0.128298D+00
     31  0.567716D+00 -0.552091D+00  0.156606D-01  0.991554D-02  0.905035D-02
     32 -0.377255D+01 -0.161535D+00  0.545504D-02 -0.374993D-02 -0.154737D-02
     33 -0.109755D+00 -0.389417D+01 -0.133456D-01 -0.930286D-02 -0.299562D-01
     34  0.139289D-01  0.148312D-01 -0.135317D+01 -0.362624D-01  0.528901D+00
     35 -0.438708D-02 -0.222319D-01 -0.367500D-01 -0.391885D+01  0.347700D-02
     36 -0.294398D-01 -0.313832D-01  0.355010D+00  0.496509D-02 -0.392277D+01
     37  0.111701D-02  0.299195D-02 -0.400685D+01  0.114760D+00  0.119318D+00
     38  0.211056D-03  0.865133D-01  0.244768D+00 -0.239015D+01  0.114274D+01
     39  0.852885D-01  0.110676D+00  0.229521D+00  0.128098D+01 -0.311445D+01
     40 -0.359473D-02  0.198736D-02 -0.391883D+01 -0.198636D+00  0.176752D+00
     41 -0.367084D-01 -0.469727D-01 -0.317072D+00 -0.229761D+01 -0.117788D+01
     42 -0.311183D-01  0.133040D+00  0.284438D+00 -0.127559D+01 -0.300638D+01
     43  0.140738D-01  0.164255D-03  0.989778D-02  0.137612D-01 -0.633540D-02
     44  0.921521D-02 -0.256322D-02  0.191118D-01  0.676703D-02 -0.491688D-02
     45  0.409343D-03 -0.964999D-02 -0.117704D-01 -0.917322D-02 -0.763595D-02
     46  0.389391D-02  0.116455D-02  0.210343D-01  0.202381D-02 -0.578957D-03
     47 -0.614965D-02 -0.451044D-04  0.410650D-02 -0.602482D-02  0.197224D-03
     48  0.119632D-02 -0.696441D-02 -0.554775D-02 -0.544891D-03 -0.663602D-02
     49  0.114239D-01 -0.447634D-02  0.163504D-01 -0.205475D-01 -0.232256D-01
     50 -0.427253D-02  0.419303D-02 -0.405008D-01  0.483249D-02  0.184531D-01
     51  0.114985D-01 -0.768237D-02 -0.421583D-01  0.271973D-01 -0.232212D-02
               16            17            18            19            20 
     16  0.923794D+01
     17  0.339491D+01  0.163594D+02
     18 -0.805461D+00  0.274370D+01  0.276526D+02
     19 -0.623549D+01 -0.478032D+01  0.121475D+01  0.154058D+02
     20 -0.432738D+01 -0.459436D+01 -0.214720D+01  0.220122D+01  0.971188D+01
     21  0.108787D+01 -0.218676D+01 -0.137267D+02 -0.930791D+00  0.332348D+01
     22 -0.157199D-01 -0.176595D+00 -0.391653D-01  0.677963D-01  0.100386D+00
     23 -0.119310D+00 -0.967622D-01 -0.735681D-01  0.165331D+00 -0.554495D-02
     24 -0.350488D-01 -0.404387D-01  0.114937D+00 -0.104086D+00 -0.361859D-01
     25  0.145597D-01  0.876494D-02  0.284998D-01  0.185900D-01 -0.228796D-02
     26 -0.294811D-02 -0.210951D-01 -0.981291D-03 -0.920321D-02 -0.790290D-02
     27  0.430689D-01  0.869085D-02  0.120369D-01  0.289158D-01 -0.493795D-02
     28 -0.715748D-02  0.408306D-02  0.213043D-02  0.137034D-02  0.744083D-02
     29  0.202327D-01  0.974292D-02  0.120705D-01  0.240690D-01 -0.488730D-02
     30  0.993845D-02  0.101012D-01 -0.569192D-02  0.200040D-01  0.843367D-02
     31  0.278004D-01  0.146295D-01  0.328286D-02  0.171171D-01  0.372561D-03
     32  0.156269D-01 -0.512862D-02  0.169396D-02  0.438093D-02 -0.699097D-02
     33  0.209941D-02  0.368549D-03 -0.879160D-02  0.587307D-03  0.902474D-03
     34  0.232209D-01  0.579144D-02 -0.658601D-02  0.222498D-01 -0.408226D-02
     35  0.687998D-02 -0.811003D-02 -0.105619D-02  0.814871D-03 -0.756696D-02
     36 -0.163039D-02  0.153180D-03 -0.769943D-02 -0.185068D-02 -0.275941D-03
     37  0.133169D-01  0.326833D-02 -0.291848D-01  0.168855D-01 -0.769874D-02
     38 -0.128524D-01 -0.200701D-01  0.129458D-01 -0.192792D-01 -0.437328D-02
     39 -0.435118D-01 -0.122800D-03  0.164985D-01 -0.296245D-01  0.108754D-01
     40  0.555559D-02  0.983832D-02 -0.106545D-01  0.706087D-02  0.305983D-02
     41  0.227053D-01  0.385906D-02 -0.174938D-01  0.179185D-01 -0.882317D-02
     42 -0.201414D-01 -0.122684D-01  0.191212D-02 -0.204236D-01 -0.291587D-02
     43 -0.391577D+01  0.106745D+01 -0.259328D+00  0.229409D+00  0.118332D+00
     44  0.971886D+00 -0.209859D+01 -0.581113D+00  0.166340D+00 -0.361100D+00
     45 -0.229995D+00 -0.564167D+00 -0.423771D+01 -0.254747D-01  0.954303D-01
     46 -0.462443D+00  0.310145D+00  0.944133D-02 -0.165791D+01  0.631499D+00
     47  0.256491D+00  0.242974D+00 -0.990050D-02  0.636074D+00 -0.424201D+01
     48 -0.511701D-02 -0.130809D-01  0.293721D+00 -0.634779D-01 -0.292961D-01
     49  0.150287D-01  0.109240D-01 -0.215150D-02  0.569077D-01  0.238839D-01
     50 -0.554325D-01 -0.793017D-01  0.844674D-01 -0.913365D-01  0.122116D+00
     51 -0.954715D-02  0.950267D-01  0.415087D-01 -0.969407D-02  0.116396D-01
               21            22            23            24            25 
     21  0.259278D+02
     22 -0.118155D+00  0.360527D+01
     23 -0.525253D-01  0.172959D+01  0.312327D+01
     24 -0.631257D-01 -0.462417D+00  0.575527D+00  0.519525D+01
     25  0.187156D-01  0.143611D-01 -0.395520D-01  0.569362D-01  0.380269D+01
     26 -0.721217D-02 -0.360449D-01 -0.192371D-02 -0.418193D-01  0.139672D+00
     27  0.776234D-02  0.689462D-01 -0.584222D-01  0.520795D-01 -0.329360D+00
     28  0.110748D-01  0.944240D-02 -0.192971D-01 -0.712995D-01  0.893162D-01
     29  0.182097D-01 -0.179608D-01  0.339854D-01 -0.386179D-01  0.131709D+00
     30  0.187727D-02 -0.607834D-01 -0.354242D-01 -0.730603D-01 -0.279355D-01
     31  0.687034D-02  0.685687D-01 -0.149890D-01  0.339596D-01  0.175540D-01
     32  0.188353D-02  0.247978D-02 -0.199986D-01  0.987320D-03 -0.120416D+00
     33 -0.534902D-02  0.317058D-01 -0.261948D-02 -0.566347D-02  0.107296D+00
     34 -0.219962D-02  0.969574D-01 -0.511968D-01 -0.247956D-01 -0.215772D-02
     35  0.163232D-03 -0.314791D-01 -0.156629D-01  0.603061D-02  0.914137D-03
     36 -0.510342D-02 -0.284061D-01  0.105651D-01 -0.231241D-01 -0.104202D-01
     37 -0.166410D-01  0.439807D-02 -0.334743D-01 -0.246076D-01 -0.104570D-02
     38  0.100650D-01 -0.364159D-01  0.229092D-01  0.306568D-01  0.570577D-03
     39  0.282960D-02 -0.356089D-01  0.443499D-01  0.852122D-02  0.394589D-03
     40 -0.110760D-01 -0.162521D-01 -0.347495D-02  0.521551D-01 -0.784112D-03
     41 -0.875490D-02  0.360251D-02  0.240106D-01  0.292691D-03 -0.468726D-03
     42  0.300717D-03  0.422129D-01  0.632258D-02 -0.279321D-01  0.145793D-03
     43 -0.217362D-01 -0.516553D-02  0.418282D-02 -0.835759D-03  0.109720D-03
     44  0.938103D-01 -0.741659D-02  0.679944D-02 -0.149721D-02  0.252482D-02
     45  0.188240D+00  0.175158D-02 -0.226106D-02 -0.128336D-02 -0.548687D-03
     46 -0.607604D-01  0.132384D-01  0.169866D-01 -0.271614D-02  0.220967D-02
     47 -0.306163D-01  0.701850D-02 -0.785576D-03 -0.440364D-03  0.556277D-03
     48 -0.441894D+01 -0.200668D-02 -0.355086D-03 -0.697572D-02  0.510803D-03
     49 -0.153790D-01 -0.400799D-01  0.440094D-01  0.332165D-01 -0.549967D-03
     50 -0.750677D-01  0.641829D-01  0.268491D-01 -0.172491D-01 -0.424676D-02
     51  0.110394D+00  0.372661D-01 -0.183971D-01  0.476976D-01 -0.106045D-02
               26            27            28            29            30 
     26  0.300325D+01
     27  0.113106D+01  0.240809D+01
     28  0.947813D-01 -0.265542D-01  0.368653D+01
     29 -0.226174D+00  0.737742D-01  0.606774D+00  0.245185D+01
     30  0.588473D-01  0.133584D+00  0.440297D+00 -0.102610D+01  0.336815D+01
[...]
   yy         0.607035D+02      0.899534D+01      0.100087D+02
   zx         0.102126D+02      0.151336D+01      0.168384D+01
   zy        -0.213422D+01     -0.316258D+00     -0.351885D+00
   zz         0.837456D+02      0.124098D+02      0.138078D+02

 ----------------------------------------------------------------------

 Test job not archived.
 1\1\GINC-C0268\Freq\RM062X\CC-pVTZ\C5H10O2\HARMS.N\26-Sep-2019\0\\#P G
 eom=AllCheck Guess=TCheck SCRF=Check Test GenChk RM062X/CC-pVTZ Freq\\
 Gaussian input prepared by ASE\\0,1\O,1.4218635858,0.234898556,3.34747
 3061\O,2.8949603434,1.1172240943,1.2061437884\C,0.2863226503,0.3927195
 69,4.2025550908\C,0.7135240171,1.3280968431,5.3138144362\C,-0.16785358
 74,-0.9552442271,4.7365815026\C,1.1472953678,-0.2171468737,2.081545023
 9\C,1.8878712649,0.2173256406,1.071109233\H,-0.5178274629,0.85396252,3
 .6195623621\H,1.5504189547,0.8912105813,5.8593771192\H,1.0264192221,2.
 2884623536,4.907748241\H,-0.1077650616,1.4920228878,6.0103801179\H,0.6
 399457676,-1.4130757887,5.3079792042\H,-0.4488035925,-1.6344528749,3.9
 328303978\H,-1.0316546604,-0.8309498125,5.3893685827\H,0.3570938025,-0
 .9426961831,1.9520056291\H,1.7488925384,-0.1362350771,0.0617094213\H,2
 .9414265917,1.3546024484,2.1402790297\\Version=EM64L-G16RevA.03\State=
 1-A\HF=-346.9479196\RMSD=1.536e-09\RMSF=8.036e-07\ZeroPoint=0.1475351\
 Thermal=0.156027\Dipole=-0.7490088,-0.1402551,0.5872264\DipoleDeriv=-0
 .584423,-0.0834553,0.2797479,0.0246323,-0.3914643,-0.3141462,0.5829969
 ,-0.0232666,-1.6478135,-0.935193,-0.4214063,0.3185335,-0.5554202,-0.70
 28034,0.2811631,-0.1524955,-0.1173186,-0.27664,0.6466035,0.027297,-0.5
 476667,0.0285958,0.4697384,0.0118744,-0.3137153,0.0103215,0.806199,0.0
 526713,-0.0602185,0.0022611,-0.0321191,-0.018042,-0.0751862,0.0181099,
 -0.0462799,-0.0506531,0.0201518,-0.0386991,0.0868068,-0.0935372,-0.113
 0554,0.0643855,0.0258856,0.0067592,-0.0119978,-0.2315801,0.0890038,0.2
 25104,-0.0090437,-0.0728619,0.3078534,-0.1719893,0.1212081,0.9802194,0
 .6689038,0.5454514,-0.2886921,0.6934613,0.3988552,-0.216695,0.0460377,
 0.05438,0.0691088,-0.093453,0.0360884,0.0184172,0.0378093,-0.0437411,0
 .0303879,-0.1074225,0.0554077,-0.0658027,-0.0278137,0.0336667,-0.08818
 44,0.0774488,0.0120371,0.0443113,-0.0465897,0.0065426,0.0215746,0.0486
 653,-0.0665581,-0.0045378,-0.0535981,-0.0898727,0.0280693,0.0151247,0.
 0664987,0.0295735,-0.0443696,0.0228378,0.0970097,-0.0011303,0.0668585,
 -0.0216629,0.0720909,-0.0282967,-0.0324443,-0.0351135,0.0648194,-0.088
 8104,0.0098499,0.0264425,0.0279827,-0.0481264,0.0494356,0.0181285,0.06
 51821,-0.0282175,-0.0427667,-0.0321204,-0.0364045,-0.0749463,-0.047570
 1,-0.0947164,-0.0394947,-0.044577,0.0075286,0.1010366,0.0384036,0.0516
 068,-0.0086396,0.0979806,0.0069563,-0.0186854,0.0652469,-0.1031259,-0.
 0670226,-0.1055913,0.0474467,-0.018699,0.0300507,-0.0145335,0.0170332,
 0.0824562,-0.0538138,0.0091264,-0.0626863,0.0886329,-0.0442293,-0.0179
 064,-0.0554604,-0.0101049,0.3466421,0.0288014,-0.0103626,0.0350455,0.3
 066272,-0.0218231,0.0175381,0.0023625,0.2117993\Polar=64.2750625,7.855
 5403,61.1183198,-12.2785456,-0.0141704,80.5973949\Quadrupole=-0.631124
 2,0.2533263,0.377798,0.6473475,1.6167362,2.2656403\PG=C01 [X(C5H10O2)]
 \NImag=0\\0.32409109,0.03102111,0.12476029,-0.06702198,0.11797421,0.50
 005498,0.00127195,0.00974093,0.00850539,0.27307902,0.00794412,0.002347
 57,0.01064787,0.20983178,0.24158896,0.00377700,0.00367674,0.00888854,0
 .01712862,0.12981918,0.58330956,-0.18067421,0.00687912,0.06558087,0.00
 414490,0.00390442,0.00082418,0.53634987,-0.00047351,-0.06463615,-0.011
 26428,0.00144591,0.00054648,0.00278031,-0.02376928,0.52150626,0.037297
 36,-0.01172877,-0.10916267,-0.00331189,-0.00317581,0.00023231,0.079974
 28,-0.01550083,0.53769957,0.00281463,0.02156105,0.03614339,-0.00070475
 ,-0.00028450,-0.00035170,-0.09374158,-0.03133876,-0.04461698,0.5791602
 4,0.00158636,-0.00295589,-0.00974623,-0.00033604,-0.00062686,-0.000194
 92,-0.02280394,-0.12885133,-0.05624614,-0.01354079,0.55678372,0.002562
 96,-0.01934913,-0.03201550,0.00060073,0.00063864,0.00023818,-0.0322507
 1,-0.05470276,-0.14363467,-0.02795212,-0.04237314,0.53631586,-0.023567
 69,-0.02622768,0.02679341,-0.00052443,-0.00029946,0.00057982,-0.081402
 52,-0.01964842,0.00113696,-0.00232295,-0.01309945,0.00042115,0.5783216
 7,-0.00130084,0.00741791,-0.00172024,-0.00030043,0.00006307,-0.0002325
 0,-0.02841774,-0.18423902,0.03799169,-0.00812641,-0.02712435,0.0047040
 0,-0.02427193,0.50944467,0.02080673,0.01882736,-0.01797521,-0.00017650
 ,-0.00003775,-0.00048516,0.00303601,0.03563127,-0.09330657,-0.00841812
 ,-0.02367914,0.01106743,0.00971580,0.03871978,0.56905465,-0.10532104,-
 0.04268081,-0.05106474,-0.03672387,-0.04037330,0.01973674,0.01189853,0
 .01284497,0.02707090,-0.00450284,-0.00029248,0.00389214,-0.00090359,0.
 00144583,0.00180622,0.55416642,-0.03453790,-0.07204256,-0.06825620,-0.
 04536379,-0.02105430,0.01598165,0.00885170,-0.00809314,-0.01004296,0.0
 0090356,-0.00019861,-0.00111321,-0.00273390,0.00181250,0.00315572,0.32
 810849,0.38584561,-0.02315188,-0.07306403,-0.26839467,-0.01065469,-0.0
 0785842,0.00623839,0.00848324,-0.01122796,-0.04433870,0.00059588,0.000
 34006,-0.00089640,-0.00199317,0.00265244,0.00268583,-0.17977974,-0.014
 85704,0.73145419,0.01011764,-0.00616933,-0.01935179,-0.20951493,-0.147
 64856,-0.02660439,-0.00627668,-0.00290424,0.00176803,0.00134478,0.0004
 6205,-0.00113817,0.00013965,0.00002522,-0.00001253,-0.22349015,-0.1000
 8803,0.21844696,0.49212188,0.00382114,0.00729606,-0.02784283,-0.139950
 45,-0.17177545,-0.03706102,-0.00627049,-0.00215779,-0.00043808,0.00114
 200,0.00054911,-0.00129440,0.00019342,-0.00040574,-0.00015350,-0.10373
 615,-0.12176172,0.11743264,0.28795231,0.37774112,0.02208291,0.00200113
 ,-0.06919483,0.01336236,-0.00492408,-0.11213686,-0.00902967,-0.0009896
 6,0.00226782,0.00192656,0.00008308,-0.00060201,0.00046957,-0.00071825,
 -0.00047613,0.19102460,0.09914489,-0.36434681,-0.15432072,0.02922709,0
 .86594745,-0.03612476,0.01483971,0.00067317,-0.00019855,-0.00023623,-0
 .00007231,-0.17513079,0.07437412,-0.09751631,-0.00510584,0.00248862,-0
 .00620381,0.00926492,-0.00488582,0.00489470,0.00037986,-0.00260801,-0.
 00523681,0.00052929,-0.00000297,0.00156575,0.20442306,0.00632007,0.000
 58678,-0.00258264,-0.00020914,-0.00029995,0.00001556,0.07471812,-0.097
 63632,0.05872987,-0.01678726,0.00883909,-0.01265413,0.02092555,-0.0143
 2258,0.01850415,0.00075989,0.00107826,0.00102978,0.00006071,-0.0000934
 7,-0.00064027,-0.08269072,0.10597779,0.02613794,-0.01170900,0.00408319
 ,-0.00029492,-0.00067800,-0.00029967,-0.10503123,0.05984972,-0.1286009
 2,-0.01825287,0.00969150,-0.01350878,-0.00852301,0.00502191,-0.0051627
 7,0.00171649,-0.00057341,0.00504467,0.00073079,0.00131939,-0.00019655,
 0.10223977,-0.06126509,0.13937019,0.00135644,-0.00029295,0.00040593,0.
 00008833,0.00006375,-0.00000336,-0.01020001,0.00458559,-0.00545228,-0.
 20520870,0.08358247,-0.10226715,0.00016443,0.00068258,0.00039550,0.000
 31275,0.00000153,0.00035932,-0.00008559,-0.00007201,-0.00002436,0.0007
 1513,-0.00170933,-0.00109077,0.22127612,-0.00013341,0.00067668,0.00207
 237,-0.00006631,0.00005825,-0.00003742,-0.01788479,0.00805653,-0.01137
 317,0.08526076,-0.09304550,0.05567123,-0.00066385,0.00195354,-0.000401
 06,-0.00012319,-0.00017493,-0.00014204,0.00007906,0.00002336,0.0001445
 1,-0.00103216,-0.00211232,-0.00339125,-0.09104940,0.09818261,0.0003658
 3,0.00075444,0.00249020,0.00016661,0.00009309,0.00005281,-0.02215493,0
 .01029952,-0.01578203,-0.10090537,0.05471397,-0.11158578,0.00099963,0.
 00137297,0.00063623,0.00037031,-0.00010993,-0.00023997,-0.00007844,-0.
 00009880,0.00020600,-0.00073138,-0.00376737,-0.00289020,0.11452798,-0.
 05776619,0.12083679,0.00041832,0.00112168,0.00003292,-0.00006973,-0.00
 007671,-0.00008289,-0.00485501,-0.00892248,0.00518932,-0.06920808,-0.0
 6753219,0.02847225,-0.00021047,-0.00093369,-0.00220699,-0.00013364,0.0
 0006245,0.00008235,0.00013099,0.00009501,-0.00004972,-0.00007831,0.000
 14018,0.00044419,0.00842514,0.02257126,-0.00922996,0.07131414,0.000529
 87,0.00211259,0.00090116,0.00014743,0.00030188,0.00013777,-0.00575596,
 -0.01882180,0.00940171,-0.06738428,-0.25781307,0.09131948,-0.00106825,
 -0.00148040,-0.00459569,0.00009342,0.00011152,-0.00030687,-0.00022827,
 -0.00024465,0.00000070,0.00010180,0.00098201,-0.00019512,-0.00389531,-
 0.01050769,0.00404110,0.07610442,0.27961818,-0.00068716,0.00141510,0.0
 0202684,-0.00012511,0.00005485,0.00002480,-0.00712361,-0.02436964,0.00
 964469,0.03006366,0.09422945,-0.08788909,-0.00071868,-0.00256992,-0.00
 387889,-0.00027241,-0.00002353,-0.00016402,0.00006720,0.00005782,0.000
 05500,0.00028804,0.00080612,0.00121397,0.00560373,0.01279580,-0.006470
 41,-0.03077309,-0.09877768,0.09259526,0.00097270,-0.00154803,-0.002003
 89,0.00009233,0.00005871,0.00009777,0.00661371,-0.00115129,-0.00590517
 ,-0.20348043,0.03058432,0.13174161,-0.00014553,-0.00009595,0.00007167,
 0.00075819,-0.00021737,-0.00054615,-0.00017101,-0.00011585,-0.00014361
 ,0.00029771,0.00067853,0.00049820,-0.01709053,0.00238071,0.01622888,-0
 .00648549,0.00170877,0.00396991,0.21816885,-0.00101522,-0.00206532,-0.
 00526685,0.00022813,0.00026337,0.00011695,0.01702879,-0.00263736,-0.00
 824357,0.02859738,-0.05342787,-0.02564505,0.00035068,0.00042165,0.0003
 2852,0.00113386,0.00023985,-0.00003872,-0.00042225,-0.00049544,-0.0004
 1418,-0.00027754,0.00059313,0.00029665,0.00901986,-0.00287789,-0.00909
 263,-0.02184131,0.00629180,0.01800622,-0.03221474,0.05428843,-0.001482
 49,-0.00398172,-0.00608917,0.00039698,0.00024165,0.00008088,0.02018395
 ,0.00015377,-0.01220029,0.12954545,-0.02705277,-0.15675079,0.00059073,
 0.00078785,0.00058076,0.00141120,-0.00028217,0.00085910,-0.00049611,-0
 .00046221,-0.00049907,-0.00041140,0.00078947,0.00029431,-0.01272721,0.
 00207208,0.01200205,0.00779422,-0.00236792,-0.00771949,-0.14371111,0.0
 3020655,0.16917001,0.00190153,0.00026181,-0.00129992,0.00012169,0.0001
 2523,-0.00002244,0.00621005,-0.00484019,0.00582043,0.00078688,0.000115
 90,0.00069574,-0.19759823,0.08355004,-0.10596773,-0.00004912,0.0002024
 2,0.00030845,-0.00008685,-0.00007580,-0.00002981,0.00034675,-0.0021947
 6,0.00106954,0.00002741,0.00035187,0.00006875,0.00012936,0.00001874,0.
 00015688,-0.00001293,0.00008274,-0.00014851,0.21108718,-0.00025331,0.0
 0275906,-0.00193589,-0.00003182,-0.00001553,-0.00003005,0.02539745,-0.
 01626497,0.01704858,0.00134136,0.00159859,0.00077310,0.08147041,-0.091
 62796,0.05679885,-0.00019102,-0.00005426,-0.00020223,0.00013235,0.0000
 6721,-0.00009020,-0.00276639,-0.00485579,0.00189605,-0.00079332,-0.000
 30011,-0.00064137,-0.00029190,0.00045490,-0.00018379,-0.00001498,-0.00
 005513,-0.00004525,-0.08976874,0.10168404,-0.00011744,-0.00135274,0.00
 116393,0.00009747,0.00004386,-0.00000784,-0.00966458,0.00696593,-0.008
 13973,0.00043790,-0.00116304,0.00038676,-0.10532295,0.05661279,-0.1205
 6358,-0.00014922,-0.00031952,-0.00081789,0.00006922,0.00003630,0.00019
 865,0.00113090,0.00210499,0.00008508,0.00009497,0.00005612,0.00064313,
 0.00013612,-0.00012486,-0.00007776,0.00015335,-0.00000523,-0.00000014,
 0.11609330,-0.06491927,0.12739132,0.00049248,0.00098397,-0.00058736,0.
 00039036,0.00030604,-0.00002123,-0.00416594,-0.00515290,-0.00730484,-0
 .00010135,-0.00184170,0.00141150,-0.06478987,-0.04217447,-0.05241821,-
 0.00045729,-0.00039110,-0.00000649,-0.00021923,-0.00000732,0.00027879,
 0.00015364,0.00036909,0.00053177,0.00035750,0.00024552,0.00035278,0.00
 033183,-0.00057215,-0.00047085,0.00020087,-0.00009304,-0.00032582,-0.0
 0560763,-0.01592024,-0.01755025,0.06533815,0.00123055,0.00225789,0.000
 30583,0.00049607,0.00046658,-0.00005765,-0.00637069,-0.01763446,-0.025
 41591,-0.00155669,-0.00477830,0.00415419,-0.04296468,-0.14982034,-0.12
 295389,-0.00056035,-0.00044830,-0.00068502,-0.00008738,0.00004137,0.00
 055147,0.00051802,0.00103808,0.00001357,-0.00011797,0.00009012,0.00002
 161,-0.00084281,-0.00110034,-0.00143042,0.00016846,0.00025800,0.000245
 35,0.00276339,0.00902356,0.01081656,0.04791993,0.16285925,-0.00117343,
 -0.00139227,0.00098683,0.00003622,-0.00014541,0.00001445,0.00373198,0.
 00831858,0.01078644,0.00100155,0.00182438,-0.00054267,-0.05263974,-0.1
 2465178,-0.19852670,0.00001122,0.00019284,-0.00106343,0.00011002,0.000
 25175,0.00010947,-0.00031834,-0.00095354,0.00058626,0.00024292,0.00014
 434,0.00003250,0.00026781,0.00051904,0.00054509,-0.00014925,0.00020517
 ,0.00005630,-0.00260775,-0.00984542,-0.01216803,0.05628021,0.13521515,
 0.21488909,-0.00003842,-0.00249550,0.00242625,-0.00007517,-0.00014008,
 0.00002236,-0.00796581,0.00396743,0.00355685,-0.00001150,0.00072951,0.
 00004321,-0.21678972,0.02529266,0.12861492,-0.00027961,-0.00061994,-0.
 00129231,0.00014808,0.00024437,0.00035125,0.00033856,-0.00041271,0.000
 06704,-0.00001719,-0.00007044,0.00011618,0.00028777,-0.00003525,-0.000
 20463,0.00030192,-0.00054628,-0.00037513,-0.01720567,0.00164181,0.0147
 3366,0.00777480,-0.00046612,-0.00594360,0.23335763,-0.00519735,-0.0052
 0489,0.00557934,0.00006809,0.00001683,0.00016319,-0.02183526,0.0074910
 7,0.01482628,0.00014867,0.00090000,-0.00024572,0.02720371,-0.05175906,
 -0.01965967,-0.00073658,-0.00104965,-0.00175247,-0.00000231,0.00020680
 ,0.00049003,0.00110805,0.00085218,-0.00012201,-0.00004009,-0.00005992,
 -0.00006802,0.00029945,0.00021684,0.00008586,-0.00027008,-0.00069155,-
 0.00028727,0.00941230,-0.00234547,-0.00901020,0.01669421,-0.00246845,-
 0.01082138,-0.02731989,0.05361309,0.00167602,0.00257614,-0.00162857,0.
 00034724,0.00026137,-0.00010804,0.00788878,-0.00431523,-0.00754532,-0.
 00016112,-0.00073569,-0.00004257,0.12872760,-0.01815369,-0.14320265,0.
 00018277,0.00034948,0.00105523,-0.00015258,-0.00009287,0.00002560,-0.0
 0052700,0.00002086,0.00000350,-0.00010845,0.00007415,0.00003358,-0.000
 22988,0.00011954,-0.00003683,-0.00023899,-0.00020991,0.00047869,-0.014
 12006,0.00130061,0.01174407,0.01900373,-0.00170999,-0.01413665,-0.1421
 7240,0.02071161,0.15303509,-0.00153856,-0.00474120,-0.00485984,0.00551
 453,-0.00375500,0.00410668,-0.00062415,0.00104359,0.00116728,0.0001883
 8,0.00007861,-0.00013638,0.00002758,-0.00047308,0.00004799,-0.20079681
 ,-0.15636531,-0.01586699,-0.00970682,-0.00992231,-0.00664569,0.0002724
 9,0.00010405,0.00006640,-0.00007841,0.00004160,0.00001250,0.00000998,0
 .00006531,0.00004222,-0.00001005,-0.00007223,-0.00010111,-0.00002350,0
 .00001289,-0.00009612,0.00033081,-0.00010908,0.00114671,0.00012704,0.0
 0034969,0.00000083,0.20794662,-0.00467359,-0.00560477,-0.00753350,-0.0
 0555363,0.00655619,-0.00046868,-0.00307745,0.00096443,0.00141823,0.000
 44769,-0.00023779,-0.00000032,0.00040588,-0.00011676,-0.00003004,-0.15
 832544,-0.16988040,-0.01962110,-0.00328193,-0.00448932,-0.00213247,0.0
 0053517,-0.00060538,-0.00012756,0.00005125,0.00008245,0.00016977,-0.00
 001087,0.00008091,-0.00000619,0.00001868,-0.00004714,-0.00008765,0.000
 04809,-0.00003247,0.00019040,-0.00029364,0.00034049,0.00106446,0.00010
 863,0.00013954,-0.00009827,0.17080257,0.17542369,-0.02407502,-0.024460
 87,-0.01255914,0.00424150,0.00029564,-0.00318025,-0.00380495,-0.000658
 55,0.00311196,0.00058708,0.00007107,-0.00031193,-0.00009291,0.00008417
 ,-0.00056582,-0.01449588,-0.01964503,-0.05770608,0.01541621,0.01652801
 ,0.00950492,0.00050498,-0.00020127,-0.00017433,0.00004017,-0.00000416,
 0.00019197,0.00001020,0.00019784,0.00011371,0.00010695,-0.00007050,-0.
 00020336,-0.00002649,0.00003386,0.00019614,0.00090022,0.00104459,-0.00
 152311,0.00010029,0.00020365,0.00033575,0.02142681,0.02637626,0.063971
 98,0.00221818,-0.00435048,0.00570709,-0.00593993,-0.01244602,-0.027703
 58,0.00130403,-0.00131852,-0.00053054,-0.00002010,0.00000222,-0.000003
 85,-0.00021325,0.00016868,0.00024186,0.00700423,0.00812577,0.01271806,
 -0.04990065,-0.01948253,-0.02318880,-0.00020642,0.00003890,-0.00017222
 ,-0.00002040,-0.00001175,-0.00003647,0.00000021,0.00001270,-0.00000247
 ,-0.00002436,0.00003621,-0.00001148,0.00001808,0.00002202,-0.00003205,
 0.00000193,0.00000256,-0.00003959,-0.00007317,-0.00008843,0.00002620,-
 0.00194606,0.00215055,-0.00073999,0.05058059,-0.00730272,0.00375896,-0
 .00092147,-0.00617598,-0.00934815,-0.02348315,0.00023094,0.00128419,0.
 00110705,-0.00049431,-0.00003048,0.00026548,0.00003289,-0.00005593,-0.
 00006799,0.00378902,0.00608251,0.00997607,-0.01998120,-0.07188313,-0.0
 8734428,0.00009549,0.00000723,0.00017270,0.00002553,-0.00002558,0.0000
 1310,-0.00000875,0.00002165,-0.00001327,0.00006524,0.00010108,0.000135
 74,-0.00000486,-0.00002443,0.00001665,0.00000504,-0.00002691,0.0000329
 6,0.00002625,0.00000578,0.00001322,0.00224183,-0.00235954,0.00041095,0
 .03133703,0.07392330,0.00481673,0.00050508,0.00025965,-0.00287925,-0.0
 0261240,0.00103874,-0.00101599,0.00008359,-0.00046487,0.00033439,0.000
 00119,-0.00015514,0.00013739,-0.00007165,-0.00012536,-0.00707508,-0.00
 948342,-0.01412910,-0.02824586,-0.08951972,-0.32238249,0.00003323,-0.0
 0003815,-0.00005328,-0.00001142,0.00001668,0.00002236,-0.00001674,0.00
 000944,0.00001922,-0.00002453,-0.00007051,-0.00007943,-0.00000583,-0.0
 0000393,0.00000104,-0.00000032,0.00002598,0.00000715,0.00001998,0.0000
 6445,-0.00002203,0.00010390,0.00091498,-0.00009026,0.03328832,0.099806
 82,0.33382998,0.00160970,0.00209661,-0.00007891,-0.03095174,-0.0169741
 8,0.00858872,-0.00148438,0.00125797,0.00165661,0.00011323,-0.00018347,
 0.00011092,0.00055002,-0.00018464,-0.00043131,-0.00186201,-0.00333057,
 -0.00246602,-0.00508041,-0.01381236,-0.03762939,0.00012327,-0.00011119
 ,-0.00013712,-0.00002242,0.00010452,-0.00007290,-0.00000701,0.00015702
 ,0.00018637,0.00001404,0.00000497,-0.00013216,-0.00004499,0.00001343,-
 0.00001427,-0.00003106,-0.00002320,0.00004304,0.00012048,0.00020582,-0
 .00014268,0.00030694,0.00064802,-0.00009917,-0.00278292,-0.00388142,0.
 00054109,0.03942925,0.00243463,-0.00146423,-0.00041066,-0.02397077,-0.
 04908894,-0.09112596,-0.00082495,0.00112336,0.00164183,0.00011056,0.00
 041956,-0.00014824,0.00039508,-0.00016121,-0.00038692,-0.00115616,-0.0
 0041240,-0.00167508,-0.00789821,-0.01261834,-0.03438950,0.00043886,-0.
 00002874,-0.00020004,-0.00004218,-0.00001961,0.00006475,0.00006624,-0.
 00022432,-0.00007678,-0.00003513,-0.00015962,-0.00006549,-0.00004819,-
 0.00001126,0.00005123,-0.00007723,-0.00009826,0.00004111,0.00009557,0.
 00013685,-0.00011133,0.00069806,-0.00021415,-0.00020567,-0.00419889,-0
 .00143055,0.00037158,0.03401269,0.06425186,-0.00181408,-0.00069166,-0.
 00293439,-0.02744076,-0.12266427,-0.48390082,0.00037237,-0.00105377,-0
 .00056704,0.00002243,0.00023637,-0.00007291,-0.00028160,0.00017042,0.0
 0024393,0.00561450,0.00588184,0.00475966,-0.00620784,-0.00788958,-0.00
 848018,-0.00031317,0.00010166,0.00020531,0.00001450,0.00006802,-0.0001
 7925,0.00015989,-0.00027966,-0.00000208,-0.00014564,-0.00010290,0.0000
 1964,0.00001545,0.00004635,-0.00003515,-0.00007363,-0.00014143,-0.0000
 5298,-0.00006394,-0.00015768,0.00001113,-0.00041518,-0.00002832,-0.001
 11216,0.00047951,-0.00012057,0.00232381,0.03007719,0.12662518,0.489773
 47\\0.00000002,0.00000014,-0.00000008,-0.00000041,-0.00000015,-0.00000
 063,-0.00000018,0.00000007,-0.00000018,-0.00000082,0.00000106,-0.00000
 069,0.00000081,0.00000008,0.00000069,0.00000035,-0.00000074,0.00000038
 ,-0.00000006,-0.00000113,0.00000013,-0.00000043,-0.00000093,-0.0000004
 5,-0.00000050,0.00000192,-0.00000040,-0.00000138,0.00000099,-0.0000013
 4,-0.00000088,0.00000095,-0.00000084,0.00000101,0.00000095,0.00000107,
 0.00000124,-0.00000061,0.00000119,0.00000061,-0.00000005,0.00000064,0.
 00000087,-0.00000136,0.00000074,0.00000040,-0.00000168,0.00000027,-0.0
 0000066,0.00000049,-0.00000052\\\@


    WHAT WE HAVE LEARNED
 IS LIKE A HANDFUL OF EARTH;
  WHAT WE HAVE YET TO LEARN
   IS LIKE THE WHOLE WORLD.

         -- AVVAYIAR
 Job cpu time:       0 days  3 hours 27 minutes 23.3 seconds.
 Elapsed time:       0 days  1 hours 43 minutes 46.8 seconds.
 File lengths (MBytes):  RWF=   1392 Int=      0 D2E=      0 Chk=     32 Scr=     32
 Normal termination of Gaussian 16 at Thu Sep 26 17:04:43 2019.
