 Entering Gaussian System, Link 0=g16
 Input=tight/species/CCCCCCC/conformers/CCCCCCC_349.com
 Output=tight/species/CCCCCCC/conformers/CCCCCCC_349.log
 Initial command:
 /shared/centos7/gaussian/g16/l1.exe "/scratch/harms.n/gauss_scrdir/Gau-39333.inp" -scrdir="/scratch/harms.n/gauss_scrdir/"
 Entering Link 1 = /shared/centos7/gaussian/g16/l1.exe PID=     39334.
  
 Copyright (c) 1988,1990,1992,1993,1995,1998,2003,2009,2016,
            Gaussian, Inc.  All Rights Reserved.
  
 This is part of the Gaussian(R) 16 program.  It is based on
 the Gaussian(R) 09 system (copyright 2009, Gaussian, Inc.),
 the Gaussian(R) 03 system (copyright 2003, Gaussian, Inc.),
 the Gaussian(R) 98 system (copyright 1998, Gaussian, Inc.),
 the Gaussian(R) 94 system (copyright 1995, Gaussian, Inc.),
 the Gaussian 92(TM) system (copyright 1992, Gaussian, Inc.),
 the Gaussian 90(TM) system (copyright 1990, Gaussian, Inc.),
 the Gaussian 88(TM) system (copyright 1988, Gaussian, Inc.),
 the Gaussian 86(TM) system (copyright 1986, Carnegie Mellon
 University), and the Gaussian 82(TM) system (copyright 1983,
 Carnegie Mellon University). Gaussian is a federally registered
 trademark of Gaussian, Inc.
  
 This software contains proprietary and confidential information,
 including trade secrets, belonging to Gaussian, Inc.
  
 This software is provided under written license and may be
 used, copied, transmitted, or stored only in accord with that
 written license.
  
 The following legend is applicable only to US Government
 contracts under FAR:
  
                    RESTRICTED RIGHTS LEGEND
  
 Use, reproduction and disclosure by the US Government is
 subject to restrictions as set forth in subparagraphs (a)
 and (c) of the Commercial Computer Software - Restricted
 Rights clause in FAR 52.227-19.
  
 Gaussian, Inc.
 340 Quinnipiac St., Bldg. 40, Wallingford CT 06492
  
  
 ---------------------------------------------------------------
 Warning -- This program may not be used in any manner that
 competes with the business of Gaussian, Inc. or will provide
 assistance to any competitor of Gaussian, Inc.  The licensee
 of this program is prohibited from giving any competitor of
 Gaussian, Inc. access to this program.  By using this program,
 the user acknowledges that Gaussian, Inc. is engaged in the
 business of creating and licensing software in the field of
 computational chemistry and represents and warrants to the
 licensee that it is not a competitor of Gaussian, Inc. and that
 it will not use this program in any manner prohibited above.
 ---------------------------------------------------------------
  

 Cite this work as:
 Gaussian 16, Revision A.03,
 M. J. Frisch, G. W. Trucks, H. B. Schlegel, G. E. Scuseria, 
 M. A. Robb, J. R. Cheeseman, G. Scalmani, V. Barone, 
 G. A. Petersson, H. Nakatsuji, X. Li, M. Caricato, A. V. Marenich, 
 J. Bloino, B. G. Janesko, R. Gomperts, B. Mennucci, H. P. Hratchian, 
 J. V. Ortiz, A. F. Izmaylov, J. L. Sonnenberg, D. Williams-Young, 
 F. Ding, F. Lipparini, F. Egidi, J. Goings, B. Peng, A. Petrone, 
 T. Henderson, D. Ranasinghe, V. G. Zakrzewski, J. Gao, N. Rega, 
 G. Zheng, W. Liang, M. Hada, M. Ehara, K. Toyota, R. Fukuda, 
 J. Hasegawa, M. Ishida, T. Nakajima, Y. Honda, O. Kitao, H. Nakai, 
 T. Vreven, K. Throssell, J. A. Montgomery, Jr., J. E. Peralta, 
 F. Ogliaro, M. J. Bearpark, J. J. Heyd, E. N. Brothers, K. N. Kudin, 
 V. N. Staroverov, T. A. Keith, R. Kobayashi, J. Normand, 
 K. Raghavachari, A. P. Rendell, J. C. Burant, S. S. Iyengar, 
 J. Tomasi, M. Cossi, J. M. Millam, M. Klene, C. Adamo, R. Cammi, 
 J. W. Ochterski, R. L. Martin, K. Morokuma, O. Farkas, 
 J. B. Foresman, and D. J. Fox, Gaussian, Inc., Wallingford CT, 2016.
 
 ******************************************
 Gaussian 16:  EM64L-G16RevA.03 25-Dec-2016
                28-Sep-2019 
 ******************************************
 %nprocshared=20
 Will use up to   20 processors via shared memory.
 %mem=5GB
 ----------------------------------------------------------------------
 #p m062x/cc-pVTZ opt=(calcfc,maxcycles=900,Tight) freq IOP(7/33=1,2/16
 =3) scf=(maxcycle=900)
 ----------------------------------------------------------------------
 1/6=900,7=10,10=4,18=20,19=15,26=3,38=1/1,3;
 2/9=110,12=2,16=3,17=6,18=5,40=1/2;
 3/5=16,6=1,11=2,25=1,30=1,71=2,74=-55,140=1/1,2,3;
 4//1;
 5/5=2,7=900,38=5/2;
 8/6=4,10=90,11=11/1;
 11/6=1,8=1,9=11,15=111,16=1/1,2,10;
 10/6=1,13=1/2;
 6/7=2,8=2,9=2,10=2,28=1/1;
 7/10=1,18=20,25=1,33=1/1,2,3,16;
 1/6=900,7=10,10=4,18=20,19=15,26=3/3(2);
 2/9=110,16=3/2;
 99//99;
 2/9=110,16=3/2;
 3/5=16,6=1,11=2,25=1,30=1,71=1,74=-55/1,2,3;
 4/5=5,16=3,69=1/1;
 5/5=2,7=900,38=5/2;
 7/33=1/1,2,3,16;
 1/6=900,7=10,18=20,19=15,26=3/3(-5);
 2/9=110,16=3/2;
 6/7=2,8=2,9=2,10=2,19=2,28=1/1;
 99/9=1/99;
 Leave Link    1 at Sat Sep 28 16:00:00 2019, MaxMem=   671088640 cpu:               6.9 elap:               3.4
 (Enter /shared/centos7/gaussian/g16/l101.exe)
 ------------------------------
 Gaussian input prepared by ASE
 ------------------------------
 Symbolic Z-matrix:
 Charge =  0 Multiplicity = 1
 C                     1.3974   -1.15564   0.52336 
 C                     0.14541  -0.45892   0.93454 
 C                    -0.84542  -0.27934  -0.1884 
 C                     2.13485  -0.47306  -0.57904 
 C                    -1.22938  -1.58845  -0.83685 
 C                     3.36013  -1.16886  -1.00816 
 C                    -2.20372  -1.46015  -1.97884 
 H                     2.38291   0.57497  -0.24852 
 H                     1.4465   -0.34654  -1.44847 
 H                     1.15323  -2.19344   0.21204 
 H                     2.06146  -1.25514   1.4064 
 H                     0.39435   0.52826   1.3543 
 H                    -0.33267  -1.03125   1.75742 
 H                    -0.41051   0.39159  -0.94855 
 H                    -1.75046   0.2323    0.19925 
 H                    -0.29395  -2.08292  -1.20832 
 H                    -1.65453  -2.26325  -0.07452 
 H                     3.55496  -2.08074  -0.41285 
 H                     3.29636  -1.49444  -2.08866 
 H                     4.25292  -0.51435  -0.91856 
 H                    -2.02616  -0.55903  -2.56709 
 H                    -3.26382  -1.42701  -1.6034 
 H                    -2.11938  -2.3476   -2.66964 
 
 ITRead=  0  0  0  0  0  0  0  0  0  0  0  0  0  0  0  0  0  0  0  0
 ITRead=  0  0  0
 MicOpt= -1 -1 -1 -1 -1 -1 -1 -1 -1 -1 -1 -1 -1 -1 -1 -1 -1 -1 -1 -1
 MicOpt= -1 -1 -1
 NAtoms=     23 NQM=       23 NQMF=       0 NMMI=      0 NMMIF=      0
                NMic=       0 NMicF=      0.
                    Isotopes and Nuclear Properties:
 (Nuclear quadrupole moments (NQMom) in fm**2, nuclear magnetic moments (NMagM)
  in nuclear magnetons)

  Atom         1           2           3           4           5           6           7           8           9          10
 IAtWgt=          12          12          12          12          12          12          12           1           1           1
 AtmWgt=  12.0000000  12.0000000  12.0000000  12.0000000  12.0000000  12.0000000  12.0000000   1.0078250   1.0078250   1.0078250
 NucSpn=           0           0           0           0           0           0           0           1           1           1
 AtZEff=  -0.0000000  -0.0000000  -0.0000000  -0.0000000  -0.0000000  -0.0000000  -0.0000000  -0.0000000  -0.0000000  -0.0000000
 NQMom=    0.0000000   0.0000000   0.0000000   0.0000000   0.0000000   0.0000000   0.0000000   0.0000000   0.0000000   0.0000000
 NMagM=    0.0000000   0.0000000   0.0000000   0.0000000   0.0000000   0.0000000   0.0000000   2.7928460   2.7928460   2.7928460
 AtZNuc=   6.0000000   6.0000000   6.0000000   6.0000000   6.0000000   6.0000000   6.0000000   1.0000000   1.0000000   1.0000000

  Atom        11          12          13          14          15          16          17          18          19          20
 IAtWgt=           1           1           1           1           1           1           1           1           1           1
 AtmWgt=   1.0078250   1.0078250   1.0078250   1.0078250   1.0078250   1.0078250   1.0078250   1.0078250   1.0078250   1.0078250
 NucSpn=           1           1           1           1           1           1           1           1           1           1
 AtZEff=  -0.0000000  -0.0000000  -0.0000000  -0.0000000  -0.0000000  -0.0000000  -0.0000000  -0.0000000  -0.0000000  -0.0000000
 NQMom=    0.0000000   0.0000000   0.0000000   0.0000000   0.0000000   0.0000000   0.0000000   0.0000000   0.0000000   0.0000000
 NMagM=    2.7928460   2.7928460   2.7928460   2.7928460   2.7928460   2.7928460   2.7928460   2.7928460   2.7928460   2.7928460
 AtZNuc=   1.0000000   1.0000000   1.0000000   1.0000000   1.0000000   1.0000000   1.0000000   1.0000000   1.0000000   1.0000000

  Atom        21          22          23
 IAtWgt=           1           1           1
 AtmWgt=   1.0078250   1.0078250   1.0078250
 NucSpn=           1           1           1
 AtZEff=  -0.0000000  -0.0000000  -0.0000000
 NQMom=    0.0000000   0.0000000   0.0000000
 NMagM=    2.7928460   2.7928460   2.7928460
 AtZNuc=   1.0000000   1.0000000   1.0000000
 Leave Link  101 at Sat Sep 28 16:00:04 2019, MaxMem=   671088640 cpu:               7.5 elap:               3.8
 (Enter /shared/centos7/gaussian/g16/l103.exe)

 GradGradGradGradGradGradGradGradGradGradGradGradGradGradGradGradGradGrad
 Berny optimization.
 Initialization pass.
                           ----------------------------
                           !    Initial Parameters    !
                           ! (Angstroms and Degrees)  !
 --------------------------                            --------------------------
 ! Name  Definition              Value          Derivative Info.                !
 --------------------------------------------------------------------------------
 ! R1    R(1,2)                  1.4906         calculate D2E/DX2 analytically  !
 ! R2    R(1,4)                  1.4917         calculate D2E/DX2 analytically  !
 ! R3    R(1,10)                 1.1107         calculate D2E/DX2 analytically  !
 ! R4    R(1,11)                 1.1093         calculate D2E/DX2 analytically  !
 ! R5    R(2,3)                  1.5083         calculate D2E/DX2 analytically  !
 ! R6    R(2,12)                 1.1012         calculate D2E/DX2 analytically  !
 ! R7    R(2,13)                 1.1105         calculate D2E/DX2 analytically  !
 ! R8    R(3,5)                  1.5105         calculate D2E/DX2 analytically  !
 ! R9    R(3,14)                 1.1032         calculate D2E/DX2 analytically  !
 ! R10   R(3,15)                 1.1096         calculate D2E/DX2 analytically  !
 ! R11   R(4,6)                  1.473          calculate D2E/DX2 analytically  !
 ! R12   R(4,8)                  1.1266         calculate D2E/DX2 analytically  !
 ! R13   R(4,9)                  1.1161         calculate D2E/DX2 analytically  !
 ! R14   R(5,7)                  1.5066         calculate D2E/DX2 analytically  !
 ! R15   R(5,16)                 1.1214         calculate D2E/DX2 analytically  !
 ! R16   R(5,17)                 1.1033         calculate D2E/DX2 analytically  !
 ! R17   R(6,18)                 1.1063         calculate D2E/DX2 analytically  !
 ! R18   R(6,19)                 1.1303         calculate D2E/DX2 analytically  !
 ! R19   R(6,20)                 1.1106         calculate D2E/DX2 analytically  !
 ! R20   R(7,21)                 1.0907         calculate D2E/DX2 analytically  !
 ! R21   R(7,22)                 1.1251         calculate D2E/DX2 analytically  !
 ! R22   R(7,23)                 1.1278         calculate D2E/DX2 analytically  !
 ! A1    A(2,1,4)              113.9048         calculate D2E/DX2 analytically  !
 ! A2    A(2,1,10)             109.2332         calculate D2E/DX2 analytically  !
 ! A3    A(2,1,11)             108.9728         calculate D2E/DX2 analytically  !
 ! A4    A(4,1,10)             109.2149         calculate D2E/DX2 analytically  !
 ! A5    A(4,1,11)             109.4747         calculate D2E/DX2 analytically  !
 ! A6    A(10,1,11)            105.7181         calculate D2E/DX2 analytically  !
 ! A7    A(1,2,3)              113.7051         calculate D2E/DX2 analytically  !
 ! A8    A(1,2,12)             109.5287         calculate D2E/DX2 analytically  !
 ! A9    A(1,2,13)             108.9712         calculate D2E/DX2 analytically  !
 ! A10   A(3,2,12)             108.9992         calculate D2E/DX2 analytically  !
 ! A11   A(3,2,13)             109.2824         calculate D2E/DX2 analytically  !
 ! A12   A(12,2,13)            106.0735         calculate D2E/DX2 analytically  !
 ! A13   A(2,3,5)              112.5448         calculate D2E/DX2 analytically  !
 ! A14   A(2,3,14)             109.0519         calculate D2E/DX2 analytically  !
 ! A15   A(2,3,15)             109.3064         calculate D2E/DX2 analytically  !
 ! A16   A(5,3,14)             109.3581         calculate D2E/DX2 analytically  !
 ! A17   A(5,3,15)             110.0155         calculate D2E/DX2 analytically  !
 ! A18   A(14,3,15)            106.37           calculate D2E/DX2 analytically  !
 ! A19   A(1,4,6)              114.23           calculate D2E/DX2 analytically  !
 ! A20   A(1,4,8)              108.526          calculate D2E/DX2 analytically  !
 ! A21   A(1,4,9)              108.8237         calculate D2E/DX2 analytically  !
 ! A22   A(6,4,8)              109.9846         calculate D2E/DX2 analytically  !
 ! A23   A(6,4,9)              109.8545         calculate D2E/DX2 analytically  !
 ! A24   A(8,4,9)              105.004          calculate D2E/DX2 analytically  !
 ! A25   A(3,5,7)              114.5805         calculate D2E/DX2 analytically  !
 ! A26   A(3,5,16)             108.1984         calculate D2E/DX2 analytically  !
 ! A27   A(3,5,17)             109.3536         calculate D2E/DX2 analytically  !
 ! A28   A(7,5,16)             109.0217         calculate D2E/DX2 analytically  !
 ! A29   A(7,5,17)             109.0635         calculate D2E/DX2 analytically  !
 ! A30   A(16,5,17)            106.2983         calculate D2E/DX2 analytically  !
 ! A31   A(4,6,18)             112.2776         calculate D2E/DX2 analytically  !
 ! A32   A(4,6,19)             111.5705         calculate D2E/DX2 analytically  !
 ! A33   A(4,6,20)             111.5186         calculate D2E/DX2 analytically  !
 ! A34   A(18,6,19)            106.6739         calculate D2E/DX2 analytically  !
 ! A35   A(18,6,20)            107.5036         calculate D2E/DX2 analytically  !
 ! A36   A(19,6,20)            106.9915         calculate D2E/DX2 analytically  !
 ! A37   A(5,7,21)             111.9554         calculate D2E/DX2 analytically  !
 ! A38   A(5,7,22)             111.0336         calculate D2E/DX2 analytically  !
 ! A39   A(5,7,23)             110.4207         calculate D2E/DX2 analytically  !
 ! A40   A(21,7,22)            108.0008         calculate D2E/DX2 analytically  !
 ! A41   A(21,7,23)            107.9148         calculate D2E/DX2 analytically  !
 ! A42   A(22,7,23)            107.3393         calculate D2E/DX2 analytically  !
 ! D1    D(4,1,2,3)             58.0601         calculate D2E/DX2 analytically  !
 ! D2    D(4,1,2,12)           -64.1475         calculate D2E/DX2 analytically  !
 ! D3    D(4,1,2,13)          -179.7783         calculate D2E/DX2 analytically  !
 ! D4    D(10,1,2,3)           -64.3457         calculate D2E/DX2 analytically  !
 ! D5    D(10,1,2,12)          173.4466         calculate D2E/DX2 analytically  !
 ! D6    D(10,1,2,13)           57.8158         calculate D2E/DX2 analytically  !
 ! D7    D(11,1,2,3)          -179.3919         calculate D2E/DX2 analytically  !
 ! D8    D(11,1,2,12)           58.4005         calculate D2E/DX2 analytically  !
 ! D9    D(11,1,2,13)          -57.2304         calculate D2E/DX2 analytically  !
 ! D10   D(2,1,4,6)           -178.9176         calculate D2E/DX2 analytically  !
 ! D11   D(2,1,4,8)             57.9841         calculate D2E/DX2 analytically  !
 ! D12   D(2,1,4,9)            -55.7627         calculate D2E/DX2 analytically  !
 ! D13   D(10,1,4,6)           -56.5017         calculate D2E/DX2 analytically  !
 ! D14   D(10,1,4,8)          -179.6            calculate D2E/DX2 analytically  !
 ! D15   D(10,1,4,9)            66.6533         calculate D2E/DX2 analytically  !
 ! D16   D(11,1,4,6)            58.8101         calculate D2E/DX2 analytically  !
 ! D17   D(11,1,4,8)           -64.2882         calculate D2E/DX2 analytically  !
 ! D18   D(11,1,4,9)          -178.035          calculate D2E/DX2 analytically  !
 ! D19   D(1,2,3,5)             56.7118         calculate D2E/DX2 analytically  !
 ! D20   D(1,2,3,14)           -64.8259         calculate D2E/DX2 analytically  !
 ! D21   D(1,2,3,15)           179.2667         calculate D2E/DX2 analytically  !
 ! D22   D(12,2,3,5)           179.2116         calculate D2E/DX2 analytically  !
 ! D23   D(12,2,3,14)           57.6739         calculate D2E/DX2 analytically  !
 ! D24   D(12,2,3,15)          -58.2336         calculate D2E/DX2 analytically  !
 ! D25   D(13,2,3,5)           -65.2775         calculate D2E/DX2 analytically  !
 ! D26   D(13,2,3,14)          173.1848         calculate D2E/DX2 analytically  !
 ! D27   D(13,2,3,15)           57.2773         calculate D2E/DX2 analytically  !
 ! D28   D(2,3,5,7)           -179.1782         calculate D2E/DX2 analytically  !
 ! D29   D(2,3,5,16)           -57.331          calculate D2E/DX2 analytically  !
 ! D30   D(2,3,5,17)            58.0466         calculate D2E/DX2 analytically  !
 ! D31   D(14,3,5,7)           -57.815          calculate D2E/DX2 analytically  !
 ! D32   D(14,3,5,16)           64.0322         calculate D2E/DX2 analytically  !
 ! D33   D(14,3,5,17)          179.4098         calculate D2E/DX2 analytically  !
 ! D34   D(15,3,5,7)            58.6668         calculate D2E/DX2 analytically  !
 ! D35   D(15,3,5,16)         -179.486          calculate D2E/DX2 analytically  !
 ! D36   D(15,3,5,17)          -64.1084         calculate D2E/DX2 analytically  !
 ! D37   D(1,4,6,18)            -1.8647         calculate D2E/DX2 analytically  !
 ! D38   D(1,4,6,19)           117.8299         calculate D2E/DX2 analytically  !
 ! D39   D(1,4,6,20)          -122.589          calculate D2E/DX2 analytically  !
 ! D40   D(8,4,6,18)           120.44           calculate D2E/DX2 analytically  !
 ! D41   D(8,4,6,19)          -119.8655         calculate D2E/DX2 analytically  !
 ! D42   D(8,4,6,20)            -0.2843         calculate D2E/DX2 analytically  !
 ! D43   D(9,4,6,18)          -124.4598         calculate D2E/DX2 analytically  !
 ! D44   D(9,4,6,19)            -4.7653         calculate D2E/DX2 analytically  !
 ! D45   D(9,4,6,20)           114.8159         calculate D2E/DX2 analytically  !
 ! D46   D(3,5,7,21)            36.1081         calculate D2E/DX2 analytically  !
 ! D47   D(3,5,7,22)           -84.6888         calculate D2E/DX2 analytically  !
 ! D48   D(3,5,7,23)           156.3719         calculate D2E/DX2 analytically  !
 ! D49   D(16,5,7,21)          -85.2889         calculate D2E/DX2 analytically  !
 ! D50   D(16,5,7,22)          153.9143         calculate D2E/DX2 analytically  !
 ! D51   D(16,5,7,23)           34.9749         calculate D2E/DX2 analytically  !
 ! D52   D(17,5,7,21)          159.0398         calculate D2E/DX2 analytically  !
 ! D53   D(17,5,7,22)           38.243          calculate D2E/DX2 analytically  !
 ! D54   D(17,5,7,23)          -80.6964         calculate D2E/DX2 analytically  !
 --------------------------------------------------------------------------------
 Trust Radius=3.00D-01 FncErr=1.00D-07 GrdErr=1.00D-06 EigMax=2.50D+02 EigMin=1.00D-04
 Number of steps in this run=    138 maximum allowed number of steps=    138.
 GradGradGradGradGradGradGradGradGradGradGradGradGradGradGradGradGradGrad

 Leave Link  103 at Sat Sep 28 16:00:05 2019, MaxMem=   671088640 cpu:               1.7 elap:               0.9
 (Enter /shared/centos7/gaussian/g16/l202.exe)
                          Input orientation:                          
 ---------------------------------------------------------------------
 Center     Atomic      Atomic             Coordinates (Angstroms)
 Number     Number       Type             X           Y           Z
 ---------------------------------------------------------------------
      1          6           0        1.397401   -1.155636    0.523356
      2          6           0        0.145413   -0.458916    0.934538
      3          6           0       -0.845416   -0.279338   -0.188400
      4          6           0        2.134852   -0.473056   -0.579040
      5          6           0       -1.229381   -1.588452   -0.836855
      6          6           0        3.360127   -1.168859   -1.008165
      7          6           0       -2.203718   -1.460146   -1.978840
      8          1           0        2.382907    0.574972   -0.248524
      9          1           0        1.446496   -0.346541   -1.448473
     10          1           0        1.153233   -2.193441    0.212036
     11          1           0        2.061456   -1.255141    1.406403
     12          1           0        0.394347    0.528262    1.354297
     13          1           0       -0.332667   -1.031248    1.757418
     14          1           0       -0.410511    0.391592   -0.948554
     15          1           0       -1.750457    0.232303    0.199248
     16          1           0       -0.293947   -2.082917   -1.208323
     17          1           0       -1.654527   -2.263254   -0.074521
     18          1           0        3.554956   -2.080735   -0.412847
     19          1           0        3.296362   -1.494436   -2.088660
     20          1           0        4.252920   -0.514350   -0.918557
     21          1           0       -2.026158   -0.559026   -2.567086
     22          1           0       -3.263816   -1.427008   -1.603404
     23          1           0       -2.119384   -2.347596   -2.669640
 ---------------------------------------------------------------------
                    Distance matrix (angstroms):
                    1          2          3          4          5
     1  C    0.000000
     2  C    1.490625   0.000000
     3  C    2.510921   1.508304   0.000000
     4  C    1.491652   2.499797   3.011997   0.000000
     5  C    2.989563   2.510726   1.510531   3.553680   0.000000
     6  C    2.489583   3.822630   4.376055   1.472952   4.611831
     7  C    4.395653   3.874100   2.538694   4.664437   1.506627
     8  H    2.135890   2.734034   3.339990   1.126559   4.251489
     9  H    2.131937   2.717386   2.616326   1.116134   3.012762
    10  H    1.110665   2.132202   2.796201   2.132862   2.672645
    11  H    1.109344   2.127875   3.456226   2.135188   3.996612
    12  H    2.128871   1.101220   2.137556   2.787434   3.452262
    13  H    2.128736   1.110520   2.148136   3.443728   2.800862
    14  H    2.798031   2.139732   1.103233   2.713491   2.145600
    15  H    3.455493   2.147733   1.109570   4.024784   2.158744
    16  H    2.592146   2.724385   2.144122   2.981059   1.121392
    17  H    3.301294   2.741099   2.145589   4.221225   1.103295
    18  H    2.527316   4.008831   4.760114   2.151498   4.828250
    19  H    3.247070   4.487817   4.716119   2.161313   4.696616
    20  H    3.262568   4.506512   5.155715   2.145504   5.587128
    21  H    4.650541   4.121543   2.670304   4.612345   2.165242
    22  H    5.130662   4.359037   3.027878   5.577183   2.180043
    23  H    4.897323   4.656879   3.472354   5.097356   2.174284
                    6          7          8          9         10
     6  C    0.000000
     7  C    5.655389   0.000000
     8  H    2.138448   5.307808   0.000000
     9  H    2.128864   3.852981   1.779307   0.000000
    10  H    2.721955   4.075141   3.064037   2.500866   0.000000
    11  H    2.743014   5.449184   2.488258   3.058439   1.769686
    12  H    4.154190   4.670494   2.554523   3.118945   3.047677
    13  H    4.615638   4.200526   3.738728   3.729877   2.438606
    14  H    4.081210   2.775971   2.885629   2.059911   3.236458
    15  H    5.434994   2.795335   4.171645   3.642876   3.783624
    16  H    3.771978   2.151456   3.892446   2.470185   2.030755
    17  H    5.216910   2.138463   4.938287   3.895879   2.823208
    18  H    1.106291   5.999982   2.907487   2.919855   2.484241
    19  H    1.130281   5.501282   2.915982   2.269252   3.220995
    20  H    1.110627   6.611120   2.265505   2.860942   3.702114
    21  H    5.640408   1.090678   5.108967   3.654554   4.528063
    22  H    6.655642   1.125104   6.142403   4.835127   4.836689
    23  H    5.845936   1.127778   5.888450   4.267431   4.363238
                   11         12         13         14         15
    11  H    0.000000
    12  H    2.441822   0.000000
    13  H    2.430055   1.767236   0.000000
    14  H    3.790538   2.443276   3.058238   0.000000
    15  H    4.266192   2.453959   2.456539   1.771518   0.000000
    16  H    3.615236   3.722771   3.146924   2.490836   3.076186
    17  H    4.125283   3.745926   2.573161   3.059366   2.512361
    18  H    2.494357   4.463083   4.574394   4.703649   5.819983
    19  H    3.714528   4.936289   5.308174   4.312523   5.804009
    20  H    3.279745   4.597988   5.334382   4.750708   6.152033
    21  H    5.742977   4.734795   4.668217   2.476618   2.890470
    22  H    6.119396   5.094432   4.476985   3.446373   2.879779
    23  H    5.940288   5.548106   4.952169   3.658625   3.875888
                   16         17         18         19         20
    16  H    0.000000
    17  H    1.780227   0.000000
    18  H    3.930247   5.223647   0.000000
    19  H    3.743210   5.399920   1.794148   0.000000
    20  H    4.818544   6.218440   1.787865   1.801309   0.000000
    21  H    2.677506   3.042266   6.172939   5.425228   6.492031
    22  H    3.066990   2.372046   6.952729   6.578446   7.602847
    23  H    2.353237   2.637774   6.112484   5.513232   6.858086
                   21         22         23
    21  H    0.000000
    22  H    1.792728   0.000000
    23  H    1.793932   1.814956   0.000000
 Stoichiometry    C7H16
 Framework group  C1[X(C7H16)]
 Deg. of freedom    63
 Full point group                 C1      NOp   1
 Largest Abelian subgroup         C1      NOp   1
 Largest concise Abelian subgroup C1      NOp   1
                         Standard orientation:                         
 ---------------------------------------------------------------------
 Center     Atomic      Atomic             Coordinates (Angstroms)
 Number     Number       Type             X           Y           Z
 ---------------------------------------------------------------------
      1          6           0       -1.134979    0.684197   -0.539989
      2          6           0       -0.020130    1.523824   -0.016443
      3          6           0        1.130021    0.724356    0.543009
      4          6           0       -1.722484   -0.240210    0.472601
      5          6           0        1.705779   -0.244065   -0.463154
      6          6           0       -2.808120   -1.091297   -0.043761
      7          6           0        2.846406   -1.081285    0.054493
      8          1           0       -2.093492    0.371350    1.342936
      9          1           0       -0.908617   -0.877622    0.893412
     10          1           0       -0.771706    0.093110   -1.407298
     11          1           0       -1.929072    1.347629   -0.939885
     12          1           0       -0.402774    2.197401    0.766221
     13          1           0        0.351515    2.179744   -0.831860
     14          1           0        0.783593    0.167243    1.429991
     15          1           0        1.920248    1.417601    0.898112
     16          1           0        0.881777   -0.922090   -0.807860
     17          1           0        2.042510    0.312006   -1.354590
     18          1           0       -3.036968   -0.881037   -1.105504
     19          1           0       -2.542285   -2.188040    0.019661
     20          1           0       -3.745988   -0.950713    0.534281
     21          1           0        2.708556   -1.355884    1.100997
     22          1           0        3.823927   -0.531436   -0.034832
     23          1           0        2.939815   -2.032382   -0.544318
 ---------------------------------------------------------------------
 Rotational constants (GHZ):           4.0337338           1.2611377           1.0732722
 Leave Link  202 at Sat Sep 28 16:00:07 2019, MaxMem=   671088640 cpu:               3.9 elap:               2.0
 (Enter /shared/centos7/gaussian/g16/l301.exe)
 Standard basis: CC-pVTZ (5D, 7F)
 Ernie: Thresh=  0.10000D-02 Tol=  0.10000D-05 Strict=F.
 Ernie:  21 primitive shells out of 310 were deleted.
 There are   485 symmetry adapted cartesian basis functions of A   symmetry.
 There are   434 symmetry adapted basis functions of A   symmetry.
   434 basis functions,   636 primitive gaussians,   485 cartesian basis functions
    29 alpha electrons       29 beta electrons
       nuclear repulsion energy       325.5951623524 Hartrees.
 IExCor= 4336 DFT=T Ex+Corr=M062X ExCW=0 ScaHFX=  0.540000
 ScaDFX=  1.000000  1.000000  1.000000  1.000000 ScalE2=  1.000000  1.000000
 IRadAn=      5 IRanWt=     -1 IRanGd=            0 ICorTp=0 IEmpDi=  4
 NAtoms=   23 NActive=   23 NUniq=   23 SFac= 1.00D+00 NAtFMM=   60 NAOKFM=F Big=F
 Integral buffers will be    131072 words long.
 Raffenetti 2 integral format.
 Two-electron integral symmetry is turned on.
 Leave Link  301 at Sat Sep 28 16:00:08 2019, MaxMem=   671088640 cpu:               3.1 elap:               1.6
 (Enter /shared/centos7/gaussian/g16/l302.exe)
 NPDir=0 NMtPBC=     1 NCelOv=     1 NCel=       1 NClECP=     1 NCelD=      1
         NCelK=      1 NCelE2=     1 NClLst=     1 CellRange=     0.0.
 One-electron integrals computed using PRISM.
 One-electron integral symmetry used in STVInt
 NBasis=   434 RedAO= T EigKep=  2.55D-04  NBF=   434
 NBsUse=   434 1.00D-06 EigRej= -1.00D+00 NBFU=   434
 Precomputing XC quadrature grid using
 IXCGrd= 4 IRadAn=           5 IRanWt=          -1 IRanGd=           0 AccXCQ= 0.00D+00.
 Generated NRdTot=       0 NPtTot=           0 NUsed=           0 NTot=          32
 NSgBfM=   485   485   485   485   485 MxSgAt=    23 MxSgA2=    23.
 Leave Link  302 at Sat Sep 28 16:01:30 2019, MaxMem=   671088640 cpu:             164.0 elap:              82.0
 (Enter /shared/centos7/gaussian/g16/l303.exe)
 DipDrv:  MaxL=1.
 Leave Link  303 at Sat Sep 28 16:01:38 2019, MaxMem=   671088640 cpu:              15.1 elap:               7.6
 (Enter /shared/centos7/gaussian/g16/l401.exe)
 ExpMin= 1.03D-01 ExpMax= 8.24D+03 ExpMxC= 2.81D+02 IAcc=3 IRadAn=         5 AccDes= 0.00D+00
 Harris functional with IExCor= 1009 and IRadAn=       5 diagonalized for initial guess.
 HarFok:  IExCor= 1009 AccDes= 0.00D+00 IRadAn=         5 IDoV= 1 UseB2=F ITyADJ=14
 ICtDFT=  3500011 ScaDFX=  1.000000  1.000000  1.000000  1.000000
 FoFCou: FMM=F IPFlag=           0 FMFlag=      100000 FMFlg1=           0
         NFxFlg=           0 DoJE=T BraDBF=F KetDBF=T FulRan=T
         wScrn=  0.000000 ICntrl=       500 IOpCl=  0 I1Cent=   200000004 NGrid=           0
         NMat0=    1 NMatS0=      1 NMatT0=    0 NMatD0=    1 NMtDS0=    0 NMtDT0=    0
 Petite list used in FoFCou.
 Harris En= -276.328980875955    
 JPrj=0 DoOrth=F DoCkMO=F.
 Leave Link  401 at Sat Sep 28 16:02:30 2019, MaxMem=   671088640 cpu:             103.6 elap:              51.8
 (Enter /shared/centos7/gaussian/g16/l502.exe)
 Integral symmetry usage will be decided dynamically.
 Closed shell SCF:
 Using DIIS extrapolation, IDIIS=  1040.
 NGot=   671088640 LenX=   670604095 LenY=   670368385
 Requested convergence on RMS density matrix=1.00D-08 within 900 cycles.
 Requested convergence on MAX density matrix=1.00D-06.
 Requested convergence on             energy=1.00D-06.
 No special actions if energy rises.
 Fock matrices will be formed incrementally for  20 cycles.
 Integral accuracy reduced to 1.0D-05 until final iterations.

 Cycle   1  Pass 0  IDiag  1:
 FoFJK:  IHMeth= 1 ICntrl=       0 DoSepK=F KAlg= 0 I1Cent=           0 FoldK=F
 IRaf= 930000000 NMat=       1 IRICut=       1 DoRegI=T DoRafI=F ISym2E= 0 IDoP0=0 IntGTp=1.
 FoFCou: FMM=F IPFlag=           0 FMFlag=      100000 FMFlg1=           0
         NFxFlg=           0 DoJE=F BraDBF=F KetDBF=F FulRan=T
         wScrn=  0.000000 ICntrl=         0 IOpCl=  0 I1Cent=           0 NGrid=           0
         NMat0=    1 NMatS0=      1 NMatT0=    0 NMatD0=    1 NMtDS0=    0 NMtDT0=    0
 Symmetry not used in FoFCou.
 E= -275.962469182255    
 DIIS: error= 3.34D-02 at cycle   1 NSaved=   1.
 NSaved= 1 IEnMin= 1 EnMin= -275.962469182255     IErMin= 1 ErrMin= 3.34D-02
 ErrMax= 3.34D-02  0.00D+00 EMaxC= 1.00D-01 BMatC= 3.73D-01 BMatP= 3.73D-01
 IDIUse=3 WtCom= 6.66D-01 WtEn= 3.34D-01
 Coeff-Com:  0.100D+01
 Coeff-En:   0.100D+01
 Coeff:      0.100D+01
 Gap=     0.372 Goal=   None    Shift=    0.000
 GapD=    0.372 DampG=1.000 DampE=0.500 DampFc=0.5000 IDamp=-1.
 Damping current iteration by 5.00D-01
 RMSDP=1.90D-03 MaxDP=7.48D-02              OVMax= 1.71D-01

 Cycle   2  Pass 0  IDiag  1:
 RMSU=  9.48D-04    CP:  9.89D-01
 E= -276.142277591811     Delta-E=       -0.179808409557 Rises=F Damp=T
 DIIS: error= 4.62D-03 at cycle   2 NSaved=   2.
 NSaved= 2 IEnMin= 2 EnMin= -276.142277591811     IErMin= 2 ErrMin= 4.62D-03
 ErrMax= 4.62D-03  0.00D+00 EMaxC= 1.00D-01 BMatC= 1.80D-02 BMatP= 3.73D-01
 IDIUse=3 WtCom= 9.54D-01 WtEn= 4.62D-02
 Coeff-Com: -0.574D-01 0.106D+01
 Coeff-En:   0.000D+00 0.100D+01
 Coeff:     -0.547D-01 0.105D+01
 Gap=     0.452 Goal=   None    Shift=    0.000
 RMSDP=5.32D-04 MaxDP=1.68D-02 DE=-1.80D-01 OVMax= 8.81D-02

 Cycle   3  Pass 0  IDiag  1:
 RMSU=  5.19D-04    CP:  9.97D-01  8.91D-01
 E= -276.320598418970     Delta-E=       -0.178320827159 Rises=F Damp=F
 DIIS: error= 2.21D-03 at cycle   3 NSaved=   3.
 NSaved= 3 IEnMin= 3 EnMin= -276.320598418970     IErMin= 3 ErrMin= 2.21D-03
 ErrMax= 2.21D-03  0.00D+00 EMaxC= 1.00D-01 BMatC= 2.33D-03 BMatP= 1.80D-02
 IDIUse=3 WtCom= 9.78D-01 WtEn= 2.21D-02
 Coeff-Com: -0.489D-01 0.227D+00 0.822D+00
 Coeff-En:   0.000D+00 0.000D+00 0.100D+01
 Coeff:     -0.478D-01 0.222D+00 0.826D+00
 Gap=     0.417 Goal=   None    Shift=    0.000
 RMSDP=9.39D-05 MaxDP=2.63D-03 DE=-1.78D-01 OVMax= 1.06D-02

 Cycle   4  Pass 0  IDiag  1:
 RMSU=  7.71D-05    CP:  9.96D-01  9.36D-01  9.38D-01
 E= -276.322539061550     Delta-E=       -0.001940642580 Rises=F Damp=F
 DIIS: error= 7.76D-04 at cycle   4 NSaved=   4.
 NSaved= 4 IEnMin= 4 EnMin= -276.322539061550     IErMin= 4 ErrMin= 7.76D-04
 ErrMax= 7.76D-04  0.00D+00 EMaxC= 1.00D-01 BMatC= 3.56D-04 BMatP= 2.33D-03
 IDIUse=3 WtCom= 9.92D-01 WtEn= 7.76D-03
 Coeff-Com: -0.150D-01 0.425D-01 0.322D+00 0.651D+00
 Coeff-En:   0.000D+00 0.000D+00 0.000D+00 0.100D+01
 Coeff:     -0.149D-01 0.422D-01 0.319D+00 0.654D+00
 Gap=     0.418 Goal=   None    Shift=    0.000
 RMSDP=3.26D-05 MaxDP=1.45D-03 DE=-1.94D-03 OVMax= 3.24D-03

 Cycle   5  Pass 0  IDiag  1:
 RMSU=  1.87D-05    CP:  9.96D-01  9.29D-01  9.71D-01  7.54D-01
 E= -276.322866941661     Delta-E=       -0.000327880110 Rises=F Damp=F
 DIIS: error= 1.94D-04 at cycle   5 NSaved=   5.
 NSaved= 5 IEnMin= 5 EnMin= -276.322866941661     IErMin= 5 ErrMin= 1.94D-04
 ErrMax= 1.94D-04  0.00D+00 EMaxC= 1.00D-01 BMatC= 1.52D-05 BMatP= 3.56D-04
 IDIUse=3 WtCom= 9.98D-01 WtEn= 1.94D-03
 Coeff-Com: -0.930D-03-0.720D-03 0.447D-01 0.206D+00 0.751D+00
 Coeff-En:   0.000D+00 0.000D+00 0.000D+00 0.000D+00 0.100D+01
 Coeff:     -0.929D-03-0.718D-03 0.446D-01 0.206D+00 0.751D+00
 Gap=     0.418 Goal=   None    Shift=    0.000
 RMSDP=6.39D-06 MaxDP=3.14D-04 DE=-3.28D-04 OVMax= 7.14D-04

 Initial convergence to 1.0D-05 achieved.  Increase integral accuracy.
 Cycle   6  Pass 1  IDiag  1:
 E= -276.322828333127     Delta-E=        0.000038608533 Rises=F Damp=F
 DIIS: error= 4.01D-05 at cycle   1 NSaved=   1.
 NSaved= 1 IEnMin= 1 EnMin= -276.322828333127     IErMin= 1 ErrMin= 4.01D-05
 ErrMax= 4.01D-05  0.00D+00 EMaxC= 1.00D-01 BMatC= 1.40D-06 BMatP= 1.40D-06
 IDIUse=1 WtCom= 1.00D+00 WtEn= 0.00D+00
 Coeff-Com:  0.100D+01
 Coeff:      0.100D+01
 Gap=     0.418 Goal=   None    Shift=    0.000
 RMSDP=6.39D-06 MaxDP=3.14D-04 DE= 3.86D-05 OVMax= 2.42D-04

 Cycle   7  Pass 1  IDiag  1:
 RMSU=  1.01D-05    CP:  1.00D+00
 E= -276.322828970200     Delta-E=       -0.000000637072 Rises=F Damp=F
 DIIS: error= 2.52D-05 at cycle   2 NSaved=   2.
 NSaved= 2 IEnMin= 2 EnMin= -276.322828970200     IErMin= 2 ErrMin= 2.52D-05
 ErrMax= 2.52D-05  0.00D+00 EMaxC= 1.00D-01 BMatC= 3.97D-07 BMatP= 1.40D-06
 IDIUse=1 WtCom= 1.00D+00 WtEn= 0.00D+00
 Coeff-Com:  0.304D+00 0.696D+00
 Coeff:      0.304D+00 0.696D+00
 Gap=     0.418 Goal=   None    Shift=    0.000
 RMSDP=1.26D-06 MaxDP=4.98D-05 DE=-6.37D-07 OVMax= 1.42D-04

 Cycle   8  Pass 1  IDiag  1:
 RMSU=  1.26D-06    CP:  1.00D+00  9.96D-01
 E= -276.322829304468     Delta-E=       -0.000000334269 Rises=F Damp=F
 DIIS: error= 1.04D-05 at cycle   3 NSaved=   3.
 NSaved= 3 IEnMin= 3 EnMin= -276.322829304468     IErMin= 3 ErrMin= 1.04D-05
 ErrMax= 1.04D-05  0.00D+00 EMaxC= 1.00D-01 BMatC= 6.41D-08 BMatP= 3.97D-07
 IDIUse=1 WtCom= 1.00D+00 WtEn= 0.00D+00
 Coeff-Com: -0.467D-02 0.277D+00 0.727D+00
 Coeff:     -0.467D-02 0.277D+00 0.727D+00
 Gap=     0.418 Goal=   None    Shift=    0.000
 RMSDP=4.37D-07 MaxDP=1.81D-05 DE=-3.34D-07 OVMax= 4.11D-05

 Cycle   9  Pass 1  IDiag  1:
 RMSU=  2.90D-07    CP:  1.00D+00  1.02D+00  7.98D-01
 E= -276.322829365727     Delta-E=       -0.000000061259 Rises=F Damp=F
 DIIS: error= 2.24D-06 at cycle   4 NSaved=   4.
 NSaved= 4 IEnMin= 4 EnMin= -276.322829365727     IErMin= 4 ErrMin= 2.24D-06
 ErrMax= 2.24D-06  0.00D+00 EMaxC= 1.00D-01 BMatC= 1.77D-09 BMatP= 6.41D-08
 IDIUse=1 WtCom= 1.00D+00 WtEn= 0.00D+00
 Coeff-Com: -0.118D-01 0.751D-01 0.253D+00 0.684D+00
 Coeff:     -0.118D-01 0.751D-01 0.253D+00 0.684D+00
 Gap=     0.418 Goal=   None    Shift=    0.000
 RMSDP=8.26D-08 MaxDP=2.66D-06 DE=-6.13D-08 OVMax= 7.96D-06

 Cycle  10  Pass 1  IDiag  1:
 RMSU=  7.65D-08    CP:  1.00D+00  1.02D+00  7.93D-01  8.98D-01
 E= -276.322829367521     Delta-E=       -0.000000001794 Rises=F Damp=F
 DIIS: error= 3.37D-07 at cycle   5 NSaved=   5.
 NSaved= 5 IEnMin= 5 EnMin= -276.322829367521     IErMin= 5 ErrMin= 3.37D-07
 ErrMax= 3.37D-07  0.00D+00 EMaxC= 1.00D-01 BMatC= 5.04D-11 BMatP= 1.77D-09
 IDIUse=1 WtCom= 1.00D+00 WtEn= 0.00D+00
 Coeff-Com: -0.530D-03-0.176D-01-0.428D-01 0.442D-01 0.102D+01
 Coeff:     -0.530D-03-0.176D-01-0.428D-01 0.442D-01 0.102D+01
 Gap=     0.418 Goal=   None    Shift=    0.000
 RMSDP=2.97D-08 MaxDP=7.69D-07 DE=-1.79D-09 OVMax= 2.19D-06

 Cycle  11  Pass 1  IDiag  1:
 RMSU=  1.47D-08    CP:  1.00D+00  1.02D+00  7.97D-01  9.80D-01  1.11D+00
 E= -276.322829367589     Delta-E=       -0.000000000068 Rises=F Damp=F
 DIIS: error= 9.96D-08 at cycle   6 NSaved=   6.
 NSaved= 6 IEnMin= 6 EnMin= -276.322829367589     IErMin= 6 ErrMin= 9.96D-08
 ErrMax= 9.96D-08  0.00D+00 EMaxC= 1.00D-01 BMatC= 6.98D-12 BMatP= 5.04D-11
 IDIUse=1 WtCom= 1.00D+00 WtEn= 0.00D+00
 Coeff-Com:  0.334D-03-0.972D-02-0.267D-01-0.142D-01 0.373D+00 0.677D+00
 Coeff:      0.334D-03-0.972D-02-0.267D-01-0.142D-01 0.373D+00 0.677D+00
 Gap=     0.418 Goal=   None    Shift=    0.000
 RMSDP=4.67D-09 MaxDP=1.68D-07 DE=-6.82D-11 OVMax= 5.04D-07

 SCF Done:  E(RM062X) =  -276.322829368     A.U. after   11 cycles
            NFock= 11  Conv=0.47D-08     -V/T= 2.0068
 KE= 2.744654035558D+02 PE=-1.289579408508D+03 EE= 4.131960132323D+02
 Leave Link  502 at Sat Sep 28 16:25:16 2019, MaxMem=   671088640 cpu:            2731.0 elap:            1365.9
 (Enter /shared/centos7/gaussian/g16/l801.exe)
 DoSCS=F DFT=T ScalE2(SS,OS)=  1.000000  1.000000
 Range of M.O.s used for correlation:     1   434
 NBasis=   434 NAE=    29 NBE=    29 NFC=     0 NFV=     0
 NROrb=    434 NOA=    29 NOB=    29 NVA=   405 NVB=   405

 **** Warning!!: The largest alpha MO coefficient is  0.12049572D+02

 Leave Link  801 at Sat Sep 28 16:25:17 2019, MaxMem=   671088640 cpu:               1.7 elap:               0.9
 (Enter /shared/centos7/gaussian/g16/l1101.exe)
 Using compressed storage, NAtomX=    23.
 Will process     24 centers per pass.
 Leave Link 1101 at Sat Sep 28 16:25:57 2019, MaxMem=   671088640 cpu:              80.0 elap:              40.1
 (Enter /shared/centos7/gaussian/g16/l1102.exe)
 Symmetrizing basis deriv contribution to polar:
 IMax=3 JMax=2 DiffMx= 0.00D+00
 Leave Link 1102 at Sat Sep 28 16:26:00 2019, MaxMem=   671088640 cpu:               5.5 elap:               2.8
 (Enter /shared/centos7/gaussian/g16/l1110.exe)
 Forming Gx(P) for the SCF density, NAtomX=    23.
 Integral derivatives from FoFJK, PRISM(SPDF).
 Do as many integral derivatives as possible in FoFJK.
 G2DrvN: MDV=     671086848.
 G2DrvN: will do    24 centers at a time, making    1 passes.
 Calling FoFCou, ICntrl=  3107 FMM=F I1Cent=   0 AccDes= 0.00D+00.
 FoFJK:  IHMeth= 1 ICntrl=    3107 DoSepK=F KAlg= 0 I1Cent=           0 FoldK=F
 IRaf=         0 NMat=       1 IRICut=       1 DoRegI=T DoRafI=F ISym2E= 0 IDoP0=0 IntGTp=1.
 FoFCou: FMM=F IPFlag=           0 FMFlag=      100000 FMFlg1=           0
         NFxFlg=           0 DoJE=F BraDBF=F KetDBF=F FulRan=T
         wScrn=  0.000000 ICntrl=      3107 IOpCl=  0 I1Cent=           0 NGrid=           0
         NMat0=    1 NMatS0=      1 NMatT0=    0 NMatD0=    1 NMtDS0=    0 NMtDT0=    0
 Symmetry not used in FoFCou.
 End of G2Drv F.D. properties file   721 does not exist.
 End of G2Drv F.D. properties file   722 does not exist.
 End of G2Drv F.D. properties file   788 does not exist.
 Leave Link 1110 at Sat Sep 28 17:20:35 2019, MaxMem=   671088640 cpu:            6550.0 elap:            3275.4
 (Enter /shared/centos7/gaussian/g16/l1002.exe)
 Minotr:  Closed shell wavefunction.
          IDoAtm=11111111111111111111111
          Direct CPHF calculation.
          Differentiating once with respect to nuclear coordinates.
          Requested convergence is 1.0D-08 RMS, and 1.0D-07 maximum.
          Secondary convergence is 1.0D-12 RMS, and 1.0D-12 maximum.
          NewPWx=T KeepS1=F KeepF1=F KeepIn=T MapXYZ=F SortEE=F KeepMc=T.
         6932 words used for storage of precomputed grid.
 Two-electron integrals replicated using symmetry.
          MDV=     671088640 using IRadAn=       1.
          Solving linear equations simultaneously, MaxMat=     380.
 FoF2E skips out because all densities are zero.
 CalDSu exits because no D1Ps are significant.
 FoFJK:  IHMeth= 1 ICntrl=       0 DoSepK=F KAlg= 0 I1Cent=           0 FoldK=F
 IRaf= 910000000 NMat=      69 IRICut=     172 DoRegI=T DoRafI=T ISym2E= 2 IDoP0=3 IntGTp=3.
 FoFCou: FMM=F IPFlag=           0 FMFlag=      100000 FMFlg1=           0
         NFxFlg=           0 DoJE=F BraDBF=F KetDBF=F FulRan=T
         wScrn=  0.000000 ICntrl=         0 IOpCl=  0 I1Cent=           0 NGrid=           0
         NMat0=   69 NMatS0=     69 NMatT0=    0 NMatD0=   69 NMtDS0=    0 NMtDT0=    0
 Integrals replicated using symmetry in FoFCou.
 Raff kept on since  87.31% of shell-pairs survive, threshold=   0.20 IRatSp=87.
          There are    72 degrees of freedom in the 1st order CPHF.  IDoFFX=6 NUNeed=     0.
     66 vectors produced by pass  0 Test12= 1.63D-14 1.39D-09 XBig12= 5.68D-02 4.53D-02.
 AX will form    66 AO Fock derivatives at one time.
     66 vectors produced by pass  1 Test12= 1.63D-14 1.39D-09 XBig12= 2.74D-03 7.10D-03.
     66 vectors produced by pass  2 Test12= 1.63D-14 1.39D-09 XBig12= 4.84D-05 1.51D-03.
     66 vectors produced by pass  3 Test12= 1.63D-14 1.39D-09 XBig12= 3.81D-07 8.96D-05.
     66 vectors produced by pass  4 Test12= 1.63D-14 1.39D-09 XBig12= 1.71D-09 4.72D-06.
     66 vectors produced by pass  5 Test12= 1.63D-14 1.39D-09 XBig12= 8.35D-12 4.08D-07.
     22 vectors produced by pass  6 Test12= 1.63D-14 1.39D-09 XBig12= 2.96D-14 2.34D-08.
 InvSVY:  IOpt=1 It=  1 EMax= 3.05D-16
 Solved reduced A of dimension   418 with    72 vectors.
 End of Minotr F.D. properties file   721 does not exist.
 End of Minotr F.D. properties file   722 does not exist.
 End of Minotr F.D. properties file   788 does not exist.
 Leave Link 1002 at Sat Sep 28 18:49:38 2019, MaxMem=   671088640 cpu:           10684.0 elap:            5342.7
 (Enter /shared/centos7/gaussian/g16/l601.exe)
 Copying SCF densities to generalized density rwf, IOpCl= 0 IROHF=0.

 **********************************************************************

            Population analysis using the SCF density.

 **********************************************************************

 Orbital symmetries:
       Occupied  (A) (A) (A) (A) (A) (A) (A) (A) (A) (A) (A) (A)
                 (A) (A) (A) (A) (A) (A) (A) (A) (A) (A) (A) (A)
                 (A) (A) (A) (A) (A)
       Virtual   (A) (A) (A) (A) (A) (A) (A) (A) (A) (A) (A) (A)
                 (A) (A) (A) (A) (A) (A) (A) (A) (A) (A) (A) (A)
                 (A) (A) (A) (A) (A) (A) (A) (A) (A) (A) (A) (A)
                 (A) (A) (A) (A) (A) (A) (A) (A) (A) (A) (A) (A)
                 (A) (A) (A) (A) (A) (A) (A) (A) (A) (A) (A) (A)
                 (A) (A) (A) (A) (A) (A) (A) (A) (A) (A) (A) (A)
                 (A) (A) (A) (A) (A) (A) (A) (A) (A) (A) (A) (A)
                 (A) (A) (A) (A) (A) (A) (A) (A) (A) (A) (A) (A)
                 (A) (A) (A) (A) (A) (A) (A) (A) (A) (A) (A) (A)
                 (A) (A) (A) (A) (A) (A) (A) (A) (A) (A) (A) (A)
                 (A) (A) (A) (A) (A) (A) (A) (A) (A) (A) (A) (A)
                 (A) (A) (A) (A) (A) (A) (A) (A) (A) (A) (A) (A)
                 (A) (A) (A) (A) (A) (A) (A) (A) (A) (A) (A) (A)
                 (A) (A) (A) (A) (A) (A) (A) (A) (A) (A) (A) (A)
                 (A) (A) (A) (A) (A) (A) (A) (A) (A) (A) (A) (A)
                 (A) (A) (A) (A) (A) (A) (A) (A) (A) (A) (A) (A)
                 (A) (A) (A) (A) (A) (A) (A) (A) (A) (A) (A) (A)
                 (A) (A) (A) (A) (A) (A) (A) (A) (A) (A) (A) (A)
                 (A) (A) (A) (A) (A) (A) (A) (A) (A) (A) (A) (A)
                 (A) (A) (A) (A) (A) (A) (A) (A) (A) (A) (A) (A)
                 (A) (A) (A) (A) (A) (A) (A) (A) (A) (A) (A) (A)
                 (A) (A) (A) (A) (A) (A) (A) (A) (A) (A) (A) (A)
                 (A) (A) (A) (A) (A) (A) (A) (A) (A) (A) (A) (A)
                 (A) (A) (A) (A) (A) (A) (A) (A) (A) (A) (A) (A)
                 (A) (A) (A) (A) (A) (A) (A) (A) (A) (A) (A) (A)
                 (A) (A) (A) (A) (A) (A) (A) (A) (A) (A) (A) (A)
                 (A) (A) (A) (A) (A) (A) (A) (A) (A) (A) (A) (A)
                 (A) (A) (A) (A) (A) (A) (A) (A) (A) (A) (A) (A)
                 (A) (A) (A) (A) (A) (A) (A) (A) (A) (A) (A) (A)
                 (A) (A) (A) (A) (A) (A) (A) (A) (A) (A) (A) (A)
                 (A) (A) (A) (A) (A) (A) (A) (A) (A) (A) (A) (A)
                 (A) (A) (A) (A) (A) (A) (A) (A) (A) (A) (A) (A)
                 (A) (A) (A) (A) (A) (A) (A) (A) (A) (A) (A) (A)
                 (A) (A) (A) (A) (A) (A) (A) (A) (A)
 The electronic state is 1-A.
 Alpha  occ. eigenvalues --  -10.52809 -10.52584 -10.52568 -10.52467 -10.52335
 Alpha  occ. eigenvalues --  -10.52305 -10.52280  -0.92476  -0.87997  -0.83018
 Alpha  occ. eigenvalues --   -0.76195  -0.69924  -0.67024  -0.62366  -0.55246
 Alpha  occ. eigenvalues --   -0.53332  -0.50351  -0.49240  -0.49009  -0.47175
 Alpha  occ. eigenvalues --   -0.43522  -0.42907  -0.42213  -0.40891  -0.38756
 Alpha  occ. eigenvalues --   -0.37993  -0.36974  -0.36328  -0.35502
 Alpha virt. eigenvalues --    0.06263   0.08163   0.08335   0.08576   0.11276
 Alpha virt. eigenvalues --    0.11470   0.12310   0.13904   0.14165   0.15640
 Alpha virt. eigenvalues --    0.15878   0.16256   0.17006   0.18257   0.19203
 Alpha virt. eigenvalues --    0.21182   0.22166   0.23821   0.24685   0.25205
 Alpha virt. eigenvalues --    0.27122   0.27760   0.29703   0.30101   0.31362
 Alpha virt. eigenvalues --    0.32025   0.33018   0.35016   0.35287   0.35639
 Alpha virt. eigenvalues --    0.36932   0.38538   0.39491   0.41975   0.43553
 Alpha virt. eigenvalues --    0.44436   0.45804   0.46209   0.47477   0.48400
 Alpha virt. eigenvalues --    0.48750   0.49569   0.49925   0.50645   0.51167
 Alpha virt. eigenvalues --    0.51900   0.52171   0.53207   0.53814   0.54955
 Alpha virt. eigenvalues --    0.55161   0.55986   0.56625   0.56998   0.57566
 Alpha virt. eigenvalues --    0.58263   0.59412   0.59891   0.62349   0.64008
 Alpha virt. eigenvalues --    0.64941   0.67640   0.70072   0.73613   0.75441
 Alpha virt. eigenvalues --    0.76141   0.80150   0.81129   0.83120   0.84655
 Alpha virt. eigenvalues --    0.85998   0.86862   0.87230   0.89727   0.92076
 Alpha virt. eigenvalues --    0.93832   0.95049   0.95226   0.96506   0.97762
 Alpha virt. eigenvalues --    0.99198   1.02307   1.02767   1.03558   1.04508
 Alpha virt. eigenvalues --    1.05878   1.07931   1.08546   1.08825   1.10357
 Alpha virt. eigenvalues --    1.10788   1.11763   1.12807   1.13729   1.13764
 Alpha virt. eigenvalues --    1.14574   1.16531   1.17220   1.17583   1.19280
 Alpha virt. eigenvalues --    1.20019   1.21197   1.21768   1.23886   1.24858
 Alpha virt. eigenvalues --    1.25536   1.26046   1.26934   1.27559   1.29226
 Alpha virt. eigenvalues --    1.29965   1.30516   1.31383   1.33115   1.34091
 Alpha virt. eigenvalues --    1.34652   1.35814   1.36669   1.37272   1.37799
 Alpha virt. eigenvalues --    1.39022   1.39576   1.40379   1.43610   1.44446
 Alpha virt. eigenvalues --    1.45328   1.46383   1.47819   1.48648   1.50493
 Alpha virt. eigenvalues --    1.51552   1.52889   1.54554   1.55040   1.55195
 Alpha virt. eigenvalues --    1.55957   1.57049   1.59713   1.61050   1.62387
 Alpha virt. eigenvalues --    1.64268   1.64683   1.66995   1.67447   1.71059
 Alpha virt. eigenvalues --    1.78628   1.82420   1.84479   1.90849   2.20903
 Alpha virt. eigenvalues --    2.24282   2.25317   2.28715   2.32199   2.35664
 Alpha virt. eigenvalues --    2.37607   2.39161   2.40040   2.40944   2.43629
 Alpha virt. eigenvalues --    2.44975   2.47180   2.48182   2.49724   2.52584
 Alpha virt. eigenvalues --    2.53804   2.55485   2.57103   2.58169   2.62029
 Alpha virt. eigenvalues --    2.62793   2.63176   2.63629   2.64765   2.64950
 Alpha virt. eigenvalues --    2.66913   2.67774   2.70363   2.71272   2.73432
 Alpha virt. eigenvalues --    2.74206   2.75425   2.76872   2.78910   2.79722
 Alpha virt. eigenvalues --    2.80400   2.81959   2.82336   2.83792   2.84963
 Alpha virt. eigenvalues --    2.86300   2.86977   2.87501   2.89346   2.90736
 Alpha virt. eigenvalues --    2.94350   2.94718   2.95447   2.96343   2.97241
 Alpha virt. eigenvalues --    2.99927   3.00922   3.01158   3.03138   3.04188
 Alpha virt. eigenvalues --    3.05446   3.06588   3.07369   3.08379   3.09007
 Alpha virt. eigenvalues --    3.10342   3.10804   3.11094   3.12155   3.13259
 Alpha virt. eigenvalues --    3.14805   3.15961   3.16373   3.16748   3.17770
 Alpha virt. eigenvalues --    3.18718   3.19116   3.21024   3.21787   3.23648
 Alpha virt. eigenvalues --    3.24697   3.26398   3.27114   3.27749   3.28486
 Alpha virt. eigenvalues --    3.29265   3.30940   3.32787   3.34511   3.35906
 Alpha virt. eigenvalues --    3.36063   3.36768   3.38248   3.39823   3.40758
 Alpha virt. eigenvalues --    3.41898   3.42464   3.43985   3.45709   3.47559
 Alpha virt. eigenvalues --    3.48440   3.50515   3.51128   3.52334   3.53908
 Alpha virt. eigenvalues --    3.54526   3.55138   3.57563   3.58349   3.61040
 Alpha virt. eigenvalues --    3.61537   3.64108   3.64200   3.65349   3.67093
 Alpha virt. eigenvalues --    3.67606   3.68932   3.71143   3.71961   3.72865
 Alpha virt. eigenvalues --    3.73598   3.75145   3.76961   3.78215   3.78579
 Alpha virt. eigenvalues --    3.80087   3.82529   3.83123   3.83977   3.84425
 Alpha virt. eigenvalues --    3.86266   3.86320   3.87398   3.89057   3.90349
 Alpha virt. eigenvalues --    3.90764   3.92147   3.92891   3.94243   3.95058
 Alpha virt. eigenvalues --    3.96283   3.97358   3.98484   3.98735   4.00162
 Alpha virt. eigenvalues --    4.01121   4.01889   4.03458   4.04274   4.05182
 Alpha virt. eigenvalues --    4.06629   4.07264   4.08155   4.08964   4.10002
 Alpha virt. eigenvalues --    4.13331   4.14269   4.15108   4.15970   4.16779
 Alpha virt. eigenvalues --    4.17987   4.18399   4.19938   4.20382   4.21748
 Alpha virt. eigenvalues --    4.24045   4.24909   4.25438   4.25942   4.28197
 Alpha virt. eigenvalues --    4.28664   4.33222   4.35066   4.36318   4.40578
 Alpha virt. eigenvalues --    4.41142   4.42486   4.45797   4.46366   4.46811
 Alpha virt. eigenvalues --    4.48579   4.50874   4.54516   4.57056   4.58374
 Alpha virt. eigenvalues --    4.58902   4.60271   4.61899   4.62272   4.64577
 Alpha virt. eigenvalues --    4.67011   4.68974   4.70584   4.72617   4.73680
 Alpha virt. eigenvalues --    4.76162   4.78914   4.79978   4.81312   4.83262
 Alpha virt. eigenvalues --    4.83833   4.84554   4.85651   4.87710   4.91301
 Alpha virt. eigenvalues --    4.92230   4.94391   4.94933   4.97064   4.98347
 Alpha virt. eigenvalues --    4.99002   5.01067   5.05083   5.06333   5.07153
 Alpha virt. eigenvalues --    5.08671   5.11626   5.13055   5.16808   5.18641
 Alpha virt. eigenvalues --    5.20950   5.22517   5.25525   5.25825   5.26536
 Alpha virt. eigenvalues --    5.28023   5.28736   5.33166   5.34707   5.36393
 Alpha virt. eigenvalues --    5.37016   5.38781   5.40135   5.41408   5.44195
 Alpha virt. eigenvalues --    5.45202   5.49215   5.50759   5.51922   5.55308
 Alpha virt. eigenvalues --    5.60070   5.64176   5.67572   5.70543   5.74579
 Alpha virt. eigenvalues --    5.77906   5.80712   5.81183   5.88561   5.95254
 Alpha virt. eigenvalues --    5.98474   6.00515   6.05355  11.70514  12.23259
 Alpha virt. eigenvalues --   12.58442  13.03605  13.24351  13.37505  13.89802
          Condensed to atoms (all electrons):
               1          2          3          4          5          6
     1  C    5.118566   0.314803  -0.058319   0.303995   0.002766  -0.048717
     2  C    0.314803   5.086551   0.319296  -0.064347  -0.061654   0.008572
     3  C   -0.058319   0.319296   5.109053   0.004517   0.309822  -0.000235
     4  C    0.303995  -0.064347   0.004517   5.112296  -0.005219   0.283638
     5  C    0.002766  -0.061654   0.309822  -0.005219   5.085127   0.000094
     6  C   -0.048717   0.008572  -0.000235   0.283638   0.000094   4.962355
     7  C   -0.000011   0.007035  -0.052721   0.000129   0.310396  -0.000013
     8  H   -0.051207   0.004489  -0.004399   0.406317   0.000574  -0.034069
     9  H   -0.042678  -0.009797   0.004918   0.413908  -0.001329  -0.043340
    10  H    0.407665  -0.030745  -0.010640  -0.049477  -0.000533  -0.003341
    11  H    0.413177  -0.041878   0.009376  -0.039873   0.000068  -0.005411
    12  H   -0.044436   0.421670  -0.051364  -0.005044   0.009422  -0.000054
    13  H   -0.052403   0.420246  -0.042758   0.009774  -0.005199  -0.000406
    14  H   -0.009823  -0.030435   0.407176  -0.000167  -0.046004   0.000531
    15  H    0.009173  -0.041144   0.409693  -0.000030  -0.040133   0.000009
    16  H    0.004115  -0.010763  -0.044709  -0.001025   0.414234  -0.000202
    17  H   -0.004456   0.004138  -0.047557   0.000579   0.402804  -0.000003
    18  H   -0.004478   0.001060  -0.000078  -0.062967   0.000007   0.412579
    19  H    0.004055  -0.000402   0.000028  -0.046081   0.000031   0.406714
    20  H    0.005227  -0.000677   0.000039  -0.045739  -0.000007   0.407641
    21  H   -0.000148   0.000554  -0.004117   0.000016  -0.051810  -0.000006
    22  H    0.000002  -0.000429  -0.002518  -0.000004  -0.043422   0.000000
    23  H    0.000103  -0.000497   0.008128  -0.000003  -0.042814   0.000003
               7          8          9         10         11         12
     1  C   -0.000011  -0.051207  -0.042678   0.407665   0.413177  -0.044436
     2  C    0.007035   0.004489  -0.009797  -0.030745  -0.041878   0.421670
     3  C   -0.052721  -0.004399   0.004918  -0.010640   0.009376  -0.051364
     4  C    0.000129   0.406317   0.413908  -0.049477  -0.039873  -0.005044
     5  C    0.310396   0.000574  -0.001329  -0.000533   0.000068   0.009422
     6  C   -0.000013  -0.034069  -0.043340  -0.003341  -0.005411  -0.000054
     7  C    4.939303  -0.000008   0.000100   0.000519   0.000013  -0.000365
     8  H   -0.000008   0.600102  -0.041976   0.009128  -0.008341   0.003841
     9  H    0.000100  -0.041976   0.610551  -0.008316   0.008479   0.000013
    10  H    0.000519   0.009128  -0.008316   0.591003  -0.037971   0.007889
    11  H    0.000013  -0.008341   0.008479  -0.037971   0.572981  -0.007505
    12  H   -0.000365   0.003841   0.000013   0.007889  -0.007505   0.566503
    13  H   -0.000034   0.000047  -0.000556  -0.005681  -0.006955  -0.026513
    14  H   -0.005566   0.001355  -0.010945   0.001479  -0.000647  -0.005574
    15  H   -0.000919  -0.000233   0.000682  -0.000611  -0.000138  -0.006336
    16  H   -0.041430  -0.000010   0.000663  -0.011824   0.000767  -0.000550
    17  H   -0.031065  -0.000015   0.000001   0.001305  -0.000252   0.000037
    18  H    0.000000   0.005404   0.006359   0.000644   0.001613   0.000046
    19  H   -0.000001   0.006511  -0.019003   0.001095  -0.000266  -0.000014
    20  H    0.000000  -0.018129   0.006517  -0.000247   0.001087   0.000014
    21  H    0.407278  -0.000006   0.000135   0.000008  -0.000000  -0.000039
    22  H    0.405348  -0.000001  -0.000003  -0.000073   0.000003  -0.000005
    23  H    0.407129   0.000001   0.000004   0.000095  -0.000006   0.000029
              13         14         15         16         17         18
     1  C   -0.052403  -0.009823   0.009173   0.004115  -0.004456  -0.004478
     2  C    0.420246  -0.030435  -0.041144  -0.010763   0.004138   0.001060
     3  C   -0.042758   0.407176   0.409693  -0.044709  -0.047557  -0.000078
     4  C    0.009774  -0.000167  -0.000030  -0.001025   0.000579  -0.062967
     5  C   -0.005199  -0.046004  -0.040133   0.414234   0.402804   0.000007
     6  C   -0.000406   0.000531   0.000009  -0.000202  -0.000003   0.412579
     7  C   -0.000034  -0.005566  -0.000919  -0.041430  -0.031065   0.000000
     8  H    0.000047   0.001355  -0.000233  -0.000010  -0.000015   0.005404
     9  H   -0.000556  -0.010945   0.000682   0.000663   0.000001   0.006359
    10  H   -0.005681   0.001479  -0.000611  -0.011824   0.001305   0.000644
    11  H   -0.006955  -0.000647  -0.000138   0.000767  -0.000252   0.001613
    12  H   -0.026513  -0.005574  -0.006336  -0.000550   0.000037   0.000046
    13  H    0.572342   0.007577  -0.006937   0.000188   0.003302  -0.000132
    14  H    0.007577   0.584865  -0.036343  -0.007755   0.008189  -0.000060
    15  H   -0.006937  -0.036343   0.571607   0.008477  -0.006775   0.000004
    16  H    0.000188  -0.007755   0.008477   0.614843  -0.041120   0.000001
    17  H    0.003302   0.008189  -0.006775  -0.041120   0.580317  -0.000007
    18  H   -0.000132  -0.000060   0.000004   0.000001  -0.000007   0.601651
    19  H    0.000038   0.000098  -0.000007   0.000235  -0.000005  -0.036370
    20  H    0.000023  -0.000032   0.000000  -0.000008   0.000001  -0.034809
    21  H    0.000010   0.003436   0.000073  -0.000851   0.007708  -0.000000
    22  H    0.000021  -0.000178   0.002756   0.008591  -0.012027  -0.000000
    23  H    0.000002   0.000063  -0.000231  -0.012327  -0.000320   0.000000
              19         20         21         22         23
     1  C    0.004055   0.005227  -0.000148   0.000002   0.000103
     2  C   -0.000402  -0.000677   0.000554  -0.000429  -0.000497
     3  C    0.000028   0.000039  -0.004117  -0.002518   0.008128
     4  C   -0.046081  -0.045739   0.000016  -0.000004  -0.000003
     5  C    0.000031  -0.000007  -0.051810  -0.043422  -0.042814
     6  C    0.406714   0.407641  -0.000006   0.000000   0.000003
     7  C   -0.000001   0.000000   0.407278   0.405348   0.407129
     8  H    0.006511  -0.018129  -0.000006  -0.000001   0.000001
     9  H   -0.019003   0.006517   0.000135  -0.000003   0.000004
    10  H    0.001095  -0.000247   0.000008  -0.000073   0.000095
    11  H   -0.000266   0.001087  -0.000000   0.000003  -0.000006
    12  H   -0.000014   0.000014  -0.000039  -0.000005   0.000029
    13  H    0.000038   0.000023   0.000010   0.000021   0.000002
    14  H    0.000098  -0.000032   0.003436  -0.000178   0.000063
    15  H   -0.000007   0.000000   0.000073   0.002756  -0.000231
    16  H    0.000235  -0.000008  -0.000851   0.008591  -0.012327
    17  H   -0.000005   0.000001   0.007708  -0.012027  -0.000320
    18  H   -0.036370  -0.034809  -0.000000  -0.000000   0.000000
    19  H    0.615074  -0.032029  -0.000002   0.000000  -0.000002
    20  H   -0.032029   0.603825   0.000000  -0.000000   0.000000
    21  H   -0.000002   0.000000   0.595589  -0.036497  -0.033641
    22  H    0.000000  -0.000000  -0.036497   0.602707  -0.030844
    23  H   -0.000002   0.000000  -0.033641  -0.030844   0.602735
 Mulliken charges:
               1
     1  C   -0.266970
     2  C   -0.295647
     3  C   -0.262632
     4  C   -0.215191
     5  C   -0.237221
     6  C   -0.346338
     7  C   -0.345116
     8  H    0.120625
     9  H    0.125613
    10  H    0.138632
    11  H    0.141678
    12  H    0.138337
    13  H    0.134003
    14  H    0.138761
    15  H    0.137367
    16  H    0.120458
    17  H    0.135223
    18  H    0.109532
    19  H    0.100304
    20  H    0.107302
    21  H    0.112310
    22  H    0.106574
    23  H    0.102396
 Sum of Mulliken charges =  -0.00000
 Mulliken charges with hydrogens summed into heavy atoms:
               1
     1  C    0.013339
     2  C   -0.023307
     3  C    0.013496
     4  C    0.031047
     5  C    0.018460
     6  C   -0.029200
     7  C   -0.023835
 APT charges:
               1
     1  C   -0.631574
     2  C   -0.894918
     3  C   -0.635332
     4  C   -0.305245
     5  C   -0.378215
     6  C   -1.442524
     7  C   -1.398666
     8  H    0.384129
     9  H    0.189852
    10  H    0.253196
    11  H    0.454351
    12  H    0.401009
    13  H    0.396134
    14  H    0.252902
    15  H    0.451896
    16  H    0.181314
    17  H    0.388362
    18  H    0.322981
    19  H    0.305214
    20  H    0.526027
    21  H    0.282686
    22  H    0.499303
    23  H    0.397117
 Sum of APT charges =  -0.00000
 APT charges with hydrogens summed into heavy atoms:
               1
     1  C    0.075973
     2  C   -0.097775
     3  C    0.069467
     4  C    0.268736
     5  C    0.191462
     6  C   -0.288302
     7  C   -0.219561
 Electronic spatial extent (au):  <R**2>=           1217.1303
 Charge=             -0.0000 electrons
 Dipole moment (field-independent basis, Debye):
    X=             -0.0233    Y=              0.0905    Z=              0.0030  Tot=              0.0935
 Quadrupole moment (field-independent basis, Debye-Ang):
   XX=            -49.7935   YY=            -49.1014   ZZ=            -49.1525
   XY=             -0.0291   XZ=             -0.7055   YZ=             -0.0470
 Traceless Quadrupole moment (field-independent basis, Debye-Ang):
   XX=             -0.4444   YY=              0.2477   ZZ=              0.1966
   XY=             -0.0291   XZ=             -0.7055   YZ=             -0.0470
 Octapole moment (field-independent basis, Debye-Ang**2):
  XXX=             -0.7822  YYY=             -0.1441  ZZZ=              0.0273  XYY=              0.5559
  XXY=              5.2304  XXZ=              0.3488  XZZ=             -0.3818  YZZ=              0.3939
  YYZ=             -0.2359  XYZ=             -0.2021
 Hexadecapole moment (field-independent basis, Debye-Ang**3):
 XXXX=          -1214.9001 YYYY=           -370.1385 ZZZZ=           -161.2132 XXXY=              2.9571
 XXXZ=            -11.6417 YYYX=             -1.0917 YYYZ=              1.2749 ZZZX=             -0.3690
 ZZZY=             -0.8176 XXYY=           -268.2863 XXZZ=           -226.3246 YYZZ=            -87.0550
 XXYZ=             -0.0804 YYXZ=             -2.1499 ZZXY=             -1.3626
 N-N= 3.255951623524D+02 E-N=-1.289579361172D+03  KE= 2.744654035558D+02
  Exact polarizability:   0.000   0.000   0.000   0.000   0.000   0.000
 Approx polarizability:  98.877  -0.351  98.621  -0.314   0.447  99.031
 No NMR shielding tensors so no spin-rotation constants.
 Leave Link  601 at Sat Sep 28 18:50:07 2019, MaxMem=   671088640 cpu:              59.3 elap:              29.7
 (Enter /shared/centos7/gaussian/g16/l701.exe)
 SCFChk:  SCF convergence  4.67D-09 required  1.00D-08
 ... and contract with generalized density number  0.
 Compute integral second derivatives.
 Entering OneElI...
 Calculate overlap and kinetic energy integrals
    NBasis = 485  MinDer = 2  MaxDer = 2
 Requested accuracy = 0.1000D-12
 PrmmSu-InSpLW:  IPartL=    0 NPrtUS=   20 NPrtUL=    1 DoSpLW=F IThBeg=    0 IThEnd=   19 NThAct=   20.
 PrsmSu:  NPrtUS=  20 ThrOK=T IAlg=1 NPAlg=1 LenDen=           0 ISkipM=0 DoSpLW=F IThBeg=    0 IThEnd=   19.
 Prism:   IPart=     0 DynPar=F LinDyn=F Incr=           6.
 PRISM was handed    33203852 working-precision words and 13615 shell-pairs
 PRISM was handed    33203852 working-precision words and 13615 shell-pairs
 PRISM was handed    33203852 working-precision words and 13615 shell-pairs
 PRISM was handed    33203852 working-precision words and 13615 shell-pairs
 PRISM was handed    33203852 working-precision words and 13615 shell-pairs
 PRISM was handed    33203852 working-precision words and 13615 shell-pairs
 PRISM was handed    33203852 working-precision words and 13615 shell-pairs
 PRISM was handed    33203852 working-precision words and 13615 shell-pairs
 PRISM was handed    33203852 working-precision words and 13615 shell-pairs
 PRISM was handed    33203852 working-precision words and 13615 shell-pairs
 PRISM was handed    33203852 working-precision words and 13615 shell-pairs
 PRISM was handed    33203852 working-precision words and 13615 shell-pairs
 PRISM was handed    33203852 working-precision words and 13615 shell-pairs
 PRISM was handed    33203852 working-precision words and 13615 shell-pairs
 PRISM was handed    33203852 working-precision words and 13615 shell-pairs
 PRISM was handed    33203852 working-precision words and 13615 shell-pairs
 PRISM was handed    33203852 working-precision words and 13615 shell-pairs
 PRISM was handed    33203852 working-precision words and 13615 shell-pairs
 PRISM was handed    33203852 working-precision words and 13615 shell-pairs
 IPart=  9 NShTot=         678 NBatch=          60 AvBLen=        11.3
 PRISM was handed    33203852 working-precision words and 13615 shell-pairs
 IPart= 12 NShTot=         668 NBatch=          54 AvBLen=        12.4
 IPart=  8 NShTot=         681 NBatch=          61 AvBLen=        11.2
 IPart= 11 NShTot=         673 NBatch=          57 AvBLen=        11.8
 IPart=  4 NShTot=         702 NBatch=          73 AvBLen=         9.6
 IPart=  5 NShTot=         697 NBatch=          71 AvBLen=         9.8
 IPart= 14 NShTot=         663 NBatch=          52 AvBLen=        12.8
 IPart= 19 NShTot=         653 NBatch=          48 AvBLen=        13.6
 IPart= 15 NShTot=         663 NBatch=          52 AvBLen=        12.8
 IPart=  2 NShTot=         709 NBatch=          78 AvBLen=         9.1
 IPart=  0 NShTot=         717 NBatch=          81 AvBLen=         8.9
 IPart= 16 NShTot=         659 NBatch=          50 AvBLen=        13.2
 IPart= 18 NShTot=         655 NBatch=          49 AvBLen=        13.4
 IPart= 10 NShTot=         674 NBatch=          57 AvBLen=        11.8
 IPart=  6 NShTot=         695 NBatch=          69 AvBLen=        10.1
 IPart= 17 NShTot=         658 NBatch=          50 AvBLen=        13.2
 IPart=  1 NShTot=         714 NBatch=          81 AvBLen=         8.8
 IPart=  7 NShTot=         686 NBatch=          63 AvBLen=        10.9
 IPart= 13 NShTot=         665 NBatch=          53 AvBLen=        12.5
 IPart=  3 NShTot=         705 NBatch=          75 AvBLen=         9.4
 PrSmSu:  NxtVal=            121.
 Entering OneElI...
 Calculate potential energy integrals
    NBasis = 485  MinDer = 2  MaxDer = 2
 Requested accuracy = 0.1000D-12
 PrmmSu-InSpLW:  IPartL=    0 NPrtUS=   20 NPrtUL=    1 DoSpLW=F IThBeg=    0 IThEnd=   19 NThAct=   20.
 PrsmSu:  NPrtUS=  20 ThrOK=T IAlg=1 NPAlg=1 LenDen=           0 ISkipM=0 DoSpLW=F IThBeg=    0 IThEnd=   19.
 Prism:   IPart=     0 DynPar=F LinDyn=F Incr=         139.
 PRISM was handed    33266842 working-precision words and 12124 shell-pairs
 PRISM was handed    33266842 working-precision words and 12124 shell-pairs
 PRISM was handed    33266842 working-precision words and 12124 shell-pairs
 PRISM was handed    33266842 working-precision words and 12124 shell-pairs
 PRISM was handed    33266842 working-precision words and 12124 shell-pairs
 PRISM was handed    33266842 working-precision words and 12124 shell-pairs
 PRISM was handed    33266842 working-precision words and 12124 shell-pairs
 PRISM was handed    33266842 working-precision words and 12124 shell-pairs
 PRISM was handed    33266842 working-precision words and 12124 shell-pairs
 PRISM was handed    33266842 working-precision words and 12124 shell-pairs
 PRISM was handed    33266842 working-precision words and 12124 shell-pairs
 PRISM was handed    33266842 working-precision words and 12124 shell-pairs
 PRISM was handed    33266842 working-precision words and 12124 shell-pairs
 PRISM was handed    33266842 working-precision words and 12124 shell-pairs
 PRISM was handed    33266842 working-precision words and 12124 shell-pairs
 PRISM was handed    33266842 working-precision words and 12124 shell-pairs
 PRISM was handed    33266842 working-precision words and 12124 shell-pairs
 PRISM was handed    33266842 working-precision words and 12124 shell-pairs
 PRISM was handed    33266842 working-precision words and 12124 shell-pairs
 PRISM was handed    33266842 working-precision words and 12124 shell-pairs
 IPart=  8 NShTot=       13846 NBatch=         603 AvBLen=        23.0
 IPart=  9 NShTot=       13846 NBatch=         603 AvBLen=        23.0
 IPart=  4 NShTot=       14375 NBatch=         627 AvBLen=        22.9
 IPart= 14 NShTot=       13639 NBatch=         594 AvBLen=        23.0
 IPart= 19 NShTot=       13386 NBatch=         583 AvBLen=        23.0
 IPart= 15 NShTot=       13570 NBatch=         591 AvBLen=        23.0
 IPart=  5 NShTot=       14329 NBatch=         625 AvBLen=        22.9
 IPart= 12 NShTot=       13754 NBatch=         599 AvBLen=        23.0
 IPart= 11 NShTot=       13846 NBatch=         603 AvBLen=        23.0
 IPart= 18 NShTot=       13478 NBatch=         587 AvBLen=        23.0
 IPart= 16 NShTot=       13524 NBatch=         589 AvBLen=        23.0
 IPart= 10 NShTot=       13846 NBatch=         603 AvBLen=        23.0
 IPart= 17 NShTot=       13501 NBatch=         588 AvBLen=        23.0
 IPart=  2 NShTot=       14536 NBatch=         634 AvBLen=        22.9
 IPart=  6 NShTot=       14099 NBatch=         615 AvBLen=        22.9
 IPart= 13 NShTot=       13685 NBatch=         596 AvBLen=        23.0
 IPart=  1 NShTot=       14559 NBatch=         635 AvBLen=        22.9
 IPart=  7 NShTot=       13869 NBatch=         604 AvBLen=        23.0
 IPart=  3 NShTot=       14490 NBatch=         632 AvBLen=        22.9
 IPart=  0 NShTot=       14674 NBatch=         640 AvBLen=        22.9
 PrSmSu:  NxtVal=           2781.
 Polarizability after L701:
                1             2             3 
      1  0.000000D+00
      2  0.000000D+00  0.000000D+00
      3  0.000000D+00  0.000000D+00  0.000000D+00
 Dipole Derivatives after L701:
                 1             2             3             4             5 
      1  -0.718049D+00  0.389228D+00 -0.755912D+00 -0.303870D+00  0.232029D-01
      2   0.538939D+00 -0.414775D+00  0.255987D+00  0.427464D-02 -0.160681D+01
      3  -0.127932D+00 -0.156838D+00 -0.761897D+00  0.338296D+00  0.110354D-01
                 6             7             8             9            10 
      1   0.300753D+00 -0.673085D+00 -0.426322D+00 -0.676758D+00  0.187885D+00
      2   0.171677D-01 -0.544978D+00 -0.456932D+00 -0.268441D+00  0.525049D+00
      3  -0.774074D+00 -0.911247D-01  0.138231D+00 -0.775978D+00 -0.317382D-01
                11            12            13            14            15 
      1   0.494288D+00  0.126941D+01  0.247502D-01 -0.311377D+00  0.106674D+01
      2  -0.372706D+00  0.109008D+00 -0.493593D+00 -0.418004D+00 -0.515270D-01
      3  -0.401314D-01 -0.730914D+00 -0.170774D-01  0.214365D-01 -0.741391D+00
                16            17            18            19            20 
      1  -0.214948D+01 -0.916053D+00 -0.514927D+00 -0.205863D+01  0.714796D+00
      2  -0.347863D+00 -0.125173D+01 -0.172295D+00  0.313169D+00 -0.120286D+01
      3   0.107562D+00  0.600309D-01 -0.926367D+00  0.918033D-01 -0.535927D-01
                21            22            23            24            25 
      1  -0.325024D+00  0.445906D+00 -0.373224D+00 -0.595574D+00 -0.458939D-01
      2   0.106896D+00 -0.596710D-01  0.211868D+00  0.116315D+00 -0.238706D+00
      3  -0.934506D+00 -0.202259D+00  0.247856D+00  0.494613D+00  0.241444D+00
                26            27            28            29            30 
      1   0.168043D+00 -0.121087D+00  0.760310D-01  0.124600D+00  0.181631D+00
      2   0.363609D+00 -0.116495D+00 -0.174973D-01  0.160471D+00 -0.117369D-01
      3  -0.167881D+00  0.251842D+00 -0.211154D+00  0.295224D+00  0.523085D+00
                31            32            33            34            35 
      1   0.640660D+00 -0.426550D+00  0.246969D+00  0.213788D+00 -0.104919D+00
      2  -0.339429D+00  0.459310D+00 -0.173246D+00 -0.292703D+00  0.622434D+00
      3   0.221628D+00 -0.200583D+00  0.263082D+00 -0.939495D-01  0.193083D+00
                36            37            38            39            40 
      1  -0.102157D+00  0.203667D+00  0.911151D-01 -0.936192D-01  0.633167D-01
      2   0.586165D+00  0.277571D+00  0.594883D+00 -0.604241D+00  0.536508D-02
      3   0.366805D+00 -0.979303D-01 -0.197196D+00  0.389851D+00 -0.217060D+00
                41            42            43            44            45 
      1  -0.124223D+00  0.192452D+00  0.629357D+00  0.461110D+00  0.228060D+00
      2   0.144352D+00  0.306978D-01  0.366925D+00  0.484477D+00  0.168228D+00
      3  -0.292890D+00  0.551037D+00  0.213640D+00  0.204046D+00  0.241854D+00
                46            47            48            49            50 
      1  -0.423877D-01 -0.169670D+00 -0.115711D+00  0.418984D+00  0.348868D+00
      2   0.253549D+00  0.362241D+00  0.114724D+00  0.575875D-01  0.212660D+00
      3   0.214570D+00  0.161912D+00  0.224089D+00 -0.188338D+00 -0.245582D+00
                51            52            53            54            55 
      1  -0.591357D+00  0.340851D+00 -0.130786D+00  0.100206D+01 -0.944198D-01
      2  -0.112452D+00  0.818001D-01  0.745100D-01  0.248566D+00 -0.232969D+00
      3   0.533443D+00  0.923721D-01 -0.938217D-01  0.553584D+00  0.293161D-01
                56            57            58            59            60 
      1   0.834073D+00 -0.225630D-01  0.126285D+01 -0.209948D+00 -0.742333D+00
      2   0.916598D+00 -0.583287D-01  0.275996D+00  0.638294D-01 -0.139212D+00
      3  -0.211046D-01  0.934628D-01 -0.201492D+00  0.670711D-01  0.251405D+00
                61            62            63            64            65 
      1   0.673556D-01 -0.225680D+00  0.851713D+00  0.133739D+01  0.692615D+00
      2   0.290350D-01  0.218462D+00 -0.467491D+00 -0.121511D+00  0.542885D-01
      3  -0.593452D-01 -0.115138D+00  0.562240D+00 -0.153842D-01 -0.325871D-01
                66            67            68            69 
      1  -0.145739D+00  0.173025D+00 -0.923186D+00 -0.537037D+00
      2  -0.776716D-02 -0.403409D-01  0.779823D+00  0.429478D+00
      3   0.106230D+00  0.415382D-02  0.217419D+00  0.238504D+00
 Hessian after L701:
                1             2             3             4             5 
      1  0.154543D+02
      2 -0.112844D+01  0.168467D+02
      3 -0.129362D+00  0.229025D+00  0.176892D+02
      4 -0.395870D+01  0.167446D+01  0.109388D+01  0.150835D+02
      5  0.169963D+01 -0.516905D+01  0.828915D+00 -0.197626D-01  0.165525D+02
      6  0.113354D+01  0.823159D+00 -0.577692D+01 -0.539621D+00  0.134265D-01
      7  0.458932D+00 -0.635628D-02  0.129246D+00 -0.368759D+01 -0.163737D+01
      8  0.145728D-01 -0.269703D-01  0.510786D-03 -0.161099D+01 -0.514569D+01
      9  0.131068D+00 -0.412222D-02 -0.733509D-01  0.117877D+01 -0.822937D+00
     10 -0.548213D+01  0.119786D+01 -0.117902D+01  0.207938D+00  0.154345D+00
     11  0.112628D+01 -0.443212D+01 -0.169300D+01  0.226309D+00  0.589408D-01
     12 -0.112985D+01 -0.168638D+01 -0.467036D+01 -0.717518D-01 -0.786593D-01
     13  0.300703D+00 -0.226365D+00 -0.192224D-01  0.213114D+00 -0.173537D+00
     14 -0.153949D+00 -0.165100D+00  0.581837D-02 -0.240566D+00  0.679912D-01
     15  0.105295D+00 -0.313975D-01 -0.246246D+00 -0.722971D-01  0.817545D-01
     16  0.109668D+00  0.247689D+00  0.725612D-02  0.874772D-01  0.205928D+00
     17  0.298353D+00  0.877897D-01 -0.103901D-01  0.221584D+00  0.605435D-01
     18 -0.934197D-01 -0.100440D+00 -0.140292D+00  0.600631D-02  0.703304D-02
     19  0.809971D-01 -0.700026D-01  0.108669D-01  0.829449D-01 -0.187523D+00
     20 -0.570307D-01 -0.443151D-01 -0.101128D-01 -0.206887D+00  0.485713D-01
     21  0.239151D-01 -0.138732D-01 -0.710273D-01  0.102062D-01 -0.624289D-02
     22  0.742401D-01 -0.486454D-01  0.121642D+00  0.564767D-01  0.409865D-01
     23 -0.507989D-01  0.136376D+00  0.105218D+00  0.268327D-01 -0.342303D-01
     24  0.828351D-01  0.930963D-01 -0.665365D-01 -0.798790D-01 -0.247322D-01
     25  0.158359D+00 -0.421353D-01  0.176086D-01  0.446537D-02 -0.198730D-01
     26  0.113146D-01  0.211815D-01  0.138385D+00  0.835425D-02 -0.180006D-01
     27 -0.205692D-01  0.117584D+00 -0.458505D-01  0.458701D-03  0.145438D-01
     28 -0.434112D+01 -0.454555D+00 -0.614201D+00  0.364687D-01 -0.989371D-01
     29 -0.503092D+00 -0.386429D+01  0.107513D+01 -0.514043D-01 -0.252856D-01
     30 -0.759568D+00  0.118664D+01 -0.278210D+01 -0.428879D-01 -0.513267D-01
     31 -0.311483D+01 -0.102820D+01  0.714814D+00 -0.279776D-01 -0.652236D-01
     32 -0.106324D+01 -0.348574D+01 -0.583541D+00 -0.628656D-01  0.121228D+00
     33  0.734710D+00 -0.579161D+00 -0.387301D+01 -0.682616D-01 -0.368666D-01
     34  0.719151D-01 -0.907779D-01 -0.999581D-01 -0.412560D+01 -0.556487D+00
     35 -0.935640D-01  0.322469D-01 -0.936668D-01 -0.619819D+00 -0.327945D+01
     36 -0.858839D-01 -0.514029D-01  0.384277D-01 -0.627064D+00  0.111635D+01
     37 -0.880469D-02 -0.133554D+00  0.776029D-02 -0.408762D+01  0.521222D+00
     38 -0.164707D+00 -0.207045D-01 -0.101218D-01  0.585149D+00 -0.328542D+01
     39  0.758883D-02 -0.102968D-01  0.182471D+00 -0.637113D+00 -0.113199D+01
     40 -0.136842D-01  0.138072D-01 -0.262440D-01  0.340480D-01  0.935437D-01
     41  0.598798D-04  0.835384D-02 -0.374584D-03  0.458396D-01 -0.177340D-01
     42 -0.323988D-02  0.249345D-02 -0.957682D-02 -0.417630D-01  0.539687D-01
     43  0.135007D+00  0.447989D-01  0.761919D-01 -0.279854D-01  0.557720D-01
     44  0.607256D-01 -0.404469D-01  0.206306D-01  0.545508D-01  0.121794D+00
     45  0.897715D-01  0.202437D-01 -0.138652D-01 -0.685178D-01  0.292292D-01
     46 -0.141591D-01 -0.572997D-01 -0.334130D-01  0.652264D-02  0.259709D-01
     47 -0.110149D+00  0.416069D-01  0.478844D-01 -0.455149D-02 -0.282978D-01
     48 -0.496557D-01  0.417950D-01 -0.485106D-01  0.249659D-02 -0.187960D-01
     49 -0.919123D-02 -0.361284D-02 -0.104657D-01  0.527709D-01 -0.435468D-01
     50  0.109648D-01 -0.710652D-02 -0.804652D-02 -0.305335D-01 -0.287729D-01
[...]
 74,-0.11932579,0.16895428,-0.00097482,-0.00035196,-0.00440602,-0.01861
 079,0.00816628,0.00841320,-0.22502412,0.08439668,0.08552022,0.00046032
 ,0.00029817,-0.00022741,0.00605735,-0.00326018,-0.00407127,-0.00006553
 ,-0.00008976,-0.00009018,0.00135082,-0.00069422,-0.00028163,0.00000897
 ,-0.00008190,0.00001119,0.00007868,-0.00005443,-0.00019440,0.00009374,
 0.00010567,0.00002461,-0.00115222,0.00071629,0.00035668,0.00011371,-0.
 00063627,0.00018274,0.00107970,0.00027222,-0.00000944,-0.01074502,0.00
 428286,0.00507302,0.24607169,0.00012077,0.00068319,0.00152492,0.005260
 91,-0.00299847,-0.00166754,0.08358509,-0.08751610,-0.03902205,-0.00016
 931,0.00023158,0.00033561,0.02372545,-0.01354021,-0.01416599,-0.000004
 79,0.00002938,-0.00023561,0.00113800,0.00102146,0.00114809,0.00012657,
 0.00001999,0.00003557,-0.00013820,-0.00012388,-0.00029594,-0.00029632,
 0.00016623,-0.00010878,0.00044718,-0.00008267,-0.00016183,-0.00030478,
 0.00030659,0.00030507,0.00003292,-0.00009412,-0.00022012,-0.01847293,0
 .00881672,0.00829087,-0.09229764,0.09625444,-0.00240877,0.00016440,-0.
 00435452,-0.02371187,0.01123971,0.00908592,0.08615731,-0.03925893,-0.0
 8642364,0.00011432,0.00003971,-0.00074649,0.01330621,-0.00757149,-0.00
 879737,-0.00003082,-0.00011712,0.00033859,0.00139112,0.00009144,0.0005
 6952,-0.00003820,-0.00003757,0.00003357,0.00005886,-0.00006237,0.00043
 904,0.00007829,0.00014148,-0.00000641,-0.00129165,0.00066765,0.0002850
 4,0.00071470,-0.00040111,0.00091127,0.00067805,0.00005770,0.00115204,0
 .01728238,-0.00834422,-0.00880482,-0.08948127,0.04598415,0.09658789,-0
 .00118689,0.00070957,-0.00074123,0.00022767,0.00062741,0.00019946,0.00
 768836,-0.00265389,-0.00400809,-0.00015204,-0.00004652,-0.00051307,-0.
 21486485,0.07454953,0.09974209,0.00001361,0.00001987,0.00000551,-0.020
 96307,0.00838084,0.01005648,0.00007580,0.00001880,0.00004424,0.0003462
 9,-0.00007927,0.00027947,-0.00106745,-0.00063745,-0.00127819,0.0000490
 6,-0.00031230,-0.00004937,0.00011359,0.00002130,0.00025370,-0.00001784
 ,-0.00002748,-0.00008445,0.00046058,0.00060126,0.00035147,0.00054630,-
 0.00175080,-0.00151306,0.23785775,-0.00000540,0.00030982,-0.00014608,0
 .00044356,0.00036447,0.00077985,0.02326806,-0.01210539,-0.01454003,-0.
 00035832,0.00008683,-0.00045176,0.07426586,-0.08167200,-0.04240049,-0.
 00001524,0.00008035,0.00022787,0.00462316,-0.00223905,-0.00231145,0.00
 017309,0.00004673,0.00020593,-0.00028113,-0.00040386,0.00036412,0.0001
 2144,0.00038207,0.00026951,-0.00004163,0.00014326,0.00021663,-0.000051
 72,0.00004769,0.00009466,-0.00005839,0.00000540,-0.00000952,0.00040694
 ,0.00107344,0.00078618,-0.00160227,-0.00441079,-0.00313915,-0.08281259
 ,0.08911782,-0.00032004,-0.00061173,-0.00045562,0.00102697,-0.00003249
 ,0.00021996,0.01334949,-0.00626239,-0.00895764,-0.00013732,0.00014989,
 0.00030061,0.09980057,-0.04293650,-0.10502740,-0.00003656,0.00002310,0
 .00001268,-0.02104660,0.00884370,0.01045827,0.00017068,0.00013030,-0.0
 0000520,-0.00011928,-0.00012863,0.00016493,-0.00106168,0.00054768,-0.0
 0080282,0.00011085,0.00038030,0.00020153,-0.00027005,0.00011296,0.0001
 6698,-0.00004203,-0.00006419,0.00002845,-0.00047973,0.00039619,0.00082
 133,-0.00171127,-0.00279344,-0.00089745,-0.10372716,0.04914307,0.11496
 834,0.00000406,-0.00032706,0.00010204,0.00027332,-0.00042743,0.0008531
 0,-0.00367171,-0.00609947,0.00470223,0.00010663,-0.00014441,0.00024800
 ,-0.07383930,-0.05541526,0.05422481,0.00000676,0.00000519,-0.00012178,
 0.00721244,0.01831646,-0.01783789,-0.00007460,0.00006661,-0.00013572,0
 .00016430,0.00013706,-0.00021789,-0.00019914,0.00025724,0.00024653,0.0
 0000706,0.00012903,-0.00003920,0.00009036,0.00022680,-0.00008688,-0.00
 000765,0.00003347,-0.00047183,0.00049153,-0.00142226,-0.00142789,0.000
 36612,0.00029406,-0.00047034,-0.00857687,-0.01864351,0.01689287,0.0789
 0813,-0.00026017,0.00018616,-0.00022423,0.00081853,0.00103917,0.001313
 88,-0.01085688,-0.02216995,0.01775500,0.00010421,0.00006995,0.00007643
 ,-0.05463109,-0.17087396,0.11496535,0.00000762,0.00004045,-0.00008009,
 -0.00120421,-0.00351541,0.00331057,0.00010276,0.00003469,0.00004741,0.
 00004580,-0.00009802,-0.00008660,-0.00031206,-0.00012256,-0.00001579,-
 0.00008831,0.00002863,0.00000914,0.00044150,0.00030961,-0.00015010,-0.
 00032240,0.00038660,-0.00101722,-0.00090019,-0.00417904,-0.00340406,0.
 00065034,0.00072963,0.00029397,0.00312175,0.00850681,-0.00769125,0.062
 16948,0.18846928,0.00008737,0.00018427,0.00006185,-0.00009803,-0.00039
 677,0.00157936,-0.00650195,-0.01240237,0.01053162,-0.00009184,-0.00015
 627,-0.00012676,0.05347106,0.11495836,-0.15446503,0.00002593,0.0000553
 4,0.00002415,0.00639391,0.01545028,-0.01574982,0.00001268,0.00003319,0
 .00010187,-0.00002698,-0.00011380,0.00005105,0.00014563,0.00005540,-0.
 00005490,0.00002320,0.00001999,0.00002685,0.00024716,0.00003213,0.0001
 7005,0.00047976,0.00034307,-0.00008115,-0.00141038,-0.00343276,-0.0010
 2310,0.00025669,0.00079739,0.00059385,0.00482682,0.01043670,-0.0105405
 5,-0.05418647,-0.12542601,0.16956771,0.00129407,0.00010711,-0.00213456
 ,0.00018122,0.00019091,0.00031655,0.00002674,0.00015413,-0.00021989,-0
 .01893030,-0.00021605,-0.02478193,0.00008144,-0.00003944,0.00003293,-0
 .13319534,-0.00084595,-0.12427552,-0.00000154,0.00002048,0.00002364,0.
 00135108,-0.00006264,0.00021341,-0.00477216,0.00274517,0.00208167,-0.0
 0003372,-0.00000788,0.00006118,-0.00002935,-0.00034796,0.00113902,-0.0
 0002943,0.00003161,-0.00000566,-0.00000897,-0.00000757,0.00003882,0.00
 002717,-0.00021484,0.00015378,-0.00003166,-0.00009235,0.00014174,0.000
 01995,0.00010501,0.00001806,-0.00006052,-0.00002592,0.00001899,0.14736
 629,-0.00089804,-0.00004545,0.00004825,-0.00006678,-0.00007589,0.00013
 577,0.00003211,-0.00011866,0.00005801,0.00932335,-0.00061929,0.0125916
 0,0.00000592,-0.00001400,-0.00003602,-0.00108502,-0.04743349,-0.000303
 36,-0.00000437,-0.00000293,-0.00000037,-0.00056393,0.00023984,0.000581
 45,0.00292875,-0.00044326,-0.00082050,-0.00004204,0.00000190,-0.000119
 83,-0.00018866,0.00032944,-0.00017936,0.00001810,-0.00005313,-0.000018
 34,-0.00003618,-0.00000074,-0.00001627,0.00000993,0.00009312,-0.000046
 40,0.00004096,0.00004433,-0.00003474,0.00000622,-0.00004780,-0.0000076
 5,0.00001162,0.00001166,-0.00000286,-0.00228949,0.04753184,0.00053168,
 -0.00023387,0.00132894,0.00001412,-0.00013017,0.00030000,0.00016096,-0
 .00000098,-0.00008280,0.00453066,0.00071047,0.00586536,0.00004086,-0.0
 0002239,-0.00003027,-0.12530162,-0.00002743,-0.22639734,0.00000170,0.0
 0000444,0.00000404,-0.00058546,0.00048368,0.00048130,0.00200762,-0.000
 25661,0.00095467,-0.00003320,0.00006548,-0.00006089,-0.00042967,-0.000
 24123,0.00017044,-0.00001277,0.00002020,-0.00001027,-0.00008253,0.0000
 0845,0.00001592,-0.00001800,0.00000770,-0.00003080,0.00003120,0.000025
 28,0.00000584,-0.00000463,0.00000645,0.00000741,-0.00000383,-0.0000000
 3,0.00000701,0.13667630,0.00039476,0.24386125,0.00183944,0.00110099,-0
 .00068742,-0.00011231,0.00002825,-0.00008499,0.00005068,0.00004109,-0.
 00006321,0.00300456,0.03030158,0.01058118,-0.00011969,0.00006117,0.000
 10418,-0.05013459,-0.03084208,-0.01011754,0.00002372,-0.00002285,-0.00
 004314,-0.00549314,0.00254026,0.00161807,0.00141476,-0.00052150,-0.000
 52493,-0.00023049,-0.00071244,-0.00002415,-0.00000953,-0.00017615,0.00
 005906,0.00004787,-0.00020250,-0.00012333,-0.00001549,-0.00009528,-0.0
 0003195,0.00004766,-0.00001707,0.00006675,-0.00000029,-0.00003861,0.00
 001245,0.00004019,-0.00003197,-0.00006892,0.00001083,-0.00002370,-0.00
 001939,-0.00278559,-0.01789405,-0.00440210,0.05500670,-0.00087038,0.00
 074722,0.00057325,0.00015424,0.00038732,0.00017701,-0.00003694,-0.0000
 7105,0.00002953,-0.00093494,-0.01369320,-0.00421437,0.00007321,-0.0000
 3979,-0.00007962,-0.03008635,-0.28346105,-0.07677942,-0.00001633,0.000
 02348,0.00002407,0.00288326,0.00038606,-0.00000386,0.00004053,0.000291
 80,0.00043581,0.00049526,0.00055038,-0.00058662,0.00014428,-0.00005019
 ,-0.00006524,-0.00021232,0.00005494,0.00014396,0.00010038,0.00000786,-
 0.00003769,-0.00003781,0.00004491,-0.00005667,0.00002928,0.00003064,-0
 .00000173,0.00003191,-0.00002546,0.00000150,0.00000728,0.00001953,0.00
 000969,-0.00020691,0.00106144,0.00036760,0.03022365,0.30867978,-0.0007
 2119,-0.00076273,0.00019330,0.00013407,0.00018064,-0.00005528,-0.00002
 761,-0.00001435,0.00006623,-0.00062615,-0.00570102,-0.00264070,-0.0000
 2568,0.00002722,-0.00000894,-0.00986157,-0.07664279,-0.07287162,0.0000
 0141,0.00000087,0.00000340,0.00133833,-0.00024451,0.00073094,0.0001692
 1,0.00060183,0.00028480,0.00045844,0.00020941,0.00001226,-0.00008221,-
 0.00009506,-0.00011555,-0.00007699,0.00011859,0.00004483,0.00004703,0.
 00001332,-0.00001053,-0.00002384,0.00003336,-0.00003022,-0.00001125,0.
 00001047,-0.00003159,0.00003436,-0.00004086,0.00001812,0.00003650,0.00
 000574,-0.00001708,-0.00251248,-0.02601471,-0.00795358,0.00959579,0.08
 535133,0.07417678,-0.00503350,0.00448369,-0.00021334,-0.00027051,-0.00
 142889,0.00143225,0.00014853,-0.00010950,0.00017114,-0.01318237,-0.016
 91038,0.02108518,-0.00001509,0.00006703,-0.00003006,-0.10593377,-0.064
 90259,0.09025079,-0.00000070,-0.00004957,0.00001387,0.00120105,0.00021
 310,-0.00015683,0.00077018,-0.00063991,-0.00067239,0.00015657,0.000100
 12,-0.00028202,0.00020629,0.00010806,0.00015354,-0.00001478,0.00008127
 ,0.00003309,-0.00062048,0.00027488,0.00024000,0.00002692,0.00004233,-0
 .00008753,-0.00004326,0.00002998,-0.00006287,0.00001650,-0.00001057,0.
 00003699,0.00001808,0.00001492,0.00000058,0.00953501,0.01068658,-0.013
 11500,-0.00259536,-0.00179140,0.00216405,0.11566681,0.00217304,-0.0010
 9250,-0.00013722,0.00060483,0.00073734,-0.00048717,-0.00005909,0.00003
 424,-0.00003153,0.00714977,0.00802364,-0.01222764,0.00001512,-0.000013
 48,-0.00001234,-0.06578954,-0.11846100,0.09994791,-0.00000288,0.000004
 91,0.00001455,-0.00080020,0.00055725,-0.00009124,-0.00081430,0.0003675
 4,0.00024894,0.00036404,0.00037653,-0.00004052,0.00000567,-0.00021345,
 0.00000138,-0.00011784,0.00003361,0.00002956,0.00025709,-0.00011773,-0
 .00010042,-0.00000179,-0.00001425,0.00003493,-0.00001023,-0.00001134,0
 .00001107,0.00000780,-0.00000824,0.00002298,0.00000309,-0.00000611,-0.
 00001163,0.00101613,-0.00046674,-0.00117769,-0.01371242,-0.01495004,0.
 02295398,0.06971970,0.12521342,0.00129490,-0.00139079,0.00042383,0.000
 06025,0.00068201,0.00015574,0.00008504,-0.00003783,-0.00013393,0.00105
 101,0.00238989,-0.00418244,0.00000155,-0.00003754,0.00000922,0.0910279
 5,0.09940200,-0.18684073,-0.00000096,0.00002004,-0.00000566,-0.0000369
 5,-0.00021105,-0.00020452,0.00012357,-0.00028296,0.00058344,0.00004117
 ,0.00021435,-0.00001250,-0.00005794,-0.00018989,0.00058646,-0.00004129
 ,-0.00003011,-0.00000212,0.00016442,-0.00006355,-0.00006506,-0.0000180
 9,0.00000914,0.00002130,0.00006408,-0.00001236,0.00004888,0.00000361,-
 0.00001312,-0.00001241,-0.00000351,-0.00000240,-0.00000375,0.01300375,
 0.01379115,-0.01843983,-0.00586352,-0.00529191,0.00821578,-0.10091512,
 -0.10894166,0.19983898,0.00002239,0.00004169,0.00002563,-0.00005670,0.
 00014601,-0.00000897,0.00116853,0.00109281,0.00051518,-0.00006902,0.00
 000354,-0.00013968,0.00766096,0.01797180,-0.01774791,0.00000475,0.0000
 0293,0.00004588,-0.07207307,-0.05699534,0.05448621,0.00001212,-0.00000
 269,0.00003575,0.00002406,-0.00000869,0.00008714,0.00004642,-0.0000186
 0,-0.00002565,-0.00000412,-0.00002588,0.00001321,-0.00001004,-0.000054
 15,0.00007335,-0.00004609,-0.00008324,0.00013445,-0.00008053,-0.000435
 54,0.00031124,-0.00003910,-0.00018309,0.00008093,0.00113663,0.00007987
 ,0.00088509,-0.00321066,0.00077946,-0.00406910,0.00001975,-0.00000708,
 0.00000393,-0.00000224,0.00000106,-0.00000796,-0.00000715,-0.00000098,
 -0.00000241,0.07694333,-0.00002240,-0.00004108,0.00002848,0.00014236,0
 .00014789,-0.00023921,-0.00000310,0.00079227,-0.00089730,0.00003673,-0
 .00000430,0.00008798,-0.00134354,-0.00498746,0.00414066,-0.00000468,0.
 00000726,-0.00002550,-0.05655667,-0.17455687,0.11948326,-0.00000282,0.
 00000273,-0.00002119,0.00000889,0.00000277,0.00001934,-0.00002442,0.00
 003134,0.00000683,0.00003568,0.00001195,-0.00000941,0.00004782,0.00001
 339,0.00005176,-0.00010407,-0.00008142,-0.00011392,0.00002491,0.000542
 20,0.00033973,0.00015254,0.00000042,0.00006327,0.00014441,-0.00015415,
 -0.00009072,0.00127397,0.00082816,0.00032245,-0.00000873,-0.00000072,-
 0.00000656,0.00000167,-0.00001029,0.00001094,0.00002416,0.00000743,-0.
 00000702,0.06131684,0.18705108,0.00002733,0.00010039,0.00006456,-0.000
 26016,-0.00026696,0.00012854,0.00135416,0.00104368,0.00081916,-0.00002
 170,-0.00002778,-0.00009510,0.00673017,0.01559826,-0.01600288,0.000001
 62,-0.00000209,0.00003858,0.05391668,0.11911105,-0.15983730,-0.0000282
 4,-0.00002332,-0.00000157,-0.00003754,0.00004563,0.00000603,0.00007192
 ,-0.00007796,-0.00001541,0.00000293,-0.00004714,-0.00000908,-0.0000837
 7,-0.00005796,-0.00002152,0.00009616,-0.00008250,0.00027515,-0.0006092
 6,-0.00078533,-0.00012951,0.00004998,-0.00003631,-0.00013660,0.0000264
 6,-0.00038032,0.00100888,-0.00400922,0.00039792,-0.00199363,0.00001455
 ,-0.00000596,0.00000147,0.00000945,-0.00000912,-0.00000793,-0.00001375
 ,-0.00000149,0.00000382,-0.05584558,-0.13322203,0.17386886,0.00001016,
 0.00023172,0.00015186,0.00031449,-0.00007187,-0.00033251,0.00068119,0.
 00084707,0.00167383,0.00008602,-0.00003955,0.00004085,-0.02109675,0.00
 795431,0.01054655,0.00000908,0.00000662,-0.00002892,-0.22707230,0.0726
 4574,0.10046020,-0.00004765,-0.00003487,-0.00002524,0.00003184,0.00007
 635,-0.00005409,0.00004625,-0.00022354,-0.00000653,0.00002623,-0.00012
 693,-0.00007589,-0.00002428,-0.00002651,-0.00004510,-0.00002893,0.0000
 2990,-0.00001718,-0.00003374,-0.00000162,-0.00004377,0.00017333,-0.000
 87275,-0.00077929,-0.00219702,0.00075411,-0.00414535,0.00108890,0.0000
 1144,-0.00005194,-0.00002035,0.00000236,-0.00001165,0.00002158,-0.0000
 1383,0.00000092,-0.00000410,-0.00000586,0.00000633,-0.00812339,0.00308
 991,0.00402667,0.24885890,-0.00002605,-0.00011514,-0.00003003,-0.00004
 138,0.00000398,-0.00002844,-0.00112560,0.00035827,0.00026886,-0.000011
 63,0.00000141,0.00001156,0.00597525,-0.00320004,-0.00283625,-0.0000047
 0,-0.00000284,-0.00000038,0.07284128,-0.07734421,-0.04075294,0.0000051
 7,0.00000934,0.00000182,0.00000252,-0.00002580,0.00002688,0.00001963,0
 .00005798,-0.00001097,0.00001144,0.00002708,0.00001388,-0.00000084,0.0
 0000453,0.00001952,0.00000867,-0.00003918,0.00004144,-0.00005039,0.000
 00472,0.00006229,0.00002104,0.00038977,-0.00005699,0.00073625,0.000563
 12,0.00120638,0.00002114,-0.00017301,-0.00026253,0.00000438,0.00000116
 ,0.00000424,-0.00000724,0.00000304,0.00000067,0.00000961,0.00000360,-0
 .00000498,-0.01965323,0.00847045,0.01022004,-0.08191053,0.07968953,-0.
 00012929,0.00010387,-0.00006973,0.00002956,0.00028231,0.00008688,-0.00
 021069,0.00113832,0.00153810,0.00001369,-0.00001653,-0.00005025,-0.020
 75083,0.00755355,0.01061252,0.00000252,0.00000196,-0.00000666,0.101497
 76,-0.04102027,-0.10260944,-0.00002279,-0.00001631,-0.00000354,0.00001
 392,0.00004683,-0.00002649,0.00004241,-0.00015737,-0.00001475,-0.00003
 667,-0.00009973,-0.00003481,0.00007702,-0.00000462,0.00002595,-0.00000
 095,0.00000975,-0.00002472,0.00007239,-0.00010666,-0.00006368,0.000512
 94,-0.00020282,-0.00009258,-0.00411480,0.00060980,-0.00262685,0.000875
 98,-0.00006779,0.00115633,-0.00000143,0.00000085,0.00000636,0.00000938
 ,-0.00000036,-0.00000412,-0.00000706,-0.00000544,-0.00000019,0.0165300
 6,-0.00818775,-0.01002478,-0.10742388,0.04410117,0.11021079,0.00017957
 ,-0.00013432,0.00002375,0.00022135,-0.00154230,-0.00066034,-0.00342131
 ,0.00278022,-0.00307404,-0.00001596,0.00005287,-0.00000611,-0.00570279
 ,-0.02145661,-0.01096865,-0.00000042,-0.00003962,0.00000793,-0.0610076
 7,-0.05095693,-0.03016927,0.00001523,0.00001327,0.00000126,0.00002615,
 -0.00002697,-0.00001245,-0.00000413,0.00007130,0.00004380,-0.00002922,
 0.00003687,0.00001507,-0.00037099,0.00005778,-0.00043470,-0.00001866,0
 .00004030,-0.00007266,0.00010344,0.00032549,0.00019001,0.00028609,-0.0
 0013935,-0.00022823,0.00043376,-0.00032834,0.00087442,0.00089195,0.000
 35712,0.00046630,-0.00000380,0.00000975,0.00000144,-0.00000925,0.00002
 286,-0.00000319,-0.00002486,-0.00000117,0.00001215,-0.00331683,-0.0082
 2948,-0.00541888,0.00730053,0.02317522,0.01302074,0.06446781,-0.000050
 68,0.00000110,-0.00008745,0.00032947,0.00038347,0.00037507,0.00065092,
 0.00034468,0.00050833,0.00000506,0.00002029,0.00001263,0.00221000,0.00
 739936,0.00500794,0.00000305,-0.00001673,-0.00000956,-0.05184516,-0.23
 516371,-0.11362667,0.00000240,0.00000206,0.00001022,0.00001650,-0.0000
 1508,-0.00002041,0.00001204,-0.00001619,-0.00000043,-0.00004733,0.0000
 0401,0.00000074,0.00006615,-0.00001662,0.00008207,-0.00006355,0.000022
 76,-0.00007873,0.00029411,0.00026375,0.00004426,-0.00005347,0.00005319
 ,0.00027085,-0.00065662,0.00033895,-0.00033906,-0.00047310,0.00047774,
 -0.00049328,-0.00000921,0.00000735,-0.00000177,-0.00000080,0.00001263,
 -0.00000232,-0.00001262,-0.00000463,0.00000860,-0.00396751,-0.01807303
 ,-0.01149069,-0.00232169,-0.00868776,-0.00396276,0.05591204,0.25266240
 ,0.00007466,-0.00010760,-0.00013183,-0.00031360,-0.00156444,0.00001776
 ,-0.00341673,0.00263764,-0.00262553,-0.00001154,0.00005749,-0.00002368
 ,-0.00346354,-0.01902317,-0.01103767,-0.00000070,-0.00003267,0.0000156
 9,-0.03048041,-0.11273064,-0.11506410,0.00001131,0.00000547,-0.0000090
 7,0.00000470,0.00000349,-0.00001522,0.00000150,0.00004575,0.00005430,-
 0.00007923,0.00004871,0.00001950,-0.00035665,0.00004706,-0.00041566,0.
 00008125,0.00004070,0.00001261,-0.00019423,-0.00025648,0.00015341,-0.0
 0001242,0.00046538,0.00024002,0.00021041,0.00029200,0.00094844,0.00083
 037,-0.00000985,0.00018408,-0.00000291,0.00000456,-0.00000424,-0.00000
 172,0.00001283,0.00000071,-0.00002552,0.00000068,0.00001570,0.00461920
 ,0.01826590,0.01206025,-0.00386588,-0.01199524,-0.00798435,0.03639166,
 0.12379243,0.12358890\\0.00000065,0.00000159,-0.00000038,0.00000002,-0
 .00000002,0.,-0.00000069,-0.00000144,0.00000030,-0.00000091,0.00000222
 ,-0.00000048,0.00000062,-0.00000215,0.00000079,0.00000023,0.00000367,-
 0.00000096,-0.00000004,-0.00000373,0.00000095,-0.00000175,0.00000228,-
 0.00000101,-0.00000087,0.00000116,-0.00000051,0.00000177,0.00000118,0.
 00000001,0.00000106,0.00000249,-0.00000046,-0.00000101,0.00000039,-0.0
 0000032,0.00000100,-0.00000039,0.00000031,-0.00000181,-0.00000118,-0.0
 0000005,-0.00000109,-0.00000249,0.00000043,0.00000106,-0.00000121,0.00
 000050,0.00000181,-0.00000237,0.00000097,0.00000032,0.00000470,-0.0000
 0120,0.00000121,0.00000345,-0.00000070,-0.00000092,0.00000422,-0.00000
 130,-0.00000118,-0.00000349,0.00000068,-0.00000035,-0.00000469,0.00000
 119,0.00000086,-0.00000419,0.00000124\\\@


 I WOULD TAKE COUNSEL OF MYSELF.
 I WOULD STOP AND LOOK WITHIN
 AND LOOKING WITHIN, LOOK BACK, ALSO
 THAT I MAY LOOK AHEAD WITH CLEARER UNDERSTANDING
 OF THE WAY I HAVE BEEN MOVING, AND IN WHAT DIRECTION.
 I NEED TO KNOW IF I AM GOING FORWARD OR RETREATING,
 WHETHER I HAVE BEEN WASTING, OR ENJOYING
 THE PRECIOUS MOMENTS OF LIFE.  THERE HAVE BEEN FRICTIONS,
 ANNOYANCES AND SOMETIMES WRATH,
 BUT WERE THEY BECAUSE I WAS RIGHT AND OTHERS WRONG.....
 HAVE I HAD MY THOUGHTS TOO SHARPLY FOCUSED
 ON THAT WHICH PLEASED ME, SERVED MY SELF-ESTEEM,
 UNDERGIRDED MY SECURITY,
 OF WHICH I DID NOT INQUIRE WHETHER IT SERVED OR HAMPERED OTHERS.....
 HAVE I BEEN TRYING TO STOP THE CLOCK
 TO HOLD THE WORLD
 IN PERPETUATION OF WHAT WAS AN IS ALREADY SLIPPING AWAY.....
 HAVE I BEEN CRITICAL OF OTHERS FOR WHAT REALLY NEEDED CHANGING IN ME...
 LET ME INDEED TAKE COUNSEL OF MYSELF
 AND SET MY DIRECTIONS STRAIGHT.

                          R.T. WESTON AS ADAPTED BY D. OSBORN 1967
 Job cpu time:       0 days  7 hours 16 minutes 27.2 seconds.
 Elapsed time:       0 days  3 hours 38 minutes 17.2 seconds.
 File lengths (MBytes):  RWF=   1616 Int=      0 D2E=      0 Chk=     48 Scr=     32
 Normal termination of Gaussian 16 at Sun Sep 29 04:50:52 2019.
