 Entering Gaussian System, Link 0=g16
 Input=tight/species/CCCCCCC/conformers/CCCCCCC_345.com
 Output=tight/species/CCCCCCC/conformers/CCCCCCC_345.log
 Initial command:
 /shared/centos7/gaussian/g16/l1.exe "/scratch/harms.n/gauss_scrdir/Gau-11356.inp" -scrdir="/scratch/harms.n/gauss_scrdir/"
 Entering Link 1 = /shared/centos7/gaussian/g16/l1.exe PID=     11357.
  
 Copyright (c) 1988,1990,1992,1993,1995,1998,2003,2009,2016,
            Gaussian, Inc.  All Rights Reserved.
  
 This is part of the Gaussian(R) 16 program.  It is based on
 the Gaussian(R) 09 system (copyright 2009, Gaussian, Inc.),
 the Gaussian(R) 03 system (copyright 2003, Gaussian, Inc.),
 the Gaussian(R) 98 system (copyright 1998, Gaussian, Inc.),
 the Gaussian(R) 94 system (copyright 1995, Gaussian, Inc.),
 the Gaussian 92(TM) system (copyright 1992, Gaussian, Inc.),
 the Gaussian 90(TM) system (copyright 1990, Gaussian, Inc.),
 the Gaussian 88(TM) system (copyright 1988, Gaussian, Inc.),
 the Gaussian 86(TM) system (copyright 1986, Carnegie Mellon
 University), and the Gaussian 82(TM) system (copyright 1983,
 Carnegie Mellon University). Gaussian is a federally registered
 trademark of Gaussian, Inc.
  
 This software contains proprietary and confidential information,
 including trade secrets, belonging to Gaussian, Inc.
  
 This software is provided under written license and may be
 used, copied, transmitted, or stored only in accord with that
 written license.
  
 The following legend is applicable only to US Government
 contracts under FAR:
  
                    RESTRICTED RIGHTS LEGEND
  
 Use, reproduction and disclosure by the US Government is
 subject to restrictions as set forth in subparagraphs (a)
 and (c) of the Commercial Computer Software - Restricted
 Rights clause in FAR 52.227-19.
  
 Gaussian, Inc.
 340 Quinnipiac St., Bldg. 40, Wallingford CT 06492
  
  
 ---------------------------------------------------------------
 Warning -- This program may not be used in any manner that
 competes with the business of Gaussian, Inc. or will provide
 assistance to any competitor of Gaussian, Inc.  The licensee
 of this program is prohibited from giving any competitor of
 Gaussian, Inc. access to this program.  By using this program,
 the user acknowledges that Gaussian, Inc. is engaged in the
 business of creating and licensing software in the field of
 computational chemistry and represents and warrants to the
 licensee that it is not a competitor of Gaussian, Inc. and that
 it will not use this program in any manner prohibited above.
 ---------------------------------------------------------------
  

 Cite this work as:
 Gaussian 16, Revision A.03,
 M. J. Frisch, G. W. Trucks, H. B. Schlegel, G. E. Scuseria, 
 M. A. Robb, J. R. Cheeseman, G. Scalmani, V. Barone, 
 G. A. Petersson, H. Nakatsuji, X. Li, M. Caricato, A. V. Marenich, 
 J. Bloino, B. G. Janesko, R. Gomperts, B. Mennucci, H. P. Hratchian, 
 J. V. Ortiz, A. F. Izmaylov, J. L. Sonnenberg, D. Williams-Young, 
 F. Ding, F. Lipparini, F. Egidi, J. Goings, B. Peng, A. Petrone, 
 T. Henderson, D. Ranasinghe, V. G. Zakrzewski, J. Gao, N. Rega, 
 G. Zheng, W. Liang, M. Hada, M. Ehara, K. Toyota, R. Fukuda, 
 J. Hasegawa, M. Ishida, T. Nakajima, Y. Honda, O. Kitao, H. Nakai, 
 T. Vreven, K. Throssell, J. A. Montgomery, Jr., J. E. Peralta, 
 F. Ogliaro, M. J. Bearpark, J. J. Heyd, E. N. Brothers, K. N. Kudin, 
 V. N. Staroverov, T. A. Keith, R. Kobayashi, J. Normand, 
 K. Raghavachari, A. P. Rendell, J. C. Burant, S. S. Iyengar, 
 J. Tomasi, M. Cossi, J. M. Millam, M. Klene, C. Adamo, R. Cammi, 
 J. W. Ochterski, R. L. Martin, K. Morokuma, O. Farkas, 
 J. B. Foresman, and D. J. Fox, Gaussian, Inc., Wallingford CT, 2016.
 
 ******************************************
 Gaussian 16:  EM64L-G16RevA.03 25-Dec-2016
                28-Sep-2019 
 ******************************************
 %nprocshared=20
 Will use up to   20 processors via shared memory.
 %mem=5GB
 ----------------------------------------------------------------------
 #p m062x/cc-pVTZ opt=(calcfc,maxcycles=900,Tight) freq IOP(7/33=1,2/16
 =3) scf=(maxcycle=900)
 ----------------------------------------------------------------------
 1/6=900,7=10,10=4,18=20,19=15,26=3,38=1/1,3;
 2/9=110,12=2,16=3,17=6,18=5,40=1/2;
 3/5=16,6=1,11=2,25=1,30=1,71=2,74=-55,140=1/1,2,3;
 4//1;
 5/5=2,7=900,38=5/2;
 8/6=4,10=90,11=11/1;
 11/6=1,8=1,9=11,15=111,16=1/1,2,10;
 10/6=1,13=1/2;
 6/7=2,8=2,9=2,10=2,28=1/1;
 7/10=1,18=20,25=1,33=1/1,2,3,16;
 1/6=900,7=10,10=4,18=20,19=15,26=3/3(2);
 2/9=110,16=3/2;
 99//99;
 2/9=110,16=3/2;
 3/5=16,6=1,11=2,25=1,30=1,71=1,74=-55/1,2,3;
 4/5=5,16=3,69=1/1;
 5/5=2,7=900,38=5/2;
 7/33=1/1,2,3,16;
 1/6=900,7=10,18=20,19=15,26=3/3(-5);
 2/9=110,16=3/2;
 6/7=2,8=2,9=2,10=2,19=2,28=1/1;
 99/9=1/99;
 Leave Link    1 at Sat Sep 28 19:10:58 2019, MaxMem=   671088640 cpu:               4.2 elap:               2.1
 (Enter /shared/centos7/gaussian/g16/l101.exe)
 ------------------------------
 Gaussian input prepared by ASE
 ------------------------------
 Symbolic Z-matrix:
 Charge =  0 Multiplicity = 1
 C                     1.37219  -1.16208   0.51096 
 C                     0.15009  -0.41595   0.92534 
 C                    -0.67443  -1.13145   1.96611 
 C                     2.1608   -0.48532  -0.55914 
 C                    -1.88858  -0.34783   2.40598 
 C                     1.45329  -0.30842  -1.83888 
 C                    -2.72461  -1.03137   3.45657 
 H                     3.10257  -1.07946  -0.73005 
 H                     2.51368   0.50337  -0.18003 
 H                     1.0874   -2.18004   0.17005 
 H                     2.02877  -1.31644   1.39171 
 H                    -0.47065  -0.21925   0.03726 
 H                     0.44569   0.57826   1.32211 
 H                    -0.04335  -1.33835   2.84705 
 H                    -0.98913  -2.12047   1.57373 
 H                    -1.55466   0.64572   2.80457 
 H                    -2.52535  -0.13046   1.53161 
 H                     0.42482  -0.71515  -1.8127 
 H                     1.37065   0.78413  -2.11644 
 H                     1.98695  -0.81024  -2.67367 
 H                    -2.11385  -1.57492   4.17845 
 H                    -3.44462  -1.76055   2.99207 
 H                    -3.33582  -0.27068   4.02195 
 
 ITRead=  0  0  0  0  0  0  0  0  0  0  0  0  0  0  0  0  0  0  0  0
 ITRead=  0  0  0
 MicOpt= -1 -1 -1 -1 -1 -1 -1 -1 -1 -1 -1 -1 -1 -1 -1 -1 -1 -1 -1 -1
 MicOpt= -1 -1 -1
 NAtoms=     23 NQM=       23 NQMF=       0 NMMI=      0 NMMIF=      0
                NMic=       0 NMicF=      0.
                    Isotopes and Nuclear Properties:
 (Nuclear quadrupole moments (NQMom) in fm**2, nuclear magnetic moments (NMagM)
  in nuclear magnetons)

  Atom         1           2           3           4           5           6           7           8           9          10
 IAtWgt=          12          12          12          12          12          12          12           1           1           1
 AtmWgt=  12.0000000  12.0000000  12.0000000  12.0000000  12.0000000  12.0000000  12.0000000   1.0078250   1.0078250   1.0078250
 NucSpn=           0           0           0           0           0           0           0           1           1           1
 AtZEff=  -0.0000000  -0.0000000  -0.0000000  -0.0000000  -0.0000000  -0.0000000  -0.0000000  -0.0000000  -0.0000000  -0.0000000
 NQMom=    0.0000000   0.0000000   0.0000000   0.0000000   0.0000000   0.0000000   0.0000000   0.0000000   0.0000000   0.0000000
 NMagM=    0.0000000   0.0000000   0.0000000   0.0000000   0.0000000   0.0000000   0.0000000   2.7928460   2.7928460   2.7928460
 AtZNuc=   6.0000000   6.0000000   6.0000000   6.0000000   6.0000000   6.0000000   6.0000000   1.0000000   1.0000000   1.0000000

  Atom        11          12          13          14          15          16          17          18          19          20
 IAtWgt=           1           1           1           1           1           1           1           1           1           1
 AtmWgt=   1.0078250   1.0078250   1.0078250   1.0078250   1.0078250   1.0078250   1.0078250   1.0078250   1.0078250   1.0078250
 NucSpn=           1           1           1           1           1           1           1           1           1           1
 AtZEff=  -0.0000000  -0.0000000  -0.0000000  -0.0000000  -0.0000000  -0.0000000  -0.0000000  -0.0000000  -0.0000000  -0.0000000
 NQMom=    0.0000000   0.0000000   0.0000000   0.0000000   0.0000000   0.0000000   0.0000000   0.0000000   0.0000000   0.0000000
 NMagM=    2.7928460   2.7928460   2.7928460   2.7928460   2.7928460   2.7928460   2.7928460   2.7928460   2.7928460   2.7928460
 AtZNuc=   1.0000000   1.0000000   1.0000000   1.0000000   1.0000000   1.0000000   1.0000000   1.0000000   1.0000000   1.0000000

  Atom        21          22          23
 IAtWgt=           1           1           1
 AtmWgt=   1.0078250   1.0078250   1.0078250
 NucSpn=           1           1           1
 AtZEff=  -0.0000000  -0.0000000  -0.0000000
 NQMom=    0.0000000   0.0000000   0.0000000
 NMagM=    2.7928460   2.7928460   2.7928460
 AtZNuc=   1.0000000   1.0000000   1.0000000
 Leave Link  101 at Sat Sep 28 19:11:02 2019, MaxMem=   671088640 cpu:               7.5 elap:               3.8
 (Enter /shared/centos7/gaussian/g16/l103.exe)

 GradGradGradGradGradGradGradGradGradGradGradGradGradGradGradGradGradGrad
 Berny optimization.
 Initialization pass.
                           ----------------------------
                           !    Initial Parameters    !
                           ! (Angstroms and Degrees)  !
 --------------------------                            --------------------------
 ! Name  Definition              Value          Derivative Info.                !
 --------------------------------------------------------------------------------
 ! R1    R(1,2)                  1.4906         calculate D2E/DX2 analytically  !
 ! R2    R(1,4)                  1.4917         calculate D2E/DX2 analytically  !
 ! R3    R(1,10)                 1.1107         calculate D2E/DX2 analytically  !
 ! R4    R(1,11)                 1.1093         calculate D2E/DX2 analytically  !
 ! R5    R(2,3)                  1.5083         calculate D2E/DX2 analytically  !
 ! R6    R(2,12)                 1.1012         calculate D2E/DX2 analytically  !
 ! R7    R(2,13)                 1.1105         calculate D2E/DX2 analytically  !
 ! R8    R(3,5)                  1.5105         calculate D2E/DX2 analytically  !
 ! R9    R(3,14)                 1.1032         calculate D2E/DX2 analytically  !
 ! R10   R(3,15)                 1.1096         calculate D2E/DX2 analytically  !
 ! R11   R(4,6)                  1.473          calculate D2E/DX2 analytically  !
 ! R12   R(4,8)                  1.1266         calculate D2E/DX2 analytically  !
 ! R13   R(4,9)                  1.1161         calculate D2E/DX2 analytically  !
 ! R14   R(5,7)                  1.5066         calculate D2E/DX2 analytically  !
 ! R15   R(5,16)                 1.1214         calculate D2E/DX2 analytically  !
 ! R16   R(5,17)                 1.1033         calculate D2E/DX2 analytically  !
 ! R17   R(6,18)                 1.1063         calculate D2E/DX2 analytically  !
 ! R18   R(6,19)                 1.1303         calculate D2E/DX2 analytically  !
 ! R19   R(6,20)                 1.1106         calculate D2E/DX2 analytically  !
 ! R20   R(7,21)                 1.0907         calculate D2E/DX2 analytically  !
 ! R21   R(7,22)                 1.1251         calculate D2E/DX2 analytically  !
 ! R22   R(7,23)                 1.1278         calculate D2E/DX2 analytically  !
 ! A1    A(2,1,4)              113.9401         calculate D2E/DX2 analytically  !
 ! A2    A(2,1,10)             109.504          calculate D2E/DX2 analytically  !
 ! A3    A(2,1,11)             109.5228         calculate D2E/DX2 analytically  !
 ! A4    A(4,1,10)             109.3409         calculate D2E/DX2 analytically  !
 ! A5    A(4,1,11)             108.6506         calculate D2E/DX2 analytically  !
 ! A6    A(10,1,11)            105.5407         calculate D2E/DX2 analytically  !
 ! A7    A(1,2,3)              113.738          calculate D2E/DX2 analytically  !
 ! A8    A(1,2,12)             109.1084         calculate D2E/DX2 analytically  !
 ! A9    A(1,2,13)             109.2206         calculate D2E/DX2 analytically  !
 ! A10   A(3,2,12)             109.4553         calculate D2E/DX2 analytically  !
 ! A11   A(3,2,13)             108.8846         calculate D2E/DX2 analytically  !
 ! A12   A(12,2,13)            106.1568         calculate D2E/DX2 analytically  !
 ! A13   A(2,3,5)              113.2183         calculate D2E/DX2 analytically  !
 ! A14   A(2,3,14)             109.1021         calculate D2E/DX2 analytically  !
 ! A15   A(2,3,15)             109.5032         calculate D2E/DX2 analytically  !
 ! A16   A(5,3,14)             108.9384         calculate D2E/DX2 analytically  !
 ! A17   A(5,3,15)             109.7194         calculate D2E/DX2 analytically  !
 ! A18   A(14,3,15)            106.1089         calculate D2E/DX2 analytically  !
 ! A19   A(1,4,6)              115.0769         calculate D2E/DX2 analytically  !
 ! A20   A(1,4,8)              108.1506         calculate D2E/DX2 analytically  !
 ! A21   A(1,4,9)              108.9874         calculate D2E/DX2 analytically  !
 ! A22   A(6,4,8)              109.4558         calculate D2E/DX2 analytically  !
 ! A23   A(6,4,9)              109.9131         calculate D2E/DX2 analytically  !
 ! A24   A(8,4,9)              104.7381         calculate D2E/DX2 analytically  !
 ! A25   A(3,5,7)              114.4387         calculate D2E/DX2 analytically  !
 ! A26   A(3,5,16)             108.8926         calculate D2E/DX2 analytically  !
 ! A27   A(3,5,17)             109.5934         calculate D2E/DX2 analytically  !
 ! A28   A(7,5,16)             108.6236         calculate D2E/DX2 analytically  !
 ! A29   A(7,5,17)             108.7686         calculate D2E/DX2 analytically  !
 ! A30   A(16,5,17)            106.2001         calculate D2E/DX2 analytically  !
 ! A31   A(4,6,18)             112.4475         calculate D2E/DX2 analytically  !
 ! A32   A(4,6,19)             111.3805         calculate D2E/DX2 analytically  !
 ! A33   A(4,6,20)             111.5909         calculate D2E/DX2 analytically  !
 ! A34   A(18,6,19)            107.0505         calculate D2E/DX2 analytically  !
 ! A35   A(18,6,20)            107.36           calculate D2E/DX2 analytically  !
 ! A36   A(19,6,20)            106.6969         calculate D2E/DX2 analytically  !
 ! A37   A(5,7,21)             112.1411         calculate D2E/DX2 analytically  !
 ! A38   A(5,7,22)             111.1777         calculate D2E/DX2 analytically  !
 ! A39   A(5,7,23)             110.1387         calculate D2E/DX2 analytically  !
 ! A40   A(21,7,22)            107.9763         calculate D2E/DX2 analytically  !
 ! A41   A(21,7,23)            107.928          calculate D2E/DX2 analytically  !
 ! A42   A(22,7,23)            107.2952         calculate D2E/DX2 analytically  !
 ! D1    D(4,1,2,3)            177.5842         calculate D2E/DX2 analytically  !
 ! D2    D(4,1,2,12)            55.0757         calculate D2E/DX2 analytically  !
 ! D3    D(4,1,2,13)           -60.561          calculate D2E/DX2 analytically  !
 ! D4    D(10,1,2,3)            54.7864         calculate D2E/DX2 analytically  !
 ! D5    D(10,1,2,12)          -67.7221         calculate D2E/DX2 analytically  !
 ! D6    D(10,1,2,13)          176.6412         calculate D2E/DX2 analytically  !
 ! D7    D(11,1,2,3)           -60.5008         calculate D2E/DX2 analytically  !
 ! D8    D(11,1,2,12)          176.9907         calculate D2E/DX2 analytically  !
 ! D9    D(11,1,2,13)           61.354          calculate D2E/DX2 analytically  !
 ! D10   D(2,1,4,6)            -62.3333         calculate D2E/DX2 analytically  !
 ! D11   D(2,1,4,8)            174.9556         calculate D2E/DX2 analytically  !
 ! D12   D(2,1,4,9)             61.6318         calculate D2E/DX2 analytically  !
 ! D13   D(10,1,4,6)            60.5536         calculate D2E/DX2 analytically  !
 ! D14   D(10,1,4,8)           -62.1575         calculate D2E/DX2 analytically  !
 ! D15   D(10,1,4,9)          -175.4813         calculate D2E/DX2 analytically  !
 ! D16   D(11,1,4,6)           175.2717         calculate D2E/DX2 analytically  !
 ! D17   D(11,1,4,8)            52.5606         calculate D2E/DX2 analytically  !
 ! D18   D(11,1,4,9)           -60.7632         calculate D2E/DX2 analytically  !
 ! D19   D(1,2,3,5)            178.3675         calculate D2E/DX2 analytically  !
 ! D20   D(1,2,3,14)            56.881          calculate D2E/DX2 analytically  !
 ! D21   D(1,2,3,15)           -58.8512         calculate D2E/DX2 analytically  !
 ! D22   D(12,2,3,5)           -59.3151         calculate D2E/DX2 analytically  !
 ! D23   D(12,2,3,14)          179.1984         calculate D2E/DX2 analytically  !
 ! D24   D(12,2,3,15)           63.4661         calculate D2E/DX2 analytically  !
 ! D25   D(13,2,3,5)            56.3266         calculate D2E/DX2 analytically  !
 ! D26   D(13,2,3,14)          -65.1599         calculate D2E/DX2 analytically  !
 ! D27   D(13,2,3,15)          179.1079         calculate D2E/DX2 analytically  !
 ! D28   D(2,3,5,7)           -179.3885         calculate D2E/DX2 analytically  !
 ! D29   D(2,3,5,16)           -57.6346         calculate D2E/DX2 analytically  !
 ! D30   D(2,3,5,17)            58.1393         calculate D2E/DX2 analytically  !
 ! D31   D(14,3,5,7)           -57.81           calculate D2E/DX2 analytically  !
 ! D32   D(14,3,5,16)           63.9439         calculate D2E/DX2 analytically  !
 ! D33   D(14,3,5,17)          179.7178         calculate D2E/DX2 analytically  !
 ! D34   D(15,3,5,7)            57.9501         calculate D2E/DX2 analytically  !
 ! D35   D(15,3,5,16)          179.7041         calculate D2E/DX2 analytically  !
 ! D36   D(15,3,5,17)          -64.522          calculate D2E/DX2 analytically  !
 ! D37   D(1,4,6,18)            -0.1741         calculate D2E/DX2 analytically  !
 ! D38   D(1,4,6,19)           119.9879         calculate D2E/DX2 analytically  !
 ! D39   D(1,4,6,20)          -120.8843         calculate D2E/DX2 analytically  !
 ! D40   D(8,4,6,18)           121.8356         calculate D2E/DX2 analytically  !
 ! D41   D(8,4,6,19)          -118.0024         calculate D2E/DX2 analytically  !
 ! D42   D(8,4,6,20)             1.1254         calculate D2E/DX2 analytically  !
 ! D43   D(9,4,6,18)          -123.6494         calculate D2E/DX2 analytically  !
 ! D44   D(9,4,6,19)            -3.4874         calculate D2E/DX2 analytically  !
 ! D45   D(9,4,6,20)           115.6404         calculate D2E/DX2 analytically  !
 ! D46   D(3,5,7,21)            37.184          calculate D2E/DX2 analytically  !
 ! D47   D(3,5,7,22)           -83.8112         calculate D2E/DX2 analytically  !
 ! D48   D(3,5,7,23)           157.3947         calculate D2E/DX2 analytically  !
 ! D49   D(16,5,7,21)          -84.7172         calculate D2E/DX2 analytically  !
 ! D50   D(16,5,7,22)          154.2876         calculate D2E/DX2 analytically  !
 ! D51   D(16,5,7,23)           35.4935         calculate D2E/DX2 analytically  !
 ! D52   D(17,5,7,21)          160.1031         calculate D2E/DX2 analytically  !
 ! D53   D(17,5,7,22)           39.1079         calculate D2E/DX2 analytically  !
 ! D54   D(17,5,7,23)          -79.6862         calculate D2E/DX2 analytically  !
 --------------------------------------------------------------------------------
 Trust Radius=3.00D-01 FncErr=1.00D-07 GrdErr=1.00D-06 EigMax=2.50D+02 EigMin=1.00D-04
 Number of steps in this run=    138 maximum allowed number of steps=    138.
 GradGradGradGradGradGradGradGradGradGradGradGradGradGradGradGradGradGrad

 Leave Link  103 at Sat Sep 28 19:11:03 2019, MaxMem=   671088640 cpu:               1.7 elap:               0.8
 (Enter /shared/centos7/gaussian/g16/l202.exe)
                          Input orientation:                          
 ---------------------------------------------------------------------
 Center     Atomic      Atomic             Coordinates (Angstroms)
 Number     Number       Type             X           Y           Z
 ---------------------------------------------------------------------
      1          6           0        1.372193   -1.162076    0.510959
      2          6           0        0.150085   -0.415950    0.925341
      3          6           0       -0.674433   -1.131454    1.966113
      4          6           0        2.160803   -0.485321   -0.559145
      5          6           0       -1.888579   -0.347829    2.405980
      6          6           0        1.453294   -0.308424   -1.838881
      7          6           0       -2.724613   -1.031374    3.456570
      8          1           0        3.102570   -1.079462   -0.730046
      9          1           0        2.513682    0.503366   -0.180026
     10          1           0        1.087404   -2.180039    0.170046
     11          1           0        2.028766   -1.316438    1.391714
     12          1           0       -0.470646   -0.219253    0.037260
     13          1           0        0.445689    0.578255    1.322115
     14          1           0       -0.043352   -1.338348    2.847053
     15          1           0       -0.989133   -2.120465    1.573729
     16          1           0       -1.554662    0.645723    2.804572
     17          1           0       -2.525355   -0.130456    1.531608
     18          1           0        0.424817   -0.715152   -1.812705
     19          1           0        1.370653    0.784128   -2.116437
     20          1           0        1.986955   -0.810243   -2.673673
     21          1           0       -2.113853   -1.574919    4.178448
     22          1           0       -3.444618   -1.760549    2.992075
     23          1           0       -3.335816   -0.270679    4.021954
 ---------------------------------------------------------------------
                    Distance matrix (angstroms):
                    1          2          3          4          5
     1  C    0.000000
     2  C    1.490625   0.000000
     3  C    2.511392   1.508304   0.000000
     4  C    1.491652   2.500299   3.851361   0.000000
     5  C    3.858334   2.520533   1.510531   5.020794   0.000000
     6  C    2.501410   3.057915   4.436506   1.472952   5.402640
     7  C    5.047527   3.879402   2.536674   6.347553   1.506627
     8  H    2.130991   3.449307   4.640876   1.126559   5.939825
     9  H    2.134046   2.766508   4.176437   1.116134   5.176086
    10  H    1.110665   2.135661   2.725703   2.134473   4.148840
    11  H    1.109344   2.134906   2.769736   2.124627   4.160833
    12  H    2.123526   1.101220   2.143388   2.711275   2.763676
    13  H    2.131932   1.110520   2.143015   2.758976   2.735179
    14  H    2.737183   2.140377   1.103233   4.145858   2.140219
    15  H    2.761133   2.150255   1.109570   4.140646   2.154968
    16  H    4.134644   2.750422   2.153178   5.137950   1.121392
    17  H    4.158947   2.758087   2.148651   5.143661   1.103295
    18  H    2.548858   2.768012   3.957413   2.153575   4.825352
    19  H    3.269698   3.490328   4.951671   2.158934   5.688249
    20  H    3.262453   4.059859   5.358523   2.146399   6.405971
    21  H    5.076754   4.129326   2.676381   6.473384   2.167520
    22  H    5.451218   4.359040   3.020312   6.757079   2.181867
    23  H    5.940288   4.664936   3.471365   7.158587   2.170672
                    6          7          8          9         10
     6  C    0.000000
     7  C    6.783758   0.000000
     8  H    2.131696   7.175384   0.000000
     9  H    2.129607   6.558963   1.776135   0.000000
    10  H    2.769948   5.162572   2.466238   3.059000   0.000000
    11  H    3.432784   5.190328   2.389786   2.452997   1.767609
    12  H    2.688755   4.175116   3.754542   3.078247   2.507954
    13  H    3.434147   4.147001   3.744116   2.557074   3.057327
    14  H    5.025801   2.766750   4.770690   4.369615   3.025462
    15  H    4.571089   2.782643   4.809689   4.714855   2.507166
    16  H    5.614255   2.146285   6.095867   5.047724   4.680403
    17  H    5.217425   2.134675   6.139155   5.359413   4.371118
    18  H    1.106291   6.146882   2.911225   2.917839   2.552688
    19  H    1.130281   7.150221   2.897341   2.266060   3.754267
    20  H    1.110627   7.734834   2.257158   2.867278   3.282114
    21  H    7.108924   1.090678   7.179823   6.688022   5.165414
    22  H    7.031099   1.125104   7.561993   7.119612   5.355282
    23  H    7.568778   1.127778   8.042913   7.243784   6.168284
                   11         12         13         14         15
    11  H    0.000000
    12  H    3.047199   0.000000
    13  H    2.469988   1.768203   0.000000
    14  H    2.532225   3.054487   2.497592   0.000000
    15  H    3.128467   2.498835   3.066777   1.768491   0.000000
    16  H    4.322870   3.095366   2.490710   2.494474   3.080031
    17  H    4.708093   2.542202   3.061578   3.057734   2.514337
    18  H    3.633524   2.114270   3.391228   4.724499   3.929643
    19  H    4.141571   3.005922   3.566732   5.580371   5.255719
    20  H    4.096993   3.706511   4.502193   5.905883   5.349225
    21  H    4.999399   4.656973   4.398415   2.472964   2.889148
    22  H    5.719819   4.466658   4.836658   3.430437   2.858435
    23  H    6.065519   4.908119   4.723304   3.655219   3.862957
                   16         17         18         19         20
    16  H    0.000000
    17  H    1.779082   0.000000
    18  H    5.204763   4.497756   0.000000
    19  H    5.726513   5.415124   1.798527   0.000000
    20  H    6.683865   6.205436   1.786221   1.797876   0.000000
    21  H    2.670484   3.043283   6.563380   7.571820   8.022027
    22  H    3.065491   2.373860   6.257099   7.467202   7.906059
    23  H    2.343997   2.622657   6.955800   7.806620   8.570556
                   21         22         23
    21  H    0.000000
    22  H    1.792450   0.000000
    23  H    1.794081   1.814442   0.000000
 Stoichiometry    C7H16
 Framework group  C1[X(C7H16)]
 Deg. of freedom    63
 Full point group                 C1      NOp   1
 Largest Abelian subgroup         C1      NOp   1
 Largest concise Abelian subgroup C1      NOp   1
                         Standard orientation:                         
 ---------------------------------------------------------------------
 Center     Atomic      Atomic             Coordinates (Angstroms)
 Number     Number       Type             X           Y           Z
 ---------------------------------------------------------------------
      1          6           0        1.296355   -0.855203   -0.145900
      2          6           0        0.187200    0.043533    0.283067
      3          6           0       -1.172694   -0.398780   -0.196548
      4          6           0        2.649358   -0.391487    0.277629
      5          6           0       -2.292004    0.498067    0.277278
      6          6           0        3.066416    0.907317   -0.278030
      7          6           0       -3.665030    0.072901   -0.174339
      8          1           0        3.397979   -1.181661   -0.012765
      9          1           0        2.689397   -0.358473    1.392556
     10          1           0        1.275512   -0.968709   -1.250553
     11          1           0        1.126883   -1.873319    0.260749
     12          1           0        0.389652    1.063833   -0.078437
     13          1           0        0.174734    0.105312    1.391798
     14          1           0       -1.363418   -1.426430    0.156557
     15          1           0       -1.176474   -0.448439   -1.305000
     16          1           0       -2.278801    0.533991    1.398017
     17          1           0       -2.109305    1.530574   -0.065959
     18          1           0        2.298815    1.349296   -0.940843
     19          1           0        3.270187    1.659456    0.540688
     20          1           0        4.002491    0.817412   -0.868939
     21          1           0       -3.777856   -1.011903   -0.181391
     22          1           0       -3.887746    0.451911   -1.210007
     23          1           0       -4.449665    0.499062    0.514586
 ---------------------------------------------------------------------
 Rotational constants (GHZ):           8.1360946           0.8521876           0.8157561
 Leave Link  202 at Sat Sep 28 19:11:05 2019, MaxMem=   671088640 cpu:               3.8 elap:               1.9
 (Enter /shared/centos7/gaussian/g16/l301.exe)
 Standard basis: CC-pVTZ (5D, 7F)
 Ernie: Thresh=  0.10000D-02 Tol=  0.10000D-05 Strict=F.
 Ernie:  21 primitive shells out of 310 were deleted.
 There are   485 symmetry adapted cartesian basis functions of A   symmetry.
 There are   434 symmetry adapted basis functions of A   symmetry.
   434 basis functions,   636 primitive gaussians,   485 cartesian basis functions
    29 alpha electrons       29 beta electrons
       nuclear repulsion energy       315.0182752555 Hartrees.
 IExCor= 4336 DFT=T Ex+Corr=M062X ExCW=0 ScaHFX=  0.540000
 ScaDFX=  1.000000  1.000000  1.000000  1.000000 ScalE2=  1.000000  1.000000
 IRadAn=      5 IRanWt=     -1 IRanGd=            0 ICorTp=0 IEmpDi=  4
 NAtoms=   23 NActive=   23 NUniq=   23 SFac= 1.00D+00 NAtFMM=   60 NAOKFM=F Big=F
 Integral buffers will be    131072 words long.
 Raffenetti 2 integral format.
 Two-electron integral symmetry is turned on.
 Leave Link  301 at Sat Sep 28 19:11:06 2019, MaxMem=   671088640 cpu:               1.8 elap:               0.9
 (Enter /shared/centos7/gaussian/g16/l302.exe)
 NPDir=0 NMtPBC=     1 NCelOv=     1 NCel=       1 NClECP=     1 NCelD=      1
         NCelK=      1 NCelE2=     1 NClLst=     1 CellRange=     0.0.
 One-electron integrals computed using PRISM.
 One-electron integral symmetry used in STVInt
 NBasis=   434 RedAO= T EigKep=  2.55D-04  NBF=   434
 NBsUse=   434 1.00D-06 EigRej= -1.00D+00 NBFU=   434
 Precomputing XC quadrature grid using
 IXCGrd= 4 IRadAn=           5 IRanWt=          -1 IRanGd=           0 AccXCQ= 0.00D+00.
 Generated NRdTot=       0 NPtTot=           0 NUsed=           0 NTot=          32
 NSgBfM=   485   485   485   485   485 MxSgAt=    23 MxSgA2=    23.
 Leave Link  302 at Sat Sep 28 19:12:39 2019, MaxMem=   671088640 cpu:             186.9 elap:              93.5
 (Enter /shared/centos7/gaussian/g16/l303.exe)
 DipDrv:  MaxL=1.
 Leave Link  303 at Sat Sep 28 19:12:44 2019, MaxMem=   671088640 cpu:               9.2 elap:               4.6
 (Enter /shared/centos7/gaussian/g16/l401.exe)
 ExpMin= 1.03D-01 ExpMax= 8.24D+03 ExpMxC= 2.81D+02 IAcc=3 IRadAn=         5 AccDes= 0.00D+00
 Harris functional with IExCor= 1009 and IRadAn=       5 diagonalized for initial guess.
 HarFok:  IExCor= 1009 AccDes= 0.00D+00 IRadAn=         5 IDoV= 1 UseB2=F ITyADJ=14
 ICtDFT=  3500011 ScaDFX=  1.000000  1.000000  1.000000  1.000000
 FoFCou: FMM=F IPFlag=           0 FMFlag=      100000 FMFlg1=           0
         NFxFlg=           0 DoJE=T BraDBF=F KetDBF=T FulRan=T
         wScrn=  0.000000 ICntrl=       500 IOpCl=  0 I1Cent=   200000004 NGrid=           0
         NMat0=    1 NMatS0=      1 NMatT0=    0 NMatD0=    1 NMtDS0=    0 NMtDT0=    0
 Petite list used in FoFCou.
 Harris En= -276.333436321632    
 JPrj=0 DoOrth=F DoCkMO=F.
 Leave Link  401 at Sat Sep 28 19:13:36 2019, MaxMem=   671088640 cpu:             104.7 elap:              52.4
 (Enter /shared/centos7/gaussian/g16/l502.exe)
 Integral symmetry usage will be decided dynamically.
 Closed shell SCF:
 Using DIIS extrapolation, IDIIS=  1040.
 NGot=   671088640 LenX=   670604095 LenY=   670368385
 Requested convergence on RMS density matrix=1.00D-08 within 900 cycles.
 Requested convergence on MAX density matrix=1.00D-06.
 Requested convergence on             energy=1.00D-06.
 No special actions if energy rises.
 Fock matrices will be formed incrementally for  20 cycles.
 Integral accuracy reduced to 1.0D-05 until final iterations.

 Cycle   1  Pass 0  IDiag  1:
 FoFJK:  IHMeth= 1 ICntrl=       0 DoSepK=F KAlg= 0 I1Cent=           0 FoldK=F
 IRaf= 890000000 NMat=       1 IRICut=       1 DoRegI=T DoRafI=F ISym2E= 0 IDoP0=0 IntGTp=1.
 FoFCou: FMM=F IPFlag=           0 FMFlag=      100000 FMFlg1=           0
         NFxFlg=           0 DoJE=F BraDBF=F KetDBF=F FulRan=T
         wScrn=  0.000000 ICntrl=         0 IOpCl=  0 I1Cent=           0 NGrid=           0
         NMat0=    1 NMatS0=      1 NMatT0=    0 NMatD0=    1 NMtDS0=    0 NMtDT0=    0
 Symmetry not used in FoFCou.
 E= -275.964176442778    
 DIIS: error= 3.02D-02 at cycle   1 NSaved=   1.
 NSaved= 1 IEnMin= 1 EnMin= -275.964176442778     IErMin= 1 ErrMin= 3.02D-02
 ErrMax= 3.02D-02  0.00D+00 EMaxC= 1.00D-01 BMatC= 3.72D-01 BMatP= 3.72D-01
 IDIUse=3 WtCom= 6.98D-01 WtEn= 3.02D-01
 Coeff-Com:  0.100D+01
 Coeff-En:   0.100D+01
 Coeff:      0.100D+01
 Gap=     0.385 Goal=   None    Shift=    0.000
 GapD=    0.385 DampG=1.000 DampE=0.500 DampFc=0.5000 IDamp=-1.
 Damping current iteration by 5.00D-01
 RMSDP=1.87D-03 MaxDP=6.86D-02              OVMax= 1.68D-01

 Cycle   2  Pass 0  IDiag  1:
 RMSU=  9.33D-04    CP:  9.90D-01
 E= -276.145949955533     Delta-E=       -0.181773512755 Rises=F Damp=T
 DIIS: error= 4.13D-03 at cycle   2 NSaved=   2.
 NSaved= 2 IEnMin= 2 EnMin= -276.145949955533     IErMin= 2 ErrMin= 4.13D-03
 ErrMax= 4.13D-03  0.00D+00 EMaxC= 1.00D-01 BMatC= 1.74D-02 BMatP= 3.72D-01
 IDIUse=3 WtCom= 9.59D-01 WtEn= 4.13D-02
 Coeff-Com: -0.671D-01 0.107D+01
 Coeff-En:   0.000D+00 0.100D+01
 Coeff:     -0.643D-01 0.106D+01
 Gap=     0.445 Goal=   None    Shift=    0.000
 RMSDP=4.87D-04 MaxDP=1.53D-02 DE=-1.82D-01 OVMax= 8.78D-02

 Cycle   3  Pass 0  IDiag  1:
 RMSU=  4.77D-04    CP:  9.96D-01  9.06D-01
 E= -276.323014023690     Delta-E=       -0.177064068157 Rises=F Damp=F
 DIIS: error= 2.25D-03 at cycle   3 NSaved=   3.
 NSaved= 3 IEnMin= 3 EnMin= -276.323014023690     IErMin= 3 ErrMin= 2.25D-03
 ErrMax= 2.25D-03  0.00D+00 EMaxC= 1.00D-01 BMatC= 1.55D-03 BMatP= 1.74D-02
 IDIUse=3 WtCom= 9.78D-01 WtEn= 2.25D-02
 Coeff-Com: -0.458D-01 0.187D+00 0.859D+00
 Coeff-En:   0.000D+00 0.000D+00 0.100D+01
 Coeff:     -0.448D-01 0.182D+00 0.862D+00
 Gap=     0.424 Goal=   None    Shift=    0.000
 RMSDP=7.13D-05 MaxDP=2.62D-03 DE=-1.77D-01 OVMax= 8.72D-03

 Cycle   4  Pass 0  IDiag  1:
 RMSU=  5.84D-05    CP:  9.95D-01  9.46D-01  9.64D-01
 E= -276.324389202022     Delta-E=       -0.001375178331 Rises=F Damp=F
 DIIS: error= 5.20D-04 at cycle   4 NSaved=   4.
 NSaved= 4 IEnMin= 4 EnMin= -276.324389202022     IErMin= 4 ErrMin= 5.20D-04
 ErrMax= 5.20D-04  0.00D+00 EMaxC= 1.00D-01 BMatC= 1.66D-04 BMatP= 1.55D-03
 IDIUse=3 WtCom= 9.95D-01 WtEn= 5.20D-03
 Coeff-Com: -0.112D-01 0.300D-01 0.285D+00 0.696D+00
 Coeff-En:   0.000D+00 0.000D+00 0.000D+00 0.100D+01
 Coeff:     -0.112D-01 0.299D-01 0.283D+00 0.698D+00
 Gap=     0.424 Goal=   None    Shift=    0.000
 RMSDP=2.48D-05 MaxDP=1.20D-03 DE=-1.38D-03 OVMax= 2.65D-03

 Cycle   5  Pass 0  IDiag  1:
 RMSU=  1.66D-05    CP:  9.95D-01  9.40D-01  9.89D-01  7.82D-01
 E= -276.324538599160     Delta-E=       -0.000149397138 Rises=F Damp=F
 DIIS: error= 1.43D-04 at cycle   5 NSaved=   5.
 NSaved= 5 IEnMin= 5 EnMin= -276.324538599160     IErMin= 5 ErrMin= 1.43D-04
 ErrMax= 1.43D-04  0.00D+00 EMaxC= 1.00D-01 BMatC= 1.41D-05 BMatP= 1.66D-04
 IDIUse=3 WtCom= 9.99D-01 WtEn= 1.43D-03
 Coeff-Com: -0.559D-03-0.119D-02 0.458D-01 0.257D+00 0.699D+00
 Coeff-En:   0.000D+00 0.000D+00 0.000D+00 0.000D+00 0.100D+01
 Coeff:     -0.558D-03-0.119D-02 0.457D-01 0.256D+00 0.700D+00
 Gap=     0.424 Goal=   None    Shift=    0.000
 RMSDP=6.27D-06 MaxDP=3.40D-04 DE=-1.49D-04 OVMax= 6.44D-04

 Initial convergence to 1.0D-05 achieved.  Increase integral accuracy.
 Cycle   6  Pass 1  IDiag  1:
 E= -276.324574385908     Delta-E=       -0.000035786749 Rises=F Damp=F
 DIIS: error= 5.65D-05 at cycle   1 NSaved=   1.
 NSaved= 1 IEnMin= 1 EnMin= -276.324574385908     IErMin= 1 ErrMin= 5.65D-05
 ErrMax= 5.65D-05  0.00D+00 EMaxC= 1.00D-01 BMatC= 1.81D-06 BMatP= 1.81D-06
 IDIUse=1 WtCom= 1.00D+00 WtEn= 0.00D+00
 Coeff-Com:  0.100D+01
 Coeff:      0.100D+01
 Gap=     0.424 Goal=   None    Shift=    0.000
 RMSDP=6.27D-06 MaxDP=3.40D-04 DE=-3.58D-05 OVMax= 3.11D-04

 Cycle   7  Pass 1  IDiag  1:
 RMSU=  1.88D-05    CP:  1.00D+00
 E= -276.324575412245     Delta-E=       -0.000001026337 Rises=F Damp=F
 DIIS: error= 2.62D-05 at cycle   2 NSaved=   2.
 NSaved= 2 IEnMin= 2 EnMin= -276.324575412245     IErMin= 2 ErrMin= 2.62D-05
 ErrMax= 2.62D-05  0.00D+00 EMaxC= 1.00D-01 BMatC= 4.10D-07 BMatP= 1.81D-06
 IDIUse=1 WtCom= 1.00D+00 WtEn= 0.00D+00
 Coeff-Com:  0.264D+00 0.736D+00
 Coeff:      0.264D+00 0.736D+00
 Gap=     0.424 Goal=   None    Shift=    0.000
 RMSDP=1.39D-06 MaxDP=4.89D-05 DE=-1.03D-06 OVMax= 1.50D-04

 Cycle   8  Pass 1  IDiag  1:
 RMSU=  1.35D-06    CP:  1.00D+00  1.02D+00
 E= -276.324575722474     Delta-E=       -0.000000310229 Rises=F Damp=F
 DIIS: error= 1.29D-05 at cycle   3 NSaved=   3.
 NSaved= 3 IEnMin= 3 EnMin= -276.324575722474     IErMin= 3 ErrMin= 1.29D-05
 ErrMax= 1.29D-05  0.00D+00 EMaxC= 1.00D-01 BMatC= 1.00D-07 BMatP= 4.10D-07
 IDIUse=1 WtCom= 1.00D+00 WtEn= 0.00D+00
 Coeff-Com: -0.516D-02 0.325D+00 0.680D+00
 Coeff:     -0.516D-02 0.325D+00 0.680D+00
 Gap=     0.424 Goal=   None    Shift=    0.000
 RMSDP=5.02D-07 MaxDP=1.71D-05 DE=-3.10D-07 OVMax= 5.57D-05

 Cycle   9  Pass 1  IDiag  1:
 RMSU=  2.88D-07    CP:  1.00D+00  1.03D+00  7.40D-01
 E= -276.324575820446     Delta-E=       -0.000000097972 Rises=F Damp=F
 DIIS: error= 1.66D-06 at cycle   4 NSaved=   4.
 NSaved= 4 IEnMin= 4 EnMin= -276.324575820446     IErMin= 4 ErrMin= 1.66D-06
 ErrMax= 1.66D-06  0.00D+00 EMaxC= 1.00D-01 BMatC= 1.33D-09 BMatP= 1.00D-07
 IDIUse=1 WtCom= 1.00D+00 WtEn= 0.00D+00
 Coeff-Com: -0.807D-02 0.869D-01 0.216D+00 0.705D+00
 Coeff:     -0.807D-02 0.869D-01 0.216D+00 0.705D+00
 Gap=     0.424 Goal=   None    Shift=    0.000
 RMSDP=7.31D-08 MaxDP=2.85D-06 DE=-9.80D-08 OVMax= 7.43D-06

 Cycle  10  Pass 1  IDiag  1:
 RMSU=  7.05D-08    CP:  1.00D+00  1.03D+00  7.46D-01  9.66D-01
 E= -276.324575821774     Delta-E=       -0.000000001328 Rises=F Damp=F
 DIIS: error= 3.22D-07 at cycle   5 NSaved=   5.
 NSaved= 5 IEnMin= 5 EnMin= -276.324575821774     IErMin= 5 ErrMin= 3.22D-07
 ErrMax= 3.22D-07  0.00D+00 EMaxC= 1.00D-01 BMatC= 4.33D-11 BMatP= 1.33D-09
 IDIUse=1 WtCom= 1.00D+00 WtEn= 0.00D+00
 Coeff-Com: -0.108D-03-0.189D-01-0.379D-01 0.346D-01 0.102D+01
 Coeff:     -0.108D-03-0.189D-01-0.379D-01 0.346D-01 0.102D+01
 Gap=     0.424 Goal=   None    Shift=    0.000
 RMSDP=2.82D-08 MaxDP=8.62D-07 DE=-1.33D-09 OVMax= 2.08D-06

 Cycle  11  Pass 1  IDiag  1:
 RMSU=  1.44D-08    CP:  1.00D+00  1.03D+00  7.49D-01  1.04D+00  1.10D+00
 E= -276.324575821825     Delta-E=       -0.000000000051 Rises=F Damp=F
 DIIS: error= 1.37D-07 at cycle   6 NSaved=   6.
 NSaved= 6 IEnMin= 6 EnMin= -276.324575821825     IErMin= 6 ErrMin= 1.37D-07
 ErrMax= 1.37D-07  0.00D+00 EMaxC= 1.00D-01 BMatC= 1.07D-11 BMatP= 4.33D-11
 IDIUse=1 WtCom= 1.00D+00 WtEn= 0.00D+00
 Coeff-Com:  0.446D-03-0.131D-01-0.287D-01-0.283D-01 0.435D+00 0.635D+00
 Coeff:      0.446D-03-0.131D-01-0.287D-01-0.283D-01 0.435D+00 0.635D+00
 Gap=     0.424 Goal=   None    Shift=    0.000
 RMSDP=5.24D-09 MaxDP=3.31D-07 DE=-5.07D-11 OVMax= 5.89D-07

 SCF Done:  E(RM062X) =  -276.324575822     A.U. after   11 cycles
            NFock= 11  Conv=0.52D-08     -V/T= 2.0068
 KE= 2.744467341516D+02 PE=-1.268415488957D+03 EE= 4.026259037282D+02
 Leave Link  502 at Sat Sep 28 19:32:52 2019, MaxMem=   671088640 cpu:            2311.2 elap:            1156.0
 (Enter /shared/centos7/gaussian/g16/l801.exe)
 DoSCS=F DFT=T ScalE2(SS,OS)=  1.000000  1.000000
 Range of M.O.s used for correlation:     1   434
 NBasis=   434 NAE=    29 NBE=    29 NFC=     0 NFV=     0
 NROrb=    434 NOA=    29 NOB=    29 NVA=   405 NVB=   405

 **** Warning!!: The largest alpha MO coefficient is  0.10611219D+02

 Leave Link  801 at Sat Sep 28 19:32:53 2019, MaxMem=   671088640 cpu:               1.7 elap:               0.8
 (Enter /shared/centos7/gaussian/g16/l1101.exe)
 Using compressed storage, NAtomX=    23.
 Will process     24 centers per pass.
 Leave Link 1101 at Sat Sep 28 19:33:35 2019, MaxMem=   671088640 cpu:              83.8 elap:              41.9
 (Enter /shared/centos7/gaussian/g16/l1102.exe)
 Symmetrizing basis deriv contribution to polar:
 IMax=3 JMax=2 DiffMx= 0.00D+00
 Leave Link 1102 at Sat Sep 28 19:33:38 2019, MaxMem=   671088640 cpu:               5.2 elap:               2.6
 (Enter /shared/centos7/gaussian/g16/l1110.exe)
 Forming Gx(P) for the SCF density, NAtomX=    23.
 Integral derivatives from FoFJK, PRISM(SPDF).
 Do as many integral derivatives as possible in FoFJK.
 G2DrvN: MDV=     671086848.
 G2DrvN: will do    24 centers at a time, making    1 passes.
 Calling FoFCou, ICntrl=  3107 FMM=F I1Cent=   0 AccDes= 0.00D+00.
 FoFJK:  IHMeth= 1 ICntrl=    3107 DoSepK=F KAlg= 0 I1Cent=           0 FoldK=F
 IRaf=         0 NMat=       1 IRICut=       1 DoRegI=T DoRafI=F ISym2E= 0 IDoP0=0 IntGTp=1.
 FoFCou: FMM=F IPFlag=           0 FMFlag=      100000 FMFlg1=           0
         NFxFlg=           0 DoJE=F BraDBF=F KetDBF=F FulRan=T
         wScrn=  0.000000 ICntrl=      3107 IOpCl=  0 I1Cent=           0 NGrid=           0
         NMat0=    1 NMatS0=      1 NMatT0=    0 NMatD0=    1 NMtDS0=    0 NMtDT0=    0
 Symmetry not used in FoFCou.
 End of G2Drv F.D. properties file   721 does not exist.
 End of G2Drv F.D. properties file   722 does not exist.
 End of G2Drv F.D. properties file   788 does not exist.
 Leave Link 1110 at Sat Sep 28 20:22:31 2019, MaxMem=   671088640 cpu:            5865.0 elap:            2933.1
 (Enter /shared/centos7/gaussian/g16/l1002.exe)
 Minotr:  Closed shell wavefunction.
          IDoAtm=11111111111111111111111
          Direct CPHF calculation.
          Differentiating once with respect to nuclear coordinates.
          Requested convergence is 1.0D-08 RMS, and 1.0D-07 maximum.
          Secondary convergence is 1.0D-12 RMS, and 1.0D-12 maximum.
          NewPWx=T KeepS1=F KeepF1=F KeepIn=T MapXYZ=F SortEE=F KeepMc=T.
         6946 words used for storage of precomputed grid.
 Two-electron integrals replicated using symmetry.
          MDV=     671088640 using IRadAn=       1.
          Solving linear equations simultaneously, MaxMat=     380.
 FoF2E skips out because all densities are zero.
 CalDSu exits because no D1Ps are significant.
 FoFJK:  IHMeth= 1 ICntrl=       0 DoSepK=F KAlg= 0 I1Cent=           0 FoldK=F
 IRaf= 870000000 NMat=      69 IRICut=     172 DoRegI=T DoRafI=T ISym2E= 2 IDoP0=3 IntGTp=3.
 FoFCou: FMM=F IPFlag=           0 FMFlag=      100000 FMFlg1=           0
         NFxFlg=           0 DoJE=F BraDBF=F KetDBF=F FulRan=T
         wScrn=  0.000000 ICntrl=         0 IOpCl=  0 I1Cent=           0 NGrid=           0
         NMat0=   69 NMatS0=     69 NMatT0=    0 NMatD0=   69 NMtDS0=    0 NMtDT0=    0
 Integrals replicated using symmetry in FoFCou.
 Raff kept on since  83.64% of shell-pairs survive, threshold=   0.20 IRatSp=84.
          There are    72 degrees of freedom in the 1st order CPHF.  IDoFFX=6 NUNeed=     0.
     66 vectors produced by pass  0 Test12= 1.63D-14 1.39D-09 XBig12= 5.50D-02 4.92D-02.
 AX will form    66 AO Fock derivatives at one time.
     66 vectors produced by pass  1 Test12= 1.63D-14 1.39D-09 XBig12= 3.55D-03 6.30D-03.
     66 vectors produced by pass  2 Test12= 1.63D-14 1.39D-09 XBig12= 5.19D-05 1.01D-03.
     66 vectors produced by pass  3 Test12= 1.63D-14 1.39D-09 XBig12= 4.20D-07 6.69D-05.
     66 vectors produced by pass  4 Test12= 1.63D-14 1.39D-09 XBig12= 2.40D-09 5.24D-06.
     66 vectors produced by pass  5 Test12= 1.63D-14 1.39D-09 XBig12= 1.18D-11 3.45D-07.
     23 vectors produced by pass  6 Test12= 1.63D-14 1.39D-09 XBig12= 4.28D-14 1.68D-08.
 InvSVY:  IOpt=1 It=  1 EMax= 1.94D-16
 Solved reduced A of dimension   419 with    72 vectors.
 End of Minotr F.D. properties file   721 does not exist.
 End of Minotr F.D. properties file   722 does not exist.
 End of Minotr F.D. properties file   788 does not exist.
 Leave Link 1002 at Sat Sep 28 21:45:15 2019, MaxMem=   671088640 cpu:            9926.7 elap:            4964.4
 (Enter /shared/centos7/gaussian/g16/l601.exe)
 Copying SCF densities to generalized density rwf, IOpCl= 0 IROHF=0.

 **********************************************************************

            Population analysis using the SCF density.

 **********************************************************************

 Orbital symmetries:
       Occupied  (A) (A) (A) (A) (A) (A) (A) (A) (A) (A) (A) (A)
                 (A) (A) (A) (A) (A) (A) (A) (A) (A) (A) (A) (A)
                 (A) (A) (A) (A) (A)
       Virtual   (A) (A) (A) (A) (A) (A) (A) (A) (A) (A) (A) (A)
                 (A) (A) (A) (A) (A) (A) (A) (A) (A) (A) (A) (A)
                 (A) (A) (A) (A) (A) (A) (A) (A) (A) (A) (A) (A)
                 (A) (A) (A) (A) (A) (A) (A) (A) (A) (A) (A) (A)
                 (A) (A) (A) (A) (A) (A) (A) (A) (A) (A) (A) (A)
                 (A) (A) (A) (A) (A) (A) (A) (A) (A) (A) (A) (A)
                 (A) (A) (A) (A) (A) (A) (A) (A) (A) (A) (A) (A)
                 (A) (A) (A) (A) (A) (A) (A) (A) (A) (A) (A) (A)
                 (A) (A) (A) (A) (A) (A) (A) (A) (A) (A) (A) (A)
                 (A) (A) (A) (A) (A) (A) (A) (A) (A) (A) (A) (A)
                 (A) (A) (A) (A) (A) (A) (A) (A) (A) (A) (A) (A)
                 (A) (A) (A) (A) (A) (A) (A) (A) (A) (A) (A) (A)
                 (A) (A) (A) (A) (A) (A) (A) (A) (A) (A) (A) (A)
                 (A) (A) (A) (A) (A) (A) (A) (A) (A) (A) (A) (A)
                 (A) (A) (A) (A) (A) (A) (A) (A) (A) (A) (A) (A)
                 (A) (A) (A) (A) (A) (A) (A) (A) (A) (A) (A) (A)
                 (A) (A) (A) (A) (A) (A) (A) (A) (A) (A) (A) (A)
                 (A) (A) (A) (A) (A) (A) (A) (A) (A) (A) (A) (A)
                 (A) (A) (A) (A) (A) (A) (A) (A) (A) (A) (A) (A)
                 (A) (A) (A) (A) (A) (A) (A) (A) (A) (A) (A) (A)
                 (A) (A) (A) (A) (A) (A) (A) (A) (A) (A) (A) (A)
                 (A) (A) (A) (A) (A) (A) (A) (A) (A) (A) (A) (A)
                 (A) (A) (A) (A) (A) (A) (A) (A) (A) (A) (A) (A)
                 (A) (A) (A) (A) (A) (A) (A) (A) (A) (A) (A) (A)
                 (A) (A) (A) (A) (A) (A) (A) (A) (A) (A) (A) (A)
                 (A) (A) (A) (A) (A) (A) (A) (A) (A) (A) (A) (A)
                 (A) (A) (A) (A) (A) (A) (A) (A) (A) (A) (A) (A)
                 (A) (A) (A) (A) (A) (A) (A) (A) (A) (A) (A) (A)
                 (A) (A) (A) (A) (A) (A) (A) (A) (A) (A) (A) (A)
                 (A) (A) (A) (A) (A) (A) (A) (A) (A) (A) (A) (A)
                 (A) (A) (A) (A) (A) (A) (A) (A) (A) (A) (A) (A)
                 (A) (A) (A) (A) (A) (A) (A) (A) (A) (A) (A) (A)
                 (A) (A) (A) (A) (A) (A) (A) (A) (A) (A) (A) (A)
                 (A) (A) (A) (A) (A) (A) (A) (A) (A)
 The electronic state is 1-A.
 Alpha  occ. eigenvalues --  -10.52839 -10.52597 -10.52566 -10.52554 -10.52389
 Alpha  occ. eigenvalues --  -10.52331 -10.52285  -0.92109  -0.88475  -0.82841
 Alpha  occ. eigenvalues --   -0.76336  -0.70027  -0.65444  -0.63743  -0.55425
 Alpha  occ. eigenvalues --   -0.52424  -0.52014  -0.49460  -0.47258  -0.46776
 Alpha  occ. eigenvalues --   -0.45219  -0.42447  -0.41189  -0.40590  -0.38887
 Alpha  occ. eigenvalues --   -0.37721  -0.37233  -0.36963  -0.35716
 Alpha virt. eigenvalues --    0.06708   0.07519   0.08789   0.09161   0.10208
 Alpha virt. eigenvalues --    0.11432   0.11966   0.13464   0.15003   0.15336
 Alpha virt. eigenvalues --    0.15777   0.16273   0.16927   0.18647   0.19412
 Alpha virt. eigenvalues --    0.20889   0.22520   0.23084   0.23920   0.24398
 Alpha virt. eigenvalues --    0.26909   0.27850   0.29327   0.30586   0.31313
 Alpha virt. eigenvalues --    0.32781   0.33750   0.34143   0.36979   0.37387
 Alpha virt. eigenvalues --    0.38510   0.40236   0.41504   0.41715   0.42284
 Alpha virt. eigenvalues --    0.42794   0.43980   0.46486   0.46767   0.47522
 Alpha virt. eigenvalues --    0.48240   0.49363   0.50376   0.50751   0.51134
 Alpha virt. eigenvalues --    0.51411   0.52548   0.52918   0.53870   0.54012
 Alpha virt. eigenvalues --    0.54194   0.54411   0.55089   0.56261   0.56684
 Alpha virt. eigenvalues --    0.57736   0.58496   0.59794   0.61617   0.64659
 Alpha virt. eigenvalues --    0.67135   0.69604   0.71752   0.73762   0.74873
 Alpha virt. eigenvalues --    0.77075   0.79044   0.81336   0.82645   0.84104
 Alpha virt. eigenvalues --    0.84988   0.86838   0.87624   0.88929   0.90305
 Alpha virt. eigenvalues --    0.91735   0.92039   0.94227   0.95565   0.96821
 Alpha virt. eigenvalues --    0.97691   0.99020   1.01961   1.04269   1.04930
 Alpha virt. eigenvalues --    1.05759   1.06377   1.08076   1.09034   1.09234
 Alpha virt. eigenvalues --    1.10240   1.11165   1.11976   1.12678   1.14495
 Alpha virt. eigenvalues --    1.14938   1.15613   1.17127   1.17592   1.19281
 Alpha virt. eigenvalues --    1.20133   1.21570   1.22097   1.22918   1.24300
 Alpha virt. eigenvalues --    1.24841   1.25530   1.26651   1.27792   1.28304
 Alpha virt. eigenvalues --    1.29463   1.30203   1.30407   1.32089   1.32723
 Alpha virt. eigenvalues --    1.33551   1.34212   1.34944   1.36413   1.37069
 Alpha virt. eigenvalues --    1.38098   1.39549   1.40421   1.41627   1.42646
 Alpha virt. eigenvalues --    1.45159   1.46268   1.46728   1.47874   1.49072
 Alpha virt. eigenvalues --    1.49713   1.52586   1.53049   1.53596   1.54791
 Alpha virt. eigenvalues --    1.55753   1.57008   1.58550   1.59537   1.61723
 Alpha virt. eigenvalues --    1.63205   1.64678   1.65800   1.68406   1.69572
 Alpha virt. eigenvalues --    1.74177   1.77196   1.79738   1.82198   2.21505
 Alpha virt. eigenvalues --    2.22970   2.26733   2.29632   2.33131   2.34279
 Alpha virt. eigenvalues --    2.36133   2.36580   2.40631   2.42487   2.43361
 Alpha virt. eigenvalues --    2.44209   2.46522   2.48691   2.50072   2.52718
 Alpha virt. eigenvalues --    2.53702   2.54781   2.55574   2.56996   2.58743
 Alpha virt. eigenvalues --    2.60444   2.60890   2.62474   2.64571   2.65890
 Alpha virt. eigenvalues --    2.66141   2.67713   2.69127   2.70514   2.72359
 Alpha virt. eigenvalues --    2.72747   2.72967   2.73647   2.76151   2.77793
 Alpha virt. eigenvalues --    2.79403   2.80015   2.81542   2.83026   2.83166
 Alpha virt. eigenvalues --    2.85879   2.86328   2.87939   2.89788   2.93110
 Alpha virt. eigenvalues --    2.95419   2.96349   2.96958   2.98540   2.99729
 Alpha virt. eigenvalues --    3.00045   3.00997   3.01594   3.03149   3.04170
 Alpha virt. eigenvalues --    3.05271   3.05511   3.06485   3.07444   3.08216
 Alpha virt. eigenvalues --    3.08879   3.09215   3.10097   3.10398   3.11716
 Alpha virt. eigenvalues --    3.12706   3.13274   3.14030   3.16328   3.16493
 Alpha virt. eigenvalues --    3.18056   3.18588   3.19369   3.21503   3.22274
 Alpha virt. eigenvalues --    3.23309   3.23647   3.24758   3.25229   3.26048
 Alpha virt. eigenvalues --    3.27578   3.29863   3.30129   3.32140   3.34421
 Alpha virt. eigenvalues --    3.36038   3.36652   3.37469   3.39991   3.40221
 Alpha virt. eigenvalues --    3.41826   3.43624   3.45249   3.46789   3.47166
 Alpha virt. eigenvalues --    3.49254   3.49686   3.51094   3.51989   3.53046
 Alpha virt. eigenvalues --    3.53879   3.55513   3.55948   3.58090   3.58711
 Alpha virt. eigenvalues --    3.59917   3.61213   3.62174   3.62480   3.65890
 Alpha virt. eigenvalues --    3.66378   3.69263   3.71093   3.72361   3.73488
 Alpha virt. eigenvalues --    3.74006   3.74934   3.75757   3.76350   3.77808
 Alpha virt. eigenvalues --    3.78378   3.80692   3.81721   3.82953   3.84130
 Alpha virt. eigenvalues --    3.85146   3.85610   3.87995   3.88435   3.88852
 Alpha virt. eigenvalues --    3.90144   3.91579   3.93293   3.94263   3.95230
 Alpha virt. eigenvalues --    3.95489   3.96175   3.96786   3.99032   3.99448
 Alpha virt. eigenvalues --    4.00445   4.02190   4.02630   4.03260   4.04658
 Alpha virt. eigenvalues --    4.04896   4.05474   4.06583   4.07851   4.09736
 Alpha virt. eigenvalues --    4.10506   4.12482   4.14121   4.14537   4.15815
 Alpha virt. eigenvalues --    4.16936   4.18279   4.18832   4.19187   4.19892
 Alpha virt. eigenvalues --    4.22930   4.24677   4.25631   4.26105   4.27581
 Alpha virt. eigenvalues --    4.30134   4.31251   4.32083   4.33864   4.34938
 Alpha virt. eigenvalues --    4.35404   4.39866   4.41025   4.42195   4.43155
 Alpha virt. eigenvalues --    4.45413   4.46430   4.51595   4.53950   4.56035
 Alpha virt. eigenvalues --    4.58384   4.60769   4.61944   4.63582   4.65774
 Alpha virt. eigenvalues --    4.66562   4.68518   4.70643   4.71370   4.73926
 Alpha virt. eigenvalues --    4.77480   4.78296   4.79531   4.80792   4.81452
 Alpha virt. eigenvalues --    4.81813   4.83523   4.85673   4.87319   4.89270
 Alpha virt. eigenvalues --    4.91168   4.92402   4.94319   4.96163   4.97709
 Alpha virt. eigenvalues --    4.99570   5.01299   5.03413   5.04859   5.07299
 Alpha virt. eigenvalues --    5.09262   5.09641   5.11531   5.14529   5.16797
 Alpha virt. eigenvalues --    5.20495   5.21466   5.25306   5.25803   5.27122
 Alpha virt. eigenvalues --    5.27666   5.29477   5.32938   5.35518   5.35919
 Alpha virt. eigenvalues --    5.37108   5.38764   5.39633   5.42590   5.44756
 Alpha virt. eigenvalues --    5.46944   5.48867   5.49795   5.52035   5.55511
 Alpha virt. eigenvalues --    5.56995   5.62774   5.65207   5.69707   5.76263
 Alpha virt. eigenvalues --    5.78245   5.80691   5.83676   5.84715   5.91987
 Alpha virt. eigenvalues --    5.94785   5.96721   6.04062  11.61822  12.14606
 Alpha virt. eigenvalues --   12.62551  12.84267  13.23151  13.45256  13.89132
          Condensed to atoms (all electrons):
               1          2          3          4          5          6
     1  C    5.061725   0.312989  -0.053389   0.323311   0.007017  -0.043854
     2  C    0.312989   5.097322   0.332531  -0.047928  -0.056420  -0.011693
     3  C   -0.053389   0.332531   5.044828   0.006426   0.327537   0.000208
     4  C    0.323311  -0.047928   0.006426   5.049010  -0.000524   0.285203
     5  C    0.007017  -0.056420   0.327537  -0.000524   5.022175   0.000011
     6  C   -0.043854  -0.011693   0.000208   0.285203   0.000011   4.998119
     7  C   -0.000471   0.007450  -0.051894   0.000012   0.316331  -0.000000
     8  H   -0.045991   0.010324  -0.000449   0.417317   0.000023  -0.045186
     9  H   -0.041686  -0.008486   0.000389   0.410631   0.000008  -0.049677
    10  H    0.409678  -0.054794  -0.002821  -0.038190   0.000150  -0.005998
    11  H    0.416808  -0.045508  -0.005451  -0.041725   0.000062   0.009109
    12  H   -0.042020   0.414685  -0.045013  -0.005286  -0.003267   0.000665
    13  H   -0.045215   0.400236  -0.036503  -0.000614  -0.003058  -0.000806
    14  H   -0.003508  -0.040844   0.408473   0.000245  -0.040525  -0.000075
    15  H   -0.003595  -0.042117   0.404043   0.000136  -0.039431   0.000091
    16  H    0.000131  -0.004655  -0.048512  -0.000009   0.411204   0.000009
    17  H    0.000034  -0.003136  -0.041353   0.000040   0.404147  -0.000023
    18  H    0.002286  -0.006634   0.000294  -0.061625   0.000082   0.407798
    19  H    0.004274   0.000672  -0.000018  -0.043163  -0.000002   0.404421
    20  H    0.004711   0.000103   0.000017  -0.042541  -0.000002   0.404377
    21  H    0.000017   0.000250  -0.002406   0.000003  -0.050367  -0.000000
    22  H    0.000003  -0.000269  -0.003225  -0.000001  -0.041762   0.000000
    23  H    0.000020  -0.000524   0.008618  -0.000001  -0.042519   0.000000
               7          8          9         10         11         12
     1  C   -0.000471  -0.045991  -0.041686   0.409678   0.416808  -0.042020
     2  C    0.007450   0.010324  -0.008486  -0.054794  -0.045508   0.414685
     3  C   -0.051894  -0.000449   0.000389  -0.002821  -0.005451  -0.045013
     4  C    0.000012   0.417317   0.410631  -0.038190  -0.041725  -0.005286
     5  C    0.316331   0.000023   0.000008   0.000150   0.000062  -0.003267
     6  C   -0.000000  -0.045186  -0.049677  -0.005998   0.009109   0.000665
     7  C    4.940033  -0.000001   0.000001   0.000007  -0.000001   0.000077
     8  H   -0.000001   0.611447  -0.036331  -0.007297  -0.007571  -0.000134
     9  H    0.000001  -0.036331   0.608112   0.008873  -0.005809  -0.000114
    10  H    0.000007  -0.007297   0.008873   0.586992  -0.033838  -0.005018
    11  H   -0.000001  -0.007571  -0.005809  -0.033838   0.582893   0.007587
    12  H    0.000077  -0.000134  -0.000114  -0.005018   0.007587   0.575548
    13  H    0.000225   0.000123   0.003720   0.008474  -0.006292  -0.038178
    14  H   -0.006221  -0.000034   0.000037   0.000080   0.002655   0.007798
    15  H   -0.000178   0.000020  -0.000034   0.002112   0.000298  -0.005283
    16  H   -0.039823   0.000001  -0.000026  -0.000075   0.000088  -0.000013
    17  H   -0.037632   0.000000   0.000006   0.000088  -0.000055   0.002181
    18  H   -0.000002   0.005872   0.006306   0.001053   0.000400  -0.001636
    19  H   -0.000000   0.006953  -0.019181  -0.000182  -0.000574  -0.001205
    20  H    0.000000  -0.020713   0.006714   0.001221  -0.000405   0.000241
    21  H    0.405165  -0.000000   0.000000   0.000013  -0.000026  -0.000035
    22  H    0.403688   0.000000  -0.000000  -0.000011   0.000003   0.000020
    23  H    0.406419   0.000000   0.000000   0.000001   0.000001   0.000003
              13         14         15         16         17         18
     1  C   -0.045215  -0.003508  -0.003595   0.000131   0.000034   0.002286
     2  C    0.400236  -0.040844  -0.042117  -0.004655  -0.003136  -0.006634
     3  C   -0.036503   0.408473   0.404043  -0.048512  -0.041353   0.000294
     4  C   -0.000614   0.000245   0.000136  -0.000009   0.000040  -0.061625
     5  C   -0.003058  -0.040525  -0.039431   0.411204   0.404147   0.000082
     6  C   -0.000806  -0.000075   0.000091   0.000009  -0.000023   0.407798
     7  C    0.000225  -0.006221  -0.000178  -0.039823  -0.037632  -0.000002
     8  H    0.000123  -0.000034   0.000020   0.000001   0.000000   0.005872
     9  H    0.003720   0.000037  -0.000034  -0.000026   0.000006   0.006306
    10  H    0.008474   0.000080   0.002112  -0.000075   0.000088   0.001053
    11  H   -0.006292   0.002655   0.000298   0.000088  -0.000055   0.000400
    12  H   -0.038178   0.007798  -0.005283  -0.000013   0.002181  -0.001636
    13  H    0.586820  -0.005164   0.007548   0.002537   0.000104   0.000935
    14  H   -0.005164   0.587171  -0.040523  -0.006239   0.007624  -0.000059
    15  H    0.007548  -0.040523   0.589524   0.008413  -0.006270   0.000144
    16  H    0.002537  -0.006239   0.008413   0.613833  -0.040581   0.000002
    17  H    0.000104   0.007624  -0.006270  -0.040581   0.598580  -0.000023
    18  H    0.000935  -0.000059   0.000144   0.000002  -0.000023   0.604258
    19  H   -0.000028  -0.000002  -0.000004   0.000000   0.000003  -0.037057
    20  H   -0.000043   0.000005  -0.000004  -0.000000   0.000000  -0.034082
    21  H    0.000073   0.003363  -0.000400  -0.000776   0.007838  -0.000000
    22  H   -0.000033  -0.000064   0.002336   0.008190  -0.012114   0.000000
    23  H    0.000000   0.000082  -0.000133  -0.012316  -0.000446   0.000000
              19         20         21         22         23
     1  C    0.004274   0.004711   0.000017   0.000003   0.000020
     2  C    0.000672   0.000103   0.000250  -0.000269  -0.000524
     3  C   -0.000018   0.000017  -0.002406  -0.003225   0.008618
     4  C   -0.043163  -0.042541   0.000003  -0.000001  -0.000001
     5  C   -0.000002  -0.000002  -0.050367  -0.041762  -0.042519
     6  C    0.404421   0.404377  -0.000000   0.000000   0.000000
     7  C   -0.000000   0.000000   0.405165   0.403688   0.406419
     8  H    0.006953  -0.020713  -0.000000   0.000000   0.000000
     9  H   -0.019181   0.006714   0.000000  -0.000000   0.000000
    10  H   -0.000182   0.001221   0.000013  -0.000011   0.000001
    11  H   -0.000574  -0.000405  -0.000026   0.000003   0.000001
    12  H   -0.001205   0.000241  -0.000035   0.000020   0.000003
    13  H   -0.000028  -0.000043   0.000073  -0.000033   0.000000
    14  H   -0.000002   0.000005   0.003363  -0.000064   0.000082
    15  H   -0.000004  -0.000004  -0.000400   0.002336  -0.000133
    16  H    0.000000  -0.000000  -0.000776   0.008190  -0.012316
    17  H    0.000003   0.000000   0.007838  -0.012114  -0.000446
    18  H   -0.037057  -0.034082  -0.000000   0.000000   0.000000
    19  H    0.607175  -0.030419   0.000000  -0.000000  -0.000000
    20  H   -0.030419   0.598766   0.000000   0.000000  -0.000000
    21  H    0.000000   0.000000   0.597390  -0.037395  -0.033457
    22  H   -0.000000   0.000000  -0.037395   0.606547  -0.030444
    23  H   -0.000000  -0.000000  -0.033457  -0.030444   0.602591
 Mulliken charges:
               1
     1  C   -0.263277
     2  C   -0.253552
     3  C   -0.242331
     4  C   -0.210729
     5  C   -0.210871
     6  C   -0.352698
     7  C   -0.343184
     8  H    0.111627
     9  H    0.116549
    10  H    0.129485
    11  H    0.127353
    12  H    0.138396
    13  H    0.125138
    14  H    0.125725
    15  H    0.123306
    16  H    0.108617
    17  H    0.120988
    18  H    0.111688
    19  H    0.108336
    20  H    0.112053
    21  H    0.110749
    22  H    0.104529
    23  H    0.102103
 Sum of Mulliken charges =  -0.00000
 Mulliken charges with hydrogens summed into heavy atoms:
               1
     1  C   -0.006439
     2  C    0.009982
     3  C    0.006700
     4  C    0.017447
     5  C    0.018734
     6  C   -0.020621
     7  C   -0.025803
 APT charges:
               1
     1  C   -0.618178
     2  C   -0.463184
     3  C   -0.591570
     4  C   -0.844143
     5  C   -0.456052
     6  C   -1.183077
     7  C   -1.488261
     8  H    0.519288
     9  H    0.332892
    10  H    0.308645
    11  H    0.348010
    12  H    0.288588
    13  H    0.301353
    14  H    0.334860
    15  H    0.297105
    16  H    0.317384
    17  H    0.293147
    18  H    0.085340
    19  H    0.372910
    20  H    0.585795
    21  H    0.320018
    22  H    0.375691
    23  H    0.563440
 Sum of APT charges =  -0.00000
 APT charges with hydrogens summed into heavy atoms:
               1
     1  C    0.038477
     2  C    0.126757
     3  C    0.040396
     4  C    0.008037
     5  C    0.154478
     6  C   -0.139032
     7  C   -0.229113
 Electronic spatial extent (au):  <R**2>=           1509.3447
 Charge=             -0.0000 electrons
 Dipole moment (field-independent basis, Debye):
    X=              0.0734    Y=             -0.0337    Z=              0.0449  Tot=              0.0924
 Quadrupole moment (field-independent basis, Debye-Ang):
   XX=            -50.0166   YY=            -49.3649   ZZ=            -48.5713
   XY=             -0.4334   XZ=             -0.3252   YZ=             -0.3340
 Traceless Quadrupole moment (field-independent basis, Debye-Ang):
   XX=             -0.6990   YY=             -0.0473   ZZ=              0.7463
   XY=             -0.4334   XZ=             -0.3252   YZ=             -0.3340
 Octapole moment (field-independent basis, Debye-Ang**2):
  XXX=              5.5251  YYY=             -1.3304  ZZZ=              0.6381  XYY=             -1.2226
  XXY=             -0.8257  XXZ=              0.8232  XZZ=             -0.2269  YZZ=              0.5895
  YYZ=              0.4115  XYZ=              1.5743
 Hexadecapole moment (field-independent basis, Debye-Ang**3):
 XXXX=          -1836.8725 YYYY=           -211.8406 ZZZZ=           -125.3582 XXXY=            -11.8721
 XXXZ=            -16.9366 YYYX=             -1.0581 YYYZ=             -2.0505 ZZZX=              1.8251
 ZZZY=              0.0177 XXYY=           -339.6240 XXZZ=           -319.2747 YYZZ=            -57.8184
 XXYZ=              4.1105 YYXZ=              1.7861 ZZXY=             -1.4353
 N-N= 3.150182752555D+02 E-N=-1.268415455040D+03  KE= 2.744467341516D+02
  Exact polarizability:   0.000   0.000   0.000   0.000   0.000   0.000
 Approx polarizability:  98.037  -0.400  97.913  -0.017   0.594 100.149
 No NMR shielding tensors so no spin-rotation constants.
 Leave Link  601 at Sat Sep 28 21:45:46 2019, MaxMem=   671088640 cpu:              60.7 elap:              30.4
 (Enter /shared/centos7/gaussian/g16/l701.exe)
 SCFChk:  SCF convergence  5.24D-09 required  1.00D-08
 ... and contract with generalized density number  0.
 Compute integral second derivatives.
 Entering OneElI...
 Calculate overlap and kinetic energy integrals
    NBasis = 485  MinDer = 2  MaxDer = 2
 Requested accuracy = 0.1000D-12
 PrmmSu-InSpLW:  IPartL=    0 NPrtUS=   20 NPrtUL=    1 DoSpLW=F IThBeg=    0 IThEnd=   19 NThAct=   20.
 PrsmSu:  NPrtUS=  20 ThrOK=T IAlg=1 NPAlg=1 LenDen=           0 ISkipM=0 DoSpLW=F IThBeg=    0 IThEnd=   19.
 Prism:   IPart=     0 DynPar=F LinDyn=F Incr=           6.
 PRISM was handed    33212588 working-precision words and 13332 shell-pairs
 PRISM was handed    33212588 working-precision words and 13332 shell-pairs
 PRISM was handed    33212588 working-precision words and 13332 shell-pairs
 PRISM was handed    33212588 working-precision words and 13332 shell-pairs
 PRISM was handed    33212588 working-precision words and 13332 shell-pairs
 PRISM was handed    33212588 working-precision words and 13332 shell-pairs
 PRISM was handed    33212588 working-precision words and 13332 shell-pairs
 PRISM was handed    33212588 working-precision words and 13332 shell-pairs
 PRISM was handed    33212588 working-precision words and 13332 shell-pairs
 PRISM was handed    33212588 working-precision words and 13332 shell-pairs
 PRISM was handed    33212588 working-precision words and 13332 shell-pairs
 PRISM was handed    33212588 working-precision words and 13332 shell-pairs
 PRISM was handed    33212588 working-precision words and 13332 shell-pairs
 PRISM was handed    33212588 working-precision words and 13332 shell-pairs
 PRISM was handed    33212588 working-precision words and 13332 shell-pairs
 PRISM was handed    33212588 working-precision words and 13332 shell-pairs
 PRISM was handed    33212588 working-precision words and 13332 shell-pairs
 PRISM was handed    33212588 working-precision words and 13332 shell-pairs
 PRISM was handed    33212588 working-precision words and 13332 shell-pairs
 IPart=  9 NShTot=         669 NBatch=          60 AvBLen=        11.2
 IPart= 17 NShTot=         641 NBatch=          48 AvBLen=        13.4
 IPart=  2 NShTot=         695 NBatch=          75 AvBLen=         9.3
 PRISM was handed    33212588 working-precision words and 13332 shell-pairs
 IPart= 11 NShTot=         660 NBatch=          57 AvBLen=        11.6
 IPart= 16 NShTot=         643 NBatch=          49 AvBLen=        13.1
 IPart=  6 NShTot=         679 NBatch=          68 AvBLen=        10.0
 IPart= 14 NShTot=         647 NBatch=          51 AvBLen=        12.7
 IPart=  3 NShTot=         689 NBatch=          73 AvBLen=         9.4
 IPart= 10 NShTot=         663 NBatch=          59 AvBLen=        11.2
 IPart=  5 NShTot=         683 NBatch=          70 AvBLen=         9.8
 IPart=  1 NShTot=         700 NBatch=          78 AvBLen=         9.0
 IPart= 18 NShTot=         638 NBatch=          46 AvBLen=        13.9
 IPart=  0 NShTot=         703 NBatch=          80 AvBLen=         8.8
 IPart= 12 NShTot=         656 NBatch=          53 AvBLen=        12.4
 IPart= 15 NShTot=         646 NBatch=          51 AvBLen=        12.7
 IPart=  4 NShTot=         687 NBatch=          71 AvBLen=         9.7
 IPart=  8 NShTot=         670 NBatch=          61 AvBLen=        11.0
 IPart=  7 NShTot=         671 NBatch=          61 AvBLen=        11.0
 IPart= 13 NShTot=         654 NBatch=          52 AvBLen=        12.6
 IPart= 19 NShTot=         638 NBatch=          46 AvBLen=        13.9
 PrSmSu:  NxtVal=            121.
 Entering OneElI...
 Calculate potential energy integrals
    NBasis = 485  MinDer = 2  MaxDer = 2
 Requested accuracy = 0.1000D-12
 PrmmSu-InSpLW:  IPartL=    0 NPrtUS=   20 NPrtUL=    1 DoSpLW=F IThBeg=    0 IThEnd=   19 NThAct=   20.
 PrsmSu:  NPrtUS=  20 ThrOK=T IAlg=1 NPAlg=1 LenDen=           0 ISkipM=0 DoSpLW=F IThBeg=    0 IThEnd=   19.
 Prism:   IPart=     0 DynPar=F LinDyn=F Incr=         133.
 PRISM was handed    33277657 working-precision words and 11599 shell-pairs
 PRISM was handed    33277657 working-precision words and 11599 shell-pairs
 PRISM was handed    33277657 working-precision words and 11599 shell-pairs
 PRISM was handed    33277657 working-precision words and 11599 shell-pairs
 PRISM was handed    33277657 working-precision words and 11599 shell-pairs
 PRISM was handed    33277657 working-precision words and 11599 shell-pairs
 PRISM was handed    33277657 working-precision words and 11599 shell-pairs
 PRISM was handed    33277657 working-precision words and 11599 shell-pairs
 PRISM was handed    33277657 working-precision words and 11599 shell-pairs
 PRISM was handed    33277657 working-precision words and 11599 shell-pairs
 PRISM was handed    33277657 working-precision words and 11599 shell-pairs
 PRISM was handed    33277657 working-precision words and 11599 shell-pairs
 PRISM was handed    33277657 working-precision words and 11599 shell-pairs
 PRISM was handed    33277657 working-precision words and 11599 shell-pairs
 PRISM was handed    33277657 working-precision words and 11599 shell-pairs
 PRISM was handed    33277657 working-precision words and 11599 shell-pairs
 PRISM was handed    33277657 working-precision words and 11599 shell-pairs
 PRISM was handed    33277657 working-precision words and 11599 shell-pairs
 PRISM was handed    33277657 working-precision words and 11599 shell-pairs
 PRISM was handed    33277657 working-precision words and 11599 shell-pairs
 IPart= 14 NShTot=       12972 NBatch=         565 AvBLen=        23.0
 IPart=  3 NShTot=       13869 NBatch=         604 AvBLen=        23.0
 IPart=  5 NShTot=       13731 NBatch=         598 AvBLen=        23.0
 IPart=  9 NShTot=       13294 NBatch=         579 AvBLen=        23.0
 IPart= 16 NShTot=       12880 NBatch=         561 AvBLen=        23.0
 IPart= 11 NShTot=       13179 NBatch=         574 AvBLen=        23.0
 IPart=  6 NShTot=       13616 NBatch=         593 AvBLen=        23.0
 IPart=  1 NShTot=       14053 NBatch=         613 AvBLen=        22.9
 IPart= 17 NShTot=       12811 NBatch=         558 AvBLen=        23.0
 IPart= 10 NShTot=       13248 NBatch=         577 AvBLen=        23.0
 IPart= 18 NShTot=       12788 NBatch=         557 AvBLen=        23.0
 IPart= 12 NShTot=       13018 NBatch=         567 AvBLen=        23.0
 IPart= 19 NShTot=       12788 NBatch=         557 AvBLen=        23.0
 IPart=  7 NShTot=       13386 NBatch=         583 AvBLen=        23.0
 IPart=  8 NShTot=       13317 NBatch=         580 AvBLen=        23.0
 IPart=  4 NShTot=       13800 NBatch=         601 AvBLen=        23.0
 IPart= 13 NShTot=       12972 NBatch=         565 AvBLen=        23.0
 IPart= 15 NShTot=       12949 NBatch=         564 AvBLen=        23.0
 IPart=  2 NShTot=       13961 NBatch=         609 AvBLen=        22.9
 IPart=  0 NShTot=       14145 NBatch=         617 AvBLen=        22.9
 PrSmSu:  NxtVal=           2661.
 Polarizability after L701:
                1             2             3 
      1  0.000000D+00
      2  0.000000D+00  0.000000D+00
      3  0.000000D+00  0.000000D+00  0.000000D+00
 Dipole Derivatives after L701:
                 1             2             3             4             5 
      1   0.508156D-01  0.529942D+00  0.526250D+00 -0.601175D-01 -0.190873D+00
      2  -0.185566D+00 -0.109791D+01 -0.115795D+00 -0.875341D-01 -0.551129D+00
      3   0.694802D-01  0.878909D-01 -0.807442D+00  0.152175D-01  0.560327D-01
                 6             7             8             9            10 
      1  -0.646880D-01 -0.252038D+00 -0.711496D+00 -0.361210D+00 -0.138560D+01
      2   0.173439D+00 -0.159399D+00 -0.737347D+00  0.590601D-01  0.464384D+00
      3  -0.778305D+00  0.182479D-02  0.902216D-01 -0.785324D+00 -0.303959D-01
                11            12            13            14            15 
      1   0.157929D+01 -0.112282D+01  0.257170D+00  0.111777D+01  0.898193D+00
      2  -0.358990D+00 -0.372238D-01 -0.595025D-01 -0.805816D+00 -0.790379D-02
      3  -0.687957D-01 -0.787841D+00  0.341221D-01  0.389885D-01 -0.819511D+00
                16            17            18            19            20 
      1  -0.150510D+01 -0.177724D+01  0.721288D+00 -0.258323D+01 -0.350620D+00
      2  -0.616661D-01 -0.110443D+01  0.305138D-01  0.159551D+00 -0.920037D+00
      3  -0.794043D-02 -0.312369D-01 -0.939698D+00  0.562040D-01  0.339047D-01
                21            22            23            24            25 
      1  -0.525333D+00  0.990757D+00 -0.810320D+00 -0.365096D+00  0.192696D+00
      2   0.581922D-01 -0.282282D+00  0.434467D+00  0.120806D+00  0.126902D-01
      3  -0.961519D+00 -0.358502D-01  0.844766D-02  0.132640D+00  0.294595D-01
                26            27            28            29            30 
      1   0.820542D-01  0.923054D+00  0.139417D+00 -0.724881D-01 -0.435182D+00
      2   0.153377D+00 -0.107090D+00 -0.905402D-02  0.173873D+00  0.312972D+00
      3   0.468779D-01  0.652603D+00  0.595017D-03  0.457351D-01  0.612646D+00
                31            32            33            34            35 
      1   0.955412D-01 -0.360625D+00  0.136744D+00  0.177083D+00  0.136081D+00
      2   0.867644D-01  0.768306D+00 -0.271807D+00  0.943648D-01  0.516637D+00
      3  -0.199987D-01 -0.113370D+00  0.180183D+00 -0.165023D-01 -0.639242D-01
                36            37            38            39            40 
      1  -0.511695D-01  0.118525D+00  0.243275D-02  0.539500D-01  0.215204D+00
      2  -0.151038D+00 -0.272585D-02  0.128614D+00  0.159634D-01  0.988789D-01
      3   0.172043D+00 -0.151032D-01  0.116866D-01  0.656920D+00 -0.182529D-01
                41            42            43            44            45 
      1   0.440309D+00 -0.139379D+00  0.119431D+00  0.414499D-01  0.390721D+00
      2   0.619304D+00 -0.179549D+00  0.315150D-02  0.140620D+00  0.125930D+00
      3  -0.890251D-01  0.170072D+00 -0.382360D-02  0.135078D-01  0.631265D+00
                46            47            48            49            50 
      1   0.173454D+00 -0.715447D-01 -0.791125D+00  0.568452D-01 -0.667985D+00
      2  -0.159943D-01  0.126584D+00  0.159826D+00  0.705012D-01  0.661158D+00
      3  -0.248793D-01  0.119723D-01  0.652112D+00 -0.375043D-02 -0.578028D-01
                51            52            53            54            55 
      1   0.220114D+00 -0.369648D+00  0.352494D+00 -0.389611D+00  0.270954D+00
      2  -0.200490D+00 -0.331636D+00  0.312829D+00 -0.277822D+00  0.108246D+00
      3   0.161438D+00  0.278081D+00 -0.162818D+00  0.312841D+00  0.392499D-01
                56            57            58            59            60 
      1   0.761226D+00  0.886582D+00  0.136628D+01 -0.207383D+00 -0.798659D+00
      2   0.511864D+00  0.466268D+00  0.217314D+00  0.115596D+00 -0.149868D+00
      3   0.143878D+00  0.335912D+00 -0.302845D+00  0.432144D-01  0.275506D+00
                61            62            63            64            65 
      1   0.302272D+00  0.125506D+01  0.956722D-01  0.383456D+00 -0.476135D+00
      2   0.411729D-01  0.555143D+00  0.664357D-02 -0.155323D-01  0.179579D+00
      3   0.130740D-01  0.449253D-01  0.102637D+00  0.911957D-01 -0.195115D+00
                66            67            68            69 
      1   0.125100D+01  0.124583D+01 -0.601398D+00 -0.105929D+01
      2  -0.185139D+00 -0.146126D+00  0.177705D+00  0.154111D+00
      3   0.564039D+00 -0.149162D+00  0.104804D+00  0.266786D+00
 Hessian after L701:
                1             2             3             4             5 
      1  0.142611D+02
      2 -0.716836D-01  0.168595D+02
      3  0.903611D-01 -0.218372D+00  0.178440D+02
      4 -0.370836D+01 -0.190210D+01 -0.835376D+00  0.137829D+02
      5 -0.186698D+01 -0.497694D+01  0.496752D+00  0.472210D+00  0.178133D+02
      6 -0.841271D+00  0.502168D+00 -0.596937D+01 -0.564918D-01 -0.397585D-01
      7  0.376281D+00 -0.281879D-01  0.283131D-01 -0.260088D+01  0.969895D+00
      8 -0.147421D+00 -0.103758D+00  0.184776D-01  0.976363D+00 -0.591746D+01
      9 -0.363455D-01  0.334502D-01 -0.139843D+00  0.117212D+01  0.235350D+00
     10 -0.273766D+01  0.119515D+01  0.966471D+00  0.459681D+00 -0.107576D+00
     11  0.121849D+01 -0.570940D+01  0.322644D+00 -0.109528D+00 -0.817961D-01
     12  0.955625D+00  0.322990D+00 -0.580860D+01 -0.127231D+00  0.307069D-01
     13  0.246735D+00 -0.119926D+00 -0.302393D-01  0.372233D+00 -0.139314D+00
     14 -0.122774D+00 -0.869794D-01  0.189245D-01 -0.346190D-01 -0.966506D-01
     15 -0.303926D-01  0.181442D-01 -0.130290D+00  0.438761D-01  0.178841D-01
     16  0.867131D-01  0.295108D+00 -0.106513D+00  0.216861D+00  0.168026D+00
     17  0.265187D+00  0.180771D+00 -0.108437D+00  0.347736D-01 -0.145194D+00
     18 -0.294637D-01 -0.565322D-01 -0.169155D+00 -0.154337D-01 -0.601286D-02
     19  0.542118D-01 -0.842184D-02  0.795511D-02  0.271038D+00 -0.120326D-01
     20 -0.291581D-01 -0.478839D-01 -0.128902D-02 -0.398297D-02 -0.131935D+00
     21 -0.651302D-02  0.106162D-02 -0.502348D-01  0.439708D-01  0.232791D-02
     22 -0.929556D-01 -0.387531D-02 -0.137312D-01  0.165808D+00 -0.756102D-01
     23 -0.677032D-02  0.128589D+00  0.205783D-01 -0.982990D-01 -0.253330D-01
     24 -0.252108D-01  0.222329D-01  0.937115D-01 -0.256767D-01  0.724040D-02
     25 -0.700074D-02 -0.627007D-01 -0.119478D+00 -0.904065D-02  0.578997D-02
     26 -0.375776D-01  0.602557D-01 -0.432011D-01 -0.201671D-02 -0.471983D-02
     27 -0.786654D-01 -0.614371D-01  0.577638D-01  0.184221D-01  0.880844D-02
     28 -0.441556D+01  0.529508D-02  0.177506D-01  0.642751D-01  0.951314D-01
     29  0.195429D-01 -0.426443D+01  0.460101D+00  0.913064D-01  0.487028D-01
     30  0.774173D-01  0.374780D+00 -0.175919D+01  0.116115D+00 -0.128502D+00
     31 -0.431912D+01  0.333034D+00 -0.112340D+00  0.586445D-01  0.134535D+00
     32  0.424620D+00 -0.205974D+01 -0.786554D+00  0.105205D+00 -0.345203D-01
     33 -0.136792D+00 -0.756443D+00 -0.402982D+01  0.728163D-02 -0.502084D-01
     34  0.535174D-01  0.135913D+00  0.111265D-01 -0.463376D+01  0.486187D+00
     35  0.971075D-01 -0.267795D-01 -0.742322D-01  0.542595D+00 -0.219604D+01
     36  0.139731D-01 -0.682004D-01  0.103716D+00 -0.148986D+00 -0.696223D+00
     37  0.227782D-01  0.891524D-01  0.104572D+00 -0.452916D+01  0.155809D-01
     38  0.774289D-01  0.231617D-01 -0.905572D-01  0.150409D-01 -0.436968D+01
     39  0.846276D-01 -0.100899D+00  0.878907D-01 -0.449037D-01  0.255110D+00
     40  0.291779D-01  0.331626D-02  0.779187D-03 -0.272022D-01 -0.108836D+00
     41  0.248777D-01 -0.902542D-02  0.272560D-02 -0.756912D-01  0.647180D-01
     42 -0.148887D-01 -0.632249D-02 -0.234733D-01 -0.362762D-01 -0.542718D-01
     43  0.145067D-01 -0.119970D-02  0.151909D-01  0.120248D-02 -0.542090D-01
     44 -0.646096D-02 -0.220169D-01 -0.264147D-02 -0.430221D-01  0.655462D-01
     45  0.408497D-01  0.390042D-02  0.521939D-02 -0.850500D-01 -0.598781D-01
     46  0.154208D-01 -0.764825D-02 -0.959922D-02  0.170541D-01 -0.812745D-02
     47 -0.126944D-01 -0.934525D-02  0.402660D-02 -0.277425D-02 -0.191733D-01
     48 -0.278459D-01  0.299759D-02 -0.393742D-02 -0.391640D-01  0.162472D-01
     49  0.872648D-02 -0.124237D-01  0.892547D-03  0.166409D-01 -0.220544D-01
     50 -0.297938D-01  0.314200D-02 -0.531692D-02 -0.449796D-01  0.149828D-01
[...]
 ,0.02131538,-0.05424609,0.02869001,0.00004228,-0.00008428,-0.00005700,
 0.01290635,-0.00374760,0.01511041,0.00003849,-0.00013968,0.00002711,-0
 .00095599,0.00029613,0.00035259,-0.00000556,0.00000117,-0.00003283,-0.
 00001976,-0.00005377,0.00000785,-0.00009358,0.00001086,-0.00006898,-0.
 00015452,0.00041195,-0.00019861,-0.00142650,-0.00074279,0.00248263,0.0
 0070450,0.00027289,-0.00033503,-0.02630629,0.05714883,-0.00190251,0.00
 030453,0.00049208,-0.01345072,0.00377208,-0.02142735,-0.12002739,0.029
 40013,-0.20727234,0.00039968,0.00004127,0.00030486,0.00645587,-0.00113
 801,0.00689002,-0.00018202,0.00012721,0.00000275,0.00022395,-0.0003468
 1,0.00132478,0.00007792,0.00000334,-0.00004804,-0.00001487,0.00003149,
 -0.00002084,0.00003222,0.00003235,-0.00000154,0.00113599,-0.00049803,0
 .00019993,0.00326527,0.00245494,-0.00235281,0.00009895,0.00005047,0.00
 116930,0.12842446,-0.03467290,0.22817903,0.00081046,-0.00097931,-0.001
 04088,-0.00725558,-0.01609760,-0.00524539,-0.07283958,-0.07228028,-0.0
 2787545,-0.00007897,0.00019097,0.00015665,0.00695221,0.02533907,0.0104
 3430,0.00006124,-0.00003182,-0.00002418,0.00158770,0.00081799,-0.00068
 976,-0.00003397,0.00003880,0.00006454,0.00014195,0.00019090,-0.0000426
 6,-0.00017820,0.00045676,0.00059666,-0.00010052,-0.00001146,-0.0001315
 0,0.00069634,0.00070305,0.00006912,-0.00113659,-0.00116599,0.00325598,
 -0.00659496,-0.01735447,-0.00604985,0.08079551,0.00079102,0.00045895,-
 0.00063093,-0.00573165,-0.01455885,-0.00411857,-0.07168484,-0.24865811
 ,-0.07295387,0.00011786,0.00036407,0.00027494,-0.00498897,-0.01834405,
 -0.00685335,0.00001195,-0.00007791,-0.00001521,-0.00079470,0.00075735,
 0.00067316,-0.00005670,0.00001523,0.00007481,0.00022706,0.00007575,-0.
 00015500,-0.00055157,0.00066396,0.00031685,-0.00010475,-0.00002631,0.0
 0014704,0.00043079,0.00022792,0.00002363,-0.00108840,-0.00040569,0.002
 51369,0.00132473,0.00464220,0.00118224,0.07822883,0.27442396,-0.000788
 85,0.00078113,0.00110379,0.00953902,0.02299322,0.00713295,-0.02788332,
 -0.07347535,-0.07489632,-0.00002458,0.00017558,-0.00003534,-0.00249179
 ,-0.00815033,-0.00386216,-0.00003733,0.00000630,0.00002648,-0.00081153
 ,-0.00065858,0.00025011,-0.00004868,-0.00008548,-0.00000794,-0.0000718
 6,-0.00014958,-0.00006171,-0.00008399,-0.00045643,-0.00011417,0.000003
 18,-0.00019179,-0.00002807,-0.00076691,-0.00033382,0.00112676,0.003165
 76,0.00254020,-0.00297390,-0.00795030,-0.02333350,-0.00872924,0.025426
 97,0.07982448,0.08019676,-0.00003465,0.00016950,-0.00002145,0.00155832
 ,0.00091292,-0.00064129,0.00716458,0.02543519,0.01033151,0.00001416,-0
 .00012661,-0.00005627,-0.07341011,-0.07315959,-0.02795682,-0.00000325,
 0.00000132,0.00000099,-0.00677602,-0.01633220,-0.00522594,0.00001756,0
 .00001474,-0.00001992,-0.00003364,-0.00002589,0.00003241,-0.00005308,-
 0.00019169,-0.00008440,0.00001411,0.00003493,-0.00001412,-0.00002007,-
 0.00014896,0.00003988,-0.00020685,-0.00053208,-0.00009214,0.00121845,-
 0.00067203,-0.00052641,-0.00391165,0.00330751,0.00202336,0.08138525,0.
 00029475,0.00041694,0.00013724,-0.00096148,0.00042398,0.00065667,-0.00
 484016,-0.01847992,-0.00702350,0.00004045,-0.00000786,0.00000279,-0.07
 264544,-0.25295855,-0.07294213,0.00002844,-0.00000070,-0.00001222,-0.0
 0503053,-0.01282682,-0.00381058,0.00001524,0.00000188,-0.00001649,0.00
 003927,0.00002468,-0.00002043,-0.00021086,0.00016315,0.00017172,-0.000
 01897,-0.00005302,-0.00000167,0.00012232,-0.00002011,-0.00001445,0.000
 55793,0.00068471,-0.00051014,-0.00015670,0.00042944,0.00054116,0.00339
 283,-0.00101966,-0.00058407,0.07904712,0.27765715,0.00020078,0.0001710
 9,-0.00005143,-0.00087550,-0.00073730,0.00030227,-0.00240689,-0.008269
 49,-0.00390120,0.00001463,-0.00000266,0.00000038,-0.02812976,-0.073908
 81,-0.07477297,0.00002971,-0.00001210,-0.00001218,0.00922381,0.0241414
 8,0.00738481,0.00000117,0.00000676,-0.00000018,0.00003557,0.00001719,-
 0.00000728,-0.00006287,0.00015637,0.00005634,-0.00005667,0.00001383,-0
 .00000524,-0.00007129,-0.00005686,-0.00006808,0.00056299,0.00025405,-0
 .00005877,0.00030718,0.00060078,0.00046655,0.00204781,-0.00052766,0.00
 042924,0.02537748,0.07985657,0.08008670,0.00001302,0.00005882,0.000404
 76,0.00089472,0.00002409,-0.00186959,-0.01852430,0.00428212,-0.0209323
 4,0.00006023,-0.00000003,0.00006690,-0.13721097,0.02189621,-0.12227332
 ,-0.00008252,0.00002207,0.00000853,0.01109606,-0.00312194,0.01651183,0
 .00000558,0.00000203,0.00000088,-0.00000240,0.00000082,0.00000269,-0.0
 0001228,0.00001461,-0.00001625,0.00031575,-0.00017141,0.00009292,-0.00
 011320,-0.00022560,0.00113408,-0.00004990,-0.00002021,0.00002609,-0.00
 345312,0.00323389,0.00237246,0.00125425,-0.00016715,0.00031207,-0.0066
 5892,0.00126377,-0.00786966,0.15234012,-0.00005946,-0.00008813,-0.0000
 1681,-0.00084566,0.00019589,0.00046931,0.01308236,-0.00374368,0.015272
 01,-0.00007806,0.00001159,-0.00006184,0.02119013,-0.05473139,0.0285359
 8,0.00002499,0.00003128,-0.00000512,0.00864167,-0.00278290,0.01279200,
 -0.00000097,-0.00000773,0.00001223,-0.00000479,0.00000017,0.00000061,0
 .00002104,-0.00005468,-0.00000611,-0.00014018,0.00003539,-0.00003231,-
 0.00009023,0.00040425,-0.00037466,-0.00002555,-0.00000593,-0.00014610,
 0.00330681,-0.00148227,-0.00092273,-0.00067422,0.00042888,0.00059248,-
 0.01746392,0.00471314,-0.02347657,-0.02598757,0.05712474,0.00020830,-0
 .00018160,0.00035646,0.00022019,-0.00029616,0.00114021,0.00624134,-0.0
 0104966,0.00705588,-0.00007463,0.00004596,-0.00002928,-0.12203321,0.02
 939097,-0.20939721,-0.00001342,0.00001082,-0.00000346,-0.01344341,0.00
 368762,-0.02051032,-0.00002149,-0.00001354,0.00002556,0.00000060,-0.00
 000188,0.00000241,-0.00001785,0.00001087,-0.00001309,0.00008293,-0.000
 01290,-0.00019297,-0.00031627,-0.00015602,0.00014792,-0.00004253,0.000
 10430,-0.00003070,0.00225410,-0.00086023,0.00040126,-0.00051184,0.0005
 3213,0.00048353,-0.00603981,0.00097887,-0.00858962,0.13002952,-0.03410
 997,0.22991910,0.00070154,0.00016520,0.00127815,0.00019290,0.00005917,
 -0.00000216,-0.00000245,-0.00007476,-0.00004491,-0.00717314,-0.0136724
 6,-0.00669407,-0.00000266,0.00002381,-0.00000934,-0.09198986,-0.089111
 21,-0.04115096,0.00000756,-0.00001408,-0.00000158,-0.00009541,-0.00021
 204,0.00051270,-0.00075874,0.00127757,-0.00272569,0.00047964,0.0003623
 9,-0.00026196,-0.00007165,0.00015541,0.00022804,-0.00008684,0.00006257
 ,-0.00025902,-0.00009590,0.00002332,-0.00007784,0.00001270,0.00000736,
 -0.00001673,0.00000179,-0.00001252,0.00000859,-0.00000288,-0.00000331,
 -0.00000679,-0.00000053,0.00000484,0.00000256,0.09674695,0.00037834,0.
 00120705,0.00018383,-0.00000854,0.00004725,-0.00024477,-0.00000629,-0.
 00004038,0.00003157,0.00299310,0.00675955,0.00321507,-0.00001665,0.000
 01991,-0.00003865,-0.08942796,-0.22774808,-0.08456028,0.00001376,-0.00
 001305,0.00000437,-0.00034045,0.00054353,-0.00061793,0.00071182,0.0010
 3186,0.00212012,0.00013986,-0.00000844,-0.00068075,0.00016363,0.000172
 15,-0.00009304,0.00003874,-0.00021208,-0.00018642,0.00009048,0.0000202
 3,0.00013621,-0.00000004,0.00000475,0.00000771,0.00001152,0.00004375,-
 0.00002582,0.00000432,0.00000895,0.00001514,0.00001314,-0.00001512,0.0
 0000445,0.09850711,0.24541537,-0.00040024,-0.00185324,0.00155868,0.000
 14947,0.00009239,-0.00016313,0.00008218,-0.00001221,0.00003507,-0.0119
 3671,-0.02467888,-0.01336269,0.00000557,0.00000703,-0.00002105,-0.0409
 4709,-0.08418864,-0.08548049,0.00000298,0.00000025,-0.00000175,0.00032
 857,0.00033225,0.00104884,-0.00307475,0.00201573,-0.00477888,0.0005016
 3,0.00091934,-0.00012670,0.00004075,0.00027364,0.00052771,0.00014534,-
 0.00018326,-0.00004651,-0.00011376,0.00014864,0.00022426,-0.00001996,-
 0.00000795,0.00002447,0.00003438,0.00004653,-0.00003837,-0.00000501,0.
 00001240,0.00001165,0.00000808,-0.00000698,0.00000247,0.04898053,0.092
 23502,0.09421846,-0.00000154,-0.00048274,0.00021291,-0.00069824,-0.000
 04770,0.00027301,0.00035544,-0.00018861,0.00011463,-0.01207727,0.01023
 915,0.00180288,0.00005207,0.00003706,-0.00003898,-0.18571493,0.1310266
 9,0.02791695,0.00000997,-0.00001455,-0.00000549,-0.00031504,0.00025628
 ,-0.00329244,0.00021511,-0.00035602,0.00027940,0.00003532,-0.00002273,
 -0.00001462,0.00003674,0.00002840,-0.00006101,-0.00011173,-0.00053643,
 0.00171564,-0.00001504,0.00007898,-0.00025154,-0.00006523,-0.00004762,
 0.00010666,-0.00002677,-0.00003371,0.00001962,-0.00000198,-0.00000824,
 -0.00001332,0.00000122,0.00000348,-0.00000364,0.01103178,-0.00978698,-
 0.00180959,0.20250675,0.00074762,-0.00030000,-0.00043876,0.00092504,0.
 00023058,0.00050133,-0.00051804,0.00003083,-0.00027200,0.00374988,-0.0
 0440704,-0.00077704,-0.00001999,0.00003204,0.00006259,0.13084648,-0.17
 181050,-0.02625294,-0.00000912,-0.00001667,-0.00000597,0.00017630,0.00
 111631,0.00120386,-0.00038149,0.00071469,0.00037674,0.00002000,0.00002
 905,0.00003963,-0.00020192,0.00012716,0.00010783,-0.00087714,0.0001308
 4,-0.00006936,-0.00010640,-0.00020686,0.00000820,0.00010124,0.00009943
 ,-0.00020087,0.00003437,0.00001251,0.00001930,-0.00000643,-0.00000565,
 -0.00000456,-0.00003874,0.00000356,0.00000078,0.01982977,-0.01773544,-
 0.00370928,-0.14477970,0.18281204,0.00000485,-0.00013943,0.00135931,0.
 00075566,0.00030127,-0.00016197,0.00008435,-0.00009663,-0.00002941,-0.
 02246750,0.02098528,0.00521292,0.00003708,-0.00003767,0.00000511,0.028
 69852,-0.02738258,-0.05236379,-0.00001544,0.00001796,-0.00000793,-0.00
 287622,0.00168571,-0.00523886,0.00063766,-0.00051928,0.00151555,0.0000
 5983,0.00001729,-0.00010660,0.00010362,-0.00028026,0.00010520,0.001097
 24,0.00055184,-0.00153668,-0.00006444,-0.00029293,-0.00013508,-0.00005
 809,-0.00000849,0.00007056,-0.00006260,-0.00005694,0.00004394,0.000003
 45,-0.00000302,-0.00001239,0.00000529,0.00000584,-0.00000569,0.0093687
 0,-0.00735642,-0.00284517,-0.02970845,0.02825532,0.05764657,-0.0017875
 8,0.00051409,-0.00278941,-0.00061803,0.00009042,-0.00027444,0.00034382
 ,-0.00008241,0.00010494,0.01186285,0.00750565,-0.01233752,0.00003200,-
 0.00001239,-0.00002751,-0.16254539,-0.06588346,0.11784513,0.00000488,0
 .00000803,0.00000138,0.00095663,-0.00009775,0.00072544,0.00042533,-0.0
 0031738,0.00082526,-0.00006751,0.00013587,-0.00000452,0.00047665,0.000
 46902,-0.00073152,0.00050217,-0.00011135,0.00026784,0.00005276,0.00000
 442,0.00003073,-0.00006923,-0.00005772,0.00014046,-0.00002991,-0.00000
 414,-0.00000391,0.00000298,0.00000255,-0.00000031,0.00002798,-0.000005
 81,-0.00000229,-0.00890088,-0.00348608,0.00802683,-0.01521740,-0.00950
 793,0.01440978,0.17455946,0.00161359,0.00020556,0.00149586,0.00055929,
 0.00007961,0.00000403,-0.00024040,0.00006178,-0.00008374,-0.00450968,-
 0.00384084,0.00389368,-0.00001354,-0.00001754,0.00002110,-0.06531710,-
 0.08383385,0.06529612,-0.00001206,0.00000825,-0.00000245,-0.00016841,-
 0.00012386,-0.00008443,0.00035316,0.00025539,-0.00010772,0.00024536,0.
 00044902,-0.00027250,-0.00035460,0.00006860,0.00066287,-0.00027940,-0.
 00007174,-0.00030857,-0.00003009,-0.00000075,0.00010573,0.00005195,0.0
 0004659,-0.00008642,0.00002301,0.00002367,-0.00001984,-0.00000093,0.00
 000422,0.00000620,-0.00001492,-0.00000208,0.00000031,-0.01738108,-0.00
 951163,0.01855494,0.01463448,0.00913328,-0.01563847,0.07084104,0.08706
 580,-0.00471374,0.00014885,-0.00395878,-0.00054718,0.00037262,0.000278
 30,0.00005847,-0.00014301,-0.00005984,0.01969276,0.01057174,-0.0180437
 7,-0.00000294,0.00008329,-0.00001188,0.11665753,0.06522246,-0.16399296
 ,0.00002821,-0.00004213,0.00000255,-0.00000597,0.00014870,0.00140829,0
 .00028764,-0.00077166,0.00051304,-0.00005672,0.00008604,0.00018696,0.0
 0108398,0.00086951,-0.00122096,0.00000247,-0.00006364,0.00007090,0.000
 02486,-0.00007601,-0.00000989,0.00003803,-0.00000131,0.00004463,-0.000
 00799,0.00001867,0.00000148,-0.00000014,-0.00001179,-0.00000515,0.0000
 2260,-0.00001334,0.00000580,-0.00912283,-0.00414293,0.00920963,0.00276
 166,0.00116949,-0.00353357,-0.12621773,-0.07344030,0.17913603,-0.00001
 785,0.00005981,-0.00012257,0.00010414,-0.00018401,0.00022923,0.0018093
 8,-0.00035279,0.00044638,0.00001677,-0.00003117,-0.00000509,0.01049686
 ,-0.00202164,0.01569071,0.00001167,-0.00000008,-0.00000039,-0.13626267
 ,0.02189622,-0.12463776,0.00001471,0.00000234,-0.00001343,-0.00000177,
 0.00000418,0.00000131,0.00000114,-0.00000368,-0.00000231,-0.00003243,0
 .00002161,0.00000780,-0.00016884,0.00004567,-0.00010035,0.00001115,0.0
 0000194,-0.00000832,-0.00011770,-0.00007255,-0.00046637,-0.00005599,0.
 00010313,-0.00007846,0.00078141,0.00051114,-0.00079681,-0.00131143,-0.
 00153165,0.00343795,-0.00000235,-0.00000058,0.00000151,-0.00000125,-0.
 00000118,0.00000336,0.00000119,0.00000317,-0.00000719,0.14589728,-0.00
 003563,-0.00000913,-0.00006125,0.00002549,-0.00004953,-0.00008242,0.00
 034089,0.00013214,-0.00083423,0.00001235,0.00001226,0.00000168,0.00940
 883,-0.00299428,0.01364570,-0.00000163,-0.00001312,0.00000332,0.021604
 46,-0.05249290,0.02877322,-0.00000619,0.00000112,0.00000415,-0.0000015
 3,-0.00000743,0.00000085,0.00000131,-0.00000057,-0.00000419,-0.0000119
 6,0.00001867,0.00001468,0.00003139,-0.00000751,-0.00010747,-0.00001202
 ,-0.00005436,0.00002657,-0.00022813,0.00039606,-0.00014173,-0.00012494
 ,-0.00000455,-0.00006178,0.00069324,0.00014463,-0.00035905,-0.00208405
 ,-0.00070037,0.00245014,0.00000054,0.00000012,-0.00000282,0.00000152,0
 .00000688,-0.00000308,-0.00000440,0.00000019,0.00000602,-0.02237283,0.
 05342289,0.00005405,0.00001652,0.00002819,0.00038785,-0.00000623,0.000
 23045,-0.00175192,-0.00000691,0.00070277,0.00001193,-0.00001510,0.0000
 0563,-0.01389059,0.00348411,-0.02088632,-0.00001660,0.00000770,0.00000
 110,-0.12369416,0.02897560,-0.21825952,0.00001051,-0.00000143,-0.00000
 784,-0.00000193,0.00000530,0.00000053,-0.00000203,-0.00000387,-0.00000
 598,0.00006565,-0.00002273,-0.00000498,-0.00007791,-0.00010874,0.00032
 520,-0.00003025,0.00001301,-0.00001978,0.00106874,-0.00038310,0.000077
 27,0.00004796,-0.00001304,-0.00006646,0.00006098,0.00002014,0.00109415
 ,0.00347262,0.00246590,-0.00235143,-0.00000129,0.00000425,0.00000380,-
 0.00000062,-0.00001073,0.00000235,0.00000662,-0.00000081,0.00000100,0.
 13422093,-0.03500101,0.23914605,0.00001284,0.00005104,0.00001747,-0.00
 004695,0.00015526,0.00022296,0.00074428,-0.00107138,-0.00129015,0.0000
 0388,-0.00000146,0.00000386,-0.00687352,-0.01557070,-0.00544181,0.0000
 0986,-0.00000419,-0.00000342,-0.07685811,-0.07785481,-0.02816936,0.000
 00051,-0.00000098,-0.00000414,0.00000874,0.00000746,-0.00000504,-0.000
 02569,0.00003454,0.00003648,-0.00001326,-0.00000577,-0.00000306,0.0000
 0548,-0.00000663,-0.00004432,0.00012356,0.00020844,-0.00006672,-0.0000
 6846,-0.00000913,-0.00004072,-0.00017661,0.00051570,0.00052290,-0.0010
 7840,-0.00127751,0.00304864,0.00063234,0.00072346,-0.00002767,-0.00000
 040,0.00000163,0.00000404,-0.00000299,0.00000145,0.00000058,0.00000056
 ,0.00000256,-0.00000396,-0.00675100,-0.01735081,-0.00530112,0.08045344
 ,-0.00000290,-0.00002085,0.00005832,0.00010493,0.00039082,0.00017132,0
 .00088178,0.00071275,-0.00051841,-0.00000884,0.00002297,-0.00000855,-0
 .00524585,-0.01441996,-0.00418317,-0.00000257,-0.00001672,-0.00000200,
 -0.07824335,-0.25735975,-0.07433731,-0.00001679,-0.00000260,0.00001299
 ,0.00000833,-0.00000095,0.00000151,-0.00002369,0.00002388,0.00002177,-
 0.00000315,-0.00000052,-0.00000339,-0.00000059,-0.00004712,0.00001134,
 0.00020120,0.00007447,-0.00015501,-0.00004519,-0.00002116,0.00009337,-
 0.00063095,0.00061027,0.00026364,-0.00124847,0.00004147,0.00289574,0.0
 0044785,0.00021458,0.00013448,0.00000168,0.00000956,0.00000292,-0.0000
 0350,0.00000412,-0.00000741,-0.00000367,0.00000011,0.00000845,0.001886
 46,0.00518610,0.00141225,0.08819992,0.28012405,-0.00006338,-0.00012355
 ,0.00000011,-0.00003451,0.00019607,-0.00005077,-0.00090286,0.00083210,
 0.00122383,-0.00002288,0.00001985,0.00000682,0.00951120,0.02372312,0.0
 0785684,-0.00000371,0.00000248,0.00000169,-0.02860913,-0.07510011,-0.0
 7299890,-0.00000785,-0.00000255,0.00000795,-0.00000473,-0.00000021,0.0
 0000002,0.00003718,-0.00002724,-0.00001001,-0.00000011,-0.00000267,-0.
 00000435,-0.00000897,0.00003501,-0.00001590,-0.00007571,-0.00016795,-0
 .00004632,0.00000873,-0.00017588,-0.00004105,-0.00013964,-0.00056502,-
 0.00006618,0.00336172,0.00245166,-0.00330853,-0.00082141,-0.00031916,0
 .00116462,0.00000270,-0.00000359,-0.00000240,0.00000188,0.00000340,0.0
 0000134,-0.00000194,-0.00000158,0.00000092,-0.00731971,-0.02385567,-0.
 00815651,0.02828806,0.07953257,0.07811189,-0.00009175,-0.00039027,0.00
 030035,-0.00044521,0.00121303,0.00007789,-0.00065302,-0.00322049,0.002
 90043,-0.00008491,0.00016771,-0.00000944,-0.01270785,0.00956493,0.0026
 8473,-0.00002962,-0.00002148,-0.00000320,-0.21356850,0.11852411,0.0558
 4376,-0.00006177,-0.00002173,0.00006362,0.00000470,-0.00001775,-0.0000
 0295,0.00001132,0.00001884,0.00000982,0.00000580,0.00000187,-0.0000236
 6,-0.00000076,-0.00002692,0.00010186,-0.00003090,-0.00005480,-0.000059
 71,0.00046173,-0.00021244,-0.00005628,0.00011785,0.00016054,0.00002003
 ,0.00003467,-0.00016260,-0.00055988,0.00077829,-0.00009072,0.00007057,
 0.00000883,0.00000612,-0.00000474,0.00000502,0.00001594,-0.00001723,-0
 .00001333,-0.00000539,0.00002817,-0.01442242,0.01011410,0.00536060,0.0
 0989991,-0.00625263,-0.00319492,0.23078193,-0.00013082,-0.00020707,0.0
 0022917,-0.00062703,0.00080693,0.00039266,-0.00108212,-0.00149366,0.00
 206699,-0.00007002,0.00007217,0.00001719,-0.01428206,0.00977428,0.0040
 4178,-0.00000435,0.00000203,-0.00000742,0.11940493,-0.13200733,-0.0405
 6868,-0.00002398,-0.00001474,0.00002125,-0.00000075,-0.00000150,-0.000
 00395,0.00001445,0.00000238,0.00001110,0.00000095,-0.00001072,-0.00001
 417,0.00002727,0.00001747,-0.00001032,0.00004601,0.00002726,-0.0001043
 3,-0.00004068,-0.00015792,-0.00003479,-0.00007709,0.00034664,0.0003300
 3,0.00028801,0.00065796,-0.00078015,0.00057222,0.00045080,-0.00066977,
 0.00000074,0.00000017,0.00000217,0.00000248,-0.00000119,0.00000210,0.0
 0000340,0.00000022,0.00000029,0.00203649,-0.00298728,-0.00083111,0.023
 25193,-0.01552553,-0.00645109,-0.12930997,0.14024863,0.00016231,0.0004
 5387,-0.00040286,0.00128088,-0.00112178,0.00028612,0.00145921,0.003821
 77,-0.00350858,0.00011913,-0.00018702,-0.00000493,0.01871861,-0.015433
 73,-0.00645411,0.00002642,0.00001198,0.00000617,0.05523647,-0.03982948
 ,-0.06575840,0.00006502,0.00002472,-0.00007106,-0.00000760,0.00001234,
 0.00000378,-0.00001588,-0.00002136,-0.00000632,-0.00000142,0.00001085,
 0.00002373,-0.00010766,-0.00005431,0.00000606,0.00005743,0.00006927,-0
 .00000130,0.00031595,-0.00002099,0.00024572,-0.00031263,0.00026144,0.0
 0008482,-0.00054805,0.00012126,0.00096093,-0.00068876,-0.00065467,0.00
 041855,-0.00000682,-0.00000713,0.00000210,-0.00000554,-0.00000695,0.00
 001431,0.00000669,0.00000597,-0.00002274,-0.02048042,0.01558833,0.0081
 4036,0.00825648,-0.00540543,-0.00367512,-0.06352981,0.04236104,0.06971
 278\\0.00000068,0.00000086,0.00000085,-0.00000016,0.00000009,-0.000000
 27,0.00000013,0.00000038,0.00000023,0.00000014,0.00000071,0.00000043,-
 0.00000073,-0.00000037,-0.00000075,0.00000012,-0.00000108,0.,-0.000000
 33,-0.00000008,-0.00000037,0.00000092,0.00000129,0.00000118,-0.0000007
 3,0.00000150,-0.00000038,0.00000165,0.00000008,0.00000169,0.00000072,0
 .00000220,0.00000130,-0.00000019,-0.00000133,-0.00000052,-0.00000122,0
 .00000075,-0.00000104,0.00000013,0.00000179,0.00000056,0.00000115,-0.0
 0000026,0.00000110,-0.00000171,0.00000029,-0.00000165,-0.00000068,-0.0
 0000176,-0.00000112,0.00000119,-0.00000207,0.00000070,-0.00000042,-0.0
 0000187,-0.00000098,0.00000004,-0.00000122,-0.00000027,-0.00000038,0.0
 0000134,-0.00000007,0.00000065,-0.00000069,0.00000048,-0.00000097,-0.0
 0000056,-0.00000109\\\@


 THERE'S SMALL CHOICE IN A BOWL OF ROTTEN APPLES.
                     SHAKESPEARE
 Job cpu time:       0 days  6 hours 50 minutes  4.4 seconds.
 Elapsed time:       0 days  3 hours 25 minutes 10.4 seconds.
 File lengths (MBytes):  RWF=   1488 Int=      0 D2E=      0 Chk=     32 Scr=     32
 Normal termination of Gaussian 16 at Sun Sep 29 07:28:23 2019.
