 Entering Gaussian System, Link 0=g16
 Input=tight/species/CCCCCCC/conformers/CCCCCCC_877.com
 Output=tight/species/CCCCCCC/conformers/CCCCCCC_877.log
 Initial command:
 /shared/centos7/gaussian/g16/l1.exe "/scratch/harms.n/gauss_scrdir/Gau-39426.inp" -scrdir="/scratch/harms.n/gauss_scrdir/"
 Entering Link 1 = /shared/centos7/gaussian/g16/l1.exe PID=     39427.
  
 Copyright (c) 1988,1990,1992,1993,1995,1998,2003,2009,2016,
            Gaussian, Inc.  All Rights Reserved.
  
 This is part of the Gaussian(R) 16 program.  It is based on
 the Gaussian(R) 09 system (copyright 2009, Gaussian, Inc.),
 the Gaussian(R) 03 system (copyright 2003, Gaussian, Inc.),
 the Gaussian(R) 98 system (copyright 1998, Gaussian, Inc.),
 the Gaussian(R) 94 system (copyright 1995, Gaussian, Inc.),
 the Gaussian 92(TM) system (copyright 1992, Gaussian, Inc.),
 the Gaussian 90(TM) system (copyright 1990, Gaussian, Inc.),
 the Gaussian 88(TM) system (copyright 1988, Gaussian, Inc.),
 the Gaussian 86(TM) system (copyright 1986, Carnegie Mellon
 University), and the Gaussian 82(TM) system (copyright 1983,
 Carnegie Mellon University). Gaussian is a federally registered
 trademark of Gaussian, Inc.
  
 This software contains proprietary and confidential information,
 including trade secrets, belonging to Gaussian, Inc.
  
 This software is provided under written license and may be
 used, copied, transmitted, or stored only in accord with that
 written license.
  
 The following legend is applicable only to US Government
 contracts under FAR:
  
                    RESTRICTED RIGHTS LEGEND
  
 Use, reproduction and disclosure by the US Government is
 subject to restrictions as set forth in subparagraphs (a)
 and (c) of the Commercial Computer Software - Restricted
 Rights clause in FAR 52.227-19.
  
 Gaussian, Inc.
 340 Quinnipiac St., Bldg. 40, Wallingford CT 06492
  
  
 ---------------------------------------------------------------
 Warning -- This program may not be used in any manner that
 competes with the business of Gaussian, Inc. or will provide
 assistance to any competitor of Gaussian, Inc.  The licensee
 of this program is prohibited from giving any competitor of
 Gaussian, Inc. access to this program.  By using this program,
 the user acknowledges that Gaussian, Inc. is engaged in the
 business of creating and licensing software in the field of
 computational chemistry and represents and warrants to the
 licensee that it is not a competitor of Gaussian, Inc. and that
 it will not use this program in any manner prohibited above.
 ---------------------------------------------------------------
  

 Cite this work as:
 Gaussian 16, Revision A.03,
 M. J. Frisch, G. W. Trucks, H. B. Schlegel, G. E. Scuseria, 
 M. A. Robb, J. R. Cheeseman, G. Scalmani, V. Barone, 
 G. A. Petersson, H. Nakatsuji, X. Li, M. Caricato, A. V. Marenich, 
 J. Bloino, B. G. Janesko, R. Gomperts, B. Mennucci, H. P. Hratchian, 
 J. V. Ortiz, A. F. Izmaylov, J. L. Sonnenberg, D. Williams-Young, 
 F. Ding, F. Lipparini, F. Egidi, J. Goings, B. Peng, A. Petrone, 
 T. Henderson, D. Ranasinghe, V. G. Zakrzewski, J. Gao, N. Rega, 
 G. Zheng, W. Liang, M. Hada, M. Ehara, K. Toyota, R. Fukuda, 
 J. Hasegawa, M. Ishida, T. Nakajima, Y. Honda, O. Kitao, H. Nakai, 
 T. Vreven, K. Throssell, J. A. Montgomery, Jr., J. E. Peralta, 
 F. Ogliaro, M. J. Bearpark, J. J. Heyd, E. N. Brothers, K. N. Kudin, 
 V. N. Staroverov, T. A. Keith, R. Kobayashi, J. Normand, 
 K. Raghavachari, A. P. Rendell, J. C. Burant, S. S. Iyengar, 
 J. Tomasi, M. Cossi, J. M. Millam, M. Klene, C. Adamo, R. Cammi, 
 J. W. Ochterski, R. L. Martin, K. Morokuma, O. Farkas, 
 J. B. Foresman, and D. J. Fox, Gaussian, Inc., Wallingford CT, 2016.
 
 ******************************************
 Gaussian 16:  EM64L-G16RevA.03 25-Dec-2016
                28-Sep-2019 
 ******************************************
 %nprocshared=20
 Will use up to   20 processors via shared memory.
 %mem=5GB
 ----------------------------------------------------------------------
 #p m062x/cc-pVTZ opt=(calcfc,maxcycles=900,Tight) freq IOP(7/33=1,2/16
 =3) scf=(maxcycle=900)
 ----------------------------------------------------------------------
 1/6=900,7=10,10=4,18=20,19=15,26=3,38=1/1,3;
 2/9=110,12=2,16=3,17=6,18=5,40=1/2;
 3/5=16,6=1,11=2,25=1,30=1,71=2,74=-55,140=1/1,2,3;
 4//1;
 5/5=2,7=900,38=5/2;
 8/6=4,10=90,11=11/1;
 11/6=1,8=1,9=11,15=111,16=1/1,2,10;
 10/6=1,13=1/2;
 6/7=2,8=2,9=2,10=2,28=1/1;
 7/10=1,18=20,25=1,33=1/1,2,3,16;
 1/6=900,7=10,10=4,18=20,19=15,26=3/3(2);
 2/9=110,16=3/2;
 99//99;
 2/9=110,16=3/2;
 3/5=16,6=1,11=2,25=1,30=1,71=1,74=-55/1,2,3;
 4/5=5,16=3,69=1/1;
 5/5=2,7=900,38=5/2;
 7/33=1/1,2,3,16;
 1/6=900,7=10,18=20,19=15,26=3/3(-5);
 2/9=110,16=3/2;
 6/7=2,8=2,9=2,10=2,19=2,28=1/1;
 99/9=1/99;
 Leave Link    1 at Sat Sep 28 18:37:27 2019, MaxMem=   671088640 cpu:               4.5 elap:               2.3
 (Enter /shared/centos7/gaussian/g16/l101.exe)
 ------------------------------
 Gaussian input prepared by ASE
 ------------------------------
 Symbolic Z-matrix:
 Charge =  0 Multiplicity = 1
 C                     1.39013  -1.13596   0.50237 
 C                     0.17493  -0.3916    0.93962 
 C                     0.13137  -0.10022   2.41887 
 C                     2.14195  -0.50204  -0.61921 
 C                     0.16405  -1.35595   3.25777 
 C                     3.52616  -0.11847  -0.29297 
 C                    -0.99863  -2.27764   2.99589 
 H                     1.57886   0.4047   -0.9796 
 H                     2.14435  -1.19459  -1.4945 
 H                     1.09615  -2.16547   0.20696 
 H                     2.0714   -1.2721    1.36723 
 H                    -0.72577  -0.96889   0.67854 
 H                     0.09086   0.56728   0.38577 
 H                    -0.78168   0.47594   2.6458 
 H                     0.98736   0.54731   2.70019 
 H                     1.12017  -1.89924   3.03824 
 H                     0.19581  -1.08834   4.32765 
 H                     3.77522  -0.34394   0.76107 
 H                     4.27539  -0.66992  -0.93491 
 H                     3.70081   0.9675   -0.44675 
 H                    -1.29296  -2.24117   1.94632 
 H                    -1.89128  -1.99361   3.61908 
 H                    -0.73134  -3.34289   3.25219 
 
 ITRead=  0  0  0  0  0  0  0  0  0  0  0  0  0  0  0  0  0  0  0  0
 ITRead=  0  0  0
 MicOpt= -1 -1 -1 -1 -1 -1 -1 -1 -1 -1 -1 -1 -1 -1 -1 -1 -1 -1 -1 -1
 MicOpt= -1 -1 -1
 NAtoms=     23 NQM=       23 NQMF=       0 NMMI=      0 NMMIF=      0
                NMic=       0 NMicF=      0.
                    Isotopes and Nuclear Properties:
 (Nuclear quadrupole moments (NQMom) in fm**2, nuclear magnetic moments (NMagM)
  in nuclear magnetons)

  Atom         1           2           3           4           5           6           7           8           9          10
 IAtWgt=          12          12          12          12          12          12          12           1           1           1
 AtmWgt=  12.0000000  12.0000000  12.0000000  12.0000000  12.0000000  12.0000000  12.0000000   1.0078250   1.0078250   1.0078250
 NucSpn=           0           0           0           0           0           0           0           1           1           1
 AtZEff=  -0.0000000  -0.0000000  -0.0000000  -0.0000000  -0.0000000  -0.0000000  -0.0000000  -0.0000000  -0.0000000  -0.0000000
 NQMom=    0.0000000   0.0000000   0.0000000   0.0000000   0.0000000   0.0000000   0.0000000   0.0000000   0.0000000   0.0000000
 NMagM=    0.0000000   0.0000000   0.0000000   0.0000000   0.0000000   0.0000000   0.0000000   2.7928460   2.7928460   2.7928460
 AtZNuc=   6.0000000   6.0000000   6.0000000   6.0000000   6.0000000   6.0000000   6.0000000   1.0000000   1.0000000   1.0000000

  Atom        11          12          13          14          15          16          17          18          19          20
 IAtWgt=           1           1           1           1           1           1           1           1           1           1
 AtmWgt=   1.0078250   1.0078250   1.0078250   1.0078250   1.0078250   1.0078250   1.0078250   1.0078250   1.0078250   1.0078250
 NucSpn=           1           1           1           1           1           1           1           1           1           1
 AtZEff=  -0.0000000  -0.0000000  -0.0000000  -0.0000000  -0.0000000  -0.0000000  -0.0000000  -0.0000000  -0.0000000  -0.0000000
 NQMom=    0.0000000   0.0000000   0.0000000   0.0000000   0.0000000   0.0000000   0.0000000   0.0000000   0.0000000   0.0000000
 NMagM=    2.7928460   2.7928460   2.7928460   2.7928460   2.7928460   2.7928460   2.7928460   2.7928460   2.7928460   2.7928460
 AtZNuc=   1.0000000   1.0000000   1.0000000   1.0000000   1.0000000   1.0000000   1.0000000   1.0000000   1.0000000   1.0000000

  Atom        21          22          23
 IAtWgt=           1           1           1
 AtmWgt=   1.0078250   1.0078250   1.0078250
 NucSpn=           1           1           1
 AtZEff=  -0.0000000  -0.0000000  -0.0000000
 NQMom=    0.0000000   0.0000000   0.0000000
 NMagM=    2.7928460   2.7928460   2.7928460
 AtZNuc=   1.0000000   1.0000000   1.0000000
 Leave Link  101 at Sat Sep 28 18:37:31 2019, MaxMem=   671088640 cpu:               7.4 elap:               3.7
 (Enter /shared/centos7/gaussian/g16/l103.exe)

 GradGradGradGradGradGradGradGradGradGradGradGradGradGradGradGradGradGrad
 Berny optimization.
 Initialization pass.
                           ----------------------------
                           !    Initial Parameters    !
                           ! (Angstroms and Degrees)  !
 --------------------------                            --------------------------
 ! Name  Definition              Value          Derivative Info.                !
 --------------------------------------------------------------------------------
 ! R1    R(1,2)                  1.4906         calculate D2E/DX2 analytically  !
 ! R2    R(1,4)                  1.4917         calculate D2E/DX2 analytically  !
 ! R3    R(1,10)                 1.1107         calculate D2E/DX2 analytically  !
 ! R4    R(1,11)                 1.1093         calculate D2E/DX2 analytically  !
 ! R5    R(2,3)                  1.5083         calculate D2E/DX2 analytically  !
 ! R6    R(2,12)                 1.1012         calculate D2E/DX2 analytically  !
 ! R7    R(2,13)                 1.1105         calculate D2E/DX2 analytically  !
 ! R8    R(3,5)                  1.5105         calculate D2E/DX2 analytically  !
 ! R9    R(3,14)                 1.1032         calculate D2E/DX2 analytically  !
 ! R10   R(3,15)                 1.1096         calculate D2E/DX2 analytically  !
 ! R11   R(4,6)                  1.473          calculate D2E/DX2 analytically  !
 ! R12   R(4,8)                  1.1266         calculate D2E/DX2 analytically  !
 ! R13   R(4,9)                  1.1161         calculate D2E/DX2 analytically  !
 ! R14   R(5,7)                  1.5066         calculate D2E/DX2 analytically  !
 ! R15   R(5,16)                 1.1214         calculate D2E/DX2 analytically  !
 ! R16   R(5,17)                 1.1033         calculate D2E/DX2 analytically  !
 ! R17   R(6,18)                 1.1063         calculate D2E/DX2 analytically  !
 ! R18   R(6,19)                 1.1303         calculate D2E/DX2 analytically  !
 ! R19   R(6,20)                 1.1106         calculate D2E/DX2 analytically  !
 ! R20   R(7,21)                 1.0907         calculate D2E/DX2 analytically  !
 ! R21   R(7,22)                 1.1251         calculate D2E/DX2 analytically  !
 ! R22   R(7,23)                 1.1278         calculate D2E/DX2 analytically  !
 ! A1    A(2,1,4)              114.7862         calculate D2E/DX2 analytically  !
 ! A2    A(2,1,10)             108.9723         calculate D2E/DX2 analytically  !
 ! A3    A(2,1,11)             109.4655         calculate D2E/DX2 analytically  !
 ! A4    A(4,1,10)             109.1078         calculate D2E/DX2 analytically  !
 ! A5    A(4,1,11)             109.1974         calculate D2E/DX2 analytically  !
 ! A6    A(10,1,11)            104.8415         calculate D2E/DX2 analytically  !
 ! A7    A(1,2,3)              114.0603         calculate D2E/DX2 analytically  !
 ! A8    A(1,2,12)             109.6006         calculate D2E/DX2 analytically  !
 ! A9    A(1,2,13)             110.2791         calculate D2E/DX2 analytically  !
 ! A10   A(3,2,12)             108.0691         calculate D2E/DX2 analytically  !
 ! A11   A(3,2,13)             108.671          calculate D2E/DX2 analytically  !
 ! A12   A(12,2,13)            105.8118         calculate D2E/DX2 analytically  !
 ! A13   A(2,3,5)              112.5476         calculate D2E/DX2 analytically  !
 ! A14   A(2,3,14)             109.0583         calculate D2E/DX2 analytically  !
 ! A15   A(2,3,15)             109.8228         calculate D2E/DX2 analytically  !
 ! A16   A(5,3,14)             109.7443         calculate D2E/DX2 analytically  !
 ! A17   A(5,3,15)             109.1258         calculate D2E/DX2 analytically  !
 ! A18   A(14,3,15)            106.3525         calculate D2E/DX2 analytically  !
 ! A19   A(1,4,6)              114.6947         calculate D2E/DX2 analytically  !
 ! A20   A(1,4,8)              109.3089         calculate D2E/DX2 analytically  !
 ! A21   A(1,4,9)              109.0893         calculate D2E/DX2 analytically  !
 ! A22   A(6,4,8)              109.3278         calculate D2E/DX2 analytically  !
 ! A23   A(6,4,9)              109.4667         calculate D2E/DX2 analytically  !
 ! A24   A(8,4,9)              104.4552         calculate D2E/DX2 analytically  !
 ! A25   A(3,5,7)              113.2868         calculate D2E/DX2 analytically  !
 ! A26   A(3,5,16)             108.209          calculate D2E/DX2 analytically  !
 ! A27   A(3,5,17)             109.7263         calculate D2E/DX2 analytically  !
 ! A28   A(7,5,16)             109.1212         calculate D2E/DX2 analytically  !
 ! A29   A(7,5,17)             109.8249         calculate D2E/DX2 analytically  !
 ! A30   A(16,5,17)            106.4282         calculate D2E/DX2 analytically  !
 ! A31   A(4,6,18)             111.6863         calculate D2E/DX2 analytically  !
 ! A32   A(4,6,19)             111.721          calculate D2E/DX2 analytically  !
 ! A33   A(4,6,20)             111.823          calculate D2E/DX2 analytically  !
 ! A34   A(18,6,19)            107.0052         calculate D2E/DX2 analytically  !
 ! A35   A(18,6,20)            107.2054         calculate D2E/DX2 analytically  !
 ! A36   A(19,6,20)            107.1087         calculate D2E/DX2 analytically  !
 ! A37   A(5,7,21)             110.7977         calculate D2E/DX2 analytically  !
 ! A38   A(5,7,22)             111.1959         calculate D2E/DX2 analytically  !
 ! A39   A(5,7,23)             110.8199         calculate D2E/DX2 analytically  !
 ! A40   A(21,7,22)            108.0874         calculate D2E/DX2 analytically  !
 ! A41   A(21,7,23)            108.3149         calculate D2E/DX2 analytically  !
 ! A42   A(22,7,23)            107.4949         calculate D2E/DX2 analytically  !
 ! D1    D(4,1,2,3)           -127.0048         calculate D2E/DX2 analytically  !
 ! D2    D(4,1,2,12)           111.6923         calculate D2E/DX2 analytically  !
 ! D3    D(4,1,2,13)            -4.407          calculate D2E/DX2 analytically  !
 ! D4    D(10,1,2,3)           110.3098         calculate D2E/DX2 analytically  !
 ! D5    D(10,1,2,12)          -10.9931         calculate D2E/DX2 analytically  !
 ! D6    D(10,1,2,13)         -127.0924         calculate D2E/DX2 analytically  !
 ! D7    D(11,1,2,3)            -3.819          calculate D2E/DX2 analytically  !
 ! D8    D(11,1,2,12)         -125.1219         calculate D2E/DX2 analytically  !
 ! D9    D(11,1,2,13)          118.7788         calculate D2E/DX2 analytically  !
 ! D10   D(2,1,4,6)            118.6873         calculate D2E/DX2 analytically  !
 ! D11   D(2,1,4,8)             -4.4818         calculate D2E/DX2 analytically  !
 ! D12   D(2,1,4,9)           -118.1317         calculate D2E/DX2 analytically  !
 ! D13   D(10,1,4,6)          -118.7002         calculate D2E/DX2 analytically  !
 ! D14   D(10,1,4,8)           118.1306         calculate D2E/DX2 analytically  !
 ! D15   D(10,1,4,9)             4.4808         calculate D2E/DX2 analytically  !
 ! D16   D(11,1,4,6)            -4.6418         calculate D2E/DX2 analytically  !
 ! D17   D(11,1,4,8)          -127.811          calculate D2E/DX2 analytically  !
 ! D18   D(11,1,4,9)           118.5391         calculate D2E/DX2 analytically  !
 ! D19   D(1,2,3,5)            -59.6438         calculate D2E/DX2 analytically  !
 ! D20   D(1,2,3,14)           178.3218         calculate D2E/DX2 analytically  !
 ! D21   D(1,2,3,15)            62.1436         calculate D2E/DX2 analytically  !
 ! D22   D(12,2,3,5)            62.5042         calculate D2E/DX2 analytically  !
 ! D23   D(12,2,3,14)          -59.5302         calculate D2E/DX2 analytically  !
 ! D24   D(12,2,3,15)         -175.7085         calculate D2E/DX2 analytically  !
 ! D25   D(13,2,3,5)           176.8839         calculate D2E/DX2 analytically  !
 ! D26   D(13,2,3,14)           54.8495         calculate D2E/DX2 analytically  !
 ! D27   D(13,2,3,15)          -61.3288         calculate D2E/DX2 analytically  !
 ! D28   D(2,3,5,7)            -60.4832         calculate D2E/DX2 analytically  !
 ! D29   D(2,3,5,16)            60.6479         calculate D2E/DX2 analytically  !
 ! D30   D(2,3,5,17)           176.3847         calculate D2E/DX2 analytically  !
 ! D31   D(14,3,5,7)            61.1621         calculate D2E/DX2 analytically  !
 ! D32   D(14,3,5,16)         -177.7068         calculate D2E/DX2 analytically  !
 ! D33   D(14,3,5,17)          -61.97           calculate D2E/DX2 analytically  !
 ! D34   D(15,3,5,7)           177.3347         calculate D2E/DX2 analytically  !
 ! D35   D(15,3,5,16)          -61.5341         calculate D2E/DX2 analytically  !
 ! D36   D(15,3,5,17)           54.2027         calculate D2E/DX2 analytically  !
 ! D37   D(1,4,6,18)            -1.5899         calculate D2E/DX2 analytically  !
 ! D38   D(1,4,6,19)           118.2258         calculate D2E/DX2 analytically  !
 ! D39   D(1,4,6,20)          -121.732          calculate D2E/DX2 analytically  !
 ! D40   D(8,4,6,18)           121.5691         calculate D2E/DX2 analytically  !
 ! D41   D(8,4,6,19)          -118.6152         calculate D2E/DX2 analytically  !
 ! D42   D(8,4,6,20)             1.427          calculate D2E/DX2 analytically  !
 ! D43   D(9,4,6,18)          -124.5683         calculate D2E/DX2 analytically  !
 ! D44   D(9,4,6,19)            -4.7526         calculate D2E/DX2 analytically  !
 ! D45   D(9,4,6,20)           115.2897         calculate D2E/DX2 analytically  !
 ! D46   D(3,5,7,21)            34.4074         calculate D2E/DX2 analytically  !
 ! D47   D(3,5,7,22)           -85.8241         calculate D2E/DX2 analytically  !
 ! D48   D(3,5,7,23)           154.676          calculate D2E/DX2 analytically  !
 ! D49   D(16,5,7,21)          -86.2084         calculate D2E/DX2 analytically  !
 ! D50   D(16,5,7,22)          153.5601         calculate D2E/DX2 analytically  !
 ! D51   D(16,5,7,23)           34.0603         calculate D2E/DX2 analytically  !
 ! D52   D(17,5,7,21)          157.485          calculate D2E/DX2 analytically  !
 ! D53   D(17,5,7,22)           37.2535         calculate D2E/DX2 analytically  !
 ! D54   D(17,5,7,23)          -82.2463         calculate D2E/DX2 analytically  !
 --------------------------------------------------------------------------------
 Trust Radius=3.00D-01 FncErr=1.00D-07 GrdErr=1.00D-06 EigMax=2.50D+02 EigMin=1.00D-04
 Number of steps in this run=    138 maximum allowed number of steps=    138.
 GradGradGradGradGradGradGradGradGradGradGradGradGradGradGradGradGradGrad

 Leave Link  103 at Sat Sep 28 18:37:32 2019, MaxMem=   671088640 cpu:               1.7 elap:               0.8
 (Enter /shared/centos7/gaussian/g16/l202.exe)
                          Input orientation:                          
 ---------------------------------------------------------------------
 Center     Atomic      Atomic             Coordinates (Angstroms)
 Number     Number       Type             X           Y           Z
 ---------------------------------------------------------------------
      1          6           0        1.390131   -1.135955    0.502367
      2          6           0        0.174933   -0.391597    0.939617
      3          6           0        0.131368   -0.100217    2.418867
      4          6           0        2.141954   -0.502041   -0.619213
      5          6           0        0.164055   -1.355953    3.257772
      6          6           0        3.526160   -0.118470   -0.292971
      7          6           0       -0.998630   -2.277642    2.995895
      8          1           0        1.578863    0.404704   -0.979598
      9          1           0        2.144348   -1.194590   -1.494499
     10          1           0        1.096154   -2.165466    0.206964
     11          1           0        2.071396   -1.272096    1.367229
     12          1           0       -0.725767   -0.968885    0.678537
     13          1           0        0.090859    0.567276    0.385766
     14          1           0       -0.781685    0.475942    2.645800
     15          1           0        0.987355    0.547310    2.700187
     16          1           0        1.120174   -1.899242    3.038241
     17          1           0        0.195805   -1.088339    4.327648
     18          1           0        3.775222   -0.343936    0.761074
     19          1           0        4.275391   -0.669925   -0.934911
     20          1           0        3.700809    0.967505   -0.446750
     21          1           0       -1.292964   -2.241174    1.946316
     22          1           0       -1.891281   -1.993605    3.619077
     23          1           0       -0.731336   -3.342888    3.252194
 ---------------------------------------------------------------------
                    Distance matrix (angstroms):
                    1          2          3          4          5
     1  C    0.000000
     2  C    1.490625   0.000000
     3  C    2.515991   1.508304   0.000000
     4  C    1.491652   2.512234   3.665222   0.000000
     5  C    3.023892   2.510766   1.510531   4.435342   0.000000
     6  C    2.496089   3.581144   4.344999   1.472952   5.044095
     7  C    3.636937   3.026994   2.520126   5.107350   1.506627
     8  H    2.146036   2.507688   3.728237   1.126559   4.801760
     9  H    2.135358   3.232385   4.534774   1.116134   5.150891
    10  H    1.110665   2.128859   3.176253   2.131489   3.291132
    11  H    1.109344   2.134175   2.498590   2.131646   2.686845
    12  H    2.129782   1.101220   2.125562   3.182125   2.755732
    13  H    2.145390   1.110520   2.140254   2.521986   3.457251
    14  H    3.450986   2.139814   1.103233   4.490482   2.150528
    15  H    2.797503   2.154340   1.109570   3.667785   2.147355
    16  H    2.661981   2.751491   2.144261   4.046379   1.121392
    17  H    4.007675   3.458994   2.150345   5.348147   1.103295
    18  H    2.526438   3.605029   4.010654   2.144238   4.505353
    19  H    3.256943   4.517198   5.361466   2.163193   5.912048
    20  H    3.265670   4.025043   4.700287   2.149265   5.624106
    21  H    3.241218   2.566924   2.614522   4.626573   2.150915
    22  H    4.606204   3.743685   3.019360   6.037785   2.182097
    23  H    4.114939   3.857390   3.457399   5.595891   2.179373
                    6          7          8          9         10
     6  C    0.000000
     7  C    5.996031   0.000000
     8  H    2.130055   5.444538   0.000000
     9  H    2.123936   5.587034   1.772749   0.000000
    10  H    3.216373   3.489819   2.871709   2.221776   0.000000
    11  H    2.490674   3.617836   2.926063   2.863707   1.759381
    12  H    4.443638   2.675340   3.153963   3.607020   2.230153
    13  H    3.568224   4.011647   2.026032   3.294903   2.917270
    14  H    5.248546   2.784215   4.326751   5.338017   4.056012
    15  H    3.980928   3.465823   3.729750   4.687028   3.686075
    16  H    4.478493   2.152744   4.654202   4.700128   2.843868
    17  H    5.777719   2.148181   5.684091   6.140481   4.353259
    18  H    1.106291   5.614562   2.900758   2.910494   3.286703
    19  H    1.130281   6.771358   2.903117   2.264896   3.694330
    20  H    1.110627   6.668396   2.259055   2.862691   4.126388
    21  H    5.722258   1.090678   4.879450   4.974903   2.956173
    22  H    6.940383   1.125104   6.240321   6.563032   4.538372
    23  H    6.410252   1.127778   6.106515   5.951120   3.741586
                   11         12         13         14         15
    11  H    0.000000
    12  H    2.896611   0.000000
    13  H    2.875602   1.764195   0.000000
    14  H    3.581962   2.441470   2.424341   0.000000
    15  H    2.502431   3.052982   2.482065   1.771315   0.000000
    16  H    2.022479   3.137079   3.765478   3.067992   2.473366
    17  H    3.509372   3.765578   4.276741   2.496212   2.439371
    18  H    2.032715   4.544918   3.813882   4.998979   3.510937
    19  H    3.243463   5.263476   4.559075   6.301470   5.050423
    20  H    3.310788   4.960893   3.726259   5.467930   4.176435
    21  H    3.548714   1.883532   3.498238   2.851912   3.680192
    22  H    4.614565   3.324943   4.576165   2.877001   3.948057
    23  H    3.961890   3.501375   4.917498   3.867002   4.288618
                   16         17         18         19         20
    16  H    0.000000
    17  H    1.781738   0.000000
    18  H    3.828022   5.107525   0.000000
    19  H    5.220399   6.671778   1.798000   0.000000
    20  H    5.198373   6.269484   1.784448   1.802670   0.000000
    21  H    2.670665   3.035820   5.539930   6.463503   6.400012
    22  H    3.068409   2.382752   6.557351   7.779382   7.521343
    23  H    2.357536   2.664429   5.958897   7.052935   7.204553
                   21         22         23
    21  H    0.000000
    22  H    1.793712   0.000000
    23  H    1.798476   1.816767   0.000000
 Stoichiometry    C7H16
 Framework group  C1[X(C7H16)]
 Deg. of freedom    63
 Full point group                 C1      NOp   1
 Largest Abelian subgroup         C1      NOp   1
 Largest concise Abelian subgroup C1      NOp   1
                         Standard orientation:                         
 ---------------------------------------------------------------------
 Center     Atomic      Atomic             Coordinates (Angstroms)
 Number     Number       Type             X           Y           Z
 ---------------------------------------------------------------------
      1          6           0       -0.789239   -0.520250   -0.213130
      2          6           0        0.147848   -0.278685    0.920659
      3          6           0        1.118868    0.851336    0.685809
      4          6           0       -2.233057   -0.535501    0.161281
      5          6           0        1.993545    0.621398   -0.524056
      6          6           0       -3.049046    0.502627   -0.491436
      7          6           0        2.840464   -0.620258   -0.419432
      8          1           0       -2.328996   -0.436927    1.279411
      9          1           0       -2.658812   -1.541609   -0.067265
     10          1           0       -0.528994   -1.485335   -0.697340
     11          1           0       -0.624180    0.245427   -0.998712
     12          1           0        0.729028   -1.192419    1.120671
     13          1           0       -0.420259   -0.071462    1.852093
     14          1           0        1.748878    0.977197    1.582676
     15          1           0        0.564070    1.803655    0.557613
     16          1           0        1.330912    0.539229   -1.424992
     17          1           0        2.638259    1.501189   -0.690100
     18          1           0       -2.437115    1.153175   -1.144281
     19          1           0       -3.858869    0.052543   -1.138852
     20          1           0       -3.550968    1.159967    0.249827
     21          1           0        2.310698   -1.406022    0.120476
     22          1           0        3.803334   -0.411322    0.123787
     23          1           0        3.106726   -1.011296   -1.443188
 ---------------------------------------------------------------------
 Rotational constants (GHZ):           5.5771691           1.0723671           1.0620365
 Leave Link  202 at Sat Sep 28 18:37:33 2019, MaxMem=   671088640 cpu:               3.7 elap:               1.9
 (Enter /shared/centos7/gaussian/g16/l301.exe)
 Standard basis: CC-pVTZ (5D, 7F)
 Ernie: Thresh=  0.10000D-02 Tol=  0.10000D-05 Strict=F.
 Ernie:  21 primitive shells out of 310 were deleted.
 There are   485 symmetry adapted cartesian basis functions of A   symmetry.
 There are   434 symmetry adapted basis functions of A   symmetry.
   434 basis functions,   636 primitive gaussians,   485 cartesian basis functions
    29 alpha electrons       29 beta electrons
       nuclear repulsion energy       324.7297891833 Hartrees.
 IExCor= 4336 DFT=T Ex+Corr=M062X ExCW=0 ScaHFX=  0.540000
 ScaDFX=  1.000000  1.000000  1.000000  1.000000 ScalE2=  1.000000  1.000000
 IRadAn=      5 IRanWt=     -1 IRanGd=            0 ICorTp=0 IEmpDi=  4
 NAtoms=   23 NActive=   23 NUniq=   23 SFac= 1.00D+00 NAtFMM=   60 NAOKFM=F Big=F
 Integral buffers will be    131072 words long.
 Raffenetti 2 integral format.
 Two-electron integral symmetry is turned on.
 Leave Link  301 at Sat Sep 28 18:37:34 2019, MaxMem=   671088640 cpu:               1.9 elap:               1.0
 (Enter /shared/centos7/gaussian/g16/l302.exe)
 NPDir=0 NMtPBC=     1 NCelOv=     1 NCel=       1 NClECP=     1 NCelD=      1
         NCelK=      1 NCelE2=     1 NClLst=     1 CellRange=     0.0.
 One-electron integrals computed using PRISM.
 One-electron integral symmetry used in STVInt
 NBasis=   434 RedAO= T EigKep=  3.10D-04  NBF=   434
 NBsUse=   434 1.00D-06 EigRej= -1.00D+00 NBFU=   434
 Precomputing XC quadrature grid using
 IXCGrd= 4 IRadAn=           5 IRanWt=          -1 IRanGd=           0 AccXCQ= 0.00D+00.
 Generated NRdTot=       0 NPtTot=           0 NUsed=           0 NTot=          32
 NSgBfM=   485   485   485   485   485 MxSgAt=    23 MxSgA2=    23.
 Leave Link  302 at Sat Sep 28 18:39:17 2019, MaxMem=   671088640 cpu:             204.6 elap:             102.3
 (Enter /shared/centos7/gaussian/g16/l303.exe)
 DipDrv:  MaxL=1.
 Leave Link  303 at Sat Sep 28 18:39:21 2019, MaxMem=   671088640 cpu:               8.9 elap:               4.5
 (Enter /shared/centos7/gaussian/g16/l401.exe)
 ExpMin= 1.03D-01 ExpMax= 8.24D+03 ExpMxC= 2.81D+02 IAcc=3 IRadAn=         5 AccDes= 0.00D+00
 Harris functional with IExCor= 1009 and IRadAn=       5 diagonalized for initial guess.
 HarFok:  IExCor= 1009 AccDes= 0.00D+00 IRadAn=         5 IDoV= 1 UseB2=F ITyADJ=14
 ICtDFT=  3500011 ScaDFX=  1.000000  1.000000  1.000000  1.000000
 FoFCou: FMM=F IPFlag=           0 FMFlag=      100000 FMFlg1=           0
         NFxFlg=           0 DoJE=T BraDBF=F KetDBF=T FulRan=T
         wScrn=  0.000000 ICntrl=       500 IOpCl=  0 I1Cent=   200000004 NGrid=           0
         NMat0=    1 NMatS0=      1 NMatT0=    0 NMatD0=    1 NMtDS0=    0 NMtDT0=    0
 Petite list used in FoFCou.
 Harris En= -276.317708545049    
 JPrj=0 DoOrth=F DoCkMO=F.
 Leave Link  401 at Sat Sep 28 18:40:12 2019, MaxMem=   671088640 cpu:             100.4 elap:              50.3
 (Enter /shared/centos7/gaussian/g16/l502.exe)
 Integral symmetry usage will be decided dynamically.
 Closed shell SCF:
 Using DIIS extrapolation, IDIIS=  1040.
 NGot=   671088640 LenX=   670604095 LenY=   670368385
 Requested convergence on RMS density matrix=1.00D-08 within 900 cycles.
 Requested convergence on MAX density matrix=1.00D-06.
 Requested convergence on             energy=1.00D-06.
 No special actions if energy rises.
 Fock matrices will be formed incrementally for  20 cycles.
 Integral accuracy reduced to 1.0D-05 until final iterations.

 Cycle   1  Pass 0  IDiag  1:
 FoFJK:  IHMeth= 1 ICntrl=       0 DoSepK=F KAlg= 0 I1Cent=           0 FoldK=F
 IRaf= 930000000 NMat=       1 IRICut=       1 DoRegI=T DoRafI=F ISym2E= 0 IDoP0=0 IntGTp=1.
 FoFCou: FMM=F IPFlag=           0 FMFlag=      100000 FMFlg1=           0
         NFxFlg=           0 DoJE=F BraDBF=F KetDBF=F FulRan=T
         wScrn=  0.000000 ICntrl=         0 IOpCl=  0 I1Cent=           0 NGrid=           0
         NMat0=    1 NMatS0=      1 NMatT0=    0 NMatD0=    1 NMtDS0=    0 NMtDT0=    0
 Symmetry not used in FoFCou.
 E= -275.944037787186    
 DIIS: error= 2.76D-02 at cycle   1 NSaved=   1.
 NSaved= 1 IEnMin= 1 EnMin= -275.944037787186     IErMin= 1 ErrMin= 2.76D-02
 ErrMax= 2.76D-02  0.00D+00 EMaxC= 1.00D-01 BMatC= 3.77D-01 BMatP= 3.77D-01
 IDIUse=3 WtCom= 7.24D-01 WtEn= 2.76D-01
 Coeff-Com:  0.100D+01
 Coeff-En:   0.100D+01
 Coeff:      0.100D+01
 Gap=     0.365 Goal=   None    Shift=    0.000
 GapD=    0.365 DampG=1.000 DampE=0.500 DampFc=0.5000 IDamp=-1.
 Damping current iteration by 5.00D-01
 RMSDP=1.90D-03 MaxDP=6.60D-02              OVMax= 1.68D-01

 Cycle   2  Pass 0  IDiag  1:
 RMSU=  9.48D-04    CP:  9.90D-01
 E= -276.123689017640     Delta-E=       -0.179651230455 Rises=F Damp=T
 DIIS: error= 3.54D-03 at cycle   2 NSaved=   2.
 NSaved= 2 IEnMin= 2 EnMin= -276.123689017640     IErMin= 2 ErrMin= 3.54D-03
 ErrMax= 3.54D-03  0.00D+00 EMaxC= 1.00D-01 BMatC= 1.83D-02 BMatP= 3.77D-01
 IDIUse=3 WtCom= 9.65D-01 WtEn= 3.54D-02
 Coeff-Com: -0.501D-01 0.105D+01
 Coeff-En:   0.000D+00 0.100D+01
 Coeff:     -0.483D-01 0.105D+01
 Gap=     0.448 Goal=   None    Shift=    0.000
 RMSDP=5.17D-04 MaxDP=1.84D-02 DE=-1.80D-01 OVMax= 8.94D-02

 Cycle   3  Pass 0  IDiag  1:
 RMSU=  5.08D-04    CP:  9.98D-01  9.20D-01
 E= -276.304439478967     Delta-E=       -0.180750461327 Rises=F Damp=F
 DIIS: error= 2.52D-03 at cycle   3 NSaved=   3.
 NSaved= 3 IEnMin= 3 EnMin= -276.304439478967     IErMin= 3 ErrMin= 2.52D-03
 ErrMax= 2.52D-03  0.00D+00 EMaxC= 1.00D-01 BMatC= 2.33D-03 BMatP= 1.83D-02
 IDIUse=3 WtCom= 9.75D-01 WtEn= 2.52D-02
 Coeff-Com: -0.498D-01 0.224D+00 0.826D+00
 Coeff-En:   0.000D+00 0.000D+00 0.100D+01
 Coeff:     -0.486D-01 0.218D+00 0.831D+00
 Gap=     0.415 Goal=   None    Shift=    0.000
 RMSDP=8.88D-05 MaxDP=2.64D-03 DE=-1.81D-01 OVMax= 9.44D-03

 Cycle   4  Pass 0  IDiag  1:
 RMSU=  6.98D-05    CP:  9.97D-01  9.67D-01  9.39D-01
 E= -276.306487235881     Delta-E=       -0.002047756914 Rises=F Damp=F
 DIIS: error= 5.82D-04 at cycle   4 NSaved=   4.
 NSaved= 4 IEnMin= 4 EnMin= -276.306487235881     IErMin= 4 ErrMin= 5.82D-04
 ErrMax= 5.82D-04  0.00D+00 EMaxC= 1.00D-01 BMatC= 2.20D-04 BMatP= 2.33D-03
 IDIUse=3 WtCom= 9.94D-01 WtEn= 5.82D-03
 Coeff-Com: -0.130D-01 0.358D-01 0.275D+00 0.702D+00
 Coeff-En:   0.000D+00 0.000D+00 0.000D+00 0.100D+01
 Coeff:     -0.129D-01 0.355D-01 0.273D+00 0.704D+00
 Gap=     0.415 Goal=   None    Shift=    0.000
 RMSDP=3.00D-05 MaxDP=1.13D-03 DE=-2.05D-03 OVMax= 2.85D-03

 Cycle   5  Pass 0  IDiag  1:
 RMSU=  1.80D-05    CP:  9.97D-01  9.60D-01  9.73D-01  7.77D-01
 E= -276.306685598932     Delta-E=       -0.000198363051 Rises=F Damp=F
 DIIS: error= 1.54D-04 at cycle   5 NSaved=   5.
 NSaved= 5 IEnMin= 5 EnMin= -276.306685598932     IErMin= 5 ErrMin= 1.54D-04
 ErrMax= 1.54D-04  0.00D+00 EMaxC= 1.00D-01 BMatC= 1.90D-05 BMatP= 2.20D-04
 IDIUse=3 WtCom= 9.98D-01 WtEn= 1.54D-03
 Coeff-Com: -0.149D-02 0.617D-03 0.532D-01 0.272D+00 0.676D+00
 Coeff-En:   0.000D+00 0.000D+00 0.000D+00 0.000D+00 0.100D+01
 Coeff:     -0.149D-02 0.617D-03 0.532D-01 0.271D+00 0.677D+00
 Gap=     0.415 Goal=   None    Shift=    0.000
 RMSDP=6.80D-06 MaxDP=3.07D-04 DE=-1.98D-04 OVMax= 7.46D-04

 Initial convergence to 1.0D-05 achieved.  Increase integral accuracy.
 Cycle   6  Pass 1  IDiag  1:
 E= -276.306673582535     Delta-E=        0.000012016396 Rises=F Damp=F
 DIIS: error= 3.95D-05 at cycle   1 NSaved=   1.
 NSaved= 1 IEnMin= 1 EnMin= -276.306673582535     IErMin= 1 ErrMin= 3.95D-05
 ErrMax= 3.95D-05  0.00D+00 EMaxC= 1.00D-01 BMatC= 1.73D-06 BMatP= 1.73D-06
 IDIUse=1 WtCom= 1.00D+00 WtEn= 0.00D+00
 Coeff-Com:  0.100D+01
 Coeff:      0.100D+01
 Gap=     0.415 Goal=   None    Shift=    0.000
 RMSDP=6.80D-06 MaxDP=3.07D-04 DE= 1.20D-05 OVMax= 2.34D-04

 Cycle   7  Pass 1  IDiag  1:
 RMSU=  9.57D-06    CP:  1.00D+00
 E= -276.306674393577     Delta-E=       -0.000000811042 Rises=F Damp=F
 DIIS: error= 2.12D-05 at cycle   2 NSaved=   2.
 NSaved= 2 IEnMin= 2 EnMin= -276.306674393577     IErMin= 2 ErrMin= 2.12D-05
 ErrMax= 2.12D-05  0.00D+00 EMaxC= 1.00D-01 BMatC= 3.54D-07 BMatP= 1.73D-06
 IDIUse=1 WtCom= 1.00D+00 WtEn= 0.00D+00
 Coeff-Com:  0.251D+00 0.749D+00
 Coeff:      0.251D+00 0.749D+00
 Gap=     0.415 Goal=   None    Shift=    0.000
 RMSDP=1.22D-06 MaxDP=5.25D-05 DE=-8.11D-07 OVMax= 1.31D-04

 Cycle   8  Pass 1  IDiag  1:
 RMSU=  1.21D-06    CP:  1.00D+00  1.01D+00
 E= -276.306674657541     Delta-E=       -0.000000263964 Rises=F Damp=F
 DIIS: error= 8.87D-06 at cycle   3 NSaved=   3.
 NSaved= 3 IEnMin= 3 EnMin= -276.306674657541     IErMin= 3 ErrMin= 8.87D-06
 ErrMax= 8.87D-06  0.00D+00 EMaxC= 1.00D-01 BMatC= 8.39D-08 BMatP= 3.54D-07
 IDIUse=1 WtCom= 1.00D+00 WtEn= 0.00D+00
 Coeff-Com: -0.656D-02 0.319D+00 0.687D+00
 Coeff:     -0.656D-02 0.319D+00 0.687D+00
 Gap=     0.415 Goal=   None    Shift=    0.000
 RMSDP=4.64D-07 MaxDP=1.94D-05 DE=-2.64D-07 OVMax= 4.61D-05

 Cycle   9  Pass 1  IDiag  1:
 RMSU=  3.14D-07    CP:  1.00D+00  1.02D+00  7.56D-01
 E= -276.306674737361     Delta-E=       -0.000000079820 Rises=F Damp=F
 DIIS: error= 1.93D-06 at cycle   4 NSaved=   4.
 NSaved= 4 IEnMin= 4 EnMin= -276.306674737361     IErMin= 4 ErrMin= 1.93D-06
 ErrMax= 1.93D-06  0.00D+00 EMaxC= 1.00D-01 BMatC= 1.62D-09 BMatP= 8.39D-08
 IDIUse=1 WtCom= 1.00D+00 WtEn= 0.00D+00
 Coeff-Com: -0.104D-01 0.780D-01 0.218D+00 0.715D+00
 Coeff:     -0.104D-01 0.780D-01 0.218D+00 0.715D+00
 Gap=     0.415 Goal=   None    Shift=    0.000
 RMSDP=7.79D-08 MaxDP=3.78D-06 DE=-7.98D-08 OVMax= 7.41D-06

 Cycle  10  Pass 1  IDiag  1:
 RMSU=  7.33D-08    CP:  1.00D+00  1.02D+00  7.65D-01  9.40D-01
 E= -276.306674739009     Delta-E=       -0.000000001648 Rises=F Damp=F
 DIIS: error= 3.89D-07 at cycle   5 NSaved=   5.
 NSaved= 5 IEnMin= 5 EnMin= -276.306674739009     IErMin= 5 ErrMin= 3.89D-07
 ErrMax= 3.89D-07  0.00D+00 EMaxC= 1.00D-01 BMatC= 5.73D-11 BMatP= 1.62D-09
 IDIUse=1 WtCom= 1.00D+00 WtEn= 0.00D+00
 Coeff-Com: -0.288D-03-0.207D-01-0.411D-01 0.503D-01 0.101D+01
 Coeff:     -0.288D-03-0.207D-01-0.411D-01 0.503D-01 0.101D+01
 Gap=     0.415 Goal=   None    Shift=    0.000
 RMSDP=3.41D-08 MaxDP=9.14D-07 DE=-1.65D-09 OVMax= 2.93D-06

 Cycle  11  Pass 1  IDiag  1:
 RMSU=  1.50D-08    CP:  1.00D+00  1.03D+00  7.70D-01  1.03D+00  1.10D+00
 E= -276.306674739076     Delta-E=       -0.000000000067 Rises=F Damp=F
 DIIS: error= 1.54D-07 at cycle   6 NSaved=   6.
 NSaved= 6 IEnMin= 6 EnMin= -276.306674739076     IErMin= 6 ErrMin= 1.54D-07
 ErrMax= 1.54D-07  0.00D+00 EMaxC= 1.00D-01 BMatC= 1.38D-11 BMatP= 5.73D-11
 IDIUse=1 WtCom= 1.00D+00 WtEn= 0.00D+00
 Coeff-Com:  0.387D-03-0.130D-01-0.290D-01-0.132D-01 0.450D+00 0.605D+00
 Coeff:      0.387D-03-0.130D-01-0.290D-01-0.132D-01 0.450D+00 0.605D+00
 Gap=     0.415 Goal=   None    Shift=    0.000
 RMSDP=5.75D-09 MaxDP=2.35D-07 DE=-6.66D-11 OVMax= 6.48D-07

 SCF Done:  E(RM062X) =  -276.306674739     A.U. after   11 cycles
            NFock= 11  Conv=0.57D-08     -V/T= 2.0065
 KE= 2.745272327670D+02 PE=-1.287917715805D+03 EE= 4.123540191160D+02
 Leave Link  502 at Sat Sep 28 19:00:31 2019, MaxMem=   671088640 cpu:            2438.6 elap:            1219.6
 (Enter /shared/centos7/gaussian/g16/l801.exe)
 DoSCS=F DFT=T ScalE2(SS,OS)=  1.000000  1.000000
 Range of M.O.s used for correlation:     1   434
 NBasis=   434 NAE=    29 NBE=    29 NFC=     0 NFV=     0
 NROrb=    434 NOA=    29 NOB=    29 NVA=   405 NVB=   405

 **** Warning!!: The largest alpha MO coefficient is  0.10882560D+02

 Leave Link  801 at Sat Sep 28 19:00:32 2019, MaxMem=   671088640 cpu:               1.6 elap:               0.8
 (Enter /shared/centos7/gaussian/g16/l1101.exe)
 Using compressed storage, NAtomX=    23.
 Will process     24 centers per pass.
 Leave Link 1101 at Sat Sep 28 19:01:12 2019, MaxMem=   671088640 cpu:              79.3 elap:              39.7
 (Enter /shared/centos7/gaussian/g16/l1102.exe)
 Symmetrizing basis deriv contribution to polar:
 IMax=3 JMax=2 DiffMx= 0.00D+00
 Leave Link 1102 at Sat Sep 28 19:01:15 2019, MaxMem=   671088640 cpu:               6.3 elap:               3.2
 (Enter /shared/centos7/gaussian/g16/l1110.exe)
 Forming Gx(P) for the SCF density, NAtomX=    23.
 Integral derivatives from FoFJK, PRISM(SPDF).
 Do as many integral derivatives as possible in FoFJK.
 G2DrvN: MDV=     671086848.
 G2DrvN: will do    24 centers at a time, making    1 passes.
 Calling FoFCou, ICntrl=  3107 FMM=F I1Cent=   0 AccDes= 0.00D+00.
 FoFJK:  IHMeth= 1 ICntrl=    3107 DoSepK=F KAlg= 0 I1Cent=           0 FoldK=F
 IRaf=         0 NMat=       1 IRICut=       1 DoRegI=T DoRafI=F ISym2E= 0 IDoP0=0 IntGTp=1.
 FoFCou: FMM=F IPFlag=           0 FMFlag=      100000 FMFlg1=           0
         NFxFlg=           0 DoJE=F BraDBF=F KetDBF=F FulRan=T
         wScrn=  0.000000 ICntrl=      3107 IOpCl=  0 I1Cent=           0 NGrid=           0
         NMat0=    1 NMatS0=      1 NMatT0=    0 NMatD0=    1 NMtDS0=    0 NMtDT0=    0
 Symmetry not used in FoFCou.
 End of G2Drv F.D. properties file   721 does not exist.
 End of G2Drv F.D. properties file   722 does not exist.
 End of G2Drv F.D. properties file   788 does not exist.
 Leave Link 1110 at Sat Sep 28 19:55:20 2019, MaxMem=   671088640 cpu:            6489.2 elap:            3245.1
 (Enter /shared/centos7/gaussian/g16/l1002.exe)
 Minotr:  Closed shell wavefunction.
          IDoAtm=11111111111111111111111
          Direct CPHF calculation.
          Differentiating once with respect to nuclear coordinates.
          Requested convergence is 1.0D-08 RMS, and 1.0D-07 maximum.
          Secondary convergence is 1.0D-12 RMS, and 1.0D-12 maximum.
          NewPWx=T KeepS1=F KeepF1=F KeepIn=T MapXYZ=F SortEE=F KeepMc=T.
         6925 words used for storage of precomputed grid.
 Two-electron integrals replicated using symmetry.
          MDV=     671088640 using IRadAn=       1.
          Solving linear equations simultaneously, MaxMat=     380.
 FoF2E skips out because all densities are zero.
 CalDSu exits because no D1Ps are significant.
 FoFJK:  IHMeth= 1 ICntrl=       0 DoSepK=F KAlg= 0 I1Cent=           0 FoldK=F
 IRaf= 910000000 NMat=      69 IRICut=     172 DoRegI=T DoRafI=T ISym2E= 2 IDoP0=3 IntGTp=3.
 FoFCou: FMM=F IPFlag=           0 FMFlag=      100000 FMFlg1=           0
         NFxFlg=           0 DoJE=F BraDBF=F KetDBF=F FulRan=T
         wScrn=  0.000000 ICntrl=         0 IOpCl=  0 I1Cent=           0 NGrid=           0
         NMat0=   69 NMatS0=     69 NMatT0=    0 NMatD0=   69 NMtDS0=    0 NMtDT0=    0
 Integrals replicated using symmetry in FoFCou.
 Raff kept on since  87.06% of shell-pairs survive, threshold=   0.20 IRatSp=87.
          There are    72 degrees of freedom in the 1st order CPHF.  IDoFFX=6 NUNeed=     0.
     66 vectors produced by pass  0 Test12= 1.63D-14 1.39D-09 XBig12= 5.64D-02 4.31D-02.
 AX will form    66 AO Fock derivatives at one time.
     66 vectors produced by pass  1 Test12= 1.63D-14 1.39D-09 XBig12= 3.67D-03 6.48D-03.
     66 vectors produced by pass  2 Test12= 1.63D-14 1.39D-09 XBig12= 5.67D-05 9.75D-04.
     66 vectors produced by pass  3 Test12= 1.63D-14 1.39D-09 XBig12= 4.49D-07 7.75D-05.
     66 vectors produced by pass  4 Test12= 1.63D-14 1.39D-09 XBig12= 2.08D-09 4.33D-06.
     66 vectors produced by pass  5 Test12= 1.63D-14 1.39D-09 XBig12= 1.02D-11 2.53D-07.
     23 vectors produced by pass  6 Test12= 1.63D-14 1.39D-09 XBig12= 3.77D-14 1.68D-08.
 InvSVY:  IOpt=1 It=  1 EMax= 3.61D-16
 Solved reduced A of dimension   419 with    72 vectors.
 End of Minotr F.D. properties file   721 does not exist.
 End of Minotr F.D. properties file   722 does not exist.
 End of Minotr F.D. properties file   788 does not exist.
 Leave Link 1002 at Sat Sep 28 21:27:01 2019, MaxMem=   671088640 cpu:           11000.6 elap:            5501.0
 (Enter /shared/centos7/gaussian/g16/l601.exe)
 Copying SCF densities to generalized density rwf, IOpCl= 0 IROHF=0.

 **********************************************************************

            Population analysis using the SCF density.

 **********************************************************************

 Orbital symmetries:
       Occupied  (A) (A) (A) (A) (A) (A) (A) (A) (A) (A) (A) (A)
                 (A) (A) (A) (A) (A) (A) (A) (A) (A) (A) (A) (A)
                 (A) (A) (A) (A) (A)
       Virtual   (A) (A) (A) (A) (A) (A) (A) (A) (A) (A) (A) (A)
                 (A) (A) (A) (A) (A) (A) (A) (A) (A) (A) (A) (A)
                 (A) (A) (A) (A) (A) (A) (A) (A) (A) (A) (A) (A)
                 (A) (A) (A) (A) (A) (A) (A) (A) (A) (A) (A) (A)
                 (A) (A) (A) (A) (A) (A) (A) (A) (A) (A) (A) (A)
                 (A) (A) (A) (A) (A) (A) (A) (A) (A) (A) (A) (A)
                 (A) (A) (A) (A) (A) (A) (A) (A) (A) (A) (A) (A)
                 (A) (A) (A) (A) (A) (A) (A) (A) (A) (A) (A) (A)
                 (A) (A) (A) (A) (A) (A) (A) (A) (A) (A) (A) (A)
                 (A) (A) (A) (A) (A) (A) (A) (A) (A) (A) (A) (A)
                 (A) (A) (A) (A) (A) (A) (A) (A) (A) (A) (A) (A)
                 (A) (A) (A) (A) (A) (A) (A) (A) (A) (A) (A) (A)
                 (A) (A) (A) (A) (A) (A) (A) (A) (A) (A) (A) (A)
                 (A) (A) (A) (A) (A) (A) (A) (A) (A) (A) (A) (A)
                 (A) (A) (A) (A) (A) (A) (A) (A) (A) (A) (A) (A)
                 (A) (A) (A) (A) (A) (A) (A) (A) (A) (A) (A) (A)
                 (A) (A) (A) (A) (A) (A) (A) (A) (A) (A) (A) (A)
                 (A) (A) (A) (A) (A) (A) (A) (A) (A) (A) (A) (A)
                 (A) (A) (A) (A) (A) (A) (A) (A) (A) (A) (A) (A)
                 (A) (A) (A) (A) (A) (A) (A) (A) (A) (A) (A) (A)
                 (A) (A) (A) (A) (A) (A) (A) (A) (A) (A) (A) (A)
                 (A) (A) (A) (A) (A) (A) (A) (A) (A) (A) (A) (A)
                 (A) (A) (A) (A) (A) (A) (A) (A) (A) (A) (A) (A)
                 (A) (A) (A) (A) (A) (A) (A) (A) (A) (A) (A) (A)
                 (A) (A) (A) (A) (A) (A) (A) (A) (A) (A) (A) (A)
                 (A) (A) (A) (A) (A) (A) (A) (A) (A) (A) (A) (A)
                 (A) (A) (A) (A) (A) (A) (A) (A) (A) (A) (A) (A)
                 (A) (A) (A) (A) (A) (A) (A) (A) (A) (A) (A) (A)
                 (A) (A) (A) (A) (A) (A) (A) (A) (A) (A) (A) (A)
                 (A) (A) (A) (A) (A) (A) (A) (A) (A) (A) (A) (A)
                 (A) (A) (A) (A) (A) (A) (A) (A) (A) (A) (A) (A)
                 (A) (A) (A) (A) (A) (A) (A) (A) (A) (A) (A) (A)
                 (A) (A) (A) (A) (A) (A) (A) (A) (A) (A) (A) (A)
                 (A) (A) (A) (A) (A) (A) (A) (A) (A)
 The electronic state is 1-A.
 Alpha  occ. eigenvalues --  -10.52690 -10.52520 -10.52436 -10.52402 -10.52212
 Alpha  occ. eigenvalues --  -10.52132 -10.52079  -0.92371  -0.88327  -0.82418
 Alpha  occ. eigenvalues --   -0.76416  -0.70669  -0.66199  -0.62382  -0.55277
 Alpha  occ. eigenvalues --   -0.53337  -0.50877  -0.50436  -0.47341  -0.46358
 Alpha  occ. eigenvalues --   -0.45099  -0.42754  -0.41932  -0.39864  -0.38993
 Alpha  occ. eigenvalues --   -0.38148  -0.36759  -0.35827  -0.35281
 Alpha virt. eigenvalues --    0.06197   0.08127   0.08262   0.08442   0.10909
 Alpha virt. eigenvalues --    0.11290   0.12145   0.13513   0.14379   0.14972
 Alpha virt. eigenvalues --    0.15702   0.16199   0.18559   0.19646   0.20065
 Alpha virt. eigenvalues --    0.21224   0.22758   0.23748   0.25055   0.25791
 Alpha virt. eigenvalues --    0.26368   0.27486   0.28826   0.30232   0.31519
 Alpha virt. eigenvalues --    0.32410   0.33964   0.34936   0.36242   0.37456
 Alpha virt. eigenvalues --    0.39172   0.39774   0.41378   0.41835   0.42233
 Alpha virt. eigenvalues --    0.43135   0.44285   0.45928   0.46483   0.48038
 Alpha virt. eigenvalues --    0.48441   0.49428   0.49868   0.50183   0.50430
 Alpha virt. eigenvalues --    0.51804   0.52126   0.53134   0.53448   0.53925
 Alpha virt. eigenvalues --    0.54116   0.55812   0.56066   0.56703   0.57205
 Alpha virt. eigenvalues --    0.58283   0.59403   0.60095   0.60399   0.62422
 Alpha virt. eigenvalues --    0.64419   0.65818   0.69751   0.74384   0.76034
 Alpha virt. eigenvalues --    0.78458   0.81915   0.82234   0.83038   0.84437
 Alpha virt. eigenvalues --    0.86443   0.88862   0.89222   0.91188   0.91974
 Alpha virt. eigenvalues --    0.93241   0.94475   0.96366   0.97507   0.98279
 Alpha virt. eigenvalues --    0.99818   1.01011   1.01292   1.03019   1.03950
 Alpha virt. eigenvalues --    1.05643   1.06491   1.08012   1.08671   1.09577
 Alpha virt. eigenvalues --    1.10179   1.11412   1.12199   1.13407   1.14946
 Alpha virt. eigenvalues --    1.15663   1.16748   1.17359   1.18564   1.19762
 Alpha virt. eigenvalues --    1.20445   1.20988   1.21800   1.22677   1.23518
 Alpha virt. eigenvalues --    1.24502   1.25227   1.25848   1.27839   1.28045
 Alpha virt. eigenvalues --    1.29951   1.30877   1.32185   1.32917   1.33536
 Alpha virt. eigenvalues --    1.34668   1.36118   1.36833   1.37704   1.38119
 Alpha virt. eigenvalues --    1.39285   1.41139   1.41990   1.43079   1.43868
 Alpha virt. eigenvalues --    1.45443   1.46503   1.47561   1.49004   1.49760
 Alpha virt. eigenvalues --    1.51392   1.52478   1.53125   1.54599   1.55794
 Alpha virt. eigenvalues --    1.56190   1.57697   1.59156   1.60904   1.62167
 Alpha virt. eigenvalues --    1.62769   1.66724   1.69487   1.69664   1.70303
 Alpha virt. eigenvalues --    1.74292   1.79757   1.83476   1.84761   2.13898
 Alpha virt. eigenvalues --    2.22159   2.24711   2.28425   2.31889   2.34988
 Alpha virt. eigenvalues --    2.36562   2.38992   2.40960   2.42873   2.45182
 Alpha virt. eigenvalues --    2.46547   2.47454   2.50541   2.51289   2.53074
 Alpha virt. eigenvalues --    2.54742   2.56236   2.56831   2.58547   2.59798
 Alpha virt. eigenvalues --    2.60955   2.62434   2.63447   2.64269   2.66002
 Alpha virt. eigenvalues --    2.67187   2.68337   2.69349   2.71021   2.73058
 Alpha virt. eigenvalues --    2.74405   2.74729   2.76224   2.78650   2.79001
 Alpha virt. eigenvalues --    2.80762   2.82340   2.83641   2.84036   2.85638
 Alpha virt. eigenvalues --    2.86123   2.87513   2.89159   2.90815   2.92222
 Alpha virt. eigenvalues --    2.93029   2.94556   2.96393   2.97454   2.97672
 Alpha virt. eigenvalues --    2.98597   3.00621   3.01671   3.02550   3.05032
 Alpha virt. eigenvalues --    3.05597   3.06161   3.06700   3.07525   3.08525
 Alpha virt. eigenvalues --    3.08744   3.09269   3.10050   3.12262   3.12472
 Alpha virt. eigenvalues --    3.13416   3.15238   3.15762   3.16472   3.17132
 Alpha virt. eigenvalues --    3.17568   3.19556   3.21483   3.22770   3.24014
 Alpha virt. eigenvalues --    3.24886   3.24993   3.26760   3.28074   3.29862
 Alpha virt. eigenvalues --    3.30714   3.31318   3.32491   3.34307   3.35764
 Alpha virt. eigenvalues --    3.37241   3.37977   3.39657   3.39989   3.41901
 Alpha virt. eigenvalues --    3.42064   3.43133   3.44515   3.45828   3.47535
 Alpha virt. eigenvalues --    3.49034   3.50068   3.50572   3.51907   3.53522
 Alpha virt. eigenvalues --    3.54711   3.55638   3.56828   3.57319   3.61465
 Alpha virt. eigenvalues --    3.61839   3.62457   3.63489   3.65733   3.66673
 Alpha virt. eigenvalues --    3.67842   3.68512   3.69859   3.71937   3.73944
 Alpha virt. eigenvalues --    3.74439   3.75552   3.77478   3.78256   3.79131
 Alpha virt. eigenvalues --    3.80812   3.81893   3.83302   3.83660   3.84537
 Alpha virt. eigenvalues --    3.85827   3.87170   3.88120   3.88537   3.90675
 Alpha virt. eigenvalues --    3.91080   3.91956   3.93182   3.94107   3.96328
 Alpha virt. eigenvalues --    3.96720   3.97510   3.99416   4.00121   4.00602
 Alpha virt. eigenvalues --    4.00768   4.02678   4.04284   4.04978   4.05189
 Alpha virt. eigenvalues --    4.07751   4.08816   4.10075   4.11412   4.12542
 Alpha virt. eigenvalues --    4.13072   4.13118   4.14844   4.15607   4.17182
 Alpha virt. eigenvalues --    4.18219   4.19437   4.20585   4.21837   4.22417
 Alpha virt. eigenvalues --    4.23154   4.24940   4.26305   4.26949   4.30545
 Alpha virt. eigenvalues --    4.31691   4.32707   4.34397   4.35147   4.38243
 Alpha virt. eigenvalues --    4.39462   4.40521   4.42184   4.43973   4.45355
 Alpha virt. eigenvalues --    4.47495   4.49008   4.51726   4.54014   4.56384
 Alpha virt. eigenvalues --    4.58776   4.60366   4.60970   4.63025   4.66517
 Alpha virt. eigenvalues --    4.68076   4.69541   4.71966   4.73390   4.74103
 Alpha virt. eigenvalues --    4.75078   4.77593   4.80130   4.81263   4.82280
 Alpha virt. eigenvalues --    4.84213   4.85901   4.88220   4.89594   4.91962
 Alpha virt. eigenvalues --    4.93831   4.95058   4.97239   4.98074   5.01294
 Alpha virt. eigenvalues --    5.04201   5.05193   5.06015   5.07143   5.09051
 Alpha virt. eigenvalues --    5.09794   5.10167   5.14339   5.15722   5.18247
 Alpha virt. eigenvalues --    5.19992   5.20698   5.22998   5.23668   5.26289
 Alpha virt. eigenvalues --    5.27471   5.28423   5.29096   5.31678   5.33155
 Alpha virt. eigenvalues --    5.36125   5.38889   5.40628   5.41454   5.42243
 Alpha virt. eigenvalues --    5.44083   5.44853   5.46968   5.51658   5.52907
 Alpha virt. eigenvalues --    5.60659   5.63931   5.68238   5.72789   5.76605
 Alpha virt. eigenvalues --    5.80562   5.80897   5.83606   5.89875   5.93465
 Alpha virt. eigenvalues --    5.96048   5.98868   6.05021  11.25180  12.13999
 Alpha virt. eigenvalues --   12.44541  12.84359  13.31202  13.54416  13.89134
          Condensed to atoms (all electrons):
               1          2          3          4          5          6
     1  C    5.150419   0.290856  -0.052837   0.305262  -0.005170  -0.056764
     2  C    0.290856   5.147503   0.306170  -0.057795  -0.050130   0.006753
     3  C   -0.052837   0.306170   5.078733   0.007969   0.316804  -0.000830
     4  C    0.305262  -0.057795   0.007969   5.051860  -0.000339   0.294142
     5  C   -0.005170  -0.050130   0.316804  -0.000339   5.071487   0.000200
     6  C   -0.056764   0.006753  -0.000830   0.294142   0.000200   4.959635
     7  C   -0.002175  -0.002681  -0.057493   0.000051   0.301638  -0.000005
     8  H   -0.056423  -0.016596   0.001216   0.423609  -0.000066  -0.047355
     9  H   -0.045545   0.006043  -0.000517   0.411176  -0.000019  -0.041462
    10  H    0.396645  -0.035207   0.003335  -0.032694   0.000014   0.007758
    11  H    0.420921  -0.063186  -0.002081  -0.045068  -0.007433  -0.021439
    12  H   -0.053037   0.412878  -0.033071   0.006215  -0.008958  -0.000645
    13  H   -0.047015   0.415490  -0.041703  -0.016992   0.007991   0.001145
    14  H    0.010565  -0.051835   0.416160  -0.000640  -0.041735   0.000035
    15  H   -0.004082  -0.042400   0.416642   0.000523  -0.050449  -0.000174
    16  H    0.002333  -0.011119  -0.041527   0.000501   0.415030   0.000102
    17  H   -0.000168   0.009309  -0.041465   0.000032   0.410677  -0.000001
    18  H   -0.009285   0.000520  -0.000533  -0.058554   0.000080   0.410795
    19  H    0.005265  -0.000511   0.000049  -0.043574  -0.000009   0.404947
    20  H    0.007162  -0.000049   0.000031  -0.046682  -0.000008   0.406096
    21  H   -0.001198   0.005329  -0.008227   0.000182  -0.049020  -0.000002
    22  H    0.000263  -0.001385   0.001237   0.000002  -0.042057   0.000000
    23  H   -0.000203   0.000083   0.007518  -0.000020  -0.038928  -0.000000
               7          8          9         10         11         12
     1  C   -0.002175  -0.056423  -0.045545   0.396645   0.420921  -0.053037
     2  C   -0.002681  -0.016596   0.006043  -0.035207  -0.063186   0.412878
     3  C   -0.057493   0.001216  -0.000517   0.003335  -0.002081  -0.033071
     4  C    0.000051   0.423609   0.411176  -0.032694  -0.045068   0.006215
     5  C    0.301638  -0.000066  -0.000019   0.000014  -0.007433  -0.008958
     6  C   -0.000005  -0.047355  -0.041462   0.007758  -0.021439  -0.000645
     7  C    4.979446  -0.000016   0.000013   0.000622   0.000466  -0.006967
     8  H   -0.000016   0.624439  -0.041421   0.006509   0.005477   0.000590
     9  H    0.000013  -0.041421   0.618435  -0.019096   0.006687   0.000122
    10  H    0.000622   0.006509  -0.019096   0.597866  -0.043827  -0.021276
    11  H    0.000466   0.005477   0.006687  -0.043827   0.607046   0.007759
    12  H   -0.006967   0.000590   0.000122  -0.021276   0.007759   0.594673
    13  H    0.000535   0.005210   0.000750   0.007050   0.004566  -0.035911
    14  H   -0.002072  -0.000197   0.000033  -0.000554   0.000556  -0.005482
    15  H    0.008642   0.000289  -0.000012  -0.000136   0.001228   0.007855
    16  H   -0.045960  -0.000049  -0.000019  -0.001985  -0.000779   0.000431
    17  H   -0.038622   0.000005  -0.000000   0.000123  -0.000414  -0.000291
    18  H   -0.000002   0.005560   0.005979   0.001474   0.001216  -0.000107
    19  H    0.000000   0.007412  -0.020583  -0.000220   0.001111   0.000037
    20  H    0.000000  -0.019055   0.006814  -0.000687   0.001353   0.000051
    21  H    0.408097  -0.000009  -0.000000   0.000558  -0.000260  -0.007886
    22  H    0.402953   0.000000  -0.000001  -0.000018  -0.000058   0.000660
    23  H    0.403053   0.000001  -0.000000   0.000025   0.000159   0.000183
              13         14         15         16         17         18
     1  C   -0.047015   0.010565  -0.004082   0.002333  -0.000168  -0.009285
     2  C    0.415490  -0.051835  -0.042400  -0.011119   0.009309   0.000520
     3  C   -0.041703   0.416160   0.416642  -0.041527  -0.041465  -0.000533
     4  C   -0.016992  -0.000640   0.000523   0.000501   0.000032  -0.058554
     5  C    0.007991  -0.041735  -0.050449   0.415030   0.410677   0.000080
     6  C    0.001145   0.000035  -0.000174   0.000102  -0.000001   0.410795
     7  C    0.000535  -0.002072   0.008642  -0.045960  -0.038622  -0.000002
     8  H    0.005210  -0.000197   0.000289  -0.000049   0.000005   0.005560
     9  H    0.000750   0.000033  -0.000012  -0.000019  -0.000000   0.005979
    10  H    0.007050  -0.000554  -0.000136  -0.001985   0.000123   0.001474
    11  H    0.004566   0.000556   0.001228  -0.000779  -0.000414   0.001216
    12  H   -0.035911  -0.005482   0.007855   0.000431  -0.000291  -0.000107
    13  H    0.584424  -0.006557  -0.006649  -0.000345  -0.000297   0.000445
    14  H   -0.006557   0.569673  -0.027255   0.008002  -0.006479   0.000005
    15  H   -0.006649  -0.027255   0.575862  -0.005572  -0.006321   0.000096
    16  H   -0.000345   0.008002  -0.005572   0.598967  -0.034560   0.000072
    17  H   -0.000297  -0.006479  -0.006321  -0.034560   0.584277   0.000010
    18  H    0.000445   0.000005   0.000096   0.000072   0.000010   0.614892
    19  H   -0.000130  -0.000002   0.000014  -0.000009   0.000000  -0.035557
    20  H   -0.000193  -0.000000   0.000044  -0.000006  -0.000001  -0.036848
    21  H    0.000574  -0.000050  -0.000137  -0.000232   0.007327   0.000004
    22  H   -0.000080   0.002761  -0.000268   0.008336  -0.013151   0.000000
    23  H    0.000022  -0.000234  -0.000406  -0.012213   0.000451  -0.000001
              19         20         21         22         23
     1  C    0.005265   0.007162  -0.001198   0.000263  -0.000203
     2  C   -0.000511  -0.000049   0.005329  -0.001385   0.000083
     3  C    0.000049   0.000031  -0.008227   0.001237   0.007518
     4  C   -0.043574  -0.046682   0.000182   0.000002  -0.000020
     5  C   -0.000009  -0.000008  -0.049020  -0.042057  -0.038928
     6  C    0.404947   0.406096  -0.000002   0.000000  -0.000000
     7  C    0.000000   0.000000   0.408097   0.402953   0.403053
     8  H    0.007412  -0.019055  -0.000009   0.000000   0.000001
     9  H   -0.020583   0.006814  -0.000000  -0.000001  -0.000000
    10  H   -0.000220  -0.000687   0.000558  -0.000018   0.000025
    11  H    0.001111   0.001353  -0.000260  -0.000058   0.000159
    12  H    0.000037   0.000051  -0.007886   0.000660   0.000183
    13  H   -0.000130  -0.000193   0.000574  -0.000080   0.000022
    14  H   -0.000002  -0.000000  -0.000050   0.002761  -0.000234
    15  H    0.000014   0.000044  -0.000137  -0.000268  -0.000406
    16  H   -0.000009  -0.000006  -0.000232   0.008336  -0.012213
    17  H    0.000000  -0.000001   0.007327  -0.013151   0.000451
    18  H   -0.035557  -0.036848   0.000004   0.000000  -0.000001
    19  H    0.615324  -0.033079   0.000000  -0.000000   0.000000
    20  H   -0.033079   0.609821  -0.000000  -0.000000   0.000000
    21  H    0.000000  -0.000000   0.596056  -0.036922  -0.033942
    22  H   -0.000000  -0.000000  -0.036922   0.597240  -0.028822
    23  H    0.000000   0.000000  -0.033942  -0.028822   0.597395
 Mulliken charges:
               1
     1  C   -0.255790
     2  C   -0.268038
     3  C   -0.275579
     4  C   -0.199165
     5  C   -0.229600
     6  C   -0.322929
     7  C   -0.349523
     8  H    0.100871
     9  H    0.112625
    10  H    0.133722
    11  H    0.125998
    12  H    0.142178
    13  H    0.127670
    14  H    0.135300
    15  H    0.132666
    16  H    0.120602
    17  H    0.129558
    18  H    0.099739
    19  H    0.099513
    20  H    0.105237
    21  H    0.119756
    22  H    0.109308
    23  H    0.105880
 Sum of Mulliken charges =  -0.00000
 Mulliken charges with hydrogens summed into heavy atoms:
               1
     1  C    0.003930
     2  C    0.001811
     3  C   -0.007613
     4  C    0.014330
     5  C    0.020560
     6  C   -0.018439
     7  C   -0.014579
 APT charges:
               1
     1  C   -0.407607
     2  C   -0.642376
     3  C   -0.766114
     4  C   -0.714108
     5  C   -0.576153
     6  C   -1.289609
     7  C   -1.241505
     8  H    0.309507
     9  H    0.432513
    10  H    0.338950
    11  H    0.245391
    12  H    0.359917
    13  H    0.356066
    14  H    0.440965
    15  H    0.299244
    16  H    0.185878
    17  H    0.496415
    18  H    0.137369
    19  H    0.529845
    20  H    0.416386
    21  H    0.149075
    22  H    0.528477
    23  H    0.411474
 Sum of APT charges =  -0.00000
 APT charges with hydrogens summed into heavy atoms:
               1
     1  C    0.176734
     2  C    0.073607
     3  C   -0.025904
     4  C    0.027912
     5  C    0.106139
     6  C   -0.206009
     7  C   -0.152479
 Electronic spatial extent (au):  <R**2>=           1259.1374
 Charge=             -0.0000 electrons
 Dipole moment (field-independent basis, Debye):
    X=             -0.0153    Y=             -0.0250    Z=              0.0362  Tot=              0.0466
 Quadrupole moment (field-independent basis, Debye-Ang):
   XX=            -49.9122   YY=            -49.0556   ZZ=            -49.0695
   XY=              0.6615   XZ=             -0.0215   YZ=              0.3961
 Traceless Quadrupole moment (field-independent basis, Debye-Ang):
   XX=             -0.5665   YY=              0.2902   ZZ=              0.2763
   XY=              0.6615   XZ=             -0.0215   YZ=              0.3961
 Octapole moment (field-independent basis, Debye-Ang**2):
  XXX=              1.9013  YYY=             -0.8327  ZZZ=              0.3987  XYY=             -0.4898
  XXY=              0.6051  XXZ=              1.7719  XZZ=             -0.1771  YZZ=              0.0923
  YYZ=             -0.4350  XYZ=             -1.4181
 Hexadecapole moment (field-independent basis, Debye-Ang**3):
 XXXX=          -1382.0987 YYYY=           -217.9389 ZZZZ=           -205.0704 XXXY=             18.0335
 XXXZ=              3.8260 YYYX=              4.7754 YYYZ=              0.3131 ZZZX=             -3.4999
 ZZZY=              2.4948 XXYY=           -267.3315 XXZZ=           -259.9552 YYZZ=            -72.2579
 XXYZ=              7.2257 YYXZ=              0.2260 ZZXY=             -1.2946
 N-N= 3.247297891833D+02 E-N=-1.287917658237D+03  KE= 2.745272327670D+02
  Exact polarizability:   0.000   0.000   0.000   0.000   0.000   0.000
 Approx polarizability:  98.380   0.293  96.975  -0.396   0.368  98.843
 No NMR shielding tensors so no spin-rotation constants.
 Leave Link  601 at Sat Sep 28 21:27:37 2019, MaxMem=   671088640 cpu:              71.6 elap:              35.8
 (Enter /shared/centos7/gaussian/g16/l701.exe)
 SCFChk:  SCF convergence  5.75D-09 required  1.00D-08
 ... and contract with generalized density number  0.
 Compute integral second derivatives.
 Entering OneElI...
 Calculate overlap and kinetic energy integrals
    NBasis = 485  MinDer = 2  MaxDer = 2
 Requested accuracy = 0.1000D-12
 PrmmSu-InSpLW:  IPartL=    0 NPrtUS=   20 NPrtUL=    1 DoSpLW=F IThBeg=    0 IThEnd=   19 NThAct=   20.
 PrsmSu:  NPrtUS=  20 ThrOK=T IAlg=1 NPAlg=1 LenDen=           0 ISkipM=0 DoSpLW=F IThBeg=    0 IThEnd=   19.
 Prism:   IPart=     0 DynPar=F LinDyn=F Incr=           6.
 PRISM was handed    33204228 working-precision words and 13556 shell-pairs
 PRISM was handed    33204228 working-precision words and 13556 shell-pairs
 PRISM was handed    33204228 working-precision words and 13556 shell-pairs
 PRISM was handed    33204228 working-precision words and 13556 shell-pairs
 PRISM was handed    33204228 working-precision words and 13556 shell-pairs
 PRISM was handed    33204228 working-precision words and 13556 shell-pairs
 PRISM was handed    33204228 working-precision words and 13556 shell-pairs
 PRISM was handed    33204228 working-precision words and 13556 shell-pairs
 PRISM was handed    33204228 working-precision words and 13556 shell-pairs
 PRISM was handed    33204228 working-precision words and 13556 shell-pairs
 PRISM was handed    33204228 working-precision words and 13556 shell-pairs
 PRISM was handed    33204228 working-precision words and 13556 shell-pairs
 PRISM was handed    33204228 working-precision words and 13556 shell-pairs
 PRISM was handed    33204228 working-precision words and 13556 shell-pairs
 PRISM was handed    33204228 working-precision words and 13556 shell-pairs
 PRISM was handed    33204228 working-precision words and 13556 shell-pairs
 PRISM was handed    33204228 working-precision words and 13556 shell-pairs
 PRISM was handed    33204228 working-precision words and 13556 shell-pairs
 PRISM was handed    33204228 working-precision words and 13556 shell-pairs
 PRISM was handed    33204228 working-precision words and 13556 shell-pairs
 IPart=  0 NShTot=         710 NBatch=          79 AvBLen=         9.0
 IPart=  1 NShTot=         709 NBatch=          78 AvBLen=         9.1
 IPart= 16 NShTot=         657 NBatch=          49 AvBLen=        13.4
 IPart= 13 NShTot=         664 NBatch=          52 AvBLen=        12.8
 IPart= 12 NShTot=         666 NBatch=          53 AvBLen=        12.6
 IPart= 14 NShTot=         664 NBatch=          52 AvBLen=        12.8
 IPart=  9 NShTot=         675 NBatch=          59 AvBLen=        11.4
 IPart=  3 NShTot=         703 NBatch=          73 AvBLen=         9.6
 IPart= 15 NShTot=         660 NBatch=          51 AvBLen=        12.9
 IPart=  5 NShTot=         694 NBatch=          69 AvBLen=        10.1
 IPart=  8 NShTot=         676 NBatch=          60 AvBLen=        11.3
 IPart=  2 NShTot=         706 NBatch=          75 AvBLen=         9.4
 IPart=  4 NShTot=         699 NBatch=          72 AvBLen=         9.7
 IPart= 19 NShTot=         649 NBatch=          47 AvBLen=        13.8
 IPart= 10 NShTot=         674 NBatch=          58 AvBLen=        11.6
 IPart=  6 NShTot=         693 NBatch=          68 AvBLen=        10.2
 IPart= 11 NShTot=         672 NBatch=          57 AvBLen=        11.8
 IPart= 17 NShTot=         654 NBatch=          48 AvBLen=        13.6
 IPart=  7 NShTot=         680 NBatch=          62 AvBLen=        11.0
 IPart= 18 NShTot=         651 NBatch=          47 AvBLen=        13.9
 PrSmSu:  NxtVal=            121.
 Entering OneElI...
 Calculate potential energy integrals
    NBasis = 485  MinDer = 2  MaxDer = 2
 Requested accuracy = 0.1000D-12
 PrmmSu-InSpLW:  IPartL=    0 NPrtUS=   20 NPrtUL=    1 DoSpLW=F IThBeg=    0 IThEnd=   19 NThAct=   20.
 PrsmSu:  NPrtUS=  20 ThrOK=T IAlg=1 NPAlg=1 LenDen=           0 ISkipM=0 DoSpLW=F IThBeg=    0 IThEnd=   19.
 Prism:   IPart=     0 DynPar=F LinDyn=F Incr=         138.
 PRISM was handed    33268963 working-precision words and 12062 shell-pairs
 PRISM was handed    33268963 working-precision words and 12062 shell-pairs
 PRISM was handed    33268963 working-precision words and 12062 shell-pairs
 PRISM was handed    33268963 working-precision words and 12062 shell-pairs
 PRISM was handed    33268963 working-precision words and 12062 shell-pairs
 PRISM was handed    33268963 working-precision words and 12062 shell-pairs
 PRISM was handed    33268963 working-precision words and 12062 shell-pairs
 PRISM was handed    33268963 working-precision words and 12062 shell-pairs
 PRISM was handed    33268963 working-precision words and 12062 shell-pairs
 PRISM was handed    33268963 working-precision words and 12062 shell-pairs
 PRISM was handed    33268963 working-precision words and 12062 shell-pairs
 PRISM was handed    33268963 working-precision words and 12062 shell-pairs
 PRISM was handed    33268963 working-precision words and 12062 shell-pairs
 PRISM was handed    33268963 working-precision words and 12062 shell-pairs
 PRISM was handed    33268963 working-precision words and 12062 shell-pairs
 PRISM was handed    33268963 working-precision words and 12062 shell-pairs
 PRISM was handed    33268963 working-precision words and 12062 shell-pairs
 PRISM was handed    33268963 working-precision words and 12062 shell-pairs
 PRISM was handed    33268963 working-precision words and 12062 shell-pairs
 PRISM was handed    33268963 working-precision words and 12062 shell-pairs
 IPart=  0 NShTot=       14559 NBatch=         635 AvBLen=        22.9
 IPart= 16 NShTot=       13432 NBatch=         585 AvBLen=        23.0
 IPart=  1 NShTot=       14467 NBatch=         631 AvBLen=        22.9
 IPart= 13 NShTot=       13547 NBatch=         590 AvBLen=        23.0
 IPart=  9 NShTot=       13846 NBatch=         603 AvBLen=        23.0
 IPart= 12 NShTot=       13662 NBatch=         595 AvBLen=        23.0
 IPart= 14 NShTot=       13547 NBatch=         590 AvBLen=        23.0
 IPart= 19 NShTot=       13271 NBatch=         578 AvBLen=        23.0
 IPart=  8 NShTot=       13892 NBatch=         605 AvBLen=        23.0
 IPart=  5 NShTot=       14283 NBatch=         622 AvBLen=        23.0
 IPart=  6 NShTot=       14099 NBatch=         614 AvBLen=        23.0
 IPart= 17 NShTot=       13340 NBatch=         581 AvBLen=        23.0
 IPart= 18 NShTot=       13340 NBatch=         581 AvBLen=        23.0
 IPart=  4 NShTot=       14329 NBatch=         625 AvBLen=        22.9
 IPart=  7 NShTot=       13938 NBatch=         607 AvBLen=        23.0
 IPart=  2 NShTot=       14444 NBatch=         630 AvBLen=        22.9
 IPart= 10 NShTot=       13800 NBatch=         601 AvBLen=        23.0
 IPart=  3 NShTot=       14398 NBatch=         628 AvBLen=        22.9
 IPart= 11 NShTot=       13777 NBatch=         600 AvBLen=        23.0
 IPart= 15 NShTot=       13455 NBatch=         586 AvBLen=        23.0
 PrSmSu:  NxtVal=           2761.
 Polarizability after L701:
                1             2             3 
      1  0.000000D+00
      2  0.000000D+00  0.000000D+00
      3  0.000000D+00  0.000000D+00  0.000000D+00
 Dipole Derivatives after L701:
                 1             2             3             4             5 
      1   0.178413D+00  0.583180D-01 -0.452406D+00 -0.372840D+00  0.408953D+00
      2   0.139109D+00 -0.826045D+00 -0.293726D+00  0.365193D+00 -0.618920D+00
      3   0.925364D-01  0.239442D-01 -0.575189D+00  0.201461D+00  0.350327D+00
                 6             7             8             9            10 
      1   0.162623D+00 -0.543403D+00 -0.401108D+00 -0.760688D+00 -0.723538D+00
      2   0.169647D+00  0.193733D+00 -0.101643D+01 -0.351507D+00 -0.381454D+00
      3  -0.935369D+00 -0.400294D+00 -0.411798D+00 -0.738507D+00  0.113060D+00
                11            12            13            14            15 
      1  -0.146726D+01  0.117148D+01 -0.428768D+00 -0.113050D+01  0.847947D+00
      2  -0.738281D+00  0.256080D-01 -0.371819D+00 -0.552601D+00  0.375821D+00
      3  -0.150682D+00 -0.680504D+00 -0.214989D+00  0.251668D+00 -0.747091D+00
                16            17            18            19            20 
      1  -0.196473D+01  0.126804D+01 -0.854889D+00 -0.185436D+01  0.112806D+01
      2  -0.510419D-02 -0.921824D+00 -0.399288D-01 -0.889152D-02 -0.931071D+00
      3  -0.741808D-01  0.392104D-01 -0.982269D+00  0.161635D+00 -0.259553D+00
                21            22            23            24            25 
      1  -0.752579D-01  0.233052D+00 -0.108023D+00 -0.808680D+00  0.514652D+00
      2  -0.325322D-01 -0.124870D-03  0.103028D+00 -0.131135D+00  0.197823D+00
      3  -0.939079D+00 -0.439813D-01  0.716545D-01  0.592441D+00  0.311422D-01
                26            27            28            29            30 
      1   0.828562D+00  0.215195D+00  0.137911D+00  0.160864D+00  0.921647D-01
      2   0.642794D+00  0.143523D+00 -0.104479D+00  0.649346D+00  0.217074D+00
      3   0.517700D-01  0.140093D+00 -0.338474D-01  0.213287D+00  0.229593D+00
                31            32            33            34            35 
      1   0.124369D+00 -0.144554D+00  0.172289D+00  0.345598D+00 -0.249510D+00
      2   0.129412D-01  0.234638D+00 -0.947323D-01 -0.272825D+00  0.550495D+00
      3  -0.505086D-01 -0.261587D+00  0.377164D+00  0.239916D+00 -0.318186D+00
                36            37            38            39            40 
      1   0.188133D-01  0.244533D+00 -0.248244D-01 -0.136597D+00  0.517852D+00
      2   0.777388D-02  0.167878D-01  0.124908D+00 -0.241270D-02  0.218757D+00
      3   0.183657D+00 -0.350580D+00  0.138121D+00  0.698757D+00  0.343089D+00
                41            42            43            44            45 
      1   0.882722D-01  0.529403D+00  0.589377D-01  0.154379D+00 -0.331394D-01
      2   0.169368D+00  0.273817D+00 -0.343155D+00  0.720276D+00 -0.979193D-01
      3   0.537534D-01  0.635676D+00 -0.110290D+00  0.153741D+00  0.118519D+00
                46            47            48            49            50 
      1  -0.122204D+00 -0.603903D-01 -0.380819D+00  0.736249D+00  0.758399D+00
      2  -0.122649D+00  0.116151D+00 -0.134062D+00  0.334109D+00  0.588955D+00
      3   0.324059D+00  0.836983D-01  0.563688D+00 -0.143639D+00 -0.190583D+00
                51            52            53            54            55 
      1  -0.127352D+00 -0.281963D+00 -0.475555D+00  0.453977D+00  0.109639D+01
      2  -0.692013D-01  0.238749D+00  0.347706D+00 -0.266416D+00  0.127105D-01
      3   0.164040D+00 -0.250511D+00 -0.267056D+00  0.346363D+00  0.323130D+00
                56            57            58            59            60 
      1   0.627821D+00  0.820694D+00  0.638674D+00 -0.762412D+00 -0.868871D+00
      2   0.156739D+00  0.842941D-02 -0.204694D+00  0.356190D+00  0.301556D+00
      3   0.196533D+00  0.336412D+00 -0.567925D-01  0.747641D-01  0.254293D+00
                61            62            63            64            65 
      1  -0.207873D+00 -0.530853D+00  0.390560D+00  0.134596D+01  0.305637D+00
      2   0.278053D+00  0.498867D+00 -0.300746D+00 -0.104456D+00  0.109582D+00
      3  -0.685830D-01 -0.632770D-01  0.156231D+00  0.793243D-01  0.214063D-01
                66            67            68            69 
      1   0.677140D+00  0.327101D+00 -0.432325D+00 -0.105359D+01
      2  -0.564532D-01 -0.883139D-01  0.236132D+00  0.347522D+00
      3   0.129891D+00 -0.111156D+00  0.198844D+00  0.671189D+00
 Hessian after L701:
                1             2             3             4             5 
      1  0.147324D+02
      2 -0.401943D+00  0.178680D+02
      3 -0.539418D+00 -0.390845D+00  0.173679D+02
      4 -0.455537D+01  0.505905D+00  0.189277D+01  0.152352D+02
      5  0.507037D+00 -0.597568D+01  0.607820D+00 -0.896664D+00  0.172205D+02
      6  0.194394D+01  0.621984D+00 -0.416193D+01 -0.142021D+00  0.105683D+00
      7  0.268515D+00  0.224378D+00  0.175557D+00 -0.440358D+01  0.194264D+01
      8  0.149569D+00 -0.344294D-01  0.947634D-01  0.196052D+01 -0.391273D+01
      9  0.215290D+00  0.139077D+00  0.377964D-01 -0.443028D+00 -0.514748D+00
     10 -0.227658D+01 -0.997584D-01 -0.775096D+00  0.282319D+00  0.580144D-01
     11 -0.971464D-01 -0.597654D+01  0.715089D-01 -0.113580D-01 -0.846287D-01
     12 -0.777983D+00  0.678212D-01 -0.593970D+01  0.178662D+00  0.382846D-01
     13  0.192855D+00  0.212351D+00 -0.150464D+00  0.330328D+00  0.142778D+00
     14  0.163490D+00 -0.954723D-01 -0.455765D-01  0.167974D+00 -0.589942D-01
     15 -0.273364D-02 -0.706686D-02 -0.188316D+00 -0.262124D+00 -0.548966D-01
     16  0.212514D+00 -0.203589D+00  0.119425D+00  0.209403D+00 -0.855856D-01
     17 -0.120517D+00 -0.119315D-01 -0.653691D-01 -0.620262D-01 -0.135747D+00
     18 -0.104346D-01 -0.285312D-01 -0.895257D-01  0.156267D+00 -0.410808D-01
     19  0.194601D+00 -0.285765D-01 -0.425347D-01  0.200631D+00 -0.100952D+00
     20  0.279647D-01 -0.130693D+00 -0.133909D-01  0.156808D-01 -0.201615D+00
     21 -0.303309D-02  0.370230D-02 -0.119340D+00 -0.224018D+00  0.579031D-01
     22 -0.758775D-01  0.443605D-02  0.190424D+00 -0.605236D-01 -0.611136D-02
     23 -0.883101D-02  0.146747D+00  0.179539D-01 -0.150991D-01  0.163107D-01
     24  0.153414D+00  0.100032D-01  0.873288D-01 -0.146554D-01 -0.679409D-02
     25 -0.783303D-01 -0.412027D-01  0.622607D-01  0.819080D-01  0.677604D-01
     26 -0.322052D-01  0.146848D+00  0.517553D-01  0.819173D-01  0.307053D-02
     27  0.475143D-01  0.337908D-01  0.102787D+00  0.479123D-01  0.284526D-01
     28 -0.434264D+01 -0.428669D+00 -0.270001D+00  0.526349D-01 -0.484709D-01
     29 -0.496523D+00 -0.262489D+01  0.987846D+00 -0.318608D-01  0.156194D+00
     30 -0.304752D+00  0.976151D+00 -0.381050D+01 -0.652536D-01 -0.199193D-01
     31 -0.475259D+01  0.260810D+00 -0.352240D+00  0.128111D+00  0.503714D-01
     32  0.305132D+00 -0.356086D+01 -0.134624D+01  0.385546D-01  0.239428D+00
     33 -0.434303D+00 -0.145061D+01 -0.307881D+01 -0.181472D+00  0.322558D-01
     34  0.325705D-01 -0.549896D-02 -0.181327D+00 -0.390718D+01 -0.114605D+01
     35 -0.688591D-03  0.215152D+00  0.499890D-01 -0.125013D+01 -0.275729D+01
     36 -0.199568D+00  0.356075D-01 -0.527729D-01  0.336529D+00 -0.517332D+00
     37  0.110584D+00 -0.402055D-01 -0.173336D+00 -0.390128D+01 -0.196105D+00
     38 -0.293806D-01  0.119216D+00 -0.278717D-01 -0.203280D+00 -0.441850D+01
     39 -0.151273D+00 -0.298891D-01 -0.855955D-01 -0.117668D+01  0.336197D+00
     40  0.935534D-01  0.844664D-01  0.938373D-01  0.128475D-02 -0.128761D+00
     41  0.839597D-01 -0.874249D-02  0.564475D-01 -0.141829D+00 -0.177884D-02
     42  0.119621D+00  0.693291D-01  0.124372D-01 -0.391815D-01 -0.683772D-01
     43 -0.638932D-02  0.130324D-02  0.645925D-03  0.107225D+00 -0.122272D+00
     44  0.362075D-01  0.239326D-01 -0.100421D-01 -0.877955D-01 -0.713605D-01
     45  0.489701D-02  0.557258D-03 -0.196026D-01  0.163739D-01  0.447358D-01
     46 -0.242355D-01  0.323777D-01 -0.477860D-01  0.148974D-02 -0.834670D-02
     47  0.386723D-01 -0.262986D-01 -0.383694D-01 -0.120328D-02  0.151990D-03
     48 -0.967311D-01 -0.569067D-01  0.342744D-01 -0.566371D-02  0.195838D-01
     49  0.229648D-01  0.218850D-01 -0.109349D-01  0.752932D-01  0.851908D-01
     50  0.269542D-01  0.421249D-02 -0.112351D-01  0.102808D+00  0.128833D-01
[...]
 84,0.00108792,0.11978600,-0.17120824,-0.04776232,0.00001589,0.00017467
 ,0.00023967,0.02058087,-0.02479656,-0.00651104,0.00000242,-0.00000230,
 -0.00007365,0.00142330,0.00116215,0.00009787,-0.00000872,0.00000359,-0
 .00000303,-0.00001088,-0.00000172,0.00004886,-0.00008027,0.00018787,0.
 00027355,0.00004009,-0.00011748,0.00002020,0.00006575,0.00007800,-0.00
 036511,-0.00014938,0.00056377,-0.00046768,-0.13026410,0.18971731,-0.00
 023967,0.00314560,-0.00629841,0.02384877,-0.02377095,-0.01070637,0.043
 33680,-0.04752071,-0.06386006,0.00137739,-0.00172755,-0.00003100,-0.00
 565558,0.00734515,0.00138317,-0.00006501,-0.00016976,-0.00002206,0.000
 18876,-0.00057312,-0.00031994,-0.00009551,0.00000592,-0.00000128,0.000
 21489,0.00005756,-0.00074721,-0.00026857,-0.00006736,0.00013102,0.0001
 5399,0.00015613,0.00015710,-0.00074380,-0.00038999,0.00114001,-0.00010
 566,0.00033378,0.00131792,-0.05108511,0.04867135,0.07270705,0.00125557
 ,-0.00016280,0.00017250,0.00572809,0.00172993,0.00425497,-0.22642238,-
 0.03545611,-0.11354786,0.00023469,-0.00005471,0.00022263,-0.00980960,-
 0.00092732,-0.00574588,-0.00003049,0.00000608,-0.00006124,0.00035347,-
 0.00269163,0.00173582,-0.00015824,0.00003436,0.00006873,0.00000025,-0.
 00000509,-0.00008306,-0.00003071,0.00005947,0.00002651,0.00013986,-0.0
 0040411,-0.00047057,0.00088506,0.00024296,0.00192992,0.00056339,0.0003
 6093,-0.00070457,-0.01834432,-0.00360920,-0.01119712,0.24485635,-0.000
 72021,-0.00024049,-0.00033525,0.00330043,0.00003083,0.00287863,-0.0342
 4390,-0.05462823,-0.02383563,0.00016642,0.00000364,-0.00003621,-0.0270
 7681,-0.00671781,-0.01688447,0.00000443,0.00002085,-0.00000142,-0.0010
 6212,-0.00545306,0.00323269,0.00001858,-0.00003738,0.00004771,-0.00001
 104,-0.00000182,-0.00000578,-0.00001847,0.00003414,-0.00003724,0.00013
 076,0.00008135,-0.00013771,-0.00052626,0.00068425,0.00109477,0.0004630
 3,0.00017775,0.00002820,0.01862392,0.00387078,0.01258211,0.04133705,0.
 06024097,-0.00170219,0.00048699,0.00129929,-0.02774831,-0.00456518,-0.
 02091530,-0.11339133,-0.02405488,-0.11908469,0.00036409,0.00011762,-0.
 00000256,0.00759758,0.00126453,0.00426447,-0.00008059,0.00002824,-0.00
 000735,0.00058366,0.00162431,0.00023625,0.00008353,0.00002778,0.000346
 90,0.00013385,-0.00000585,0.00000023,0.00008310,-0.00000884,-0.0000541
 2,0.00105391,-0.00043409,0.00006955,0.00210086,0.00067689,-0.00605865,
 0.00000782,0.00024545,0.00130312,0.00722385,0.00221843,0.00436183,0.12
 354571,0.02286333,0.13336177,0.00035394,0.00080664,0.00107095,0.000018
 78,0.00071728,-0.00007387,0.00950951,-0.00948870,-0.00240117,-0.000142
 48,-0.00043261,-0.00015416,-0.17680097,0.12848001,0.02381827,-0.000001
 82,0.00001746,0.00013069,-0.02109429,0.01864036,0.00270139,0.00001955,
 0.00001099,-0.00000754,0.00002216,0.00000289,-0.00003738,-0.00047606,-
 0.00070731,0.00095524,-0.00021520,0.00010332,-0.00020746,0.00000736,-0
 .00006363,0.00007375,0.00001997,0.00005471,-0.00020218,0.00015728,-0.0
 0306059,0.00104045,0.00085961,0.00068996,-0.00029983,0.19555627,-0.000
 00309,-0.00028194,-0.00028207,0.00048393,0.00055114,-0.00095197,0.0210
 2203,-0.02321250,-0.00493174,-0.00011590,0.00058835,0.00018007,0.12819
 033,-0.17337045,-0.02272221,0.00005086,-0.00007992,-0.00020374,-0.0072
 5773,0.00691602,0.00128713,-0.00001411,0.00000299,-0.00010563,-0.00002
 454,-0.00001465,0.00008884,0.00016804,0.00087703,0.00023485,-0.0002702
 2,-0.00018716,0.00010763,-0.00005197,-0.00000024,0.00003024,-0.0001590
 1,0.00017284,0.00001301,-0.00293544,-0.00495013,0.00197371,-0.00021324
 ,0.00104967,-0.00039196,-0.13800152,0.19119062,0.00028312,0.00012308,-
 0.00056292,-0.00089739,0.00008836,0.00029216,-0.00647678,0.00550567,0.
 00094489,-0.00008562,-0.00007229,-0.00010715,0.02536336,-0.02392144,-0
 .05303709,-0.00000331,0.00003661,0.00009834,-0.01437728,0.01317292,0.0
 0161730,0.00001210,0.00000048,0.00003479,-0.00000707,0.00001183,0.0000
 2632,0.00080830,0.00030382,-0.00209336,0.00000676,-0.00011466,0.000068
 11,0.00006459,0.00007045,-0.00002075,0.00017655,-0.00021038,0.00005587
 ,0.00019873,0.00166841,0.00035086,0.00001957,-0.00066899,0.00021692,-0
 .02549433,0.02687667,0.05668402,0.00041091,-0.00003554,0.00012895,-0.0
 0049049,-0.00215062,-0.00017541,-0.00334223,0.00061387,0.01144574,-0.0
 0006667,-0.00020894,-0.00015495,-0.06159158,0.00239308,0.05957686,0.00
 001094,0.00001222,0.00016881,0.00523679,-0.00187853,-0.02973095,0.0000
 2128,-0.00002440,0.00004776,-0.00002223,0.00001870,0.00002203,-0.00013
 103,-0.00027912,-0.00018829,0.00000504,0.00005294,-0.00006356,0.000057
 10,-0.00016651,0.00018214,0.00001833,-0.00015953,0.00067432,0.00061203
 ,0.00010906,-0.00053383,-0.00020417,0.00044195,0.00009232,-0.00591815,
 0.00003476,0.02267212,0.06774566,0.00020181,-0.00075608,-0.00054413,-0
 .00230838,-0.00576064,-0.00063668,-0.00802875,-0.00179649,0.03236236,-
 0.00005318,0.00029882,0.00006863,0.00291492,-0.04662719,-0.00436050,0.
 00004292,-0.00006131,-0.00002497,0.00150148,-0.00113422,-0.00901495,0.
 00001197,-0.00002569,-0.00002137,-0.00004480,0.00001538,0.00008571,0.0
 0005710,0.00046472,0.00005085,-0.00006878,0.00003204,0.00003082,0.0002
 2988,0.00005922,-0.00008397,-0.00040553,-0.00035427,0.00180421,0.00077
 029,0.00121354,-0.00005307,0.00011814,0.00115868,-0.00062479,0.0049737
 1,-0.00058670,-0.02255035,0.00182618,0.05314713,-0.00027542,-0.0000227
 0,0.00025914,0.00065860,0.00178905,0.00151273,0.00202927,-0.00018821,-
 0.00776484,0.00001719,0.00007498,0.00005988,0.05854664,-0.00356449,-0.
 29567514,-0.00000894,-0.00000131,-0.00008138,0.00292363,-0.00125111,-0
 .01695295,-0.00000464,0.00000456,0.00001288,0.00001826,-0.00001437,-0.
 00002463,-0.00011077,0.00012459,0.00009123,0.00008253,0.00002809,-0.00
 000633,-0.00011037,-0.00017186,0.00019324,0.00014607,0.00003675,-0.000
 66772,-0.00048137,0.00024409,0.00037417,0.00039782,0.00022488,0.000392
 31,0.00157678,-0.00076888,-0.00417578,-0.06210111,0.00403985,0.3215927
 5,0.00027879,0.00081363,-0.00005481,0.00011758,0.00081375,0.00070765,-
 0.00013284,-0.00025945,-0.00006726,0.01132309,-0.01388756,-0.00396876,
 -0.00000468,0.00001101,0.00005818,-0.14556151,0.12743982,0.02727305,0.
 00000888,0.00000255,0.00001875,0.00108299,0.00079156,-0.00042328,-0.00
 070375,-0.00383267,0.00105906,0.00004162,0.00010681,-0.00016765,-0.000
 01783,0.00000255,0.00008702,-0.00026189,-0.00004336,-0.00018870,-0.000
 62451,-0.00079948,0.00130566,0.00001885,-0.00000173,-0.00002262,-0.000
 00069,0.00002377,-0.00005682,0.00000383,-0.00002148,0.00000495,-0.0000
 0055,-0.00002087,0.00000223,0.15616950,0.00060098,0.00038479,-0.000831
 77,-0.00001638,-0.00059627,-0.00029411,-0.00003788,0.00063629,0.000206
 00,0.01772907,-0.02297994,-0.00561139,0.00006401,-0.00011477,-0.000221
 49,0.12622145,-0.20976059,-0.03581192,-0.00001204,0.00003735,-0.000023
 42,-0.00003844,0.00126959,-0.00037978,-0.00369432,-0.00423037,0.001570
 07,-0.00015382,0.00020577,0.00005039,-0.00007722,-0.00000325,0.0000774
 5,-0.00008803,-0.00006886,0.00008615,0.00013687,0.00115078,0.00026278,
 -0.00002323,-0.00001466,0.00007689,-0.00001536,-0.00000951,-0.00006156
 ,-0.00002648,0.00004244,-0.00000987,0.00003200,0.00009330,-0.00003106,
 -0.13714420,0.23019685,-0.00082563,0.00014011,0.00031288,0.00044560,0.
 00007348,-0.00037981,-0.00007601,-0.00010085,-0.00008824,-0.00473501,0
 .00445570,0.00069605,-0.00000784,0.00005487,0.00006160,0.02772587,-0.0
 3640230,-0.05518808,0.00000651,-0.00003020,0.00001026,0.00007228,-0.00
 060259,0.00011046,0.00054557,0.00121367,0.00048189,0.00013468,-0.00021
 294,0.00002419,0.00002197,0.00003483,-0.00002872,-0.00003637,-0.000091
 97,0.00002298,0.00122467,0.00045039,-0.00179738,-0.00000832,0.00001079
 ,0.00002781,0.00000344,0.00001161,0.00000181,-0.00000062,-0.00001141,-
 0.00000783,-0.00002321,-0.00003546,0.00002007,-0.03241697,0.03993270,0
 .05691489,0.00044474,0.00081585,-0.00095631,-0.00006108,-0.00003563,0.
 00032886,-0.00004169,0.00001121,-0.00002434,-0.01374554,-0.00205890,-0
 .00848390,0.00000570,-0.00000175,0.00003649,-0.22152869,-0.01790118,-0
 .12342588,0.00000687,0.00000817,-0.00003802,0.00006024,-0.00324634,0.0
 0086918,0.00066991,-0.00010793,0.00022138,0.00042957,0.00011556,0.0001
 3380,0.00003441,-0.00025681,0.00094463,0.00024420,0.00006489,-0.000080
 34,-0.00028822,0.00007639,-0.00006261,-0.00000184,0.00000278,0.0000207
 4,0.00002008,-0.00001203,0.00009223,-0.00000140,-0.00000174,-0.0000019
 4,0.00000195,-0.00000348,0.00000721,-0.01562347,-0.00226325,-0.0113701
 2,0.24049876,0.00025004,0.00151633,-0.00144297,-0.00000358,0.00007889,
 0.00011274,-0.00002138,0.00006304,0.00003680,-0.02576484,-0.00326251,-
 0.01708045,-0.00002068,0.00001584,-0.00000721,-0.01764318,-0.04870977,
 -0.01350134,0.00001009,-0.00001198,-0.00002478,-0.00286228,-0.00505251
 ,0.00157549,0.00070649,0.00091876,-0.00050135,0.00045044,0.00008192,-0
 .00019336,0.00049499,0.00009121,0.00074650,0.00007744,-0.00016128,-0.0
 0004655,-0.00002485,-0.00006936,0.00008871,-0.00000277,-0.00000375,0.0
 0001642,-0.00001055,0.00001294,0.00000437,0.00000433,-0.00001162,0.000
 00277,0.00000896,0.00000191,0.00000259,0.02002479,0.00276784,0.0161038
 3,0.02359987,0.05294092,0.00125383,0.00004899,0.00143702,-0.00007816,-
 0.00004765,-0.00000092,-0.00003565,-0.00001780,-0.00005781,0.00609623,
 0.00052129,0.00319797,0.00000505,0.00001027,0.00002496,-0.12364298,-0.
 01398796,-0.13488686,0.00000503,-0.00000370,0.00000463,0.00138374,0.00
 140385,0.00050679,-0.00032480,-0.00054507,-0.00006260,-0.00003002,-0.0
 0008258,0.00011702,-0.00047963,-0.00004250,0.00024700,-0.00008462,-0.0
 0000925,0.00004150,-0.00018695,-0.00018280,0.00004999,-0.00002377,0.00
 000347,0.00002370,0.00000416,-0.00000720,-0.00000705,-0.00000085,0.000
 01287,-0.00001297,-0.00001633,-0.00000797,0.00001495,0.00596298,0.0012
 7528,0.00334947,0.13615592,0.01398992,0.14294984,-0.00105408,-0.002592
 95,-0.00067085,0.00036810,-0.00003103,0.00007311,-0.00006820,-0.000170
 90,-0.00011450,-0.00490671,0.00060966,0.01479592,0.00001165,0.00001884
 ,0.00012088,-0.06896803,-0.00208625,0.07325721,0.00001135,-0.00000426,
 0.00000434,-0.00010409,0.00060168,-0.00003750,0.00073311,0.00032953,-0
 .00052455,0.00008774,-0.00012601,0.00089995,0.00020615,-0.00007903,0.0
 0030529,-0.00002818,0.00001244,-0.00003587,-0.00012210,-0.00023831,-0.
 00014497,-0.00001687,0.00001808,0.00002892,0.00001912,-0.00000930,0.00
 003424,-0.00001804,0.00003549,-0.00002438,-0.00004911,-0.00002115,0.00
 002984,-0.00610954,-0.00120898,0.01932556,0.00886769,0.00072340,-0.025
 96079,0.07113460,-0.00294830,-0.00559339,-0.00068224,0.00024996,-0.000
 86860,-0.00042998,-0.00003503,0.00033518,0.00009503,-0.00758181,-0.000
 92320,0.03005944,0.00006178,-0.00007853,-0.00006336,-0.00169489,-0.046
 08148,0.00640468,-0.00000220,0.00002871,-0.00001550,0.00014531,0.00097
 277,-0.00061917,0.00091881,0.00113960,0.00000998,-0.00064181,-0.000326
 56,0.00173432,0.00012349,0.00000245,-0.00027593,-0.00001988,0.00007665
 ,0.00003158,0.00012457,0.00061306,0.00007914,-0.00003711,0.00001239,0.
 00008115,0.00000898,-0.00001916,-0.00000506,-0.00004421,0.00008368,-0.
 00003957,-0.00002539,0.00006458,0.00000918,0.00598445,0.00100612,-0.02
 499985,0.00118575,-0.00121544,-0.00233312,0.00421183,0.05077189,0.0006
 4862,0.00147289,0.00113976,-0.00026534,-0.00000379,0.00023303,0.000017
 76,0.00007752,0.00006441,0.00040225,-0.00063513,-0.00418598,-0.0000141
 7,-0.00002202,-0.00005061,0.07360435,0.00769678,-0.29539754,-0.0000085
 9,0.00001590,0.00000643,0.00037579,0.00027435,0.00028272,-0.00031284,0
 .00041476,0.00035750,0.00032925,-0.00002696,-0.00044602,0.00003585,-0.
 00017742,0.00037867,0.00008340,0.00002877,-0.00001977,-0.00010562,0.00
 015264,0.00006141,0.00002798,-0.00001254,-0.00003216,-0.00000666,0.000
 00435,0.00001065,0.00001014,-0.00002554,0.00002848,0.00003528,0.000016
 41,-0.00002929,0.00090166,-0.00027656,-0.00455617,0.00562226,0.0001140
 1,-0.01694603,-0.08138024,-0.00907882,0.31913455,-0.00021627,-0.000691
 37,0.00007099,0.00004073,-0.00094766,0.00066608,0.00097335,0.00054808,
 0.00028466,0.00005625,0.00012934,0.00013694,0.00723344,-0.00309205,-0.
 02867181,0.00001582,-0.00003054,-0.00009603,-0.06025263,0.00816706,0.0
 5873302,0.00001986,-0.00000120,0.00001398,0.00000636,-0.00000492,-0.00
 000480,-0.00048828,0.00056249,-0.00012070,0.00018220,0.00021679,-0.000
 05335,-0.00056094,-0.00074814,0.00022899,-0.00003286,0.00015810,0.0000
 1541,-0.00007582,-0.00006363,0.00001080,0.00006762,0.00021751,0.000125
 67,0.00139301,0.00058757,0.00067054,-0.00460552,-0.00196147,-0.0033417
 6,-0.00000132,0.00001886,0.00000701,-0.00000357,0.00000314,0.00000572,
 0.00002289,0.00003889,-0.00002610,0.06548125,0.00003433,0.00024049,0.0
 0020093,-0.00069147,-0.00038803,-0.00011382,0.00062372,0.00012548,-0.0
 0075115,-0.00005381,-0.00005495,0.00000251,0.00258586,-0.00162654,-0.0
 0735649,0.00000221,0.00000593,0.00000293,0.00757861,-0.05149231,-0.032
 50551,-0.00000422,0.00002846,0.00006528,0.00006392,-0.00000609,-0.0000
 2707,0.00002923,0.00007721,-0.00004723,0.00015403,-0.00005910,-0.00004
 318,-0.00066377,-0.00142454,0.00062827,0.00027228,0.00006833,0.0000665
 4,-0.00007005,0.00001889,-0.00000767,-0.00004927,0.00009378,0.00028331
 ,-0.00002125,0.00030484,0.00063253,-0.00139525,0.00030494,-0.00065313,
 -0.00000528,-0.00002924,0.00000983,0.00000704,0.00000530,0.00000661,0.
 00000960,-0.00000423,-0.00001601,-0.00695502,0.05234853,0.00004333,0.0
 0007625,0.00026942,-0.00005009,0.00047039,-0.00058528,0.00029435,0.000
 63838,-0.00019612,0.00002397,0.00006596,0.00014376,0.00301559,-0.00201
 309,-0.01704835,-0.00001555,0.00000210,-0.00005325,0.05808441,-0.03315
 952,-0.29530441,-0.00010672,-0.00003909,0.00000558,-0.00001796,-0.0000
 0442,0.00000207,-0.00036674,-0.00010082,0.00010011,0.00009799,0.000071
 58,-0.00001323,0.00097730,0.00060386,0.00047251,0.00027647,0.00004993,
 0.00035916,-0.00001284,0.00003913,0.00004613,-0.00009037,-0.00010831,0
 .00012832,0.00006463,0.00030040,0.00060446,-0.00344994,-0.00089512,-0.
 00025743,-0.00000797,0.00000401,0.00000770,0.00000332,-0.00000702,0.00
 000795,0.00000904,0.00001784,-0.00001717,-0.06180568,0.03551472,0.3229
 9378,0.00008254,0.00023642,-0.00002416,-0.00017337,-0.00013105,0.00005
 053,0.00118828,0.00154001,0.00052142,0.00001232,-0.00012336,-0.0000512
 4,-0.02093973,0.01962313,0.00227372,-0.00001497,0.00002122,0.00004952,
 -0.17237941,0.13109455,0.01446210,0.00000839,0.00001328,0.00002612,0.0
 0001476,-0.00000107,-0.00002319,0.00008433,-0.00014388,-0.00016432,0.0
 0006448,-0.00005571,-0.00000600,-0.00016383,0.00000437,0.00036888,0.00
 005104,-0.00005966,0.00010204,-0.00001875,-0.00107187,-0.00007170,0.00
 054963,-0.00009961,-0.00011922,-0.00366418,-0.00206043,-0.00367666,0.0
 0095823,-0.00011504,-0.00005974,0.00000087,-0.00001885,0.00000100,0.00
 000418,0.00000139,-0.00000145,-0.00000724,-0.00002109,0.00000787,-0.00
 543104,0.00467091,0.00051323,0.19003080,-0.00020626,-0.00003614,-0.000
 08633,0.00011427,0.00014205,-0.00000355,-0.00078358,0.00151154,0.00040
 428,0.00004725,-0.00000234,0.00002565,-0.00649225,0.00621932,0.0012918
 9,-0.00000216,-0.00000129,-0.00002167,0.13146441,-0.18365118,-0.014007
 25,-0.00000190,-0.00000544,0.00000484,0.00000063,-0.00000053,-0.000014
 42,-0.00002885,0.00002871,-0.00001851,0.00000909,0.00001941,0.00005516
 ,0.00019429,0.00001059,-0.00001021,0.00006494,0.00001516,-0.00001255,0
 .00064128,0.00019004,-0.00024920,0.00012710,0.00016261,-0.00001407,-0.
 00235360,0.00049611,-0.00075084,0.00057706,0.00016296,0.00047582,0.000
 00144,0.00000003,0.00000915,-0.00000171,0.00000219,0.00000349,0.000008
 97,0.00000430,-0.00001151,0.00136024,-0.00308107,-0.00013338,-0.143986
 40,0.19680345,0.00002961,-0.00018387,0.00002223,0.00024004,-0.00034001
 ,0.00027247,0.00087736,0.00058068,0.00062434,0.00003487,0.00001118,0.0
 0003520,-0.01353140,0.01370108,0.00126097,0.00001535,-0.00001492,-0.00
 001308,0.01457109,-0.01404001,-0.04887200,-0.00000833,-0.00003767,0.00
 002154,-0.00001877,0.00000397,0.00000211,-0.00021289,0.00011750,-0.000
 01358,0.00005949,0.00018040,-0.00003556,-0.00017985,-0.00009437,-0.000
 23367,-0.00008626,0.00004241,0.00001628,0.00026468,-0.00041066,0.00005
 936,0.00021251,0.00011827,-0.00017024,-0.00316366,-0.00124828,-0.00140
 645,0.00059315,0.00058088,0.00033848,0.00000160,0.00001951,-0.00000115
 ,-0.00000025,0.00000670,-0.00000269,0.00000072,0.00001167,-0.00000400,
 0.02176150,-0.02349725,-0.00135982,-0.01249318,0.01623547,0.04938744,0
 .00010153,-0.00008021,0.00002388,0.00011019,0.00025036,-0.00062738,-0.
 00415567,0.00053774,-0.00366102,-0.00002474,0.00003921,-0.00002637,-0.
 01014235,-0.02369268,0.01052101,-0.00000074,-0.00000036,0.00002534,-0.
 08717925,-0.08840284,0.03688721,0.00001019,-0.00000615,0.00000305,-0.0
 0003124,0.00000664,0.00004004,0.00005334,-0.00003558,-0.00001495,0.000
 01276,-0.00004991,-0.00003223,0.00008412,0.00014520,0.00012022,0.00001
 242,-0.00001737,0.00006655,0.00010550,-0.00021738,-0.00013730,-0.00053
 221,-0.00163805,0.00027588,0.00041135,0.00055743,0.00076406,0.00134347
 ,0.00038304,0.00005802,-0.00000343,0.00001523,-0.00001408,0.00000721,-
 0.00000126,-0.00000667,-0.00001020,-0.00000212,0.00001711,-0.00382456,
 -0.00612233,0.00252022,0.00974269,0.01924573,-0.00896737,0.09390960,-0
 .00002350,-0.00010578,0.00000407,0.00018156,0.00024682,-0.00027770,-0.
 00169846,0.00101481,-0.00145547,-0.00001794,0.00004174,-0.00002621,-0.
 00141732,-0.00600916,0.00225831,0.00000914,-0.00000329,0.00001906,-0.0
 8897837,-0.24418639,0.08037537,0.00000677,-0.00001667,0.00000920,-0.00
 002620,0.00000811,0.00003420,-0.00001122,0.00002038,-0.00000886,-0.000
 00921,0.00003021,0.00001028,0.00012463,0.00003777,-0.00013238,-0.00001
 717,-0.00001559,0.00002508,0.00015341,0.00043304,0.00008360,-0.0004256
 2,-0.00051478,0.00032502,-0.00030176,0.00041960,-0.00015518,0.00020306
 ,0.00008538,-0.00038731,-0.00000003,0.00001630,-0.00001339,0.00000323,
 0.00000114,-0.00000844,-0.00001135,-0.00000079,0.00001794,0.00248794,0
 .00454394,-0.00139378,-0.00931725,-0.01899044,0.00825731,0.09908566,0.
 26294364,-0.00001435,-0.00000906,0.00015398,-0.00035204,0.00036457,-0.
 00066813,-0.00346677,-0.00013991,-0.00229224,-0.00004793,0.00003596,0.
 00003350,-0.00710301,-0.01788108,0.00610781,0.00000534,-0.00000569,-0.
 00001529,0.03746863,0.08116741,-0.07937606,-0.00000683,0.00000281,0.00
 005080,0.00002800,-0.00000538,-0.00000253,-0.00008612,0.00011721,-0.00
 002468,0.00010916,-0.00001492,-0.00001237,0.00052597,-0.00010742,0.000
 43555,0.00026400,0.00004231,0.00023988,0.00008755,0.00023340,-0.000061
 64,-0.00068698,-0.00102835,0.00030655,0.00060075,0.00053802,0.00040179
 ,0.00079808,-0.00018639,0.00077367,-0.00000795,-0.00000829,0.00000535,
 0.00000772,0.00000417,0.00000414,0.00000862,0.00000859,-0.00001288,0.0
 1138892,0.02760503,-0.01030588,-0.00168557,-0.00317226,0.00007181,-0.0
 3783520,-0.08756075,0.08418688\\-0.00000026,-0.00000030,-0.00000036,0.
 00000054,0.00000032,0.00000064,0.00000058,-0.00000078,0.00000033,-0.00
 000042,0.00000010,-0.00000031,-0.00000041,-0.00000069,-0.00000049,0.00
 000081,0.00000040,0.00000062,-0.00000066,0.00000085,-0.00000053,-0.000
 00011,0.00000147,-0.00000020,-0.00000087,0.00000016,-0.00000064,-0.000
 00087,-0.00000012,-0.00000086,-0.00000007,-0.00000133,-0.00000046,0.00
 000036,0.00000107,0.00000051,0.00000096,-0.00000021,0.00000126,0.00000
 099,-0.00000047,0.00000094,0.00000058,-0.00000174,0.00000048,-0.000001
 01,-0.00000113,-0.00000106,-0.00000035,-0.00000119,-0.00000044,0.00000
 123,0.00000042,0.00000131,0.00000074,-0.00000080,0.00000061,0.00000061
 ,0.00000074,0.00000070,-0.00000087,0.00000127,-0.00000080,-0.00000020,
 0.00000122,-0.00000003,-0.00000130,0.00000073,-0.00000121\\\@


 TIMES HAVE CHANGED. IN THE BIBLE WHEN AN ASS
 SPOKE IT WAS CONSIDERED A MIRACLE.
 Job cpu time:       0 days  7 hours 25 minutes 49.7 seconds.
 Elapsed time:       0 days  3 hours 42 minutes 58.8 seconds.
 File lengths (MBytes):  RWF=   1488 Int=      0 D2E=      0 Chk=     32 Scr=     32
 Normal termination of Gaussian 16 at Sun Sep 29 11:17:17 2019.
