 Entering Gaussian System, Link 0=g16
 Input=tight/species/CCCCCCC/conformers/CCCCCCC_779.com
 Output=tight/species/CCCCCCC/conformers/CCCCCCC_779.log
 Initial command:
 /shared/centos7/gaussian/g16/l1.exe "/scratch/harms.n/gauss_scrdir/Gau-36704.inp" -scrdir="/scratch/harms.n/gauss_scrdir/"
 Entering Link 1 = /shared/centos7/gaussian/g16/l1.exe PID=     36705.
  
 Copyright (c) 1988,1990,1992,1993,1995,1998,2003,2009,2016,
            Gaussian, Inc.  All Rights Reserved.
  
 This is part of the Gaussian(R) 16 program.  It is based on
 the Gaussian(R) 09 system (copyright 2009, Gaussian, Inc.),
 the Gaussian(R) 03 system (copyright 2003, Gaussian, Inc.),
 the Gaussian(R) 98 system (copyright 1998, Gaussian, Inc.),
 the Gaussian(R) 94 system (copyright 1995, Gaussian, Inc.),
 the Gaussian 92(TM) system (copyright 1992, Gaussian, Inc.),
 the Gaussian 90(TM) system (copyright 1990, Gaussian, Inc.),
 the Gaussian 88(TM) system (copyright 1988, Gaussian, Inc.),
 the Gaussian 86(TM) system (copyright 1986, Carnegie Mellon
 University), and the Gaussian 82(TM) system (copyright 1983,
 Carnegie Mellon University). Gaussian is a federally registered
 trademark of Gaussian, Inc.
  
 This software contains proprietary and confidential information,
 including trade secrets, belonging to Gaussian, Inc.
  
 This software is provided under written license and may be
 used, copied, transmitted, or stored only in accord with that
 written license.
  
 The following legend is applicable only to US Government
 contracts under FAR:
  
                    RESTRICTED RIGHTS LEGEND
  
 Use, reproduction and disclosure by the US Government is
 subject to restrictions as set forth in subparagraphs (a)
 and (c) of the Commercial Computer Software - Restricted
 Rights clause in FAR 52.227-19.
  
 Gaussian, Inc.
 340 Quinnipiac St., Bldg. 40, Wallingford CT 06492
  
  
 ---------------------------------------------------------------
 Warning -- This program may not be used in any manner that
 competes with the business of Gaussian, Inc. or will provide
 assistance to any competitor of Gaussian, Inc.  The licensee
 of this program is prohibited from giving any competitor of
 Gaussian, Inc. access to this program.  By using this program,
 the user acknowledges that Gaussian, Inc. is engaged in the
 business of creating and licensing software in the field of
 computational chemistry and represents and warrants to the
 licensee that it is not a competitor of Gaussian, Inc. and that
 it will not use this program in any manner prohibited above.
 ---------------------------------------------------------------
  

 Cite this work as:
 Gaussian 16, Revision A.03,
 M. J. Frisch, G. W. Trucks, H. B. Schlegel, G. E. Scuseria, 
 M. A. Robb, J. R. Cheeseman, G. Scalmani, V. Barone, 
 G. A. Petersson, H. Nakatsuji, X. Li, M. Caricato, A. V. Marenich, 
 J. Bloino, B. G. Janesko, R. Gomperts, B. Mennucci, H. P. Hratchian, 
 J. V. Ortiz, A. F. Izmaylov, J. L. Sonnenberg, D. Williams-Young, 
 F. Ding, F. Lipparini, F. Egidi, J. Goings, B. Peng, A. Petrone, 
 T. Henderson, D. Ranasinghe, V. G. Zakrzewski, J. Gao, N. Rega, 
 G. Zheng, W. Liang, M. Hada, M. Ehara, K. Toyota, R. Fukuda, 
 J. Hasegawa, M. Ishida, T. Nakajima, Y. Honda, O. Kitao, H. Nakai, 
 T. Vreven, K. Throssell, J. A. Montgomery, Jr., J. E. Peralta, 
 F. Ogliaro, M. J. Bearpark, J. J. Heyd, E. N. Brothers, K. N. Kudin, 
 V. N. Staroverov, T. A. Keith, R. Kobayashi, J. Normand, 
 K. Raghavachari, A. P. Rendell, J. C. Burant, S. S. Iyengar, 
 J. Tomasi, M. Cossi, J. M. Millam, M. Klene, C. Adamo, R. Cammi, 
 J. W. Ochterski, R. L. Martin, K. Morokuma, O. Farkas, 
 J. B. Foresman, and D. J. Fox, Gaussian, Inc., Wallingford CT, 2016.
 
 ******************************************
 Gaussian 16:  EM64L-G16RevA.03 25-Dec-2016
                29-Sep-2019 
 ******************************************
 %nprocshared=20
 Will use up to   20 processors via shared memory.
 %mem=5GB
 ----------------------------------------------------------------------
 #p m062x/cc-pVTZ opt=(calcfc,maxcycles=900,Tight) freq IOP(7/33=1,2/16
 =3) scf=(maxcycle=900)
 ----------------------------------------------------------------------
 1/6=900,7=10,10=4,18=20,19=15,26=3,38=1/1,3;
 2/9=110,12=2,16=3,17=6,18=5,40=1/2;
 3/5=16,6=1,11=2,25=1,30=1,71=2,74=-55,140=1/1,2,3;
 4//1;
 5/5=2,7=900,38=5/2;
 8/6=4,10=90,11=11/1;
 11/6=1,8=1,9=11,15=111,16=1/1,2,10;
 10/6=1,13=1/2;
 6/7=2,8=2,9=2,10=2,28=1/1;
 7/10=1,18=20,25=1,33=1/1,2,3,16;
 1/6=900,7=10,10=4,18=20,19=15,26=3/3(2);
 2/9=110,16=3/2;
 99//99;
 2/9=110,16=3/2;
 3/5=16,6=1,11=2,25=1,30=1,71=1,74=-55/1,2,3;
 4/5=5,16=3,69=1/1;
 5/5=2,7=900,38=5/2;
 7/33=1/1,2,3,16;
 1/6=900,7=10,18=20,19=15,26=3/3(-5);
 2/9=110,16=3/2;
 6/7=2,8=2,9=2,10=2,19=2,28=1/1;
 99/9=1/99;
 Leave Link    1 at Sun Sep 29 08:31:18 2019, MaxMem=   671088640 cpu:               4.9 elap:               2.5
 (Enter /shared/centos7/gaussian/g16/l101.exe)
 ------------------------------
 Gaussian input prepared by ASE
 ------------------------------
 Symbolic Z-matrix:
 Charge =  0 Multiplicity = 1
 C                     1.4077   -1.16395   0.5356 
 C                     0.16675  -0.46733   0.97914 
 C                    -1.11276  -1.2062    0.67596 
 C                     2.13122  -0.48504  -0.57824 
 C                    -2.0525   -0.50396  -0.27558 
 C                     3.358    -1.17492  -1.01259 
 C                    -1.46078  -0.16272  -1.61847 
 H                     2.38008   0.56659  -0.25999 
 H                     1.43879  -0.3666   -1.44558 
 H                     1.16883  -2.20475   0.23023 
 H                     2.10113  -1.26323   1.39579 
 H                     0.12676   0.53867   0.53301 
 H                     0.22379  -0.29771   2.07515 
 H                    -1.66027  -1.38678   1.61657 
 H                    -0.88441  -2.21314   0.26967 
 H                    -2.94662  -1.16162  -0.43545 
 H                    -2.43554   0.41877   0.19252 
 H                     3.56705  -2.08155  -0.4141 
 H                     3.29088  -1.49928  -2.09325 
 H                     4.24649  -0.51334  -0.93267 
 H                    -0.84183  -0.97013  -2.01161 
 H                    -0.82402   0.76315  -1.5622 
 H                    -2.28065   0.03786  -2.36645 
 
 ITRead=  0  0  0  0  0  0  0  0  0  0  0  0  0  0  0  0  0  0  0  0
 ITRead=  0  0  0
 MicOpt= -1 -1 -1 -1 -1 -1 -1 -1 -1 -1 -1 -1 -1 -1 -1 -1 -1 -1 -1 -1
 MicOpt= -1 -1 -1
 NAtoms=     23 NQM=       23 NQMF=       0 NMMI=      0 NMMIF=      0
                NMic=       0 NMicF=      0.
                    Isotopes and Nuclear Properties:
 (Nuclear quadrupole moments (NQMom) in fm**2, nuclear magnetic moments (NMagM)
  in nuclear magnetons)

  Atom         1           2           3           4           5           6           7           8           9          10
 IAtWgt=          12          12          12          12          12          12          12           1           1           1
 AtmWgt=  12.0000000  12.0000000  12.0000000  12.0000000  12.0000000  12.0000000  12.0000000   1.0078250   1.0078250   1.0078250
 NucSpn=           0           0           0           0           0           0           0           1           1           1
 AtZEff=  -0.0000000  -0.0000000  -0.0000000  -0.0000000  -0.0000000  -0.0000000  -0.0000000  -0.0000000  -0.0000000  -0.0000000
 NQMom=    0.0000000   0.0000000   0.0000000   0.0000000   0.0000000   0.0000000   0.0000000   0.0000000   0.0000000   0.0000000
 NMagM=    0.0000000   0.0000000   0.0000000   0.0000000   0.0000000   0.0000000   0.0000000   2.7928460   2.7928460   2.7928460
 AtZNuc=   6.0000000   6.0000000   6.0000000   6.0000000   6.0000000   6.0000000   6.0000000   1.0000000   1.0000000   1.0000000

  Atom        11          12          13          14          15          16          17          18          19          20
 IAtWgt=           1           1           1           1           1           1           1           1           1           1
 AtmWgt=   1.0078250   1.0078250   1.0078250   1.0078250   1.0078250   1.0078250   1.0078250   1.0078250   1.0078250   1.0078250
 NucSpn=           1           1           1           1           1           1           1           1           1           1
 AtZEff=  -0.0000000  -0.0000000  -0.0000000  -0.0000000  -0.0000000  -0.0000000  -0.0000000  -0.0000000  -0.0000000  -0.0000000
 NQMom=    0.0000000   0.0000000   0.0000000   0.0000000   0.0000000   0.0000000   0.0000000   0.0000000   0.0000000   0.0000000
 NMagM=    2.7928460   2.7928460   2.7928460   2.7928460   2.7928460   2.7928460   2.7928460   2.7928460   2.7928460   2.7928460
 AtZNuc=   1.0000000   1.0000000   1.0000000   1.0000000   1.0000000   1.0000000   1.0000000   1.0000000   1.0000000   1.0000000

  Atom        21          22          23
 IAtWgt=           1           1           1
 AtmWgt=   1.0078250   1.0078250   1.0078250
 NucSpn=           1           1           1
 AtZEff=  -0.0000000  -0.0000000  -0.0000000
 NQMom=    0.0000000   0.0000000   0.0000000
 NMagM=    2.7928460   2.7928460   2.7928460
 AtZNuc=   1.0000000   1.0000000   1.0000000
 Leave Link  101 at Sun Sep 29 08:31:19 2019, MaxMem=   671088640 cpu:               2.1 elap:               1.0
 (Enter /shared/centos7/gaussian/g16/l103.exe)

 GradGradGradGradGradGradGradGradGradGradGradGradGradGradGradGradGradGrad
 Berny optimization.
 Initialization pass.
                           ----------------------------
                           !    Initial Parameters    !
                           ! (Angstroms and Degrees)  !
 --------------------------                            --------------------------
 ! Name  Definition              Value          Derivative Info.                !
 --------------------------------------------------------------------------------
 ! R1    R(1,2)                  1.4906         calculate D2E/DX2 analytically  !
 ! R2    R(1,4)                  1.4917         calculate D2E/DX2 analytically  !
 ! R3    R(1,10)                 1.1107         calculate D2E/DX2 analytically  !
 ! R4    R(1,11)                 1.1093         calculate D2E/DX2 analytically  !
 ! R5    R(2,3)                  1.5083         calculate D2E/DX2 analytically  !
 ! R6    R(2,12)                 1.1012         calculate D2E/DX2 analytically  !
 ! R7    R(2,13)                 1.1105         calculate D2E/DX2 analytically  !
 ! R8    R(3,5)                  1.5105         calculate D2E/DX2 analytically  !
 ! R9    R(3,14)                 1.1032         calculate D2E/DX2 analytically  !
 ! R10   R(3,15)                 1.1096         calculate D2E/DX2 analytically  !
 ! R11   R(4,6)                  1.473          calculate D2E/DX2 analytically  !
 ! R12   R(4,8)                  1.1266         calculate D2E/DX2 analytically  !
 ! R13   R(4,9)                  1.1161         calculate D2E/DX2 analytically  !
 ! R14   R(5,7)                  1.5066         calculate D2E/DX2 analytically  !
 ! R15   R(5,16)                 1.1214         calculate D2E/DX2 analytically  !
 ! R16   R(5,17)                 1.1033         calculate D2E/DX2 analytically  !
 ! R17   R(6,18)                 1.1063         calculate D2E/DX2 analytically  !
 ! R18   R(6,19)                 1.1303         calculate D2E/DX2 analytically  !
 ! R19   R(6,20)                 1.1106         calculate D2E/DX2 analytically  !
 ! R20   R(7,21)                 1.0907         calculate D2E/DX2 analytically  !
 ! R21   R(7,22)                 1.1251         calculate D2E/DX2 analytically  !
 ! R22   R(7,23)                 1.1278         calculate D2E/DX2 analytically  !
 ! A1    A(2,1,4)              114.4116         calculate D2E/DX2 analytically  !
 ! A2    A(2,1,10)             109.9196         calculate D2E/DX2 analytically  !
 ! A3    A(2,1,11)             109.3586         calculate D2E/DX2 analytically  !
 ! A4    A(4,1,10)             108.9974         calculate D2E/DX2 analytically  !
 ! A5    A(4,1,11)             108.4543         calculate D2E/DX2 analytically  !
 ! A6    A(10,1,11)            105.2935         calculate D2E/DX2 analytically  !
 ! A7    A(1,2,3)              114.6754         calculate D2E/DX2 analytically  !
 ! A8    A(1,2,12)             109.6701         calculate D2E/DX2 analytically  !
 ! A9    A(1,2,13)             108.801          calculate D2E/DX2 analytically  !
 ! A10   A(3,2,12)             109.5895         calculate D2E/DX2 analytically  !
 ! A11   A(3,2,13)             108.4682         calculate D2E/DX2 analytically  !
 ! A12   A(12,2,13)            105.1986         calculate D2E/DX2 analytically  !
 ! A13   A(2,3,5)              115.2544         calculate D2E/DX2 analytically  !
 ! A14   A(2,3,14)             109.2567         calculate D2E/DX2 analytically  !
 ! A15   A(2,3,15)             110.0949         calculate D2E/DX2 analytically  !
 ! A16   A(5,3,14)             107.7237         calculate D2E/DX2 analytically  !
 ! A17   A(5,3,15)             108.6189         calculate D2E/DX2 analytically  !
 ! A18   A(14,3,15)            105.4139         calculate D2E/DX2 analytically  !
 ! A19   A(1,4,6)              114.2678         calculate D2E/DX2 analytically  !
 ! A20   A(1,4,8)              108.7281         calculate D2E/DX2 analytically  !
 ! A21   A(1,4,9)              109.1265         calculate D2E/DX2 analytically  !
 ! A22   A(6,4,8)              109.6654         calculate D2E/DX2 analytically  !
 ! A23   A(6,4,9)              109.7089         calculate D2E/DX2 analytically  !
 ! A24   A(8,4,9)              104.9224         calculate D2E/DX2 analytically  !
 ! A25   A(3,5,7)              114.9885         calculate D2E/DX2 analytically  !
 ! A26   A(3,5,16)             108.2517         calculate D2E/DX2 analytically  !
 ! A27   A(3,5,17)             109.7265         calculate D2E/DX2 analytically  !
 ! A28   A(7,5,16)             108.5969         calculate D2E/DX2 analytically  !
 ! A29   A(7,5,17)             108.9716         calculate D2E/DX2 analytically  !
 ! A30   A(16,5,17)            105.9118         calculate D2E/DX2 analytically  !
 ! A31   A(4,6,18)             112.4385         calculate D2E/DX2 analytically  !
 ! A32   A(4,6,19)             111.5239         calculate D2E/DX2 analytically  !
 ! A33   A(4,6,20)             111.474          calculate D2E/DX2 analytically  !
 ! A34   A(18,6,19)            107.0541         calculate D2E/DX2 analytically  !
 ! A35   A(18,6,20)            107.342          calculate D2E/DX2 analytically  !
 ! A36   A(19,6,20)            106.6933         calculate D2E/DX2 analytically  !
 ! A37   A(5,7,21)             112.1166         calculate D2E/DX2 analytically  !
 ! A38   A(5,7,22)             111.3511         calculate D2E/DX2 analytically  !
 ! A39   A(5,7,23)             110.238          calculate D2E/DX2 analytically  !
 ! A40   A(21,7,22)            107.8208         calculate D2E/DX2 analytically  !
 ! A41   A(21,7,23)            107.7676         calculate D2E/DX2 analytically  !
 ! A42   A(22,7,23)            107.3521         calculate D2E/DX2 analytically  !
 ! D1    D(4,1,2,3)            112.1363         calculate D2E/DX2 analytically  !
 ! D2    D(4,1,2,12)           -11.6477         calculate D2E/DX2 analytically  !
 ! D3    D(4,1,2,13)          -126.2176         calculate D2E/DX2 analytically  !
 ! D4    D(10,1,2,3)           -10.8682         calculate D2E/DX2 analytically  !
 ! D5    D(10,1,2,12)         -134.6523         calculate D2E/DX2 analytically  !
 ! D6    D(10,1,2,13)          110.7778         calculate D2E/DX2 analytically  !
 ! D7    D(11,1,2,3)          -125.9987         calculate D2E/DX2 analytically  !
 ! D8    D(11,1,2,12)          110.2173         calculate D2E/DX2 analytically  !
 ! D9    D(11,1,2,13)           -4.3526         calculate D2E/DX2 analytically  !
 ! D10   D(2,1,4,6)            179.91           calculate D2E/DX2 analytically  !
 ! D11   D(2,1,4,8)             57.047          calculate D2E/DX2 analytically  !
 ! D12   D(2,1,4,9)            -56.8672         calculate D2E/DX2 analytically  !
 ! D13   D(10,1,4,6)           -56.5885         calculate D2E/DX2 analytically  !
 ! D14   D(10,1,4,8)          -179.4515         calculate D2E/DX2 analytically  !
 ! D15   D(10,1,4,9)            66.6343         calculate D2E/DX2 analytically  !
 ! D16   D(11,1,4,6)            57.5515         calculate D2E/DX2 analytically  !
 ! D17   D(11,1,4,8)           -65.3115         calculate D2E/DX2 analytically  !
 ! D18   D(11,1,4,9)          -179.2257         calculate D2E/DX2 analytically  !
 ! D19   D(1,2,3,5)           -116.7285         calculate D2E/DX2 analytically  !
 ! D20   D(1,2,3,14)           121.8493         calculate D2E/DX2 analytically  !
 ! D21   D(1,2,3,15)             6.5339         calculate D2E/DX2 analytically  !
 ! D22   D(12,2,3,5)             7.0985         calculate D2E/DX2 analytically  !
 ! D23   D(12,2,3,14)         -114.3237         calculate D2E/DX2 analytically  !
 ! D24   D(12,2,3,15)          130.3609         calculate D2E/DX2 analytically  !
 ! D25   D(13,2,3,5)           121.444          calculate D2E/DX2 analytically  !
 ! D26   D(13,2,3,14)            0.0218         calculate D2E/DX2 analytically  !
 ! D27   D(13,2,3,15)         -115.2936         calculate D2E/DX2 analytically  !
 ! D28   D(2,3,5,7)             57.1075         calculate D2E/DX2 analytically  !
 ! D29   D(2,3,5,16)           178.7207         calculate D2E/DX2 analytically  !
 ! D30   D(2,3,5,17)           -66.133          calculate D2E/DX2 analytically  !
 ! D31   D(14,3,5,7)           179.3555         calculate D2E/DX2 analytically  !
 ! D32   D(14,3,5,16)          -59.0313         calculate D2E/DX2 analytically  !
 ! D33   D(14,3,5,17)           56.115          calculate D2E/DX2 analytically  !
 ! D34   D(15,3,5,7)           -66.9338         calculate D2E/DX2 analytically  !
 ! D35   D(15,3,5,16)           54.6794         calculate D2E/DX2 analytically  !
 ! D36   D(15,3,5,17)          169.8257         calculate D2E/DX2 analytically  !
 ! D37   D(1,4,6,18)            -1.8341         calculate D2E/DX2 analytically  !
 ! D38   D(1,4,6,19)           118.4276         calculate D2E/DX2 analytically  !
 ! D39   D(1,4,6,20)          -122.4312         calculate D2E/DX2 analytically  !
 ! D40   D(8,4,6,18)           120.5188         calculate D2E/DX2 analytically  !
 ! D41   D(8,4,6,19)          -119.2195         calculate D2E/DX2 analytically  !
 ! D42   D(8,4,6,20)            -0.0783         calculate D2E/DX2 analytically  !
 ! D43   D(9,4,6,18)          -124.7415         calculate D2E/DX2 analytically  !
 ! D44   D(9,4,6,19)            -4.4798         calculate D2E/DX2 analytically  !
 ! D45   D(9,4,6,20)           114.6614         calculate D2E/DX2 analytically  !
 ! D46   D(3,5,7,21)            41.4692         calculate D2E/DX2 analytically  !
 ! D47   D(3,5,7,22)           -79.4318         calculate D2E/DX2 analytically  !
 ! D48   D(3,5,7,23)           161.5286         calculate D2E/DX2 analytically  !
 ! D49   D(16,5,7,21)          -79.9565         calculate D2E/DX2 analytically  !
 ! D50   D(16,5,7,22)          159.1425         calculate D2E/DX2 analytically  !
 ! D51   D(16,5,7,23)           40.103          calculate D2E/DX2 analytically  !
 ! D52   D(17,5,7,21)          165.1111         calculate D2E/DX2 analytically  !
 ! D53   D(17,5,7,22)           44.2101         calculate D2E/DX2 analytically  !
 ! D54   D(17,5,7,23)          -74.8294         calculate D2E/DX2 analytically  !
 --------------------------------------------------------------------------------
 Trust Radius=3.00D-01 FncErr=1.00D-07 GrdErr=1.00D-06 EigMax=2.50D+02 EigMin=1.00D-04
 Number of steps in this run=    138 maximum allowed number of steps=    138.
 GradGradGradGradGradGradGradGradGradGradGradGradGradGradGradGradGradGrad

 Leave Link  103 at Sun Sep 29 08:31:20 2019, MaxMem=   671088640 cpu:               1.5 elap:               0.8
 (Enter /shared/centos7/gaussian/g16/l202.exe)
                          Input orientation:                          
 ---------------------------------------------------------------------
 Center     Atomic      Atomic             Coordinates (Angstroms)
 Number     Number       Type             X           Y           Z
 ---------------------------------------------------------------------
      1          6           0        1.407697   -1.163950    0.535596
      2          6           0        0.166748   -0.467333    0.979142
      3          6           0       -1.112758   -1.206203    0.675963
      4          6           0        2.131215   -0.485038   -0.578238
      5          6           0       -2.052501   -0.503956   -0.275581
      6          6           0        3.357996   -1.174918   -1.012588
      7          6           0       -1.460782   -0.162722   -1.618471
      8          1           0        2.380083    0.566590   -0.259993
      9          1           0        1.438794   -0.366596   -1.445579
     10          1           0        1.168829   -2.204751    0.230227
     11          1           0        2.101129   -1.263231    1.395794
     12          1           0        0.126764    0.538674    0.533007
     13          1           0        0.223795   -0.297715    2.075149
     14          1           0       -1.660271   -1.386777    1.616572
     15          1           0       -0.884405   -2.213144    0.269674
     16          1           0       -2.946616   -1.161620   -0.435446
     17          1           0       -2.435540    0.418768    0.192524
     18          1           0        3.567046   -2.081552   -0.414096
     19          1           0        3.290877   -1.499282   -2.093245
     20          1           0        4.246491   -0.513342   -0.932671
     21          1           0       -0.841826   -0.970135   -2.011608
     22          1           0       -0.824022    0.763145   -1.562204
     23          1           0       -2.280647    0.037860   -2.366450
 ---------------------------------------------------------------------
                    Distance matrix (angstroms):
                    1          2          3          4          5
     1  C    0.000000
     2  C    1.490625   0.000000
     3  C    2.524715   1.508304   0.000000
     4  C    1.491652   2.506966   3.551966   0.000000
     5  C    3.614772   2.549654   1.510531   4.194692   0.000000
     6  C    2.490113   3.827758   4.779103   1.472952   5.501532
     7  C    3.724331   3.080460   2.544484   3.753454   1.506627
     8  H    2.138519   2.739216   4.027250   1.126559   4.560056
     9  H    2.135836   2.739986   3.422908   1.116134   3.684686
    10  H    1.110665   2.140949   2.530102   2.130074   3.677704
    11  H    1.109344   2.132812   3.294007   2.122096   4.541215
    12  H    2.130663   1.101220   2.145098   2.510115   2.547565
    13  H    2.126549   1.110520   2.137626   3.273195   3.278717
    14  H    3.260459   2.142357   1.103233   4.472772   2.124490
    15  H    2.534809   2.157805   1.109570   3.577607   2.140811
    16  H    4.461275   3.489431   2.144820   5.124697   1.121392
    17  H    4.170511   2.859343   2.150348   4.718706   1.103295
    18  H    2.531145   4.013582   4.884161   2.153464   5.838433
    19  H    3.251095   4.501629   5.210222   2.160730   5.731166
    20  H    3.261572   4.505714   5.638201   2.144952   6.333179
    21  H    3.403846   3.196031   2.711488   3.335992   2.167221
    22  H    3.618706   2.992347   2.995178   3.355530   2.184057
    23  H    4.844595   4.175877   3.488256   4.789118   2.171946
                    6          7          8          9         10
     6  C    0.000000
     7  C    4.961074   0.000000
     8  H    2.134377   4.138792   0.000000
     9  H    2.127017   2.911872   1.778334   0.000000
    10  H    2.719853   3.808204   3.063949   2.502004   0.000000
    11  H    2.718054   4.794176   2.483483   3.052219   1.764707
    12  H    3.970658   2.764257   2.388948   2.540814   2.950247
    13  H    4.486293   4.061877   3.293856   3.725116   2.816667
    14  H    5.669249   3.464623   4.864319   4.474567   3.254972
    15  H    4.551932   2.846319   4.320226   3.427695   2.053630
    16  H    6.330988   2.145938   5.602786   4.569930   4.297456
    17  H    6.128392   2.137284   4.839095   4.279094   4.458222
    18  H    1.106291   5.514660   2.906077   2.921384   2.486318
    19  H    1.130281   4.958837   2.908296   2.265537   3.224794
    20  H    1.110627   5.759012   2.258812   2.857931   3.699352
    21  H    4.321861   1.090678   3.976226   2.426083   3.254663
    22  H    4.641923   1.125104   3.464199   2.531848   3.999084
    23  H    5.924362   1.127778   5.141898   3.853029   4.865277
                   11         12         13         14         15
    11  H    0.000000
    12  H    2.808804   0.000000
    13  H    2.217686   1.757032   0.000000
    14  H    3.769899   2.841649   2.223972   0.000000
    15  H    3.329249   2.943520   2.855996   1.760393   0.000000
    16  H    5.370614   3.643428   4.135326   2.432315   2.419837
    17  H    4.985815   2.587606   3.336118   2.426715   3.055966
    18  H    2.468656   4.426977   4.533844   5.650767   4.505583
    19  H    3.693861   4.589343   5.312840   6.187832   4.850358
    20  H    3.253715   4.497455   5.027481   6.492409   5.537243
    21  H    4.511904   3.112833   4.276596   3.742610   2.598294
    22  H    4.627361   2.311772   3.931117   3.927607   3.495386
    23  H    5.920074   3.801748   5.110052   4.275385   3.737066
                   16         17         18         19         20
    16  H    0.000000
    17  H    1.775717   0.000000
    18  H    6.578337   6.530744   0.000000
    19  H    6.462866   6.457205   1.798569   0.000000
    20  H    7.239357   6.839915   1.786014   1.797834   0.000000
    21  H    2.636493   3.054041   4.819278   4.167241   5.221469
    22  H    3.078914   2.407209   5.356485   4.725778   5.266483
    23  H    2.368764   2.591800   6.519133   5.786132   6.705451
                   21         22         23
    21  H    0.000000
    22  H    1.790682   0.000000
    23  H    1.792253   1.815105   0.000000
 Stoichiometry    C7H16
 Framework group  C1[X(C7H16)]
 Deg. of freedom    63
 Full point group                 C1      NOp   1
 Largest Abelian subgroup         C1      NOp   1
 Largest concise Abelian subgroup C1      NOp   1
                         Standard orientation:                         
 ---------------------------------------------------------------------
 Center     Atomic      Atomic             Coordinates (Angstroms)
 Number     Number       Type             X           Y           Z
 ---------------------------------------------------------------------
      1          6           0        1.037822   -0.865615   -0.130386
      2          6           0       -0.287487   -1.102926    0.509303
      3          6           0       -1.469732   -0.943683   -0.413692
      4          6           0        1.746201    0.354704    0.353400
      5          6           0       -2.424777    0.169162   -0.051519
      6          6           0        3.056288    0.585007   -0.279229
      7          6           0       -1.801962    1.538027    0.039231
      8          1           0        1.872353    0.280776    1.470430
      9          1           0        1.090800    1.244404    0.196432
     10          1           0        0.919867   -0.801986   -1.232935
     11          1           0        1.692684   -1.743977    0.043621
     12          1           0       -0.404633   -0.436036    1.377762
     13          1           0       -0.303893   -2.131468    0.927737
     14          1           0       -2.044012   -1.885417   -0.435164
     15          1           0       -1.121612   -0.786729   -1.455481
     16          1           0       -3.239501    0.197289   -0.821554
     17          1           0       -2.921381   -0.063143    0.905914
     18          1           0        3.323718   -0.211754   -0.998626
     19          1           0        3.077325    1.563228   -0.845072
     20          1           0        3.869137    0.635699    0.475887
     21          1           0       -1.086266    1.717602   -0.763956
     22          1           0       -1.264396    1.679446    1.017435
     23          1           0       -2.598311    2.334002   -0.025077
 ---------------------------------------------------------------------
 Rotational constants (GHZ):           4.2470677           1.2679089           1.0662401
 Leave Link  202 at Sun Sep 29 08:31:22 2019, MaxMem=   671088640 cpu:               3.4 elap:               1.7
 (Enter /shared/centos7/gaussian/g16/l301.exe)
 Standard basis: CC-pVTZ (5D, 7F)
 Ernie: Thresh=  0.10000D-02 Tol=  0.10000D-05 Strict=F.
 Ernie:  21 primitive shells out of 310 were deleted.
 There are   485 symmetry adapted cartesian basis functions of A   symmetry.
 There are   434 symmetry adapted basis functions of A   symmetry.
   434 basis functions,   636 primitive gaussians,   485 cartesian basis functions
    29 alpha electrons       29 beta electrons
       nuclear repulsion energy       324.9861348790 Hartrees.
 IExCor= 4336 DFT=T Ex+Corr=M062X ExCW=0 ScaHFX=  0.540000
 ScaDFX=  1.000000  1.000000  1.000000  1.000000 ScalE2=  1.000000  1.000000
 IRadAn=      5 IRanWt=     -1 IRanGd=            0 ICorTp=0 IEmpDi=  4
 NAtoms=   23 NActive=   23 NUniq=   23 SFac= 1.00D+00 NAtFMM=   60 NAOKFM=F Big=F
 Integral buffers will be    131072 words long.
 Raffenetti 2 integral format.
 Two-electron integral symmetry is turned on.
 Leave Link  301 at Sun Sep 29 08:31:23 2019, MaxMem=   671088640 cpu:               1.7 elap:               0.9
 (Enter /shared/centos7/gaussian/g16/l302.exe)
 NPDir=0 NMtPBC=     1 NCelOv=     1 NCel=       1 NClECP=     1 NCelD=      1
         NCelK=      1 NCelE2=     1 NClLst=     1 CellRange=     0.0.
 One-electron integrals computed using PRISM.
 One-electron integral symmetry used in STVInt
 NBasis=   434 RedAO= T EigKep=  2.93D-04  NBF=   434
 NBsUse=   434 1.00D-06 EigRej= -1.00D+00 NBFU=   434
 Precomputing XC quadrature grid using
 IXCGrd= 4 IRadAn=           5 IRanWt=          -1 IRanGd=           0 AccXCQ= 0.00D+00.
 Generated NRdTot=       0 NPtTot=           0 NUsed=           0 NTot=          32
 NSgBfM=   485   485   485   485   485 MxSgAt=    23 MxSgA2=    23.
 Leave Link  302 at Sun Sep 29 08:32:57 2019, MaxMem=   671088640 cpu:             189.3 elap:              94.7
 (Enter /shared/centos7/gaussian/g16/l303.exe)
 DipDrv:  MaxL=1.
 Leave Link  303 at Sun Sep 29 08:33:02 2019, MaxMem=   671088640 cpu:               9.0 elap:               4.5
 (Enter /shared/centos7/gaussian/g16/l401.exe)
 ExpMin= 1.03D-01 ExpMax= 8.24D+03 ExpMxC= 2.81D+02 IAcc=3 IRadAn=         5 AccDes= 0.00D+00
 Harris functional with IExCor= 1009 and IRadAn=       5 diagonalized for initial guess.
 HarFok:  IExCor= 1009 AccDes= 0.00D+00 IRadAn=         5 IDoV= 1 UseB2=F ITyADJ=14
 ICtDFT=  3500011 ScaDFX=  1.000000  1.000000  1.000000  1.000000
 FoFCou: FMM=F IPFlag=           0 FMFlag=      100000 FMFlg1=           0
         NFxFlg=           0 DoJE=T BraDBF=F KetDBF=T FulRan=T
         wScrn=  0.000000 ICntrl=       500 IOpCl=  0 I1Cent=   200000004 NGrid=           0
         NMat0=    1 NMatS0=      1 NMatT0=    0 NMatD0=    1 NMtDS0=    0 NMtDT0=    0
 Petite list used in FoFCou.
 Harris En= -276.322910897809    
 JPrj=0 DoOrth=F DoCkMO=F.
 Leave Link  401 at Sun Sep 29 08:33:43 2019, MaxMem=   671088640 cpu:              82.3 elap:              41.2
 (Enter /shared/centos7/gaussian/g16/l502.exe)
 Integral symmetry usage will be decided dynamically.
 Closed shell SCF:
 Using DIIS extrapolation, IDIIS=  1040.
 NGot=   671088640 LenX=   670604095 LenY=   670368385
 Requested convergence on RMS density matrix=1.00D-08 within 900 cycles.
 Requested convergence on MAX density matrix=1.00D-06.
 Requested convergence on             energy=1.00D-06.
 No special actions if energy rises.
 Fock matrices will be formed incrementally for  20 cycles.
 Integral accuracy reduced to 1.0D-05 until final iterations.

 Cycle   1  Pass 0  IDiag  1:
 FoFJK:  IHMeth= 1 ICntrl=       0 DoSepK=F KAlg= 0 I1Cent=           0 FoldK=F
 IRaf= 930000000 NMat=       1 IRICut=       1 DoRegI=T DoRafI=F ISym2E= 0 IDoP0=0 IntGTp=1.
 FoFCou: FMM=F IPFlag=           0 FMFlag=      100000 FMFlg1=           0
         NFxFlg=           0 DoJE=F BraDBF=F KetDBF=F FulRan=T
         wScrn=  0.000000 ICntrl=         0 IOpCl=  0 I1Cent=           0 NGrid=           0
         NMat0=    1 NMatS0=      1 NMatT0=    0 NMatD0=    1 NMtDS0=    0 NMtDT0=    0
 Symmetry not used in FoFCou.
 E= -275.950601835737    
 DIIS: error= 2.50D-02 at cycle   1 NSaved=   1.
 NSaved= 1 IEnMin= 1 EnMin= -275.950601835737     IErMin= 1 ErrMin= 2.50D-02
 ErrMax= 2.50D-02  0.00D+00 EMaxC= 1.00D-01 BMatC= 3.76D-01 BMatP= 3.76D-01
 IDIUse=3 WtCom= 7.50D-01 WtEn= 2.50D-01
 Coeff-Com:  0.100D+01
 Coeff-En:   0.100D+01
 Coeff:      0.100D+01
 Gap=     0.370 Goal=   None    Shift=    0.000
 GapD=    0.370 DampG=1.000 DampE=0.500 DampFc=0.5000 IDamp=-1.
 Damping current iteration by 5.00D-01
 RMSDP=1.93D-03 MaxDP=7.79D-02              OVMax= 1.73D-01

 Cycle   2  Pass 0  IDiag  1:
 RMSU=  9.63D-04    CP:  9.90D-01
 E= -276.130954098828     Delta-E=       -0.180352263090 Rises=F Damp=T
 DIIS: error= 3.33D-03 at cycle   2 NSaved=   2.
 NSaved= 2 IEnMin= 2 EnMin= -276.130954098828     IErMin= 2 ErrMin= 3.33D-03
 ErrMax= 3.33D-03  0.00D+00 EMaxC= 1.00D-01 BMatC= 1.83D-02 BMatP= 3.76D-01
 IDIUse=3 WtCom= 9.67D-01 WtEn= 3.33D-02
 Coeff-Com: -0.533D-01 0.105D+01
 Coeff-En:   0.000D+00 0.100D+01
 Coeff:     -0.515D-01 0.105D+01
 Gap=     0.449 Goal=   None    Shift=    0.000
 RMSDP=5.49D-04 MaxDP=1.90D-02 DE=-1.80D-01 OVMax= 9.10D-02

 Cycle   3  Pass 0  IDiag  1:
 RMSU=  5.40D-04    CP:  9.98D-01  9.10D-01
 E= -276.310912624140     Delta-E=       -0.179958525312 Rises=F Damp=F
 DIIS: error= 2.53D-03 at cycle   3 NSaved=   3.
 NSaved= 3 IEnMin= 3 EnMin= -276.310912624140     IErMin= 3 ErrMin= 2.53D-03
 ErrMax= 2.53D-03  0.00D+00 EMaxC= 1.00D-01 BMatC= 2.57D-03 BMatP= 1.83D-02
 IDIUse=3 WtCom= 9.75D-01 WtEn= 2.53D-02
 Coeff-Com: -0.501D-01 0.238D+00 0.812D+00
 Coeff-En:   0.000D+00 0.000D+00 0.100D+01
 Coeff:     -0.489D-01 0.232D+00 0.817D+00
 Gap=     0.419 Goal=   None    Shift=    0.000
 RMSDP=1.08D-04 MaxDP=3.80D-03 DE=-1.80D-01 OVMax= 1.09D-02

 Cycle   4  Pass 0  IDiag  1:
 RMSU=  8.73D-05    CP:  9.97D-01  9.53D-01  9.12D-01
 E= -276.313163019731     Delta-E=       -0.002250395591 Rises=F Damp=F
 DIIS: error= 6.73D-04 at cycle   4 NSaved=   4.
 NSaved= 4 IEnMin= 4 EnMin= -276.313163019731     IErMin= 4 ErrMin= 6.73D-04
 ErrMax= 6.73D-04  0.00D+00 EMaxC= 1.00D-01 BMatC= 2.72D-04 BMatP= 2.57D-03
 IDIUse=3 WtCom= 9.93D-01 WtEn= 6.73D-03
 Coeff-Com: -0.131D-01 0.356D-01 0.282D+00 0.696D+00
 Coeff-En:   0.000D+00 0.000D+00 0.000D+00 0.100D+01
 Coeff:     -0.130D-01 0.354D-01 0.280D+00 0.698D+00
 Gap=     0.419 Goal=   None    Shift=    0.000
 RMSDP=3.35D-05 MaxDP=1.45D-03 DE=-2.25D-03 OVMax= 2.82D-03

 Cycle   5  Pass 0  IDiag  1:
 RMSU=  1.75D-05    CP:  9.97D-01  9.47D-01  9.50D-01  7.84D-01
 E= -276.313415926769     Delta-E=       -0.000252907038 Rises=F Damp=F
 DIIS: error= 1.40D-04 at cycle   5 NSaved=   5.
 NSaved= 5 IEnMin= 5 EnMin= -276.313415926769     IErMin= 5 ErrMin= 1.40D-04
 ErrMax= 1.40D-04  0.00D+00 EMaxC= 1.00D-01 BMatC= 1.48D-05 BMatP= 2.72D-04
 IDIUse=3 WtCom= 9.99D-01 WtEn= 1.40D-03
 Coeff-Com: -0.133D-02 0.374D-03 0.515D-01 0.237D+00 0.713D+00
 Coeff-En:   0.000D+00 0.000D+00 0.000D+00 0.000D+00 0.100D+01
 Coeff:     -0.133D-02 0.374D-03 0.514D-01 0.236D+00 0.713D+00
 Gap=     0.419 Goal=   None    Shift=    0.000
 RMSDP=6.14D-06 MaxDP=4.21D-04 DE=-2.53D-04 OVMax= 7.06D-04

 Initial convergence to 1.0D-05 achieved.  Increase integral accuracy.
 Cycle   6  Pass 1  IDiag  1:
 E= -276.313405562570     Delta-E=        0.000010364199 Rises=F Damp=F
 DIIS: error= 5.22D-05 at cycle   1 NSaved=   1.
 NSaved= 1 IEnMin= 1 EnMin= -276.313405562570     IErMin= 1 ErrMin= 5.22D-05
 ErrMax= 5.22D-05  0.00D+00 EMaxC= 1.00D-01 BMatC= 2.05D-06 BMatP= 2.05D-06
 IDIUse=1 WtCom= 1.00D+00 WtEn= 0.00D+00
 Coeff-Com:  0.100D+01
 Coeff:      0.100D+01
 Gap=     0.419 Goal=   None    Shift=    0.000
 RMSDP=6.14D-06 MaxDP=4.21D-04 DE= 1.04D-05 OVMax= 2.82D-04

 Cycle   7  Pass 1  IDiag  1:
 RMSU=  1.17D-05    CP:  1.00D+00
 E= -276.313406445342     Delta-E=       -0.000000882772 Rises=F Damp=F
 DIIS: error= 2.38D-05 at cycle   2 NSaved=   2.
 NSaved= 2 IEnMin= 2 EnMin= -276.313406445342     IErMin= 2 ErrMin= 2.38D-05
 ErrMax= 2.38D-05  0.00D+00 EMaxC= 1.00D-01 BMatC= 5.27D-07 BMatP= 2.05D-06
 IDIUse=1 WtCom= 1.00D+00 WtEn= 0.00D+00
 Coeff-Com:  0.290D+00 0.710D+00
 Coeff:      0.290D+00 0.710D+00
 Gap=     0.419 Goal=   None    Shift=    0.000
 RMSDP=1.45D-06 MaxDP=8.00D-05 DE=-8.83D-07 OVMax= 1.55D-04

 Cycle   8  Pass 1  IDiag  1:
 RMSU=  1.44D-06    CP:  1.00D+00  1.00D+00
 E= -276.313406878265     Delta-E=       -0.000000432923 Rises=F Damp=F
 DIIS: error= 1.13D-05 at cycle   3 NSaved=   3.
 NSaved= 3 IEnMin= 3 EnMin= -276.313406878265     IErMin= 3 ErrMin= 1.13D-05
 ErrMax= 1.13D-05  0.00D+00 EMaxC= 1.00D-01 BMatC= 8.84D-08 BMatP= 5.27D-07
 IDIUse=1 WtCom= 1.00D+00 WtEn= 0.00D+00
 Coeff-Com: -0.423D-02 0.282D+00 0.722D+00
 Coeff:     -0.423D-02 0.282D+00 0.722D+00
 Gap=     0.419 Goal=   None    Shift=    0.000
 RMSDP=5.03D-07 MaxDP=2.34D-05 DE=-4.33D-07 OVMax= 5.03D-05

 Cycle   9  Pass 1  IDiag  1:
 RMSU=  3.55D-07    CP:  1.00D+00  1.02D+00  8.02D-01
 E= -276.313406962832     Delta-E=       -0.000000084567 Rises=F Damp=F
 DIIS: error= 2.06D-06 at cycle   4 NSaved=   4.
 NSaved= 4 IEnMin= 4 EnMin= -276.313406962832     IErMin= 4 ErrMin= 2.06D-06
 ErrMax= 2.06D-06  0.00D+00 EMaxC= 1.00D-01 BMatC= 2.34D-09 BMatP= 8.84D-08
 IDIUse=1 WtCom= 1.00D+00 WtEn= 0.00D+00
 Coeff-Com: -0.997D-02 0.813D-01 0.258D+00 0.670D+00
 Coeff:     -0.997D-02 0.813D-01 0.258D+00 0.670D+00
 Gap=     0.419 Goal=   None    Shift=    0.000
 RMSDP=9.63D-08 MaxDP=2.90D-06 DE=-8.46D-08 OVMax= 9.77D-06

 Cycle  10  Pass 1  IDiag  1:
 RMSU=  8.86D-08    CP:  1.00D+00  1.02D+00  8.00D-01  9.05D-01
 E= -276.313406965158     Delta-E=       -0.000000002326 Rises=F Damp=F
 DIIS: error= 3.20D-07 at cycle   5 NSaved=   5.
 NSaved= 5 IEnMin= 5 EnMin= -276.313406965158     IErMin= 5 ErrMin= 3.20D-07
 ErrMax= 3.20D-07  0.00D+00 EMaxC= 1.00D-01 BMatC= 7.54D-11 BMatP= 2.34D-09
 IDIUse=1 WtCom= 1.00D+00 WtEn= 0.00D+00
 Coeff-Com: -0.581D-03-0.162D-01-0.368D-01 0.562D-01 0.997D+00
 Coeff:     -0.581D-03-0.162D-01-0.368D-01 0.562D-01 0.997D+00
 Gap=     0.419 Goal=   None    Shift=    0.000
 RMSDP=3.52D-08 MaxDP=8.97D-07 DE=-2.33D-09 OVMax= 2.40D-06

 Cycle  11  Pass 1  IDiag  1:
 RMSU=  1.82D-08    CP:  1.00D+00  1.02D+00  8.04D-01  9.81D-01  1.12D+00
 E= -276.313406965255     Delta-E=       -0.000000000096 Rises=F Damp=F
 DIIS: error= 1.59D-07 at cycle   6 NSaved=   6.
 NSaved= 6 IEnMin= 6 EnMin= -276.313406965255     IErMin= 6 ErrMin= 1.59D-07
 ErrMax= 1.59D-07  0.00D+00 EMaxC= 1.00D-01 BMatC= 1.83D-11 BMatP= 7.54D-11
 IDIUse=1 WtCom= 1.00D+00 WtEn= 0.00D+00
 Coeff-Com:  0.392D-03-0.121D-01-0.323D-01-0.204D-01 0.426D+00 0.639D+00
 Coeff:      0.392D-03-0.121D-01-0.323D-01-0.204D-01 0.426D+00 0.639D+00
 Gap=     0.419 Goal=   None    Shift=    0.000
 RMSDP=6.89D-09 MaxDP=3.22D-07 DE=-9.62D-11 OVMax= 7.55D-07

 SCF Done:  E(RM062X) =  -276.313406965     A.U. after   11 cycles
            NFock= 11  Conv=0.69D-08     -V/T= 2.0066
 KE= 2.744893678099D+02 PE=-1.288406961857D+03 EE= 4.126180522028D+02
 Leave Link  502 at Sun Sep 29 08:52:25 2019, MaxMem=   671088640 cpu:            2242.9 elap:            1121.7
 (Enter /shared/centos7/gaussian/g16/l801.exe)
 DoSCS=F DFT=T ScalE2(SS,OS)=  1.000000  1.000000
 Range of M.O.s used for correlation:     1   434
 NBasis=   434 NAE=    29 NBE=    29 NFC=     0 NFV=     0
 NROrb=    434 NOA=    29 NOB=    29 NVA=   405 NVB=   405

 **** Warning!!: The largest alpha MO coefficient is  0.13426574D+02

 Leave Link  801 at Sun Sep 29 08:52:25 2019, MaxMem=   671088640 cpu:               1.5 elap:               0.7
 (Enter /shared/centos7/gaussian/g16/l1101.exe)
 Using compressed storage, NAtomX=    23.
 Will process     24 centers per pass.
 Leave Link 1101 at Sun Sep 29 08:53:04 2019, MaxMem=   671088640 cpu:              77.9 elap:              39.0
 (Enter /shared/centos7/gaussian/g16/l1102.exe)
 Symmetrizing basis deriv contribution to polar:
 IMax=3 JMax=2 DiffMx= 0.00D+00
 Leave Link 1102 at Sun Sep 29 08:53:08 2019, MaxMem=   671088640 cpu:               7.9 elap:               4.0
 (Enter /shared/centos7/gaussian/g16/l1110.exe)
 Forming Gx(P) for the SCF density, NAtomX=    23.
 Integral derivatives from FoFJK, PRISM(SPDF).
 Do as many integral derivatives as possible in FoFJK.
 G2DrvN: MDV=     671086848.
 G2DrvN: will do    24 centers at a time, making    1 passes.
 Calling FoFCou, ICntrl=  3107 FMM=F I1Cent=   0 AccDes= 0.00D+00.
 FoFJK:  IHMeth= 1 ICntrl=    3107 DoSepK=F KAlg= 0 I1Cent=           0 FoldK=F
 IRaf=         0 NMat=       1 IRICut=       1 DoRegI=T DoRafI=F ISym2E= 0 IDoP0=0 IntGTp=1.
 FoFCou: FMM=F IPFlag=           0 FMFlag=      100000 FMFlg1=           0
         NFxFlg=           0 DoJE=F BraDBF=F KetDBF=F FulRan=T
         wScrn=  0.000000 ICntrl=      3107 IOpCl=  0 I1Cent=           0 NGrid=           0
         NMat0=    1 NMatS0=      1 NMatT0=    0 NMatD0=    1 NMtDS0=    0 NMtDT0=    0
 Symmetry not used in FoFCou.
 End of G2Drv F.D. properties file   721 does not exist.
 End of G2Drv F.D. properties file   722 does not exist.
 End of G2Drv F.D. properties file   788 does not exist.
 Leave Link 1110 at Sun Sep 29 09:38:23 2019, MaxMem=   671088640 cpu:            5429.0 elap:            2714.8
 (Enter /shared/centos7/gaussian/g16/l1002.exe)
 Minotr:  Closed shell wavefunction.
          IDoAtm=11111111111111111111111
          Direct CPHF calculation.
          Differentiating once with respect to nuclear coordinates.
          Requested convergence is 1.0D-08 RMS, and 1.0D-07 maximum.
          Secondary convergence is 1.0D-12 RMS, and 1.0D-12 maximum.
          NewPWx=T KeepS1=F KeepF1=F KeepIn=T MapXYZ=F SortEE=F KeepMc=T.
         6925 words used for storage of precomputed grid.
 Two-electron integrals replicated using symmetry.
          MDV=     671088640 using IRadAn=       1.
          Solving linear equations simultaneously, MaxMat=     380.
 FoF2E skips out because all densities are zero.
 CalDSu exits because no D1Ps are significant.
 FoFJK:  IHMeth= 1 ICntrl=       0 DoSepK=F KAlg= 0 I1Cent=           0 FoldK=F
 IRaf= 910000000 NMat=      69 IRICut=     172 DoRegI=T DoRafI=T ISym2E= 2 IDoP0=3 IntGTp=3.
 FoFCou: FMM=F IPFlag=           0 FMFlag=      100000 FMFlg1=           0
         NFxFlg=           0 DoJE=F BraDBF=F KetDBF=F FulRan=T
         wScrn=  0.000000 ICntrl=         0 IOpCl=  0 I1Cent=           0 NGrid=           0
         NMat0=   69 NMatS0=     69 NMatT0=    0 NMatD0=   69 NMtDS0=    0 NMtDT0=    0
 Integrals replicated using symmetry in FoFCou.
 Raff kept on since  87.84% of shell-pairs survive, threshold=   0.20 IRatSp=88.
          There are    72 degrees of freedom in the 1st order CPHF.  IDoFFX=6 NUNeed=     0.
     66 vectors produced by pass  0 Test12= 1.63D-14 1.39D-09 XBig12= 5.53D-02 4.57D-02.
 AX will form    66 AO Fock derivatives at one time.
     66 vectors produced by pass  1 Test12= 1.63D-14 1.39D-09 XBig12= 3.54D-03 6.42D-03.
     66 vectors produced by pass  2 Test12= 1.63D-14 1.39D-09 XBig12= 5.11D-05 1.09D-03.
     66 vectors produced by pass  3 Test12= 1.63D-14 1.39D-09 XBig12= 4.01D-07 7.83D-05.
     66 vectors produced by pass  4 Test12= 1.63D-14 1.39D-09 XBig12= 1.97D-09 4.99D-06.
     66 vectors produced by pass  5 Test12= 1.63D-14 1.39D-09 XBig12= 9.39D-12 2.84D-07.
     22 vectors produced by pass  6 Test12= 1.63D-14 1.39D-09 XBig12= 3.68D-14 1.57D-08.
 InvSVY:  IOpt=1 It=  1 EMax= 3.89D-16
 Solved reduced A of dimension   418 with    72 vectors.
 End of Minotr F.D. properties file   721 does not exist.
 End of Minotr F.D. properties file   722 does not exist.
 End of Minotr F.D. properties file   788 does not exist.
 Leave Link 1002 at Sun Sep 29 10:51:55 2019, MaxMem=   671088640 cpu:            8823.1 elap:            4412.1
 (Enter /shared/centos7/gaussian/g16/l601.exe)
 Copying SCF densities to generalized density rwf, IOpCl= 0 IROHF=0.

 **********************************************************************

            Population analysis using the SCF density.

 **********************************************************************

 Orbital symmetries:
       Occupied  (A) (A) (A) (A) (A) (A) (A) (A) (A) (A) (A) (A)
                 (A) (A) (A) (A) (A) (A) (A) (A) (A) (A) (A) (A)
                 (A) (A) (A) (A) (A)
       Virtual   (A) (A) (A) (A) (A) (A) (A) (A) (A) (A) (A) (A)
                 (A) (A) (A) (A) (A) (A) (A) (A) (A) (A) (A) (A)
                 (A) (A) (A) (A) (A) (A) (A) (A) (A) (A) (A) (A)
                 (A) (A) (A) (A) (A) (A) (A) (A) (A) (A) (A) (A)
                 (A) (A) (A) (A) (A) (A) (A) (A) (A) (A) (A) (A)
                 (A) (A) (A) (A) (A) (A) (A) (A) (A) (A) (A) (A)
                 (A) (A) (A) (A) (A) (A) (A) (A) (A) (A) (A) (A)
                 (A) (A) (A) (A) (A) (A) (A) (A) (A) (A) (A) (A)
                 (A) (A) (A) (A) (A) (A) (A) (A) (A) (A) (A) (A)
                 (A) (A) (A) (A) (A) (A) (A) (A) (A) (A) (A) (A)
                 (A) (A) (A) (A) (A) (A) (A) (A) (A) (A) (A) (A)
                 (A) (A) (A) (A) (A) (A) (A) (A) (A) (A) (A) (A)
                 (A) (A) (A) (A) (A) (A) (A) (A) (A) (A) (A) (A)
                 (A) (A) (A) (A) (A) (A) (A) (A) (A) (A) (A) (A)
                 (A) (A) (A) (A) (A) (A) (A) (A) (A) (A) (A) (A)
                 (A) (A) (A) (A) (A) (A) (A) (A) (A) (A) (A) (A)
                 (A) (A) (A) (A) (A) (A) (A) (A) (A) (A) (A) (A)
                 (A) (A) (A) (A) (A) (A) (A) (A) (A) (A) (A) (A)
                 (A) (A) (A) (A) (A) (A) (A) (A) (A) (A) (A) (A)
                 (A) (A) (A) (A) (A) (A) (A) (A) (A) (A) (A) (A)
                 (A) (A) (A) (A) (A) (A) (A) (A) (A) (A) (A) (A)
                 (A) (A) (A) (A) (A) (A) (A) (A) (A) (A) (A) (A)
                 (A) (A) (A) (A) (A) (A) (A) (A) (A) (A) (A) (A)
                 (A) (A) (A) (A) (A) (A) (A) (A) (A) (A) (A) (A)
                 (A) (A) (A) (A) (A) (A) (A) (A) (A) (A) (A) (A)
                 (A) (A) (A) (A) (A) (A) (A) (A) (A) (A) (A) (A)
                 (A) (A) (A) (A) (A) (A) (A) (A) (A) (A) (A) (A)
                 (A) (A) (A) (A) (A) (A) (A) (A) (A) (A) (A) (A)
                 (A) (A) (A) (A) (A) (A) (A) (A) (A) (A) (A) (A)
                 (A) (A) (A) (A) (A) (A) (A) (A) (A) (A) (A) (A)
                 (A) (A) (A) (A) (A) (A) (A) (A) (A) (A) (A) (A)
                 (A) (A) (A) (A) (A) (A) (A) (A) (A) (A) (A) (A)
                 (A) (A) (A) (A) (A) (A) (A) (A) (A) (A) (A) (A)
                 (A) (A) (A) (A) (A) (A) (A) (A) (A)
 The electronic state is 1-A.
 Alpha  occ. eigenvalues --  -10.52843 -10.52643 -10.52480 -10.52379 -10.52228
 Alpha  occ. eigenvalues --  -10.52190 -10.52114  -0.92086  -0.88289  -0.82855
 Alpha  occ. eigenvalues --   -0.76491  -0.69950  -0.65507  -0.64025  -0.54442
 Alpha  occ. eigenvalues --   -0.52556  -0.51882  -0.49453  -0.47671  -0.47428
 Alpha  occ. eigenvalues --   -0.44370  -0.42578  -0.41974  -0.40249  -0.39090
 Alpha  occ. eigenvalues --   -0.37658  -0.37147  -0.35837  -0.35392
 Alpha virt. eigenvalues --    0.06492   0.07656   0.08448   0.08842   0.11029
 Alpha virt. eigenvalues --    0.11515   0.12170   0.12617   0.14032   0.15005
 Alpha virt. eigenvalues --    0.15848   0.16415   0.17163   0.18765   0.19537
 Alpha virt. eigenvalues --    0.21107   0.21793   0.22774   0.24640   0.27355
 Alpha virt. eigenvalues --    0.28375   0.28610   0.29098   0.30062   0.30770
 Alpha virt. eigenvalues --    0.32462   0.32815   0.35442   0.36193   0.37598
 Alpha virt. eigenvalues --    0.38589   0.39116   0.40076   0.40906   0.43478
 Alpha virt. eigenvalues --    0.43836   0.45553   0.45989   0.47137   0.47962
 Alpha virt. eigenvalues --    0.49118   0.49743   0.50410   0.51112   0.51327
 Alpha virt. eigenvalues --    0.51927   0.52490   0.53145   0.53731   0.53962
 Alpha virt. eigenvalues --    0.54310   0.54991   0.55926   0.56642   0.57104
 Alpha virt. eigenvalues --    0.57625   0.58615   0.60184   0.60846   0.61909
 Alpha virt. eigenvalues --    0.63993   0.66694   0.68885   0.71542   0.77092
 Alpha virt. eigenvalues --    0.77566   0.81497   0.82457   0.83877   0.84818
 Alpha virt. eigenvalues --    0.85343   0.86582   0.88674   0.89826   0.92845
 Alpha virt. eigenvalues --    0.93317   0.94772   0.97466   0.98999   1.00148
 Alpha virt. eigenvalues --    1.01701   1.02116   1.03264   1.03735   1.05135
 Alpha virt. eigenvalues --    1.07010   1.07170   1.08246   1.08961   1.09868
 Alpha virt. eigenvalues --    1.10398   1.11408   1.11888   1.12878   1.14142
 Alpha virt. eigenvalues --    1.14487   1.15161   1.16663   1.18293   1.18945
 Alpha virt. eigenvalues --    1.19358   1.20105   1.20887   1.21813   1.23491
 Alpha virt. eigenvalues --    1.24992   1.26202   1.26510   1.28219   1.28819
 Alpha virt. eigenvalues --    1.29671   1.30414   1.31060   1.32221   1.32591
 Alpha virt. eigenvalues --    1.34456   1.34754   1.35903   1.36884   1.37612
 Alpha virt. eigenvalues --    1.39256   1.39914   1.40744   1.42864   1.43958
 Alpha virt. eigenvalues --    1.45824   1.46910   1.48039   1.49036   1.49649
 Alpha virt. eigenvalues --    1.50369   1.52519   1.53503   1.54332   1.55340
 Alpha virt. eigenvalues --    1.55570   1.56552   1.57921   1.60487   1.61781
 Alpha virt. eigenvalues --    1.62684   1.65034   1.67260   1.69144   1.71869
 Alpha virt. eigenvalues --    1.74415   1.76627   1.80086   1.82447   2.19665
 Alpha virt. eigenvalues --    2.24699   2.26130   2.30689   2.32621   2.33934
 Alpha virt. eigenvalues --    2.35374   2.35574   2.38458   2.41417   2.42215
 Alpha virt. eigenvalues --    2.45259   2.46491   2.49458   2.53124   2.53985
 Alpha virt. eigenvalues --    2.55085   2.55608   2.58259   2.58993   2.60268
 Alpha virt. eigenvalues --    2.61902   2.62255   2.63365   2.64061   2.65332
 Alpha virt. eigenvalues --    2.68391   2.69071   2.71235   2.71716   2.73722
 Alpha virt. eigenvalues --    2.74530   2.75956   2.77992   2.78662   2.80634
 Alpha virt. eigenvalues --    2.80982   2.83743   2.84770   2.85114   2.85763
 Alpha virt. eigenvalues --    2.87499   2.88128   2.88751   2.90216   2.91445
 Alpha virt. eigenvalues --    2.92316   2.94234   2.95502   2.96526   2.97740
 Alpha virt. eigenvalues --    2.99386   3.01290   3.02247   3.02845   3.03797
 Alpha virt. eigenvalues --    3.04896   3.05414   3.06391   3.07428   3.08172
 Alpha virt. eigenvalues --    3.09652   3.10438   3.11014   3.11133   3.11562
 Alpha virt. eigenvalues --    3.12366   3.13082   3.14027   3.16757   3.17356
 Alpha virt. eigenvalues --    3.18664   3.20172   3.20685   3.20949   3.22922
 Alpha virt. eigenvalues --    3.24194   3.25998   3.26658   3.27322   3.28631
 Alpha virt. eigenvalues --    3.29810   3.32268   3.33207   3.33922   3.35326
 Alpha virt. eigenvalues --    3.36768   3.37217   3.38135   3.40155   3.41006
 Alpha virt. eigenvalues --    3.41178   3.42458   3.44104   3.44867   3.45834
 Alpha virt. eigenvalues --    3.48285   3.49144   3.51107   3.53184   3.53770
 Alpha virt. eigenvalues --    3.54481   3.55861   3.57176   3.57927   3.58998
 Alpha virt. eigenvalues --    3.60220   3.61505   3.62504   3.63758   3.66206
 Alpha virt. eigenvalues --    3.68330   3.68853   3.69824   3.70974   3.72174
 Alpha virt. eigenvalues --    3.72982   3.73615   3.74768   3.77526   3.78894
 Alpha virt. eigenvalues --    3.80239   3.81541   3.83053   3.84220   3.84971
 Alpha virt. eigenvalues --    3.85036   3.86656   3.86894   3.88710   3.89175
 Alpha virt. eigenvalues --    3.90692   3.91276   3.93074   3.93546   3.94392
 Alpha virt. eigenvalues --    3.96368   3.97264   3.97306   3.98213   4.01043
 Alpha virt. eigenvalues --    4.01367   4.02161   4.04524   4.04948   4.06319
 Alpha virt. eigenvalues --    4.07166   4.07690   4.09382   4.11108   4.11673
 Alpha virt. eigenvalues --    4.12533   4.13442   4.14793   4.16291   4.17598
 Alpha virt. eigenvalues --    4.18796   4.19820   4.21311   4.22045   4.22385
 Alpha virt. eigenvalues --    4.23306   4.24429   4.25360   4.26319   4.27386
 Alpha virt. eigenvalues --    4.29959   4.30627   4.33004   4.33418   4.35550
 Alpha virt. eigenvalues --    4.38153   4.39854   4.41479   4.43313   4.44765
 Alpha virt. eigenvalues --    4.45967   4.51571   4.51967   4.53803   4.56882
 Alpha virt. eigenvalues --    4.57677   4.57921   4.62359   4.64449   4.65244
 Alpha virt. eigenvalues --    4.65353   4.68420   4.70818   4.72394   4.73771
 Alpha virt. eigenvalues --    4.74989   4.77214   4.77765   4.80841   4.81236
 Alpha virt. eigenvalues --    4.82482   4.85051   4.87779   4.89959   4.92643
 Alpha virt. eigenvalues --    4.93019   4.94439   4.95546   4.96750   5.00488
 Alpha virt. eigenvalues --    5.01505   5.04720   5.06412   5.07521   5.08241
 Alpha virt. eigenvalues --    5.08535   5.10641   5.12294   5.15170   5.18227
 Alpha virt. eigenvalues --    5.19936   5.20307   5.23400   5.25612   5.26415
 Alpha virt. eigenvalues --    5.26885   5.27379   5.28462   5.31680   5.33911
 Alpha virt. eigenvalues --    5.35988   5.37449   5.40618   5.41453   5.44764
 Alpha virt. eigenvalues --    5.45323   5.46148   5.49506   5.51711   5.53872
 Alpha virt. eigenvalues --    5.55639   5.66796   5.69156   5.72083   5.75683
 Alpha virt. eigenvalues --    5.80556   5.80917   5.88490   5.92027   5.92471
 Alpha virt. eigenvalues --    5.94907   6.01324   6.02620  11.44949  11.95660
 Alpha virt. eigenvalues --   12.25054  13.08194  13.29095  13.45620  13.97187
          Condensed to atoms (all electrons):
               1          2          3          4          5          6
     1  C    5.111517   0.292400  -0.043920   0.302394   0.006352  -0.049206
     2  C    0.292400   5.168782   0.281640  -0.050403  -0.050567   0.009993
     3  C   -0.043920   0.281640   5.098051   0.004483   0.316305  -0.000580
     4  C    0.302394  -0.050403   0.004483   5.093107  -0.000854   0.286234
     5  C    0.006352  -0.050567   0.316305  -0.000854   5.038217   0.000012
     6  C   -0.049206   0.009993  -0.000580   0.286234   0.000012   4.962412
     7  C   -0.000615   0.002696  -0.048632   0.000009   0.293619   0.000079
     8  H   -0.044439  -0.005970   0.000234   0.409421   0.000267  -0.039554
     9  H   -0.047356   0.000326   0.000932   0.411514  -0.001774  -0.038955
    10  H    0.412676  -0.049650  -0.015334  -0.046938   0.001863  -0.003392
    11  H    0.409742  -0.041948   0.006648  -0.041694  -0.000667  -0.004715
    12  H   -0.057244   0.413068  -0.054754  -0.007325  -0.002656   0.001213
    13  H   -0.039301   0.407676  -0.038681   0.006646   0.005724  -0.000586
    14  H    0.005543  -0.042903   0.414260  -0.000418  -0.042448   0.000027
    15  H   -0.010716  -0.061836   0.416292   0.000665  -0.040238   0.000021
    16  H   -0.000845   0.010890  -0.049402   0.000020   0.416570  -0.000001
    17  H    0.000603  -0.007749  -0.037120   0.000017   0.406448   0.000002
    18  H   -0.004163   0.001060  -0.000109  -0.062256   0.000004   0.412497
    19  H    0.004416  -0.000635   0.000086  -0.044589  -0.000003   0.404271
    20  H    0.004841  -0.000634   0.000012  -0.046434  -0.000001   0.408411
    21  H    0.001282  -0.005504   0.004581  -0.001765  -0.052997   0.000186
    22  H   -0.002017   0.004441  -0.005981  -0.000761  -0.039877   0.000043
    23  H    0.000030  -0.000326   0.007732   0.000219  -0.038422  -0.000009
               7          8          9         10         11         12
     1  C   -0.000615  -0.044439  -0.047356   0.412676   0.409742  -0.057244
     2  C    0.002696  -0.005970   0.000326  -0.049650  -0.041948   0.413068
     3  C   -0.048632   0.000234   0.000932  -0.015334   0.006648  -0.054754
     4  C    0.000009   0.409421   0.411514  -0.046938  -0.041694  -0.007325
     5  C    0.293619   0.000267  -0.001774   0.001863  -0.000667  -0.002656
     6  C    0.000079  -0.039554  -0.038955  -0.003392  -0.004715   0.001213
     7  C    5.028897  -0.000439   0.000535  -0.000669   0.000074  -0.004060
     8  H   -0.000439   0.611564  -0.041319   0.008612  -0.008822   0.002357
     9  H    0.000535  -0.041319   0.591676  -0.008023   0.008709  -0.001491
    10  H   -0.000669   0.008612  -0.008023   0.593510  -0.039294   0.006519
    11  H    0.000074  -0.008822   0.008709  -0.039294   0.593037   0.005164
    12  H   -0.004060   0.002357  -0.001491   0.006519   0.005164   0.581786
    13  H   -0.000331   0.000545  -0.000133   0.005104  -0.018319  -0.034619
    14  H    0.008822  -0.000012  -0.000069   0.001142  -0.000290   0.006183
    15  H   -0.007765  -0.000051   0.000203   0.002536   0.001225   0.006133
    16  H   -0.042363   0.000003   0.000027  -0.000111   0.000028   0.000431
    17  H   -0.045636  -0.000022   0.000018  -0.000052   0.000016   0.000800
    18  H   -0.000004   0.005448   0.006010   0.000310   0.001264   0.000110
    19  H   -0.000004   0.006684  -0.017775   0.001133  -0.000234  -0.000041
    20  H    0.000000  -0.018338   0.006354  -0.000211   0.001214  -0.000097
    21  H    0.401377   0.000188  -0.002720   0.000118   0.000035   0.000856
    22  H    0.400274   0.000294  -0.001556   0.000054  -0.000016  -0.001553
    23  H    0.407569  -0.000030   0.000610  -0.000014   0.000002  -0.000070
              13         14         15         16         17         18
     1  C   -0.039301   0.005543  -0.010716  -0.000845   0.000603  -0.004163
     2  C    0.407676  -0.042903  -0.061836   0.010890  -0.007749   0.001060
     3  C   -0.038681   0.414260   0.416292  -0.049402  -0.037120  -0.000109
     4  C    0.006646  -0.000418   0.000665   0.000020   0.000017  -0.062256
     5  C    0.005724  -0.042448  -0.040238   0.416570   0.406448   0.000004
     6  C   -0.000586   0.000027   0.000021  -0.000001   0.000002   0.412497
     7  C   -0.000331   0.008822  -0.007765  -0.042363  -0.045636  -0.000004
     8  H    0.000545  -0.000012  -0.000051   0.000003  -0.000022   0.005448
     9  H   -0.000133  -0.000069   0.000203   0.000027   0.000018   0.006010
    10  H    0.005104   0.001142   0.002536  -0.000111  -0.000052   0.000310
    11  H   -0.018319  -0.000290   0.001225   0.000028   0.000016   0.001264
    12  H   -0.034619   0.006183   0.006133   0.000431   0.000800   0.000110
    13  H    0.589326  -0.019394   0.005484  -0.000409   0.000570  -0.000071
    14  H   -0.019394   0.590546  -0.034387  -0.005806  -0.007590   0.000003
    15  H    0.005484  -0.034387   0.594158  -0.007847   0.008033  -0.000011
    16  H   -0.000409  -0.005806  -0.007847   0.604179  -0.034141  -0.000000
    17  H    0.000570  -0.007590   0.008033  -0.034141   0.591772  -0.000000
    18  H   -0.000071   0.000003  -0.000011  -0.000000  -0.000000   0.601616
    19  H    0.000017  -0.000002   0.000022   0.000001   0.000001  -0.035342
    20  H    0.000058  -0.000001   0.000005   0.000000   0.000000  -0.035363
    21  H   -0.000038   0.000317   0.002668  -0.001976   0.008231  -0.000013
    22  H    0.000297  -0.000511   0.000042   0.007786  -0.010621  -0.000005
    23  H    0.000010  -0.000445   0.000143  -0.011256  -0.001050   0.000001
              19         20         21         22         23
     1  C    0.004416   0.004841   0.001282  -0.002017   0.000030
     2  C   -0.000635  -0.000634  -0.005504   0.004441  -0.000326
     3  C    0.000086   0.000012   0.004581  -0.005981   0.007732
     4  C   -0.044589  -0.046434  -0.001765  -0.000761   0.000219
     5  C   -0.000003  -0.000001  -0.052997  -0.039877  -0.038422
     6  C    0.404271   0.408411   0.000186   0.000043  -0.000009
     7  C   -0.000004   0.000000   0.401377   0.400274   0.407569
     8  H    0.006684  -0.018338   0.000188   0.000294  -0.000030
     9  H   -0.017775   0.006354  -0.002720  -0.001556   0.000610
    10  H    0.001133  -0.000211   0.000118   0.000054  -0.000014
    11  H   -0.000234   0.001214   0.000035  -0.000016   0.000002
    12  H   -0.000041  -0.000097   0.000856  -0.001553  -0.000070
    13  H    0.000017   0.000058  -0.000038   0.000297   0.000010
    14  H   -0.000002  -0.000001   0.000317  -0.000511  -0.000445
    15  H    0.000022   0.000005   0.002668   0.000042   0.000143
    16  H    0.000001   0.000000  -0.001976   0.007786  -0.011256
    17  H    0.000001   0.000000   0.008231  -0.010621  -0.001050
    18  H   -0.035342  -0.035363  -0.000013  -0.000005   0.000001
    19  H    0.614932  -0.032551   0.000160   0.000023  -0.000007
    20  H   -0.032551   0.606208  -0.000008  -0.000004   0.000000
    21  H    0.000160  -0.000008   0.584814  -0.045352  -0.026104
    22  H    0.000023  -0.000004  -0.045352   0.604796  -0.026127
    23  H   -0.000007   0.000000  -0.026104  -0.026127   0.569619
 Mulliken charges:
               1
     1  C   -0.251972
     2  C   -0.274846
     3  C   -0.256742
     4  C   -0.211294
     5  C   -0.214875
     6  C   -0.348404
     7  C   -0.393433
     8  H    0.113377
     9  H    0.134260
    10  H    0.130111
    11  H    0.128840
    12  H    0.139289
    13  H    0.130424
    14  H    0.127432
    15  H    0.125222
    16  H    0.114223
    17  H    0.127471
    18  H    0.109015
    19  H    0.099439
    20  H    0.106538
    21  H    0.131665
    22  H    0.116334
    23  H    0.117924
 Sum of Mulliken charges =  -0.00000
 Mulliken charges with hydrogens summed into heavy atoms:
               1
     1  C    0.006979
     2  C   -0.005133
     3  C   -0.004088
     4  C    0.036343
     5  C    0.026819
     6  C   -0.033412
     7  C   -0.027509
 APT charges:
               1
     1  C   -0.691207
     2  C   -0.619926
     3  C   -0.733506
     4  C   -0.276525
     5  C   -0.959074
     6  C   -1.484507
     7  C   -0.956976
     8  H    0.348399
     9  H    0.217752
    10  H    0.276472
    11  H    0.428182
    12  H    0.250755
    13  H    0.438687
    14  H    0.471579
    15  H    0.257073
    16  H    0.497981
    17  H    0.407403
    18  H    0.336371
    19  H    0.341095
    20  H    0.506633
    21  H    0.161891
    22  H    0.190971
    23  H    0.590479
 Sum of APT charges =  -0.00000
 APT charges with hydrogens summed into heavy atoms:
               1
     1  C    0.013447
     2  C    0.069516
     3  C   -0.004855
     4  C    0.289626
     5  C   -0.053690
     6  C   -0.300407
     7  C   -0.013636
 Electronic spatial extent (au):  <R**2>=           1208.3004
 Charge=              0.0000 electrons
 Dipole moment (field-independent basis, Debye):
    X=             -0.1290    Y=             -0.0962    Z=              0.0551  Tot=              0.1701
 Quadrupole moment (field-independent basis, Debye-Ang):
   XX=            -49.7329   YY=            -49.0865   ZZ=            -48.8344
   XY=             -0.2248   XZ=              0.4503   YZ=             -0.3795
 Traceless Quadrupole moment (field-independent basis, Debye-Ang):
   XX=             -0.5149   YY=              0.1314   ZZ=              0.3835
   XY=             -0.2248   XZ=              0.4503   YZ=             -0.3795
 Octapole moment (field-independent basis, Debye-Ang**2):
  XXX=             -4.0726  YYY=             -2.8512  ZZZ=              0.3686  XYY=             -0.5671
  XXY=             -0.4363  XXZ=              1.8957  XZZ=              0.1713  YZZ=              0.3199
  YYZ=             -0.0305  XYZ=              0.3452
 Hexadecapole moment (field-independent basis, Debye-Ang**3):
 XXXX=          -1225.8839 YYYY=           -367.5686 ZZZZ=           -140.8656 XXXY=             -7.8487
 XXXZ=             12.6460 YYYX=              1.2272 YYYZ=             -5.2810 ZZZX=              1.6206
 ZZZY=              0.8803 XXYY=           -260.5507 XXZZ=           -222.3565 YYZZ=            -87.1540
 XXYZ=             -0.3319 YYXZ=             -0.9428 ZZXY=              0.0189
 N-N= 3.249861348790D+02 E-N=-1.288406912267D+03  KE= 2.744893678098D+02
  Exact polarizability:   0.000   0.000   0.000   0.000   0.000   0.000
 Approx polarizability:  98.046  -0.947  98.243   0.392  -0.034  99.448
 No NMR shielding tensors so no spin-rotation constants.
 Leave Link  601 at Sun Sep 29 10:52:28 2019, MaxMem=   671088640 cpu:              65.0 elap:              32.5
 (Enter /shared/centos7/gaussian/g16/l701.exe)
 SCFChk:  SCF convergence  6.89D-09 required  1.00D-08
 ... and contract with generalized density number  0.
 Compute integral second derivatives.
 Entering OneElI...
 Calculate overlap and kinetic energy integrals
    NBasis = 485  MinDer = 2  MaxDer = 2
 Requested accuracy = 0.1000D-12
 PrmmSu-InSpLW:  IPartL=    0 NPrtUS=   20 NPrtUL=    1 DoSpLW=F IThBeg=    0 IThEnd=   19 NThAct=   20.
 PrsmSu:  NPrtUS=  20 ThrOK=T IAlg=1 NPAlg=1 LenDen=           0 ISkipM=0 DoSpLW=F IThBeg=    0 IThEnd=   19.
 Prism:   IPart=     0 DynPar=F LinDyn=F Incr=           6.
 PRISM was handed    33203099 working-precision words and 13626 shell-pairs
 PRISM was handed    33203099 working-precision words and 13626 shell-pairs
 PRISM was handed    33203099 working-precision words and 13626 shell-pairs
 PRISM was handed    33203099 working-precision words and 13626 shell-pairs
 PRISM was handed    33203099 working-precision words and 13626 shell-pairs
 PRISM was handed    33203099 working-precision words and 13626 shell-pairs
 IPart=  0 NShTot=         720 NBatch=          81 AvBLen=         8.9
 PRISM was handed    33203099 working-precision words and 13626 shell-pairs
 PRISM was handed    33203099 working-precision words and 13626 shell-pairs
 IPart= 18 NShTot=         656 NBatch=          47 AvBLen=        14.0
 PRISM was handed    33203099 working-precision words and 13626 shell-pairs
 PRISM was handed    33203099 working-precision words and 13626 shell-pairs
 PRISM was handed    33203099 working-precision words and 13626 shell-pairs
 PRISM was handed    33203099 working-precision words and 13626 shell-pairs
 IPart=  4 NShTot=         704 NBatch=          73 AvBLen=         9.6
 IPart=  1 NShTot=         717 NBatch=          80 AvBLen=         9.0
 PRISM was handed    33203099 working-precision words and 13626 shell-pairs
 PRISM was handed    33203099 working-precision words and 13626 shell-pairs
 PRISM was handed    33203099 working-precision words and 13626 shell-pairs
 PRISM was handed    33203099 working-precision words and 13626 shell-pairs
 PRISM was handed    33203099 working-precision words and 13626 shell-pairs
 IPart= 15 NShTot=         662 NBatch=          52 AvBLen=        12.7
 PRISM was handed    33203099 working-precision words and 13626 shell-pairs
 PRISM was handed    33203099 working-precision words and 13626 shell-pairs
 PRISM was handed    33203099 working-precision words and 13626 shell-pairs
 IPart=  2 NShTot=         710 NBatch=          76 AvBLen=         9.3
 IPart=  8 NShTot=         681 NBatch=          60 AvBLen=        11.4
 IPart=  9 NShTot=         679 NBatch=          59 AvBLen=        11.5
 IPart=  7 NShTot=         685 NBatch=          61 AvBLen=        11.2
 IPart= 17 NShTot=         658 NBatch=          49 AvBLen=        13.4
 IPart=  5 NShTot=         699 NBatch=          70 AvBLen=        10.0
 IPart=  3 NShTot=         705 NBatch=          73 AvBLen=         9.7
 IPart= 16 NShTot=         659 NBatch=          50 AvBLen=        13.2
 IPart= 19 NShTot=         655 NBatch=          46 AvBLen=        14.2
 IPart= 13 NShTot=         665 NBatch=          53 AvBLen=        12.5
 IPart= 10 NShTot=         675 NBatch=          57 AvBLen=        11.8
 IPart= 14 NShTot=         663 NBatch=          52 AvBLen=        12.8
 IPart= 12 NShTot=         667 NBatch=          54 AvBLen=        12.4
 IPart= 11 NShTot=         672 NBatch=          56 AvBLen=        12.0
 IPart=  6 NShTot=         694 NBatch=          66 AvBLen=        10.5
 PrSmSu:  NxtVal=            121.
 Entering OneElI...
 Calculate potential energy integrals
    NBasis = 485  MinDer = 2  MaxDer = 2
 Requested accuracy = 0.1000D-12
 PrmmSu-InSpLW:  IPartL=    0 NPrtUS=   20 NPrtUL=    1 DoSpLW=F IThBeg=    0 IThEnd=   19 NThAct=   20.
 PrsmSu:  NPrtUS=  20 ThrOK=T IAlg=1 NPAlg=1 LenDen=           0 ISkipM=0 DoSpLW=F IThBeg=    0 IThEnd=   19.
 Prism:   IPart=     0 DynPar=F LinDyn=F Incr=         140.
 PRISM was handed    33266969 working-precision words and 12190 shell-pairs
 PRISM was handed    33266969 working-precision words and 12190 shell-pairs
 PRISM was handed    33266969 working-precision words and 12190 shell-pairs
 PRISM was handed    33266969 working-precision words and 12190 shell-pairs
 PRISM was handed    33266969 working-precision words and 12190 shell-pairs
 PRISM was handed    33266969 working-precision words and 12190 shell-pairs
 PRISM was handed    33266969 working-precision words and 12190 shell-pairs
 PRISM was handed    33266969 working-precision words and 12190 shell-pairs
 PRISM was handed    33266969 working-precision words and 12190 shell-pairs
 PRISM was handed    33266969 working-precision words and 12190 shell-pairs
 PRISM was handed    33266969 working-precision words and 12190 shell-pairs
 PRISM was handed    33266969 working-precision words and 12190 shell-pairs
 PRISM was handed    33266969 working-precision words and 12190 shell-pairs
 PRISM was handed    33266969 working-precision words and 12190 shell-pairs
 PRISM was handed    33266969 working-precision words and 12190 shell-pairs
 PRISM was handed    33266969 working-precision words and 12190 shell-pairs
 PRISM was handed    33266969 working-precision words and 12190 shell-pairs
 PRISM was handed    33266969 working-precision words and 12190 shell-pairs
 PRISM was handed    33266969 working-precision words and 12190 shell-pairs
 PRISM was handed    33266969 working-precision words and 12190 shell-pairs
 IPart= 17 NShTot=       13524 NBatch=         589 AvBLen=        23.0
 IPart=  8 NShTot=       14030 NBatch=         611 AvBLen=        23.0
 IPart= 18 NShTot=       13501 NBatch=         588 AvBLen=        23.0
 IPart=  2 NShTot=       14605 NBatch=         637 AvBLen=        22.9
 IPart=  1 NShTot=       14674 NBatch=         640 AvBLen=        22.9
 IPart=  0 NShTot=       14789 NBatch=         645 AvBLen=        22.9
 IPart=  4 NShTot=       14513 NBatch=         633 AvBLen=        22.9
 IPart= 15 NShTot=       13593 NBatch=         592 AvBLen=        23.0
 IPart=  7 NShTot=       14099 NBatch=         614 AvBLen=        23.0
 IPart= 12 NShTot=       13708 NBatch=         597 AvBLen=        23.0
 IPart= 16 NShTot=       13547 NBatch=         590 AvBLen=        23.0
 IPart= 13 NShTot=       13685 NBatch=         596 AvBLen=        23.0
 IPart=  9 NShTot=       13961 NBatch=         608 AvBLen=        23.0
 IPart= 11 NShTot=       13823 NBatch=         602 AvBLen=        23.0
 IPart= 14 NShTot=       13639 NBatch=         594 AvBLen=        23.0
 IPart= 19 NShTot=       13478 NBatch=         587 AvBLen=        23.0
 IPart= 10 NShTot=       13915 NBatch=         606 AvBLen=        23.0
 IPart=  6 NShTot=       14260 NBatch=         621 AvBLen=        23.0
 IPart=  3 NShTot=       14582 NBatch=         636 AvBLen=        22.9
 IPart=  5 NShTot=       14444 NBatch=         630 AvBLen=        22.9
 PrSmSu:  NxtVal=           2801.
 Polarizability after L701:
                1             2             3 
      1  0.000000D+00
      2  0.000000D+00  0.000000D+00
      3  0.000000D+00  0.000000D+00  0.000000D+00
 Dipole Derivatives after L701:
                 1             2             3             4             5 
      1  -0.637678D+00  0.721291D+00  0.375312D+00 -0.733253D-01 -0.458179D-03
      2   0.539230D+00 -0.762584D+00 -0.275928D+00 -0.465801D-01 -0.999000D+00
      3  -0.138708D+00  0.969415D-01 -0.673359D+00  0.120788D+00  0.489969D-02
                 6             7             8             9            10 
      1   0.286658D+00 -0.460932D+00 -0.840650D+00 -0.632601D+00  0.521109D+00
      2   0.677864D+00 -0.445130D+00 -0.957050D+00 -0.452708D+00  0.377836D+00
      3  -0.787452D+00  0.141827D+00 -0.612562D-01 -0.782536D+00 -0.110183D+00
                11            12            13            14            15 
      1  -0.459217D+00 -0.115371D+01 -0.212637D+01 -0.272650D+00  0.164200D+00
      2  -0.579281D+00 -0.306495D-01  0.144793D+00  0.466918D-01  0.123233D+00
      3  -0.986143D-02 -0.771404D+00 -0.132563D+00  0.136625D+00 -0.797546D+00
                16            17            18            19            20 
      1  -0.245976D+01 -0.305525D+00  0.684901D+00 -0.418136D+00  0.121835D+01
      2  -0.280038D+00 -0.102721D+01  0.134391D+00 -0.169811D+00 -0.144858D+01
      3  -0.191995D-01  0.108405D-02 -0.966552D+00  0.659815D-02  0.288308D-02
                21            22            23            24            25 
      1   0.894791D-01  0.261483D+00 -0.758319D-02  0.662746D+00 -0.345802D-01
      2  -0.447803D-01  0.199131D-01  0.121874D+00  0.724106D-01 -0.257517D+00
      3  -0.100422D+01  0.993095D-01 -0.341183D-01  0.661841D+00 -0.313193D-01
                26            27            28            29            30 
      1   0.309191D+00 -0.420443D-01  0.123490D+00  0.150947D-01 -0.286790D+00
      2   0.539748D+00 -0.963222D-01  0.328634D-01  0.113571D+00  0.255818D+00
      3   0.203054D-01  0.148087D+00  0.738491D-01 -0.394683D-01  0.592354D+00
                31            32            33            34            35 
      1   0.476252D+00 -0.482719D+00  0.103367D+00  0.158257D+00 -0.967630D-01
      2  -0.325985D+00  0.664354D+00 -0.134155D+00  0.113699D-01  0.785084D-01
      3   0.156128D-01 -0.441279D-01  0.143940D+00 -0.602181D-01  0.340085D+00
                36            37            38            39            40 
      1  -0.112942D+00  0.187278D+00  0.104229D+00 -0.265009D-01  0.524551D+00
      2  -0.860480D-01  0.685553D-02  0.901207D+00 -0.261333D+00  0.340348D+00
      3   0.515500D+00  0.779977D-02 -0.317638D+00  0.227575D+00  0.858496D-01
                41            42            43            44            45 
      1   0.633780D+00  0.626957D-02  0.470542D-01 -0.553411D-01  0.355261D+00
      2   0.760511D+00 -0.304346D-01 -0.880701D-01  0.845749D-01  0.238388D+00
      3   0.106398D+00  0.129675D+00 -0.172692D+00 -0.905936D-01  0.639589D+00
                46            47            48            49            50 
      1   0.977751D+00 -0.755175D-01  0.805072D+00  0.594148D+00  0.207745D+00
      2  -0.641720D-01  0.159235D+00 -0.425840D-01  0.191307D-01  0.163323D+00
      3   0.239440D+00 -0.106390D-01  0.356957D+00 -0.156229D+00 -0.668872D-01
                51            52            53            54            55 
      1  -0.892845D+00  0.433381D+00 -0.776387D+00 -0.760491D+00  0.123187D+00
      2  -0.247155D-01 -0.122495D-01  0.220746D+00  0.102715D+00 -0.302205D-01
      3   0.464738D+00 -0.104714D+00  0.290912D+00  0.354987D+00 -0.184881D-02
                56            57            58            59            60 
      1   0.919632D+00 -0.539497D+00  0.111582D+01  0.555791D-01  0.977307D+00
      2   0.651903D+00 -0.310274D+00  0.168466D+00  0.946005D-01  0.152410D+00
      3  -0.298524D+00  0.248196D+00  0.152000D+00  0.324570D-02  0.309480D+00
                61            62            63            64            65 
      1  -0.130304D+00 -0.730752D-01  0.171969D+00 -0.114996D+00 -0.342624D-01
      2   0.442465D+00  0.234753D+00 -0.359194D+00  0.321132D+00  0.179289D+00
      3  -0.242838D+00 -0.516353D-01  0.381223D+00  0.211322D+00  0.217727D-01
                66            67            68            69 
      1  -0.329945D+00  0.912320D+00 -0.704744D+00  0.948228D-01
      2   0.462914D+00 -0.704630D+00  0.758811D+00 -0.710170D-01
      3   0.508619D+00  0.161175D-01 -0.403225D-03  0.100306D+00
 Hessian after L701:
                1             2             3             4             5 
      1  0.148517D+02
      2 -0.111646D+01  0.167672D+02
      3  0.917641D-01 -0.528400D-01  0.179559D+02
      4 -0.297795D+01  0.558351D+00 -0.136846D+01  0.146407D+02
      5  0.571590D+00 -0.593207D+01 -0.289599D+00  0.430278D-01  0.168891D+02
      6 -0.137094D+01 -0.284316D+00 -0.558104D+01 -0.156806D+00  0.371937D+00
      7  0.350119D+00  0.479190D-01  0.169061D+00 -0.331138D+01 -0.396938D+00
      8 -0.268861D-01 -0.141194D+00 -0.804763D-02 -0.368788D+00 -0.575427D+01
      9  0.197714D-02 -0.941399D-02 -0.725744D-01  0.179031D+01 -0.311250D+00
     10 -0.500276D+01  0.177521D+01  0.655208D+00  0.227106D+00  0.282525D+00
     11  0.172298D+01 -0.357560D+01  0.822375D+00  0.229205D+00  0.340247D-01
     12  0.656615D+00  0.825223D+00 -0.585061D+01 -0.132983D+00 -0.582405D-01
     13  0.244159D+00 -0.948588D-01 -0.990539D-02  0.221498D+00 -0.189857D+00
     14 -0.101202D+00 -0.113233D+00 -0.451731D-03 -0.234006D+00  0.328412D-01
     15 -0.302436D-01  0.126308D-01 -0.151713D+00  0.239738D+00 -0.123587D+00
     16  0.202311D+00  0.185301D+00 -0.868076D-01  0.218570D+00  0.173950D+00
     17  0.298311D+00 -0.145009D-02 -0.396282D-01  0.174291D+00 -0.664784D-01
     18 -0.158426D-01  0.193645D-01 -0.164376D+00 -0.864942D-01 -0.498986D-01
     19  0.799936D-01 -0.167397D+00  0.280185D-01 -0.423364D-01 -0.267769D+00
     20 -0.137180D+00  0.156113D-01 -0.944430D-02 -0.213878D+00  0.165089D+00
     21 -0.118938D-01  0.864545D-02 -0.127351D+00  0.349513D-01 -0.533356D-01
     22  0.799381D-01 -0.615341D-01 -0.604234D-01 -0.289521D-01  0.164103D-01
     23 -0.401739D-01 -0.257635D-02 -0.123273D+00  0.849209D-02  0.736090D-02
     24 -0.142026D-01 -0.116358D+00  0.573878D-01  0.164839D-01  0.212397D-01
     25  0.153875D+00 -0.854186D-01  0.355653D-02  0.118634D-01  0.343526D-01
     26 -0.226090D-01 -0.118920D+00 -0.991198D-01  0.723857D-01  0.264268D-01
     27  0.774255D-02 -0.855193D-01  0.104722D+00 -0.280059D-02 -0.142281D-02
     28 -0.457432D+01 -0.386976D-01  0.131481D+00 -0.403503D-01 -0.301593D-01
     29 -0.368606D-01 -0.454216D+01 -0.992345D-03 -0.750789D-02  0.138281D+00
     30  0.239315D+00 -0.881987D-01 -0.179942D+01  0.187268D+00  0.118249D-01
     31 -0.354478D+01 -0.117064D+01  0.144654D+00 -0.496126D-01 -0.486891D-01
     32 -0.120524D+01 -0.275010D+01 -0.213628D+00 -0.481978D-01  0.166602D+00
     33  0.145634D+00 -0.207308D+00 -0.427389D+01  0.787936D-01 -0.166558D-01
     34 -0.355409D-01  0.379133D-01  0.207505D+00 -0.470783D+01 -0.193996D+00
     35  0.354987D-02  0.211626D+00  0.327673D-01 -0.176841D+00 -0.379007D+01
     36  0.222127D+00 -0.666352D-03 -0.156041D-03 -0.298039D+00  0.139211D+01
     37 -0.482058D-01 -0.574062D-01  0.852302D-01 -0.435128D+01  0.373087D-01
     38 -0.600185D-01  0.170403D+00  0.154082D-01  0.300052D-01 -0.231616D+01
     39  0.831198D-01 -0.104769D-02  0.392515D-01 -0.234636D-01 -0.915231D+00
     40  0.108395D+00  0.569706D-01  0.193920D-01 -0.186480D-01  0.251231D-01
     41  0.708021D-01 -0.101547D-01  0.141447D-01  0.303718D-01  0.167543D+00
     42  0.124410D-01  0.157958D-02 -0.436141D-01 -0.938729D-01 -0.140160D-01
     43 -0.434450D-01  0.165175D-01 -0.265677D-01  0.826255D-01  0.373118D-01
     44  0.487697D-02  0.616260D-03 -0.162840D-03  0.138551D-01  0.188385D+00
     45  0.232549D-02  0.163215D-01  0.232159D-01 -0.223659D+00  0.335558D-01
     46  0.625107D-02  0.410190D-03  0.108490D-01  0.149273D+00 -0.844850D-01
     47 -0.114371D-02 -0.674503D-02 -0.432512D-03 -0.715983D-01 -0.270715D-01
     48  0.655925D-02  0.118559D-02  0.494170D-03  0.967882D-01 -0.420143D-01
     49  0.327976D-01 -0.539455D-02 -0.432575D-02 -0.246593D-01 -0.130808D-01
     50 -0.361043D-02 -0.109464D-01  0.829840D-03  0.116219D-03  0.452566D-02
[...]
 0063737,-0.00008248,0.05561000,0.00153719,0.00092799,0.00060164,-0.001
 45892,-0.02103166,0.00893211,0.01059475,-0.25721780,0.09711315,-0.0003
 4565,0.00019057,0.00001805,0.00028075,-0.00915383,0.00433623,-0.000013
 52,0.00001752,0.00008673,0.00261054,0.00104237,-0.00060326,0.00015456,
 0.00007509,-0.00011379,-0.00032431,-0.00018439,0.00017733,-0.00093637,
 0.00065788,-0.00040394,0.00029867,0.00044786,-0.00025560,-0.00216064,-
 0.00163635,-0.00289670,0.00039608,0.00021115,-0.00021274,-0.01000981,0
 .28230217,0.00054585,-0.00038653,0.00110260,-0.00051539,-0.01556580,0.
 00699363,-0.00397187,0.09741756,-0.09459625,0.00009997,0.00031474,0.00
 013266,0.00082755,-0.00220692,-0.00019951,-0.00004497,-0.00008507,-0.0
 0001616,-0.00028495,0.00004708,0.00055152,-0.00006003,-0.00016943,-0.0
 0007879,0.00002503,-0.00001438,-0.00028705,0.00021801,0.00035088,-0.00
 013041,0.00028688,-0.00006810,-0.00003565,-0.00234448,-0.00237193,-0.0
 0067792,0.00066150,0.00031947,0.00048235,0.00722386,-0.10582190,0.0986
 5786,0.00091968,0.00028919,0.00000098,0.00635287,-0.00201813,-0.021027
 52,-0.06768097,0.00670435,0.07172469,-0.00081551,0.00080955,0.00010100
 ,-0.01276145,0.00363601,0.03162446,-0.00001572,-0.00006416,0.00007112,
 0.00141812,-0.00137542,0.00075910,0.00001555,-0.00019713,0.00023366,-0
 .00209400,0.00037745,-0.00021858,-0.00007242,-0.00005251,0.00000464,0.
 00000579,-0.00005517,0.00029316,0.00097790,0.00049172,0.00080647,-0.00
 254354,-0.00256607,-0.00231753,-0.00018964,-0.00043141,-0.00179509,0.0
 8083743,0.00034759,0.00003175,0.00055775,0.00593544,-0.00364636,-0.021
 64700,0.00672077,-0.05057776,-0.01991740,0.00018716,0.00050071,0.00007
 374,0.00366524,-0.00162568,-0.00990558,-0.00004055,-0.00010376,0.00010
 916,-0.00026575,0.00047919,-0.00154775,-0.00017262,-0.00023407,0.00008
 181,0.00052856,0.00005069,0.00015167,-0.00004473,0.00005755,-0.0000068
 4,0.00002865,0.00002532,0.00000372,0.00090719,0.00080993,0.00025031,-0
 .00289814,-0.00209371,-0.00277275,-0.00894934,0.00291206,0.02827126,-0
 .00745836,0.05322159,0.00052396,-0.00038169,-0.00036788,0.00427064,-0.
 00184269,-0.01580876,0.07117204,-0.02087152,-0.28133732,0.00026187,-0.
 00109223,-0.00044236,0.00073562,0.00045312,-0.00116095,0.00001831,0.00
 054400,0.00050984,-0.00052909,-0.00006135,0.00105826,-0.00027377,0.000
 01570,-0.00011872,0.00038782,0.00084745,0.00069470,-0.00000697,-0.0000
 8043,0.00007642,-0.00024903,0.00003962,0.00022181,-0.00007119,-0.00004
 164,0.00113978,-0.00249006,-0.00198349,-0.00012910,0.00380783,-0.00080
 078,-0.01296899,-0.07862185,0.02560397,0.30612704,-0.00069590,-0.00179
 607,-0.00085455,-0.00501842,0.00457593,0.00143651,-0.01998279,-0.02182
 758,-0.01615037,0.00002750,-0.00007795,-0.00027699,-0.13214639,-0.1012
 4526,-0.06836436,-0.00001338,0.00002643,0.00013589,0.00265572,0.004155
 58,0.00248378,-0.00000118,-0.00001493,0.00002117,0.00002947,0.00005869
 ,0.00006161,0.00002301,0.00007437,-0.00003054,-0.00068016,0.00026278,-
 0.00012213,0.00007707,-0.00013605,0.00016986,0.00024592,0.00021762,0.0
 0001029,0.00122395,0.00023902,-0.00033671,0.00101737,-0.00039952,0.000
 63756,0.14612956,0.00039242,0.00043011,0.00023587,0.00211230,-0.000206
 50,-0.00027476,0.00742851,0.00766328,0.00600356,-0.00004064,0.00001341
 ,0.00002720,-0.10144807,-0.16566574,-0.08301837,0.00000556,-0.00000652
 ,-0.00000917,-0.01618119,-0.02311561,-0.01395736,0.00000516,-0.0000002
 8,-0.00000983,-0.00000053,-0.00000997,-0.00002438,-0.00004599,0.000004
 39,0.00000145,0.00018271,-0.00007723,0.00005199,0.00029296,0.00016426,
 -0.00001769,-0.00000855,-0.00011259,0.00008680,-0.00056372,0.00071943,
 0.00020138,-0.00067155,0.00021330,0.00004466,0.10757932,0.18399135,0.0
 0003651,-0.00020099,0.00043973,-0.00031339,0.00003602,0.00029817,0.002
 05026,0.00131073,-0.00002159,-0.00013179,0.00005033,-0.00008452,-0.069
 41637,-0.08344780,-0.10733963,-0.00000697,0.00000346,0.00006081,0.0091
 0737,0.01209256,0.00745937,0.00000390,0.00000315,0.00000049,0.00000605
 ,-0.00001470,0.00000040,0.00002226,0.00001412,-0.00001742,-0.00000712,
 -0.00001294,-0.00000934,-0.00023013,-0.00007504,0.00004833,0.00017139,
 0.00035053,0.00054516,-0.00040160,0.00009127,-0.00020942,-0.00020190,0
 .00042630,0.00045961,0.07697218,0.08835226,0.11241151,0.00011516,0.000
 20858,-0.00027815,0.00177698,0.00056565,0.00205218,-0.01285898,0.00244
 981,0.03113473,-0.00001928,0.00022553,0.00017719,-0.07224863,0.0026672
 1,0.07423598,0.00001254,-0.00014976,-0.00015154,0.00118182,-0.00039287
 ,-0.00438656,0.00004991,0.00001556,-0.00000045,-0.00000785,-0.00024355
 ,-0.00014861,-0.00002442,0.00003372,0.00000531,0.00000394,-0.00001219,
 -0.00003942,-0.00002094,0.00000672,-0.00008600,-0.00010178,-0.00052765
 ,-0.00106587,0.00123513,-0.00005815,-0.00044513,-0.00587397,0.00199485
 ,-0.00009447,0.00591538,-0.00033538,-0.01801055,0.08015858,-0.00004492
 ,-0.00000346,-0.00010285,-0.00083977,-0.00013025,0.00065596,0.00441894
 ,-0.00140788,-0.01094814,0.00001280,-0.00015323,-0.00001843,0.00300214
 ,-0.04817541,-0.01475712,0.00000085,0.00005439,0.00001463,-0.00972178,
 -0.00011473,0.03103959,-0.00001040,0.00000388,-0.00000460,0.00001655,0
 .00008848,0.00003198,0.00001615,-0.00004609,0.00001282,0.00000798,-0.0
 0000213,0.00002261,-0.00001292,0.00003417,0.00001907,-0.00008375,0.000
 22494,0.00014361,-0.00037767,0.00002770,-0.00021340,0.00242436,-0.0000
 1703,0.00040461,0.00742807,-0.00145007,-0.02079415,-0.00698940,0.05410
 228,0.00003224,0.00010206,0.00036242,-0.00062415,0.00018530,0.00092873
 ,0.00043200,-0.00081378,-0.00112450,-0.00020968,-0.00002600,-0.0000993
 1,0.07526965,-0.01369941,-0.28032120,-0.00002159,0.00002495,0.00004556
 ,0.00399213,0.00008378,-0.01376453,0.00000337,-0.00000580,0.00000253,0
 .00002095,0.00004560,0.00001339,0.00002170,-0.00003124,-0.00001914,0.0
 0008788,-0.00000333,0.00000633,-0.00011091,-0.00005380,0.00004971,0.00
 065257,0.00041744,0.00030469,0.00051130,-0.00042932,0.00044332,-0.0002
 3752,-0.00040597,0.00156538,0.00427721,-0.00112903,-0.01466530,-0.0829
 3477,0.01272907,0.30489743,0.00142345,-0.00158648,-0.00147727,0.000175
 23,0.00038394,0.00001779,-0.00005757,-0.00005638,-0.00026490,-0.018232
 73,-0.02291215,-0.01493329,0.00008407,0.00006365,0.00019340,-0.1180952
 7,-0.09816007,-0.06468416,-0.00002557,-0.00001414,-0.00001121,0.001424
 00,0.00019204,0.00011653,-0.00548216,0.00284242,-0.00075823,-0.0000127
 1,0.00005906,0.00005016,-0.00002210,0.00070992,0.00100496,-0.00002295,
 0.00000517,-0.00003370,-0.00001566,0.00003853,0.00002881,0.00004655,0.
 00001648,-0.00003709,0.00004670,0.00000319,0.00027874,0.00002947,-0.00
 000820,-0.00000324,-0.00007763,0.00002594,0.00001280,0.13130945,0.0000
 1075,0.00056966,0.00068612,-0.00001915,0.00021774,0.00029614,0.0002040
 0,-0.00009253,0.00001797,0.00666675,0.00852365,0.00547387,0.00001197,0
 .00001961,-0.00003300,-0.09916883,-0.18150792,-0.08950723,-0.00000294,
 0.00000505,-0.00000134,-0.00075274,0.00085419,0.00006491,0.00284989,0.
 00054546,0.00032914,-0.00004777,-0.00006112,-0.00011042,-0.00048190,0.
 00005111,0.00013254,0.00000091,-0.00002462,0.00000461,-0.00009168,0.00
 000069,0.00000589,-0.00001278,0.00000117,0.00000029,-0.00001699,-0.000
 00642,-0.00004794,0.00000493,-0.00000111,-0.00000215,0.00001433,-0.000
 00258,0.00000022,0.10667755,0.19444353,0.00096362,0.00070951,0.0005746
 4,0.00004967,0.00005597,0.00005007,0.00006717,0.00000826,-0.00013726,-
 0.00374045,-0.00429305,-0.00400805,0.00003138,0.00000682,0.00004113,-0
 .06512955,-0.08930268,-0.10738392,-0.00001189,-0.00000425,0.00000087,0
 .00004326,-0.00007140,-0.00019052,-0.00102108,0.00089599,0.00065663,0.
 00000562,0.00006287,-0.00000072,-0.00009846,-0.00007834,0.00044979,-0.
 00002582,0.00003278,-0.00003977,-0.00002860,0.00001846,0.00001029,0.00
 000586,-0.00000217,-0.00000660,-0.00001992,-0.00002546,0.00006552,-0.0
 0000296,-0.00000053,-0.00000663,-0.00001672,0.00001330,0.00000615,0.07
 354931,0.09834226,0.11289783,0.00186951,0.00026423,-0.00136346,-0.0001
 3315,-0.00008039,-0.00003755,0.00004570,0.00000094,-0.00008738,-0.0003
 5597,0.02803247,-0.01865601,-0.00000323,-0.00000595,0.00004744,-0.0463
 0095,-0.00437243,0.00299362,0.00001391,0.00000123,-0.00002000,-0.00609
 903,0.00216731,-0.00085185,0.00145597,-0.00066542,0.00006045,-0.000223
 50,-0.00049048,0.00061052,-0.00000728,-0.00004842,0.00018767,0.0000961
 5,-0.00023135,0.00010582,-0.00001349,-0.00008902,0.00006918,-0.0000474
 9,-0.00004555,0.00003064,0.00005775,0.00004620,0.00003848,0.00000394,-
 0.00000178,-0.00000148,-0.00001343,0.00000272,0.00000301,-0.00092221,-
 0.01319389,0.01072309,0.05152067,-0.00089383,0.00020431,0.00032269,0.0
 0012907,0.00027707,-0.00028193,-0.00000982,-0.00000536,0.00007865,0.00
 032048,-0.00869948,0.00560806,-0.00000927,-0.00000198,-0.00003704,-0.0
 0367442,-0.22645127,0.12384690,-0.00000227,0.00000226,0.00001194,0.002
 16536,0.00098209,0.00014079,0.00023039,0.00073489,-0.00022564,0.000597
 59,0.00004039,-0.00056282,0.00003636,-0.00017251,0.00001309,-0.0002028
 0,0.00013137,-0.00001208,0.00009352,-0.00001253,-0.00003146,0.00002219
 ,0.00002002,-0.00000724,-0.00004014,-0.00001519,-0.00006238,0.00000036
 ,0.00000306,0.00000549,0.00001862,-0.00000751,-0.00000797,-0.00007157,
 -0.01852382,0.01350049,0.00177556,0.24449566,0.00028075,-0.00086060,0.
 00067709,0.00000383,-0.00025550,0.00006416,-0.00000713,0.00007198,-0.0
 0003481,-0.00037837,0.00491745,-0.00424440,-0.00000321,-0.00003145,0.0
 0000674,0.00252035,0.12393623,-0.13386188,0.00000148,-0.00000054,-0.00
 000595,-0.00126105,-0.00014034,0.00071985,0.00001105,-0.00001986,-0.00
 021429,-0.00013132,0.00020170,0.00052446,-0.00016298,-0.00003825,0.000
 00278,0.00013057,-0.00003293,-0.00008858,-0.00004790,0.00001101,0.0000
 1339,-0.00001737,-0.00002436,0.00003483,0.00001381,0.00002106,0.000010
 61,-0.00002211,-0.00000079,-0.00000904,-0.00000344,0.00000443,0.000003
 53,0.00044757,-0.01358726,0.00972486,-0.00129000,-0.13764211,0.1419989
 3,-0.00563755,0.00206039,-0.00365949,-0.00027699,0.00024929,0.00208611
 ,0.00013211,0.00016182,0.00019015,-0.01347665,0.00577932,0.02808896,0.
 00000495,-0.00007012,-0.00007384,-0.10440056,0.02662451,0.10668529,-0.
 00002230,0.00000825,0.00003488,0.00126584,0.00012495,-0.00025882,0.000
 95452,-0.00088853,0.00005144,0.00011041,-0.00018582,-0.00020648,0.0001
 9491,0.00019455,-0.00006134,0.00001987,0.00006019,-0.00004621,-0.00068
 052,0.00029229,-0.00005861,-0.00000035,-0.00003344,0.00000790,-0.00000
 213,-0.00002022,-0.00009012,-0.00006871,-0.00000109,-0.00002933,0.0000
 2937,0.00000921,-0.00001112,0.00842575,-0.00265083,-0.01534230,-0.0009
 4959,-0.00048146,-0.00008705,0.11438026,0.00192762,-0.00044043,0.00111
 211,0.00029546,0.00050768,-0.00068377,0.00007191,-0.00012133,-0.000047
 92,0.00383327,-0.00341165,-0.00928117,0.00001004,0.00005095,0.00003992
 ,0.02672790,-0.06016193,-0.05019115,0.00000724,0.00000098,-0.00001504,
 -0.00039851,-0.00010930,-0.00027902,-0.00033943,0.00036386,0.00039710,
 0.00024270,0.00022068,-0.00036995,-0.00002492,0.00022382,0.00051539,-0
 .00010520,0.00000776,0.00001158,0.00021909,-0.00009238,0.00001018,0.00
 000501,0.00000616,0.00000535,-0.00000342,0.00001854,0.00001629,0.00003
 108,-0.00000367,0.00001132,-0.00000797,-0.00000585,0.00000216,0.011769
 75,-0.00500504,-0.01986789,-0.01305902,0.00699936,0.02347803,-0.031202
 38,0.06094636,-0.00079558,0.00013583,0.00035643,-0.00042206,0.00022859
 ,0.00037751,0.00009943,-0.00007931,-0.00000866,-0.00452206,0.00206717,
 0.00747845,-0.00001235,0.00003754,0.00001872,0.10789004,-0.05061832,-0
 .24714032,0.00001470,-0.00000157,-0.00001011,0.00062211,-0.00032371,0.
 00041491,0.00071321,-0.00005933,0.00042498,-0.00024764,-0.00009269,0.0
 0016717,-0.00006348,0.00029799,0.00017429,0.00007121,-0.00004115,0.000
 01775,-0.00008873,0.00004596,-0.00001804,-0.00000925,-0.00000233,-0.00
 000582,-0.00000540,-0.00000659,-0.00001022,0.00003028,-0.00000214,0.00
 000584,0.00000535,-0.00000649,-0.00000558,0.00649373,-0.00206707,-0.01
 270586,0.00741817,-0.00464387,-0.01532882,-0.11719200,0.05512756,0.265
 78921,-0.00006892,-0.00004165,0.00010754,0.00012616,0.00005256,-0.0001
 2602,0.00093964,-0.00016629,-0.00140540,0.00000733,0.00002311,-0.00002
 254,0.00056989,-0.00008106,-0.00403299,-0.00001367,0.00000128,0.000011
 66,-0.08189088,0.00195896,0.08854872,-0.00001196,-0.00002375,0.0000129
 9,-0.00000536,0.00001926,0.00001266,0.00004113,-0.00001886,0.00000503,
 0.00002529,0.00000380,0.00000656,0.00000494,-0.00026554,0.00011111,0.0
 0004710,-0.00001799,0.00013550,0.00003439,-0.00010375,0.00005483,0.000
 26272,0.00002687,0.00034828,-0.00017989,-0.00024204,0.00037643,0.00060
 656,0.00093391,-0.00088845,0.00000849,0.00000103,0.00000420,0.00000620
 ,-0.00000569,0.00000641,0.00000809,-0.00000206,-0.00000740,0.08395956,
 0.00002651,0.00001371,0.00005153,0.00019435,0.00012081,-0.00016144,-0.
 00126732,0.00183667,0.00034543,0.00001333,0.00004883,-0.00000108,-0.01
 059582,0.00022649,0.03022542,-0.00000186,-0.00001373,0.00000081,0.0022
 3865,-0.04674254,-0.00754383,-0.00000252,-0.00000202,0.00000406,0.0000
 0086,-0.00002309,-0.00000235,-0.00000277,-0.00000073,0.00000176,0.0000
 0675,-0.00000670,-0.00000555,0.00004937,-0.00006791,0.00001285,-0.0001
 3880,-0.00014272,-0.00003257,-0.00029564,0.00013092,-0.00040944,0.0004
 9885,-0.00009810,-0.00074621,-0.00043833,0.00109380,-0.00066333,0.0010
 5577,-0.00551932,0.00288278,-0.00000631,-0.00000025,-0.00000521,0.0000
 0089,-0.00000025,0.00000129,-0.00000084,0.00000274,0.00000086,-0.00317
 602,0.05104786,-0.00001718,-0.00008924,0.00008841,-0.00020519,0.000173
 94,-0.00018751,0.00057514,-0.00092287,0.00068297,-0.00000934,0.0000777
 0,-0.00009166,0.00487781,0.00032726,-0.01456021,-0.00002442,-0.0000116
 2,0.00004639,0.08839436,-0.00715436,-0.27632661,-0.00004314,-0.0000490
 1,0.00001976,-0.00000163,0.00001898,-0.00000554,0.00002870,-0.00000927
 ,0.00001385,-0.00002068,0.00000986,-0.00000802,-0.00018614,-0.00011558
 ,-0.00029400,0.00008481,-0.00003209,0.00025240,-0.00005326,-0.00005415
 ,0.00044471,-0.00085224,0.00045885,0.00013442,0.00002446,0.00022383,0.
 00061485,-0.00029427,0.00317162,0.00038916,0.00000687,0.00000363,-0.00
 000078,0.00001506,-0.00001274,0.00000715,-0.00001466,0.00000768,0.0000
 0088,-0.09768879,0.00438112,0.30115849,0.00004948,0.00013349,0.0000104
 6,-0.00090010,0.00003205,-0.00002123,0.00038766,0.00002801,0.00067432,
 0.00002024,0.00001723,0.00002597,0.00200443,0.00273937,0.00325278,-0.0
 0000446,-0.00000653,-0.00001945,-0.10870791,-0.09224790,-0.06554907,-0
 .00000894,-0.00000465,0.00000875,-0.00000738,-0.00000095,0.00000355,0.
 00000566,-0.00000068,-0.00000026,0.00005516,-0.00000422,0.00000834,-0.
 00178717,0.00106235,-0.00060214,0.00013238,-0.00019654,-0.00005839,0.0
 0003168,-0.00020647,-0.00009574,-0.00003678,0.00004377,-0.00002410,0.0
 0078939,0.00110836,-0.00012409,0.00005597,-0.00049147,0.00016507,0.000
 00206,0.00000345,0.00000409,0.00000255,-0.00000471,0.00000572,0.000015
 09,-0.00000651,-0.00000624,0.00586000,0.00998917,0.00617918,0.11647407
 ,0.00030552,0.00049831,0.00003061,-0.00023369,-0.00030440,0.00013410,-
 0.00099158,0.00057814,-0.00053912,-0.00006815,-0.00003669,-0.00011516,
 -0.01489795,-0.02179414,-0.01555770,-0.00000247,0.00003143,0.00006847,
 -0.09131818,-0.18346189,-0.09786995,0.00001723,-0.00000037,-0.00001103
 ,-0.00000376,0.00004323,0.00003496,-0.00021720,0.00011137,-0.00005439,
 0.00006644,-0.00003836,0.00001440,0.00081700,0.00058789,-0.00022659,0.
 00013130,-0.00016699,0.00026420,0.00010951,0.00021670,0.00016944,0.000
 06741,-0.00001409,0.00007760,0.00139570,-0.00468705,0.00343717,-0.0000
 8098,0.00143634,0.00008539,0.00001181,-0.00000459,-0.00000232,-0.00000
 215,0.00000029,-0.00000873,-0.00003472,0.00000750,0.00000913,0.0004895
 7,-0.00056393,-0.00011461,0.10101453,0.20150828,0.00019045,0.00027385,
 -0.00025364,-0.00095633,-0.00042749,0.00076003,-0.00009041,-0.00087995
 ,0.00011921,0.00003101,-0.00007167,0.00003690,0.00903598,0.01206656,0.
 00862822,0.00001036,0.00001163,-0.00001962,-0.06524216,-0.09886412,-0.
 11751517,0.00001251,0.00000773,-0.00002006,-0.00000099,0.00002257,-0.0
 0000010,-0.00009588,0.00008154,-0.00001501,0.00001688,-0.00000811,0.00
 001782,-0.00029373,0.00054388,-0.00026427,0.00014115,-0.00011520,-0.00
 036956,0.00016458,-0.00007462,0.00001565,-0.00006724,0.00000022,0.0000
 0667,-0.00057504,0.00375921,-0.00053787,0.00049235,-0.00072810,0.00093
 079,0.00000463,-0.00000100,0.00000492,-0.00000397,0.00000298,-0.000002
 83,0.00000128,-0.00000446,0.00000326,-0.01568409,-0.02125116,-0.014869
 38,0.07286396,0.10532711,0.12455499,0.00013279,0.00015487,-0.00007338,
 0.00006114,-0.00015147,0.00034076,0.00118487,0.00065025,-0.00061741,-0
 .00001390,-0.00000732,-0.00003439,-0.00149466,-0.00060563,0.00034585,0
 .00001036,0.00000212,0.00002248,-0.30215515,0.06249348,-0.01042863,0.0
 0001795,0.00000932,-0.00000760,0.00001112,-0.00001189,-0.00000750,-0.0
 0008979,0.00004184,-0.00000041,-0.00002909,-0.00002125,-0.00000080,0.0
 0020987,0.00026326,-0.00007842,0.00001027,-0.00000675,-0.00004430,-0.0
 0033591,-0.00000006,-0.00005056,0.00017425,-0.00018626,-0.00003052,0.0
 0061909,0.00044145,0.00013164,0.00010557,0.00027246,-0.00044370,-0.000
 00866,-0.00000605,-0.00000952,-0.00000303,0.00000651,-0.00000959,-0.00
 002582,0.00000835,0.00001396,-0.01033682,0.00185173,-0.00077546,-0.014
 43307,0.00342483,0.00004469,0.32638863,0.00021778,0.00031662,-0.000004
 32,-0.00083069,-0.00060950,-0.00000998,-0.00131090,-0.00558312,0.00346
 341,-0.00003893,-0.00005484,-0.00000455,0.03051969,-0.00726855,-0.0002
 2530,0.00000162,0.00003092,0.00001110,0.06124339,-0.06100190,0.0021907
 1,0.00001883,0.00001775,-0.00001512,-0.00002510,0.00003749,0.00004776,
 -0.00012793,0.00009044,-0.00006322,0.00010884,0.00001389,0.00000853,0.
 00017774,0.00045472,-0.00028679,0.00006202,0.00000646,0.00010151,0.001
 88050,-0.00068272,0.00022269,-0.00034844,0.00011154,-0.00003468,-0.000
 11421,0.00103996,-0.00097364,-0.00045846,0.00106334,0.00004690,0.00001
 585,-0.00000185,0.00000659,-0.00000570,-0.00000089,-0.00000046,0.00000
 465,-0.00000482,-0.00000604,0.00063437,-0.00134054,-0.00028895,-0.0230
 0115,0.00605304,0.00032860,-0.06862377,0.06731258,0.00007317,0.0000687
 5,-0.00003882,-0.00001438,0.00015357,0.00030498,0.00063524,0.00234916,
 -0.00111830,0.00000354,0.00004140,-0.00005227,-0.01509104,0.00274984,-
 0.00121917,-0.00001079,-0.00001314,0.00002710,-0.01002727,0.00213552,-
 0.04789317,-0.00002039,-0.00003001,0.00000581,0.00000553,0.00000496,-0
 .00001780,-0.00004748,0.00000913,0.00001605,-0.00002469,-0.00001677,-0
 .00000009,0.00003681,0.00007237,-0.00020459,0.00006753,-0.00010351,0.0
 0005353,-0.00076208,0.00033915,0.00035342,-0.00026830,0.00022551,0.000
 27423,0.00047495,-0.00054417,0.00055647,-0.00014713,-0.00069001,0.0000
 5044,-0.00000220,-0.00000017,-0.00000259,0.00000852,-0.00000379,0.0000
 0221,-0.00001463,0.00000570,0.00000404,0.03011375,-0.00708575,0.002490
 27,-0.01670148,0.00484702,-0.00121095,0.01171283,-0.00451478,0.0476192
 0\\0.00000003,0.00000007,0.00000029,-0.00000073,0.00000024,0.,0.000000
 18,-0.00000036,-0.00000020,0.00000038,0.00000032,0.00000042,-0.0000000
 3,-0.00000052,-0.00000068,0.00000022,0.00000084,0.00000093,-0.00000009
 ,-0.00000062,-0.00000077,0.00000024,0.00000041,0.00000047,0.00000067,0
 .00000026,0.00000044,-0.00000026,0.00000030,0.00000036,-0.00000044,0.0
 0000034,0.00000051,-0.00000040,0.,-0.00000003,-0.00000063,-0.00000008,
 -0.00000022,0.00000026,-0.00000018,-0.00000030,0.00000048,-0.00000017,
 -0.00000020,0.00000025,-0.00000077,-0.00000083,-0.00000030,-0.00000068
 ,-0.00000079,-0.00000009,0.00000089,0.00000103,0.00000024,0.00000070,0
 .00000093,0.00000051,0.00000088,0.00000102,0.00000017,-0.00000056,-0.0
 0000070,-0.00000045,-0.00000045,-0.00000063,-0.00000019,-0.00000085,-0
 .00000107\\\@


 SUCCESS IS NEVER CERTAIN,
 FAILURE IS NEVER FINAL.
 Job cpu time:       0 days  5 hours  7 minutes 32.8 seconds.
 Elapsed time:       0 days  2 hours 33 minutes 47.7 seconds.
 File lengths (MBytes):  RWF=   1488 Int=      0 D2E=      0 Chk=     32 Scr=     32
 Normal termination of Gaussian 16 at Mon Sep 30 00:34:54 2019.
