 Entering Gaussian System, Link 0=g16
 Input=tight/species/CCCCCCC/conformers/CCCCCCC_622.com
 Output=tight/species/CCCCCCC/conformers/CCCCCCC_622.log
 Initial command:
 /shared/centos7/gaussian/g16/l1.exe "/scratch/harms.n/gauss_scrdir/Gau-40938.inp" -scrdir="/scratch/harms.n/gauss_scrdir/"
 Entering Link 1 = /shared/centos7/gaussian/g16/l1.exe PID=     40939.
  
 Copyright (c) 1988,1990,1992,1993,1995,1998,2003,2009,2016,
            Gaussian, Inc.  All Rights Reserved.
  
 This is part of the Gaussian(R) 16 program.  It is based on
 the Gaussian(R) 09 system (copyright 2009, Gaussian, Inc.),
 the Gaussian(R) 03 system (copyright 2003, Gaussian, Inc.),
 the Gaussian(R) 98 system (copyright 1998, Gaussian, Inc.),
 the Gaussian(R) 94 system (copyright 1995, Gaussian, Inc.),
 the Gaussian 92(TM) system (copyright 1992, Gaussian, Inc.),
 the Gaussian 90(TM) system (copyright 1990, Gaussian, Inc.),
 the Gaussian 88(TM) system (copyright 1988, Gaussian, Inc.),
 the Gaussian 86(TM) system (copyright 1986, Carnegie Mellon
 University), and the Gaussian 82(TM) system (copyright 1983,
 Carnegie Mellon University). Gaussian is a federally registered
 trademark of Gaussian, Inc.
  
 This software contains proprietary and confidential information,
 including trade secrets, belonging to Gaussian, Inc.
  
 This software is provided under written license and may be
 used, copied, transmitted, or stored only in accord with that
 written license.
  
 The following legend is applicable only to US Government
 contracts under FAR:
  
                    RESTRICTED RIGHTS LEGEND
  
 Use, reproduction and disclosure by the US Government is
 subject to restrictions as set forth in subparagraphs (a)
 and (c) of the Commercial Computer Software - Restricted
 Rights clause in FAR 52.227-19.
  
 Gaussian, Inc.
 340 Quinnipiac St., Bldg. 40, Wallingford CT 06492
  
  
 ---------------------------------------------------------------
 Warning -- This program may not be used in any manner that
 competes with the business of Gaussian, Inc. or will provide
 assistance to any competitor of Gaussian, Inc.  The licensee
 of this program is prohibited from giving any competitor of
 Gaussian, Inc. access to this program.  By using this program,
 the user acknowledges that Gaussian, Inc. is engaged in the
 business of creating and licensing software in the field of
 computational chemistry and represents and warrants to the
 licensee that it is not a competitor of Gaussian, Inc. and that
 it will not use this program in any manner prohibited above.
 ---------------------------------------------------------------
  

 Cite this work as:
 Gaussian 16, Revision A.03,
 M. J. Frisch, G. W. Trucks, H. B. Schlegel, G. E. Scuseria, 
 M. A. Robb, J. R. Cheeseman, G. Scalmani, V. Barone, 
 G. A. Petersson, H. Nakatsuji, X. Li, M. Caricato, A. V. Marenich, 
 J. Bloino, B. G. Janesko, R. Gomperts, B. Mennucci, H. P. Hratchian, 
 J. V. Ortiz, A. F. Izmaylov, J. L. Sonnenberg, D. Williams-Young, 
 F. Ding, F. Lipparini, F. Egidi, J. Goings, B. Peng, A. Petrone, 
 T. Henderson, D. Ranasinghe, V. G. Zakrzewski, J. Gao, N. Rega, 
 G. Zheng, W. Liang, M. Hada, M. Ehara, K. Toyota, R. Fukuda, 
 J. Hasegawa, M. Ishida, T. Nakajima, Y. Honda, O. Kitao, H. Nakai, 
 T. Vreven, K. Throssell, J. A. Montgomery, Jr., J. E. Peralta, 
 F. Ogliaro, M. J. Bearpark, J. J. Heyd, E. N. Brothers, K. N. Kudin, 
 V. N. Staroverov, T. A. Keith, R. Kobayashi, J. Normand, 
 K. Raghavachari, A. P. Rendell, J. C. Burant, S. S. Iyengar, 
 J. Tomasi, M. Cossi, J. M. Millam, M. Klene, C. Adamo, R. Cammi, 
 J. W. Ochterski, R. L. Martin, K. Morokuma, O. Farkas, 
 J. B. Foresman, and D. J. Fox, Gaussian, Inc., Wallingford CT, 2016.
 
 ******************************************
 Gaussian 16:  EM64L-G16RevA.03 25-Dec-2016
                28-Sep-2019 
 ******************************************
 %nprocshared=20
 Will use up to   20 processors via shared memory.
 %mem=5GB
 ----------------------------------------------------------------------
 #p m062x/cc-pVTZ opt=(calcfc,maxcycles=900,Tight) freq IOP(7/33=1,2/16
 =3) scf=(maxcycle=900)
 ----------------------------------------------------------------------
 1/6=900,7=10,10=4,18=20,19=15,26=3,38=1/1,3;
 2/9=110,12=2,16=3,17=6,18=5,40=1/2;
 3/5=16,6=1,11=2,25=1,30=1,71=2,74=-55,140=1/1,2,3;
 4//1;
 5/5=2,7=900,38=5/2;
 8/6=4,10=90,11=11/1;
 11/6=1,8=1,9=11,15=111,16=1/1,2,10;
 10/6=1,13=1/2;
 6/7=2,8=2,9=2,10=2,28=1/1;
 7/10=1,18=20,25=1,33=1/1,2,3,16;
 1/6=900,7=10,10=4,18=20,19=15,26=3/3(2);
 2/9=110,16=3/2;
 99//99;
 2/9=110,16=3/2;
 3/5=16,6=1,11=2,25=1,30=1,71=1,74=-55/1,2,3;
 4/5=5,16=3,69=1/1;
 5/5=2,7=900,38=5/2;
 7/33=1/1,2,3,16;
 1/6=900,7=10,18=20,19=15,26=3/3(-5);
 2/9=110,16=3/2;
 6/7=2,8=2,9=2,10=2,19=2,28=1/1;
 99/9=1/99;
 Leave Link    1 at Sat Sep 28 19:24:54 2019, MaxMem=   671088640 cpu:               4.5 elap:               2.2
 (Enter /shared/centos7/gaussian/g16/l101.exe)
 ------------------------------
 Gaussian input prepared by ASE
 ------------------------------
 Symbolic Z-matrix:
 Charge =  0 Multiplicity = 1
 C                     1.38662  -1.17004   0.51173 
 C                     0.15409  -0.45079   0.94246 
 C                    -1.12762  -1.20519   0.69129 
 C                     2.12751  -0.48921  -0.58943 
 C                    -2.34993  -0.46649   1.18322 
 C                     3.35939  -1.17364  -1.01795 
 C                    -3.6425   -1.21003   0.96797 
 H                     2.3726    0.55897  -0.25719 
 H                     1.44349  -0.36185  -1.46216 
 H                     1.13561  -2.20494   0.19621 
 H                     2.06845  -1.28862   1.37873 
 H                     0.09658   0.52898   0.44303 
 H                     0.2193   -0.22747   2.02833 
 H                    -1.07238  -2.18764   1.19013 
 H                    -1.23123  -1.41342  -0.39363 
 H                    -2.22788  -0.25854   2.27838 
 H                    -2.41211   0.51796   0.68901 
 H                     3.56317  -2.08475  -0.42446 
 H                     3.2997   -1.49547  -2.0998 
 H                     4.24693  -0.51246  -0.92522 
 H                    -3.51653  -2.28603   1.09418 
 H                    -4.04583  -1.02788  -0.06644 
 H                    -4.42677  -0.86576   1.70165 
 
 ITRead=  0  0  0  0  0  0  0  0  0  0  0  0  0  0  0  0  0  0  0  0
 ITRead=  0  0  0
 MicOpt= -1 -1 -1 -1 -1 -1 -1 -1 -1 -1 -1 -1 -1 -1 -1 -1 -1 -1 -1 -1
 MicOpt= -1 -1 -1
 NAtoms=     23 NQM=       23 NQMF=       0 NMMI=      0 NMMIF=      0
                NMic=       0 NMicF=      0.
                    Isotopes and Nuclear Properties:
 (Nuclear quadrupole moments (NQMom) in fm**2, nuclear magnetic moments (NMagM)
  in nuclear magnetons)

  Atom         1           2           3           4           5           6           7           8           9          10
 IAtWgt=          12          12          12          12          12          12          12           1           1           1
 AtmWgt=  12.0000000  12.0000000  12.0000000  12.0000000  12.0000000  12.0000000  12.0000000   1.0078250   1.0078250   1.0078250
 NucSpn=           0           0           0           0           0           0           0           1           1           1
 AtZEff=  -0.0000000  -0.0000000  -0.0000000  -0.0000000  -0.0000000  -0.0000000  -0.0000000  -0.0000000  -0.0000000  -0.0000000
 NQMom=    0.0000000   0.0000000   0.0000000   0.0000000   0.0000000   0.0000000   0.0000000   0.0000000   0.0000000   0.0000000
 NMagM=    0.0000000   0.0000000   0.0000000   0.0000000   0.0000000   0.0000000   0.0000000   2.7928460   2.7928460   2.7928460
 AtZNuc=   6.0000000   6.0000000   6.0000000   6.0000000   6.0000000   6.0000000   6.0000000   1.0000000   1.0000000   1.0000000

  Atom        11          12          13          14          15          16          17          18          19          20
 IAtWgt=           1           1           1           1           1           1           1           1           1           1
 AtmWgt=   1.0078250   1.0078250   1.0078250   1.0078250   1.0078250   1.0078250   1.0078250   1.0078250   1.0078250   1.0078250
 NucSpn=           1           1           1           1           1           1           1           1           1           1
 AtZEff=  -0.0000000  -0.0000000  -0.0000000  -0.0000000  -0.0000000  -0.0000000  -0.0000000  -0.0000000  -0.0000000  -0.0000000
 NQMom=    0.0000000   0.0000000   0.0000000   0.0000000   0.0000000   0.0000000   0.0000000   0.0000000   0.0000000   0.0000000
 NMagM=    2.7928460   2.7928460   2.7928460   2.7928460   2.7928460   2.7928460   2.7928460   2.7928460   2.7928460   2.7928460
 AtZNuc=   1.0000000   1.0000000   1.0000000   1.0000000   1.0000000   1.0000000   1.0000000   1.0000000   1.0000000   1.0000000

  Atom        21          22          23
 IAtWgt=           1           1           1
 AtmWgt=   1.0078250   1.0078250   1.0078250
 NucSpn=           1           1           1
 AtZEff=  -0.0000000  -0.0000000  -0.0000000
 NQMom=    0.0000000   0.0000000   0.0000000
 NMagM=    2.7928460   2.7928460   2.7928460
 AtZNuc=   1.0000000   1.0000000   1.0000000
 Leave Link  101 at Sat Sep 28 19:24:55 2019, MaxMem=   671088640 cpu:               2.8 elap:               1.4
 (Enter /shared/centos7/gaussian/g16/l103.exe)

 GradGradGradGradGradGradGradGradGradGradGradGradGradGradGradGradGradGrad
 Berny optimization.
 Initialization pass.
                           ----------------------------
                           !    Initial Parameters    !
                           ! (Angstroms and Degrees)  !
 --------------------------                            --------------------------
 ! Name  Definition              Value          Derivative Info.                !
 --------------------------------------------------------------------------------
 ! R1    R(1,2)                  1.4906         calculate D2E/DX2 analytically  !
 ! R2    R(1,4)                  1.4917         calculate D2E/DX2 analytically  !
 ! R3    R(1,10)                 1.1107         calculate D2E/DX2 analytically  !
 ! R4    R(1,11)                 1.1093         calculate D2E/DX2 analytically  !
 ! R5    R(2,3)                  1.5083         calculate D2E/DX2 analytically  !
 ! R6    R(2,12)                 1.1012         calculate D2E/DX2 analytically  !
 ! R7    R(2,13)                 1.1105         calculate D2E/DX2 analytically  !
 ! R8    R(3,5)                  1.5105         calculate D2E/DX2 analytically  !
 ! R9    R(3,14)                 1.1032         calculate D2E/DX2 analytically  !
 ! R10   R(3,15)                 1.1096         calculate D2E/DX2 analytically  !
 ! R11   R(4,6)                  1.473          calculate D2E/DX2 analytically  !
 ! R12   R(4,8)                  1.1266         calculate D2E/DX2 analytically  !
 ! R13   R(4,9)                  1.1161         calculate D2E/DX2 analytically  !
 ! R14   R(5,7)                  1.5066         calculate D2E/DX2 analytically  !
 ! R15   R(5,16)                 1.1214         calculate D2E/DX2 analytically  !
 ! R16   R(5,17)                 1.1033         calculate D2E/DX2 analytically  !
 ! R17   R(6,18)                 1.1063         calculate D2E/DX2 analytically  !
 ! R18   R(6,19)                 1.1303         calculate D2E/DX2 analytically  !
 ! R19   R(6,20)                 1.1106         calculate D2E/DX2 analytically  !
 ! R20   R(7,21)                 1.0907         calculate D2E/DX2 analytically  !
 ! R21   R(7,22)                 1.1251         calculate D2E/DX2 analytically  !
 ! R22   R(7,23)                 1.1278         calculate D2E/DX2 analytically  !
 ! A1    A(2,1,4)              113.814          calculate D2E/DX2 analytically  !
 ! A2    A(2,1,10)             110.1711         calculate D2E/DX2 analytically  !
 ! A3    A(2,1,11)             109.5088         calculate D2E/DX2 analytically  !
 ! A4    A(4,1,10)             109.1373         calculate D2E/DX2 analytically  !
 ! A5    A(4,1,11)             108.69           calculate D2E/DX2 analytically  !
 ! A6    A(10,1,11)            105.1491         calculate D2E/DX2 analytically  !
 ! A7    A(1,2,3)              114.4045         calculate D2E/DX2 analytically  !
 ! A8    A(1,2,12)             109.9645         calculate D2E/DX2 analytically  !
 ! A9    A(1,2,13)             109.3313         calculate D2E/DX2 analytically  !
 ! A10   A(3,2,12)             108.9716         calculate D2E/DX2 analytically  !
 ! A11   A(3,2,13)             108.2582         calculate D2E/DX2 analytically  !
 ! A12   A(12,2,13)            105.522          calculate D2E/DX2 analytically  !
 ! A13   A(2,3,5)              112.88           calculate D2E/DX2 analytically  !
 ! A14   A(2,3,14)             109.1209         calculate D2E/DX2 analytically  !
 ! A15   A(2,3,15)             109.6356         calculate D2E/DX2 analytically  !
 ! A16   A(5,3,14)             109.1931         calculate D2E/DX2 analytically  !
 ! A17   A(5,3,15)             109.5513         calculate D2E/DX2 analytically  !
 ! A18   A(14,3,15)            106.2406         calculate D2E/DX2 analytically  !
 ! A19   A(1,4,6)              114.7133         calculate D2E/DX2 analytically  !
 ! A20   A(1,4,8)              108.3618         calculate D2E/DX2 analytically  !
 ! A21   A(1,4,9)              108.9602         calculate D2E/DX2 analytically  !
 ! A22   A(6,4,8)              109.6447         calculate D2E/DX2 analytically  !
 ! A23   A(6,4,9)              109.7604         calculate D2E/DX2 analytically  !
 ! A24   A(8,4,9)              104.9375         calculate D2E/DX2 analytically  !
 ! A25   A(3,5,7)              113.9763         calculate D2E/DX2 analytically  !
 ! A26   A(3,5,16)             108.7036         calculate D2E/DX2 analytically  !
 ! A27   A(3,5,17)             109.6379         calculate D2E/DX2 analytically  !
 ! A28   A(7,5,16)             108.9303         calculate D2E/DX2 analytically  !
 ! A29   A(7,5,17)             109.1474         calculate D2E/DX2 analytically  !
 ! A30   A(16,5,17)            106.1487         calculate D2E/DX2 analytically  !
 ! A31   A(4,6,18)             112.3753         calculate D2E/DX2 analytically  !
 ! A32   A(4,6,19)             111.5057         calculate D2E/DX2 analytically  !
 ! A33   A(4,6,20)             111.557          calculate D2E/DX2 analytically  !
 ! A34   A(18,6,19)            106.7809         calculate D2E/DX2 analytically  !
 ! A35   A(18,6,20)            107.3552         calculate D2E/DX2 analytically  !
 ! A36   A(19,6,20)            106.9554         calculate D2E/DX2 analytically  !
 ! A37   A(5,7,21)             111.7924         calculate D2E/DX2 analytically  !
 ! A38   A(5,7,22)             111.0392         calculate D2E/DX2 analytically  !
 ! A39   A(5,7,23)             110.6718         calculate D2E/DX2 analytically  !
 ! A40   A(21,7,22)            107.9092         calculate D2E/DX2 analytically  !
 ! A41   A(21,7,23)            107.8304         calculate D2E/DX2 analytically  !
 ! A42   A(22,7,23)            107.4217         calculate D2E/DX2 analytically  !
 ! D1    D(4,1,2,3)            115.648          calculate D2E/DX2 analytically  !
 ! D2    D(4,1,2,12)            -7.3522         calculate D2E/DX2 analytically  !
 ! D3    D(4,1,2,13)          -122.767          calculate D2E/DX2 analytically  !
 ! D4    D(10,1,2,3)            -7.3006         calculate D2E/DX2 analytically  !
 ! D5    D(10,1,2,12)         -130.3008         calculate D2E/DX2 analytically  !
 ! D6    D(10,1,2,13)          114.2844         calculate D2E/DX2 analytically  !
 ! D7    D(11,1,2,3)          -122.4839         calculate D2E/DX2 analytically  !
 ! D8    D(11,1,2,12)          114.516          calculate D2E/DX2 analytically  !
 ! D9    D(11,1,2,13)           -0.8988         calculate D2E/DX2 analytically  !
 ! D10   D(2,1,4,6)            179.1899         calculate D2E/DX2 analytically  !
 ! D11   D(2,1,4,8)             56.3228         calculate D2E/DX2 analytically  !
 ! D12   D(2,1,4,9)            -57.3306         calculate D2E/DX2 analytically  !
 ! D13   D(10,1,4,6)           -57.2979         calculate D2E/DX2 analytically  !
 ! D14   D(10,1,4,8)           179.835          calculate D2E/DX2 analytically  !
 ! D15   D(10,1,4,9)            66.1816         calculate D2E/DX2 analytically  !
 ! D16   D(11,1,4,6)            56.8696         calculate D2E/DX2 analytically  !
 ! D17   D(11,1,4,8)           -65.9975         calculate D2E/DX2 analytically  !
 ! D18   D(11,1,4,9)          -179.6509         calculate D2E/DX2 analytically  !
 ! D19   D(1,2,3,5)            178.0277         calculate D2E/DX2 analytically  !
 ! D20   D(1,2,3,14)            56.4289         calculate D2E/DX2 analytically  !
 ! D21   D(1,2,3,15)           -59.5456         calculate D2E/DX2 analytically  !
 ! D22   D(12,2,3,5)           -58.4371         calculate D2E/DX2 analytically  !
 ! D23   D(12,2,3,14)          179.9641         calculate D2E/DX2 analytically  !
 ! D24   D(12,2,3,15)           63.9895         calculate D2E/DX2 analytically  !
 ! D25   D(13,2,3,5)            55.8554         calculate D2E/DX2 analytically  !
 ! D26   D(13,2,3,14)          -65.7433         calculate D2E/DX2 analytically  !
 ! D27   D(13,2,3,15)          178.2821         calculate D2E/DX2 analytically  !
 ! D28   D(2,3,5,7)           -178.911          calculate D2E/DX2 analytically  !
 ! D29   D(2,3,5,16)           -57.2148         calculate D2E/DX2 analytically  !
 ! D30   D(2,3,5,17)            58.4165         calculate D2E/DX2 analytically  !
 ! D31   D(14,3,5,7)           -57.353          calculate D2E/DX2 analytically  !
 ! D32   D(14,3,5,16)           64.3432         calculate D2E/DX2 analytically  !
 ! D33   D(14,3,5,17)          179.9745         calculate D2E/DX2 analytically  !
 ! D34   D(15,3,5,7)            58.6151         calculate D2E/DX2 analytically  !
 ! D35   D(15,3,5,16)         -179.6887         calculate D2E/DX2 analytically  !
 ! D36   D(15,3,5,17)          -64.0574         calculate D2E/DX2 analytically  !
 ! D37   D(1,4,6,18)            -1.8273         calculate D2E/DX2 analytically  !
 ! D38   D(1,4,6,19)           118.0266         calculate D2E/DX2 analytically  !
 ! D39   D(1,4,6,20)          -122.4561         calculate D2E/DX2 analytically  !
 ! D40   D(8,4,6,18)           120.3468         calculate D2E/DX2 analytically  !
 ! D41   D(8,4,6,19)          -119.7993         calculate D2E/DX2 analytically  !
 ! D42   D(8,4,6,20)            -0.282          calculate D2E/DX2 analytically  !
 ! D43   D(9,4,6,18)          -124.8781         calculate D2E/DX2 analytically  !
 ! D44   D(9,4,6,19)            -5.0242         calculate D2E/DX2 analytically  !
 ! D45   D(9,4,6,20)           114.4931         calculate D2E/DX2 analytically  !
 ! D46   D(3,5,7,21)            35.6885         calculate D2E/DX2 analytically  !
 ! D47   D(3,5,7,22)           -84.8836         calculate D2E/DX2 analytically  !
 ! D48   D(3,5,7,23)           155.9078         calculate D2E/DX2 analytically  !
 ! D49   D(16,5,7,21)          -85.8823         calculate D2E/DX2 analytically  !
 ! D50   D(16,5,7,22)          153.5456         calculate D2E/DX2 analytically  !
 ! D51   D(16,5,7,23)           34.337          calculate D2E/DX2 analytically  !
 ! D52   D(17,5,7,21)          158.6289         calculate D2E/DX2 analytically  !
 ! D53   D(17,5,7,22)           38.0569         calculate D2E/DX2 analytically  !
 ! D54   D(17,5,7,23)          -81.1518         calculate D2E/DX2 analytically  !
 --------------------------------------------------------------------------------
 Trust Radius=3.00D-01 FncErr=1.00D-07 GrdErr=1.00D-06 EigMax=2.50D+02 EigMin=1.00D-04
 Number of steps in this run=    138 maximum allowed number of steps=    138.
 GradGradGradGradGradGradGradGradGradGradGradGradGradGradGradGradGradGrad

 Leave Link  103 at Sat Sep 28 19:24:57 2019, MaxMem=   671088640 cpu:               1.7 elap:               1.1
 (Enter /shared/centos7/gaussian/g16/l202.exe)
                          Input orientation:                          
 ---------------------------------------------------------------------
 Center     Atomic      Atomic             Coordinates (Angstroms)
 Number     Number       Type             X           Y           Z
 ---------------------------------------------------------------------
      1          6           0        1.386616   -1.170043    0.511730
      2          6           0        0.154094   -0.450788    0.942456
      3          6           0       -1.127617   -1.205185    0.691289
      4          6           0        2.127513   -0.489209   -0.589434
      5          6           0       -2.349926   -0.466494    1.183223
      6          6           0        3.359389   -1.173640   -1.017947
      7          6           0       -3.642501   -1.210028    0.967971
      8          1           0        2.372604    0.558969   -0.257187
      9          1           0        1.443494   -0.361850   -1.462161
     10          1           0        1.135609   -2.204944    0.196212
     11          1           0        2.068454   -1.288616    1.378726
     12          1           0        0.096581    0.528981    0.443026
     13          1           0        0.219295   -0.227467    2.028334
     14          1           0       -1.072377   -2.187644    1.190134
     15          1           0       -1.231225   -1.413418   -0.393630
     16          1           0       -2.227882   -0.258538    2.278385
     17          1           0       -2.412108    0.517958    0.689008
     18          1           0        3.563175   -2.084749   -0.424456
     19          1           0        3.299697   -1.495469   -2.099797
     20          1           0        4.246931   -0.512458   -0.925218
     21          1           0       -3.516526   -2.286030    1.094179
     22          1           0       -4.045830   -1.027879   -0.066441
     23          1           0       -4.426768   -0.865756    1.701651
 ---------------------------------------------------------------------
                    Distance matrix (angstroms):
                    1          2          3          4          5
     1  C    0.000000
     2  C    1.490625   0.000000
     3  C    2.520882   1.508304   0.000000
     4  C    1.491652   2.498509   3.570539   0.000000
     5  C    3.861040   2.515617   1.510531   4.815630   0.000000
     6  C    2.496349   3.826175   4.801636   1.472952   6.159666
     7  C    5.049928   3.871851   2.530063   6.019814   1.506627
     8  H    2.133750   2.716715   4.032790   1.126559   5.042682
     9  H    2.133696   2.729953   3.458203   1.116134   4.625910
    10  H    1.110665   2.144135   2.523254   2.131867   4.018128
    11  H    1.109344   2.134728   3.270230   2.125134   4.498465
    12  H    2.134384   1.101220   2.137201   2.495470   2.743039
    13  H    2.133348   1.110520   2.134899   3.250002   2.715188
    14  H    2.746341   2.140617   1.103233   4.036191   2.143487
    15  H    2.780648   2.151950   1.109570   3.489072   2.152817
    16  H    4.125107   2.737787   2.150720   5.219872   1.121392
    17  H    4.160658   2.754649   2.149219   4.822547   1.103295
    18  H    2.539791   4.019963   4.901229   2.152693   6.337834
    19  H    3.253591   4.499053   5.241711   2.160502   6.614775
    20  H    3.267819   4.499259   5.654975   2.145979   6.925761
    21  H    5.062161   4.106651   2.652816   6.157784   2.163237
    22  H    5.464976   4.357782   3.020191   6.218830   2.180115
    23  H    5.941712   4.661853   3.467051   6.953378   2.177487
                    6          7          8          9         10
     6  C    0.000000
     7  C    7.278163   0.000000
     8  H    2.134113   6.388415   0.000000
     9  H    2.127671   5.700201   1.778515   0.000000
    10  H    2.735501   4.941235   3.061853   2.498397   0.000000
    11  H    2.724661   5.726247   2.486421   3.052885   1.763008
    12  H    3.959707   4.156977   2.381486   2.497497   2.935105
    13  H    4.476077   4.123502   3.237101   3.701388   2.847230
    14  H    5.054145   2.758737   4.637512   4.086294   2.421442
    15  H    4.639074   2.776612   4.110537   3.066215   2.564436
    16  H    6.551398   2.150271   5.316193   5.242266   4.408743
    17  H    6.251830   2.139538   4.877543   4.501916   4.499259
    18  H    1.106291   7.390924   2.904252   2.922030   2.508536
    19  H    1.130281   7.595182   2.911259   2.266531   3.233927
    20  H    1.110627   8.143336   2.259939   2.858365   3.715164
    21  H    7.278509   1.090678   6.678477   5.902469   4.738700
    22  H    7.467521   1.125104   6.614436   5.703008   5.319941
    23  H    8.253197   1.127778   7.217919   6.687571   5.916064
                   11         12         13         14         15
    11  H    0.000000
    12  H    2.840330   0.000000
    13  H    2.228770   1.760816   0.000000
    14  H    3.272405   3.050358   2.492647   0.000000
    15  H    3.747627   2.497194   3.062091   1.770020   0.000000
    16  H    4.508764   3.064614   2.460115   2.498186   3.076806
    17  H    4.880046   2.520744   3.045280   3.060439   2.509342
    18  H    2.473759   4.427344   4.543919   4.909769   4.841271
    19  H    3.695791   4.563364   5.304542   5.515232   4.842209
    20  H    3.264406   4.492448   5.002654   5.964562   5.577142
    21  H    5.680476   4.626320   4.366542   2.448010   2.863150
    22  H    6.288160   4.454541   4.818717   3.430081   2.859666
    23  H    6.516978   4.897971   4.701068   3.641562   3.860263
                   16         17         18         19         20
    16  H    0.000000
    17  H    1.778483   0.000000
    18  H    6.646558   6.611950   0.000000
    19  H    7.159092   6.667535   1.795394   0.000000
    20  H    7.228469   6.928945   1.786165   1.800889   0.000000
    21  H    2.678371   3.040765   7.243544   7.568842   8.215522
    22  H    3.065131   2.372628   7.690390   7.636094   8.353026
    23  H    2.352963   2.645556   8.357360   8.633991   9.069638
                   21         22         23
    21  H    0.000000
    22  H    1.791687   0.000000
    23  H    1.792969   1.815915   0.000000
 Stoichiometry    C7H16
 Framework group  C1[X(C7H16)]
 Deg. of freedom    63
 Full point group                 C1      NOp   1
 Largest Abelian subgroup         C1      NOp   1
 Largest concise Abelian subgroup C1      NOp   1
                         Standard orientation:                         
 ---------------------------------------------------------------------
 Center     Atomic      Atomic             Coordinates (Angstroms)
 Number     Number       Type             X           Y           Z
 ---------------------------------------------------------------------
      1          6           0        1.307216    0.222806    0.559317
      2          6           0        0.002983    0.738921    0.054771
      3          6           0       -1.154913   -0.210620    0.235416
      4          6           0        2.329481    0.022821   -0.508393
      5          6           0       -2.466691    0.364925   -0.243840
      6          6           0        3.632458   -0.469176   -0.029043
      7          6           0       -3.645181   -0.553725   -0.051047
      8          1           0        2.470163    0.999254   -1.052381
      9          1           0        1.920620   -0.677473   -1.275319
     10          1           0        1.156117   -0.734079    1.102562
     11          1           0        1.715605    0.924170    1.315591
     12          1           0        0.089026    0.999794   -1.011637
     13          1           0       -0.242096    1.689293    0.574371
     14          1           0       -1.242969   -0.474157    1.303085
     15          1           0       -0.946944   -1.158752   -0.302115
     16          1           0       -2.659880    1.324310    0.303681
     17          1           0       -2.386604    0.631637   -1.311413
     18          1           0        3.660040   -0.585375    1.070783
     19          1           0        3.881704   -1.479483   -0.470280
     20          1           0        4.457223    0.219445   -0.310213
     21          1           0       -3.559833   -1.134343    0.868288
     22          1           0       -3.739065   -1.275745   -0.908795
     23          1           0       -4.605222    0.035788    0.000709
 ---------------------------------------------------------------------
 Rotational constants (GHZ):           9.4038922           0.7883760           0.7767783
 Leave Link  202 at Sat Sep 28 19:24:59 2019, MaxMem=   671088640 cpu:               4.1 elap:               2.1
 (Enter /shared/centos7/gaussian/g16/l301.exe)
 Standard basis: CC-pVTZ (5D, 7F)
 Ernie: Thresh=  0.10000D-02 Tol=  0.10000D-05 Strict=F.
 Ernie:  21 primitive shells out of 310 were deleted.
 There are   485 symmetry adapted cartesian basis functions of A   symmetry.
 There are   434 symmetry adapted basis functions of A   symmetry.
   434 basis functions,   636 primitive gaussians,   485 cartesian basis functions
    29 alpha electrons       29 beta electrons
       nuclear repulsion energy       312.4279239799 Hartrees.
 IExCor= 4336 DFT=T Ex+Corr=M062X ExCW=0 ScaHFX=  0.540000
 ScaDFX=  1.000000  1.000000  1.000000  1.000000 ScalE2=  1.000000  1.000000
 IRadAn=      5 IRanWt=     -1 IRanGd=            0 ICorTp=0 IEmpDi=  4
 NAtoms=   23 NActive=   23 NUniq=   23 SFac= 1.00D+00 NAtFMM=   60 NAOKFM=F Big=F
 Integral buffers will be    131072 words long.
 Raffenetti 2 integral format.
 Two-electron integral symmetry is turned on.
 Leave Link  301 at Sat Sep 28 19:25:00 2019, MaxMem=   671088640 cpu:               1.9 elap:               1.0
 (Enter /shared/centos7/gaussian/g16/l302.exe)
 NPDir=0 NMtPBC=     1 NCelOv=     1 NCel=       1 NClECP=     1 NCelD=      1
         NCelK=      1 NCelE2=     1 NClLst=     1 CellRange=     0.0.
 One-electron integrals computed using PRISM.
 One-electron integral symmetry used in STVInt
 NBasis=   434 RedAO= T EigKep=  2.29D-04  NBF=   434
 NBsUse=   434 1.00D-06 EigRej= -1.00D+00 NBFU=   434
 Precomputing XC quadrature grid using
 IXCGrd= 4 IRadAn=           5 IRanWt=          -1 IRanGd=           0 AccXCQ= 0.00D+00.
 Generated NRdTot=       0 NPtTot=           0 NUsed=           0 NTot=          32
 NSgBfM=   485   485   485   485   485 MxSgAt=    23 MxSgA2=    23.
 Leave Link  302 at Sat Sep 28 19:26:20 2019, MaxMem=   671088640 cpu:             160.8 elap:              80.4
 (Enter /shared/centos7/gaussian/g16/l303.exe)
 DipDrv:  MaxL=1.
 Leave Link  303 at Sat Sep 28 19:26:26 2019, MaxMem=   671088640 cpu:              11.2 elap:               5.6
 (Enter /shared/centos7/gaussian/g16/l401.exe)
 ExpMin= 1.03D-01 ExpMax= 8.24D+03 ExpMxC= 2.81D+02 IAcc=3 IRadAn=         5 AccDes= 0.00D+00
 Harris functional with IExCor= 1009 and IRadAn=       5 diagonalized for initial guess.
 HarFok:  IExCor= 1009 AccDes= 0.00D+00 IRadAn=         5 IDoV= 1 UseB2=F ITyADJ=14
 ICtDFT=  3500011 ScaDFX=  1.000000  1.000000  1.000000  1.000000
 FoFCou: FMM=F IPFlag=           0 FMFlag=      100000 FMFlg1=           0
         NFxFlg=           0 DoJE=T BraDBF=F KetDBF=T FulRan=T
         wScrn=  0.000000 ICntrl=       500 IOpCl=  0 I1Cent=   200000004 NGrid=           0
         NMat0=    1 NMatS0=      1 NMatT0=    0 NMatD0=    1 NMtDS0=    0 NMtDT0=    0
 Petite list used in FoFCou.
 Harris En= -276.330546700010    
 JPrj=0 DoOrth=F DoCkMO=F.
 Leave Link  401 at Sat Sep 28 19:27:15 2019, MaxMem=   671088640 cpu:              98.3 elap:              49.2
 (Enter /shared/centos7/gaussian/g16/l502.exe)
 Integral symmetry usage will be decided dynamically.
 Closed shell SCF:
 Using DIIS extrapolation, IDIIS=  1040.
 NGot=   671088640 LenX=   670604095 LenY=   670368385
 Requested convergence on RMS density matrix=1.00D-08 within 900 cycles.
 Requested convergence on MAX density matrix=1.00D-06.
 Requested convergence on             energy=1.00D-06.
 No special actions if energy rises.
 Fock matrices will be formed incrementally for  20 cycles.
 Integral accuracy reduced to 1.0D-05 until final iterations.

 Cycle   1  Pass 0  IDiag  1:
 FoFJK:  IHMeth= 1 ICntrl=       0 DoSepK=F KAlg= 0 I1Cent=           0 FoldK=F
 IRaf= 880000000 NMat=       1 IRICut=       1 DoRegI=T DoRafI=F ISym2E= 0 IDoP0=0 IntGTp=1.
 FoFCou: FMM=F IPFlag=           0 FMFlag=      100000 FMFlg1=           0
         NFxFlg=           0 DoJE=F BraDBF=F KetDBF=F FulRan=T
         wScrn=  0.000000 ICntrl=         0 IOpCl=  0 I1Cent=           0 NGrid=           0
         NMat0=    1 NMatS0=      1 NMatT0=    0 NMatD0=    1 NMtDS0=    0 NMtDT0=    0
 Symmetry not used in FoFCou.
 E= -275.959671198725    
 DIIS: error= 3.08D-02 at cycle   1 NSaved=   1.
 NSaved= 1 IEnMin= 1 EnMin= -275.959671198725     IErMin= 1 ErrMin= 3.08D-02
 ErrMax= 3.08D-02  0.00D+00 EMaxC= 1.00D-01 BMatC= 3.71D-01 BMatP= 3.71D-01
 IDIUse=3 WtCom= 6.92D-01 WtEn= 3.08D-01
 Coeff-Com:  0.100D+01
 Coeff-En:   0.100D+01
 Coeff:      0.100D+01
 Gap=     0.376 Goal=   None    Shift=    0.000
 GapD=    0.376 DampG=1.000 DampE=0.500 DampFc=0.5000 IDamp=-1.
 Damping current iteration by 5.00D-01
 RMSDP=1.90D-03 MaxDP=7.66D-02              OVMax= 1.82D-01

 Cycle   2  Pass 0  IDiag  1:
 RMSU=  9.46D-04    CP:  9.90D-01
 E= -276.142245505842     Delta-E=       -0.182574307117 Rises=F Damp=T
 DIIS: error= 4.41D-03 at cycle   2 NSaved=   2.
 NSaved= 2 IEnMin= 2 EnMin= -276.142245505842     IErMin= 2 ErrMin= 4.41D-03
 ErrMax= 4.41D-03  0.00D+00 EMaxC= 1.00D-01 BMatC= 1.72D-02 BMatP= 3.71D-01
 IDIUse=3 WtCom= 9.56D-01 WtEn= 4.41D-02
 Coeff-Com: -0.714D-01 0.107D+01
 Coeff-En:   0.000D+00 0.100D+01
 Coeff:     -0.683D-01 0.107D+01
 Gap=     0.447 Goal=   None    Shift=    0.000
 RMSDP=4.90D-04 MaxDP=1.53D-02 DE=-1.83D-01 OVMax= 8.69D-02

 Cycle   3  Pass 0  IDiag  1:
 RMSU=  4.80D-04    CP:  9.97D-01  9.07D-01
 E= -276.318821369062     Delta-E=       -0.176575863220 Rises=F Damp=F
 DIIS: error= 1.71D-03 at cycle   3 NSaved=   3.
 NSaved= 3 IEnMin= 3 EnMin= -276.318821369062     IErMin= 3 ErrMin= 1.71D-03
 ErrMax= 1.71D-03  0.00D+00 EMaxC= 1.00D-01 BMatC= 1.33D-03 BMatP= 1.72D-02
 IDIUse=3 WtCom= 9.83D-01 WtEn= 1.71D-02
 Coeff-Com: -0.441D-01 0.172D+00 0.872D+00
 Coeff-En:   0.000D+00 0.000D+00 0.100D+01
 Coeff:     -0.434D-01 0.169D+00 0.875D+00
 Gap=     0.424 Goal=   None    Shift=    0.000
 RMSDP=6.66D-05 MaxDP=3.11D-03 DE=-1.77D-01 OVMax= 7.30D-03

 Cycle   4  Pass 0  IDiag  1:
 RMSU=  5.48D-05    CP:  9.96D-01  9.45D-01  9.77D-01
 E= -276.320001834935     Delta-E=       -0.001180465873 Rises=F Damp=F
 DIIS: error= 5.13D-04 at cycle   4 NSaved=   4.
 NSaved= 4 IEnMin= 4 EnMin= -276.320001834935     IErMin= 4 ErrMin= 5.13D-04
 ErrMax= 5.13D-04  0.00D+00 EMaxC= 1.00D-01 BMatC= 1.64D-04 BMatP= 1.33D-03
 IDIUse=3 WtCom= 9.95D-01 WtEn= 5.13D-03
 Coeff-Com: -0.116D-01 0.312D-01 0.301D+00 0.679D+00
 Coeff-En:   0.000D+00 0.000D+00 0.000D+00 0.100D+01
 Coeff:     -0.116D-01 0.310D-01 0.300D+00 0.681D+00
 Gap=     0.424 Goal=   None    Shift=    0.000
 RMSDP=2.34D-05 MaxDP=1.09D-03 DE=-1.18D-03 OVMax= 2.50D-03

 Cycle   5  Pass 0  IDiag  1:
 RMSU=  1.57D-05    CP:  9.96D-01  9.39D-01  1.00D+00  7.84D-01
 E= -276.320149767290     Delta-E=       -0.000147932356 Rises=F Damp=F
 DIIS: error= 1.43D-04 at cycle   5 NSaved=   5.
 NSaved= 5 IEnMin= 5 EnMin= -276.320149767290     IErMin= 5 ErrMin= 1.43D-04
 ErrMax= 1.43D-04  0.00D+00 EMaxC= 1.00D-01 BMatC= 1.13D-05 BMatP= 1.64D-04
 IDIUse=3 WtCom= 9.99D-01 WtEn= 1.43D-03
 Coeff-Com:  0.142D-03-0.276D-02 0.310D-01 0.225D+00 0.747D+00
 Coeff-En:   0.000D+00 0.000D+00 0.000D+00 0.000D+00 0.100D+01
 Coeff:      0.141D-03-0.276D-02 0.310D-01 0.224D+00 0.747D+00
 Gap=     0.424 Goal=   None    Shift=    0.000
 RMSDP=5.45D-06 MaxDP=2.48D-04 DE=-1.48D-04 OVMax= 6.71D-04

 Initial convergence to 1.0D-05 achieved.  Increase integral accuracy.
 Cycle   6  Pass 1  IDiag  1:
 E= -276.320118026189     Delta-E=        0.000031741101 Rises=F Damp=F
 DIIS: error= 5.12D-05 at cycle   1 NSaved=   1.
 NSaved= 1 IEnMin= 1 EnMin= -276.320118026189     IErMin= 1 ErrMin= 5.12D-05
 ErrMax= 5.12D-05  0.00D+00 EMaxC= 1.00D-01 BMatC= 1.40D-06 BMatP= 1.40D-06
 IDIUse=1 WtCom= 1.00D+00 WtEn= 0.00D+00
 Coeff-Com:  0.100D+01
 Coeff:      0.100D+01
 Gap=     0.424 Goal=   None    Shift=    0.000
 RMSDP=5.45D-06 MaxDP=2.48D-04 DE= 3.17D-05 OVMax= 2.12D-04

 Cycle   7  Pass 1  IDiag  1:
 RMSU=  1.69D-05    CP:  1.00D+00
 E= -276.320118881109     Delta-E=       -0.000000854919 Rises=F Damp=F
 DIIS: error= 1.20D-05 at cycle   2 NSaved=   2.
 NSaved= 2 IEnMin= 2 EnMin= -276.320118881109     IErMin= 2 ErrMin= 1.20D-05
 ErrMax= 1.20D-05  0.00D+00 EMaxC= 1.00D-01 BMatC= 1.44D-07 BMatP= 1.40D-06
 IDIUse=1 WtCom= 1.00D+00 WtEn= 0.00D+00
 Coeff-Com:  0.150D+00 0.850D+00
 Coeff:      0.150D+00 0.850D+00
 Gap=     0.424 Goal=   None    Shift=    0.000
 RMSDP=1.04D-06 MaxDP=3.68D-05 DE=-8.55D-07 OVMax= 1.02D-04

 Cycle   8  Pass 1  IDiag  1:
 RMSU=  9.25D-07    CP:  1.00D+00  1.03D+00
 E= -276.320118968295     Delta-E=       -0.000000087187 Rises=F Damp=F
 DIIS: error= 7.74D-06 at cycle   3 NSaved=   3.
 NSaved= 3 IEnMin= 3 EnMin= -276.320118968295     IErMin= 3 ErrMin= 7.74D-06
 ErrMax= 7.74D-06  0.00D+00 EMaxC= 1.00D-01 BMatC= 5.83D-08 BMatP= 1.44D-07
 IDIUse=1 WtCom= 1.00D+00 WtEn= 0.00D+00
 Coeff-Com: -0.959D-02 0.383D+00 0.626D+00
 Coeff:     -0.959D-02 0.383D+00 0.626D+00
 Gap=     0.424 Goal=   None    Shift=    0.000
 RMSDP=3.87D-07 MaxDP=1.62D-05 DE=-8.72D-08 OVMax= 3.75D-05

 Cycle   9  Pass 1  IDiag  1:
 RMSU=  2.40D-07    CP:  1.00D+00  1.04D+00  7.15D-01
 E= -276.320119024356     Delta-E=       -0.000000056061 Rises=F Damp=F
 DIIS: error= 1.32D-06 at cycle   4 NSaved=   4.
 NSaved= 4 IEnMin= 4 EnMin= -276.320119024356     IErMin= 4 ErrMin= 1.32D-06
 ErrMax= 1.32D-06  0.00D+00 EMaxC= 1.00D-01 BMatC= 9.41D-10 BMatP= 5.83D-08
 IDIUse=1 WtCom= 1.00D+00 WtEn= 0.00D+00
 Coeff-Com: -0.758D-02 0.106D+00 0.211D+00 0.690D+00
 Coeff:     -0.758D-02 0.106D+00 0.211D+00 0.690D+00
 Gap=     0.424 Goal=   None    Shift=    0.000
 RMSDP=6.18D-08 MaxDP=1.87D-06 DE=-5.61D-08 OVMax= 6.08D-06

 Cycle  10  Pass 1  IDiag  1:
 RMSU=  6.04D-08    CP:  1.00D+00  1.04D+00  7.23D-01  9.72D-01
 E= -276.320119025311     Delta-E=       -0.000000000955 Rises=F Damp=F
 DIIS: error= 3.29D-07 at cycle   5 NSaved=   5.
 NSaved= 5 IEnMin= 5 EnMin= -276.320119025311     IErMin= 5 ErrMin= 3.29D-07
 ErrMax= 3.29D-07  0.00D+00 EMaxC= 1.00D-01 BMatC= 4.49D-11 BMatP= 9.41D-10
 IDIUse=1 WtCom= 1.00D+00 WtEn= 0.00D+00
 Coeff-Com: -0.199D-03-0.221D-01-0.314D-01 0.921D-01 0.962D+00
 Coeff:     -0.199D-03-0.221D-01-0.314D-01 0.921D-01 0.962D+00
 Gap=     0.424 Goal=   None    Shift=    0.000
 RMSDP=2.41D-08 MaxDP=6.86D-07 DE=-9.55D-10 OVMax= 1.81D-06

 Cycle  11  Pass 1  IDiag  1:
 RMSU=  1.27D-08    CP:  1.00D+00  1.04D+00  7.28D-01  1.05D+00  1.05D+00
 E= -276.320119025355     Delta-E=       -0.000000000045 Rises=F Damp=F
 DIIS: error= 1.20D-07 at cycle   6 NSaved=   6.
 NSaved= 6 IEnMin= 6 EnMin= -276.320119025355     IErMin= 6 ErrMin= 1.20D-07
 ErrMax= 1.20D-07  0.00D+00 EMaxC= 1.00D-01 BMatC= 8.76D-12 BMatP= 4.49D-11
 IDIUse=1 WtCom= 1.00D+00 WtEn= 0.00D+00
 Coeff-Com:  0.444D-03-0.160D-01-0.269D-01-0.101D-01 0.397D+00 0.656D+00
 Coeff:      0.444D-03-0.160D-01-0.269D-01-0.101D-01 0.397D+00 0.656D+00
 Gap=     0.424 Goal=   None    Shift=    0.000
 RMSDP=5.00D-09 MaxDP=1.83D-07 DE=-4.46D-11 OVMax= 5.68D-07

 SCF Done:  E(RM062X) =  -276.320119025     A.U. after   11 cycles
            NFock= 11  Conv=0.50D-08     -V/T= 2.0068
 KE= 2.744594412669D+02 PE=-1.263250027455D+03 EE= 4.000425431828D+02
 Leave Link  502 at Sat Sep 28 19:47:28 2019, MaxMem=   671088640 cpu:            2424.2 elap:            1212.6
 (Enter /shared/centos7/gaussian/g16/l801.exe)
 DoSCS=F DFT=T ScalE2(SS,OS)=  1.000000  1.000000
 Range of M.O.s used for correlation:     1   434
 NBasis=   434 NAE=    29 NBE=    29 NFC=     0 NFV=     0
 NROrb=    434 NOA=    29 NOB=    29 NVA=   405 NVB=   405

 **** Warning!!: The largest alpha MO coefficient is  0.13369951D+02

 Leave Link  801 at Sat Sep 28 19:47:28 2019, MaxMem=   671088640 cpu:               1.5 elap:               0.8
 (Enter /shared/centos7/gaussian/g16/l1101.exe)
 Using compressed storage, NAtomX=    23.
 Will process     24 centers per pass.
 Leave Link 1101 at Sat Sep 28 19:48:09 2019, MaxMem=   671088640 cpu:              81.5 elap:              40.8
 (Enter /shared/centos7/gaussian/g16/l1102.exe)
 Symmetrizing basis deriv contribution to polar:
 IMax=3 JMax=2 DiffMx= 0.00D+00
 Leave Link 1102 at Sat Sep 28 19:48:12 2019, MaxMem=   671088640 cpu:               5.6 elap:               2.9
 (Enter /shared/centos7/gaussian/g16/l1110.exe)
 Forming Gx(P) for the SCF density, NAtomX=    23.
 Integral derivatives from FoFJK, PRISM(SPDF).
 Do as many integral derivatives as possible in FoFJK.
 G2DrvN: MDV=     671086848.
 G2DrvN: will do    24 centers at a time, making    1 passes.
 Calling FoFCou, ICntrl=  3107 FMM=F I1Cent=   0 AccDes= 0.00D+00.
 FoFJK:  IHMeth= 1 ICntrl=    3107 DoSepK=F KAlg= 0 I1Cent=           0 FoldK=F
 IRaf=         0 NMat=       1 IRICut=       1 DoRegI=T DoRafI=F ISym2E= 0 IDoP0=0 IntGTp=1.
 FoFCou: FMM=F IPFlag=           0 FMFlag=      100000 FMFlg1=           0
         NFxFlg=           0 DoJE=F BraDBF=F KetDBF=F FulRan=T
         wScrn=  0.000000 ICntrl=      3107 IOpCl=  0 I1Cent=           0 NGrid=           0
         NMat0=    1 NMatS0=      1 NMatT0=    0 NMatD0=    1 NMtDS0=    0 NMtDT0=    0
 Symmetry not used in FoFCou.
 End of G2Drv F.D. properties file   721 does not exist.
 End of G2Drv F.D. properties file   722 does not exist.
 End of G2Drv F.D. properties file   788 does not exist.
 Leave Link 1110 at Sat Sep 28 20:36:11 2019, MaxMem=   671088640 cpu:            5757.7 elap:            2879.3
 (Enter /shared/centos7/gaussian/g16/l1002.exe)
 Minotr:  Closed shell wavefunction.
          IDoAtm=11111111111111111111111
          Direct CPHF calculation.
          Differentiating once with respect to nuclear coordinates.
          Requested convergence is 1.0D-08 RMS, and 1.0D-07 maximum.
          Secondary convergence is 1.0D-12 RMS, and 1.0D-12 maximum.
          NewPWx=T KeepS1=F KeepF1=F KeepIn=T MapXYZ=F SortEE=F KeepMc=T.
         6953 words used for storage of precomputed grid.
 Two-electron integrals replicated using symmetry.
          MDV=     671088640 using IRadAn=       1.
          Solving linear equations simultaneously, MaxMat=     380.
 FoF2E skips out because all densities are zero.
 CalDSu exits because no D1Ps are significant.
 FoFJK:  IHMeth= 1 ICntrl=       0 DoSepK=F KAlg= 0 I1Cent=           0 FoldK=F
 IRaf= 860000000 NMat=      69 IRICut=     172 DoRegI=T DoRafI=T ISym2E= 2 IDoP0=3 IntGTp=3.
 FoFCou: FMM=F IPFlag=           0 FMFlag=      100000 FMFlg1=           0
         NFxFlg=           0 DoJE=F BraDBF=F KetDBF=F FulRan=T
         wScrn=  0.000000 ICntrl=         0 IOpCl=  0 I1Cent=           0 NGrid=           0
         NMat0=   69 NMatS0=     69 NMatT0=    0 NMatD0=   69 NMtDS0=    0 NMtDT0=    0
 Integrals replicated using symmetry in FoFCou.
 Raff kept on since  82.62% of shell-pairs survive, threshold=   0.20 IRatSp=83.
          There are    72 degrees of freedom in the 1st order CPHF.  IDoFFX=6 NUNeed=     0.
     66 vectors produced by pass  0 Test12= 1.63D-14 1.39D-09 XBig12= 5.70D-02 4.11D-02.
 AX will form    66 AO Fock derivatives at one time.
     66 vectors produced by pass  1 Test12= 1.63D-14 1.39D-09 XBig12= 3.59D-03 6.84D-03.
     66 vectors produced by pass  2 Test12= 1.63D-14 1.39D-09 XBig12= 5.78D-05 1.02D-03.
     66 vectors produced by pass  3 Test12= 1.63D-14 1.39D-09 XBig12= 4.65D-07 6.75D-05.
     66 vectors produced by pass  4 Test12= 1.63D-14 1.39D-09 XBig12= 2.44D-09 5.13D-06.
     66 vectors produced by pass  5 Test12= 1.63D-14 1.39D-09 XBig12= 1.22D-11 3.12D-07.
     22 vectors produced by pass  6 Test12= 1.63D-14 1.39D-09 XBig12= 4.57D-14 2.05D-08.
 InvSVY:  IOpt=1 It=  1 EMax= 3.61D-16
 Solved reduced A of dimension   418 with    72 vectors.
 End of Minotr F.D. properties file   721 does not exist.
 End of Minotr F.D. properties file   722 does not exist.
 End of Minotr F.D. properties file   788 does not exist.
 Leave Link 1002 at Sat Sep 28 21:57:08 2019, MaxMem=   671088640 cpu:            9712.5 elap:            4857.0
 (Enter /shared/centos7/gaussian/g16/l601.exe)
 Copying SCF densities to generalized density rwf, IOpCl= 0 IROHF=0.

 **********************************************************************

            Population analysis using the SCF density.

 **********************************************************************

 Orbital symmetries:
       Occupied  (A) (A) (A) (A) (A) (A) (A) (A) (A) (A) (A) (A)
                 (A) (A) (A) (A) (A) (A) (A) (A) (A) (A) (A) (A)
                 (A) (A) (A) (A) (A)
       Virtual   (A) (A) (A) (A) (A) (A) (A) (A) (A) (A) (A) (A)
                 (A) (A) (A) (A) (A) (A) (A) (A) (A) (A) (A) (A)
                 (A) (A) (A) (A) (A) (A) (A) (A) (A) (A) (A) (A)
                 (A) (A) (A) (A) (A) (A) (A) (A) (A) (A) (A) (A)
                 (A) (A) (A) (A) (A) (A) (A) (A) (A) (A) (A) (A)
                 (A) (A) (A) (A) (A) (A) (A) (A) (A) (A) (A) (A)
                 (A) (A) (A) (A) (A) (A) (A) (A) (A) (A) (A) (A)
                 (A) (A) (A) (A) (A) (A) (A) (A) (A) (A) (A) (A)
                 (A) (A) (A) (A) (A) (A) (A) (A) (A) (A) (A) (A)
                 (A) (A) (A) (A) (A) (A) (A) (A) (A) (A) (A) (A)
                 (A) (A) (A) (A) (A) (A) (A) (A) (A) (A) (A) (A)
                 (A) (A) (A) (A) (A) (A) (A) (A) (A) (A) (A) (A)
                 (A) (A) (A) (A) (A) (A) (A) (A) (A) (A) (A) (A)
                 (A) (A) (A) (A) (A) (A) (A) (A) (A) (A) (A) (A)
                 (A) (A) (A) (A) (A) (A) (A) (A) (A) (A) (A) (A)
                 (A) (A) (A) (A) (A) (A) (A) (A) (A) (A) (A) (A)
                 (A) (A) (A) (A) (A) (A) (A) (A) (A) (A) (A) (A)
                 (A) (A) (A) (A) (A) (A) (A) (A) (A) (A) (A) (A)
                 (A) (A) (A) (A) (A) (A) (A) (A) (A) (A) (A) (A)
                 (A) (A) (A) (A) (A) (A) (A) (A) (A) (A) (A) (A)
                 (A) (A) (A) (A) (A) (A) (A) (A) (A) (A) (A) (A)
                 (A) (A) (A) (A) (A) (A) (A) (A) (A) (A) (A) (A)
                 (A) (A) (A) (A) (A) (A) (A) (A) (A) (A) (A) (A)
                 (A) (A) (A) (A) (A) (A) (A) (A) (A) (A) (A) (A)
                 (A) (A) (A) (A) (A) (A) (A) (A) (A) (A) (A) (A)
                 (A) (A) (A) (A) (A) (A) (A) (A) (A) (A) (A) (A)
                 (A) (A) (A) (A) (A) (A) (A) (A) (A) (A) (A) (A)
                 (A) (A) (A) (A) (A) (A) (A) (A) (A) (A) (A) (A)
                 (A) (A) (A) (A) (A) (A) (A) (A) (A) (A) (A) (A)
                 (A) (A) (A) (A) (A) (A) (A) (A) (A) (A) (A) (A)
                 (A) (A) (A) (A) (A) (A) (A) (A) (A) (A) (A) (A)
                 (A) (A) (A) (A) (A) (A) (A) (A) (A) (A) (A) (A)
                 (A) (A) (A) (A) (A) (A) (A) (A) (A) (A) (A) (A)
                 (A) (A) (A) (A) (A) (A) (A) (A) (A)
 The electronic state is 1-A.
 Alpha  occ. eigenvalues --  -10.52816 -10.52637 -10.52632 -10.52552 -10.52301
 Alpha  occ. eigenvalues --  -10.52260 -10.52219  -0.92019  -0.88477  -0.83125
 Alpha  occ. eigenvalues --   -0.76269  -0.68989  -0.65471  -0.65052  -0.54770
 Alpha  occ. eigenvalues --   -0.53248  -0.50357  -0.49709  -0.48869  -0.45744
 Alpha  occ. eigenvalues --   -0.44497  -0.43704  -0.40972  -0.40016  -0.38850
 Alpha  occ. eigenvalues --   -0.38255  -0.37688  -0.36261  -0.35555
 Alpha virt. eigenvalues --    0.06842   0.07536   0.08947   0.09004   0.09880
 Alpha virt. eigenvalues --    0.11353   0.12088   0.13198   0.13913   0.15664
 Alpha virt. eigenvalues --    0.15829   0.16218   0.16992   0.18409   0.19374
 Alpha virt. eigenvalues --    0.20016   0.22470   0.22696   0.23779   0.25786
 Alpha virt. eigenvalues --    0.28066   0.28787   0.29569   0.30489   0.31375
 Alpha virt. eigenvalues --    0.32874   0.33220   0.34399   0.35538   0.36334
 Alpha virt. eigenvalues --    0.37047   0.38711   0.40617   0.42025   0.42710
 Alpha virt. eigenvalues --    0.44197   0.44446   0.45418   0.46197   0.48289
 Alpha virt. eigenvalues --    0.48642   0.49268   0.49991   0.50530   0.51204
 Alpha virt. eigenvalues --    0.51610   0.51968   0.52902   0.53349   0.54101
 Alpha virt. eigenvalues --    0.54529   0.54959   0.55871   0.56082   0.56577
 Alpha virt. eigenvalues --    0.57190   0.58266   0.58985   0.61727   0.64155
 Alpha virt. eigenvalues --    0.65955   0.67148   0.70904   0.72537   0.76914
 Alpha virt. eigenvalues --    0.77518   0.78323   0.80480   0.82530   0.84780
 Alpha virt. eigenvalues --    0.85852   0.86851   0.88112   0.89132   0.90222
 Alpha virt. eigenvalues --    0.93291   0.93513   0.94639   0.96113   0.97035
 Alpha virt. eigenvalues --    0.99703   1.02008   1.02040   1.04587   1.05653
 Alpha virt. eigenvalues --    1.05907   1.07468   1.07686   1.08656   1.09191
 Alpha virt. eigenvalues --    1.09453   1.10548   1.11074   1.12630   1.13507
 Alpha virt. eigenvalues --    1.14001   1.15051   1.16427   1.17200   1.18106
 Alpha virt. eigenvalues --    1.19668   1.21338   1.21544   1.22118   1.23109
 Alpha virt. eigenvalues --    1.24645   1.25162   1.25555   1.26214   1.27247
 Alpha virt. eigenvalues --    1.30050   1.31002   1.31307   1.32217   1.32946
 Alpha virt. eigenvalues --    1.33525   1.34477   1.35895   1.36128   1.37104
 Alpha virt. eigenvalues --    1.37822   1.39830   1.40825   1.41666   1.43071
 Alpha virt. eigenvalues --    1.43268   1.44396   1.45735   1.47635   1.47768
 Alpha virt. eigenvalues --    1.50305   1.50762   1.52023   1.52106   1.53752
 Alpha virt. eigenvalues --    1.55472   1.56726   1.57418   1.59919   1.61720
 Alpha virt. eigenvalues --    1.62160   1.62669   1.64517   1.66502   1.70128
 Alpha virt. eigenvalues --    1.73693   1.77322   1.77819   1.79655   2.19348
 Alpha virt. eigenvalues --    2.24472   2.25038   2.27917   2.33075   2.34058
 Alpha virt. eigenvalues --    2.37616   2.38386   2.39185   2.39874   2.42023
 Alpha virt. eigenvalues --    2.43669   2.45727   2.46539   2.49276   2.51084
 Alpha virt. eigenvalues --    2.51751   2.54049   2.56095   2.56672   2.59164
 Alpha virt. eigenvalues --    2.59934   2.60957   2.62851   2.63482   2.65077
 Alpha virt. eigenvalues --    2.65436   2.66072   2.67726   2.70128   2.71573
 Alpha virt. eigenvalues --    2.72110   2.75530   2.76464   2.77585   2.78486
 Alpha virt. eigenvalues --    2.78928   2.81259   2.81998   2.82868   2.83806
 Alpha virt. eigenvalues --    2.85387   2.85780   2.89372   2.89465   2.92426
 Alpha virt. eigenvalues --    2.92864   2.94744   2.95664   2.97358   2.98862
 Alpha virt. eigenvalues --    2.99433   3.00317   3.01493   3.02367   3.03210
 Alpha virt. eigenvalues --    3.04550   3.05599   3.06080   3.06778   3.07840
 Alpha virt. eigenvalues --    3.09150   3.09979   3.10621   3.11024   3.12638
 Alpha virt. eigenvalues --    3.13261   3.13740   3.14414   3.15621   3.16665
 Alpha virt. eigenvalues --    3.17257   3.17760   3.19799   3.19990   3.21800
 Alpha virt. eigenvalues --    3.23466   3.24162   3.25406   3.26265   3.27217
 Alpha virt. eigenvalues --    3.28125   3.29019   3.30779   3.31996   3.32979
 Alpha virt. eigenvalues --    3.35301   3.36636   3.37110   3.38698   3.39746
 Alpha virt. eigenvalues --    3.40579   3.41168   3.41714   3.44856   3.46750
 Alpha virt. eigenvalues --    3.47245   3.50205   3.50900   3.51564   3.52794
 Alpha virt. eigenvalues --    3.54598   3.55324   3.56644   3.57396   3.57590
 Alpha virt. eigenvalues --    3.60059   3.61913   3.62762   3.64480   3.65806
 Alpha virt. eigenvalues --    3.66952   3.68492   3.70973   3.71769   3.72273
 Alpha virt. eigenvalues --    3.73412   3.74295   3.74986   3.75600   3.77263
 Alpha virt. eigenvalues --    3.78825   3.81158   3.82306   3.83542   3.84499
 Alpha virt. eigenvalues --    3.85203   3.85389   3.87111   3.87584   3.89124
 Alpha virt. eigenvalues --    3.89806   3.90204   3.90807   3.92719   3.93773
 Alpha virt. eigenvalues --    3.94943   3.95456   3.97010   3.97952   3.99076
 Alpha virt. eigenvalues --    4.01419   4.01650   4.02776   4.04132   4.04687
 Alpha virt. eigenvalues --    4.05033   4.06975   4.08485   4.08856   4.10398
 Alpha virt. eigenvalues --    4.10866   4.11847   4.13850   4.15032   4.15890
 Alpha virt. eigenvalues --    4.17415   4.19319   4.19596   4.20575   4.21854
 Alpha virt. eigenvalues --    4.22552   4.24359   4.24746   4.25733   4.26373
 Alpha virt. eigenvalues --    4.28697   4.29904   4.30679   4.32271   4.33749
 Alpha virt. eigenvalues --    4.36883   4.38053   4.40277   4.43094   4.45219
 Alpha virt. eigenvalues --    4.46451   4.50205   4.51889   4.54299   4.55444
 Alpha virt. eigenvalues --    4.57584   4.59666   4.61980   4.64010   4.65201
 Alpha virt. eigenvalues --    4.67341   4.68173   4.69247   4.72289   4.72859
 Alpha virt. eigenvalues --    4.73039   4.75750   4.77662   4.79295   4.81510
 Alpha virt. eigenvalues --    4.82762   4.83570   4.85612   4.88087   4.91588
 Alpha virt. eigenvalues --    4.92552   4.93366   4.94591   4.95694   4.98002
 Alpha virt. eigenvalues --    4.99820   5.02644   5.03890   5.05484   5.06872
 Alpha virt. eigenvalues --    5.08330   5.09693   5.11220   5.14027   5.15849
 Alpha virt. eigenvalues --    5.19778   5.21882   5.22581   5.24745   5.26575
 Alpha virt. eigenvalues --    5.27601   5.28124   5.29628   5.32448   5.36060
 Alpha virt. eigenvalues --    5.37159   5.39025   5.39544   5.41359   5.44548
 Alpha virt. eigenvalues --    5.46289   5.47215   5.50768   5.52508   5.52934
 Alpha virt. eigenvalues --    5.57459   5.58703   5.65425   5.72361   5.74069
 Alpha virt. eigenvalues --    5.76515   5.80668   5.80941   5.85277   5.90195
 Alpha virt. eigenvalues --    5.93488   5.99184   6.03093  11.53388  11.97026
 Alpha virt. eigenvalues --   12.46071  12.90757  13.27097  13.50667  13.95716
          Condensed to atoms (all electrons):
               1          2          3          4          5          6
     1  C    5.093512   0.310474  -0.044251   0.305502   0.007957  -0.049032
     2  C    0.310474   5.100260   0.313145  -0.052263  -0.059370   0.010059
     3  C   -0.044251   0.313145   5.057921   0.002873   0.328480  -0.000489
     4  C    0.305502  -0.052263   0.002873   5.056031  -0.000526   0.290344
     5  C    0.007957  -0.059370   0.328480  -0.000526   5.024914   0.000018
     6  C   -0.049032   0.010059  -0.000489   0.290344   0.000018   4.965573
     7  C   -0.000460   0.007302  -0.052233   0.000016   0.314403  -0.000000
     8  H   -0.043298  -0.007419   0.000770   0.411924   0.000025  -0.042746
     9  H   -0.046793   0.000418  -0.000617   0.408621  -0.000051  -0.040713
    10  H    0.409718  -0.055285  -0.003813  -0.043461   0.000792  -0.003244
    11  H    0.407798  -0.039197   0.005258  -0.040504  -0.000364  -0.004947
    12  H   -0.055926   0.412923  -0.044478  -0.006028  -0.002096   0.000945
    13  H   -0.039934   0.406724  -0.040765   0.005768  -0.004799  -0.000446
    14  H   -0.007086  -0.037337   0.409186   0.000469  -0.038519  -0.000007
    15  H   -0.000568  -0.041481   0.401188  -0.000065  -0.039152  -0.000033
    16  H   -0.000036  -0.004328  -0.049037  -0.000031   0.411870   0.000001
    17  H    0.000090  -0.002881  -0.040898  -0.000031   0.404345  -0.000002
    18  H   -0.003634   0.000984  -0.000080  -0.060434   0.000003   0.410259
    19  H    0.004574  -0.000727   0.000082  -0.044148  -0.000002   0.404099
    20  H    0.005034  -0.000611   0.000001  -0.045616  -0.000001   0.407751
    21  H    0.000004   0.000286  -0.002524  -0.000002  -0.051445  -0.000000
    22  H    0.000000  -0.000251  -0.003062  -0.000002  -0.041751   0.000000
    23  H    0.000023  -0.000524   0.008462  -0.000001  -0.041838   0.000000
               7          8          9         10         11         12
     1  C   -0.000460  -0.043298  -0.046793   0.409718   0.407798  -0.055926
     2  C    0.007302  -0.007419   0.000418  -0.055285  -0.039197   0.412923
     3  C   -0.052233   0.000770  -0.000617  -0.003813   0.005258  -0.044478
     4  C    0.000016   0.411924   0.408621  -0.043461  -0.040504  -0.006028
     5  C    0.314403   0.000025  -0.000051   0.000792  -0.000364  -0.002096
     6  C   -0.000000  -0.042746  -0.040713  -0.003244  -0.004947   0.000945
     7  C    4.941274   0.000002  -0.000002   0.000004   0.000017   0.000079
     8  H    0.000002   0.617583  -0.042650   0.008630  -0.008415   0.002103
     9  H   -0.000002  -0.042650   0.610702  -0.008360   0.008754  -0.000818
    10  H    0.000004   0.008630  -0.008360   0.595660  -0.042095   0.006399
    11  H    0.000017  -0.008415   0.008754  -0.042095   0.597102   0.004972
    12  H    0.000079   0.002103  -0.000818   0.006399   0.004972   0.586368
    13  H    0.000219   0.000629   0.000040   0.005663  -0.017534  -0.038800
    14  H   -0.006710  -0.000051   0.000069   0.001533   0.000656   0.007694
    15  H    0.000014   0.000001   0.000951  -0.000282   0.000042  -0.006626
    16  H   -0.039492   0.000003  -0.000001   0.000014   0.000013  -0.000354
    17  H   -0.036788  -0.000020   0.000031  -0.000004  -0.000002   0.002573
    18  H   -0.000000   0.005497   0.006054   0.000374   0.001329   0.000129
    19  H    0.000000   0.006872  -0.018761   0.001140  -0.000235  -0.000070
    20  H    0.000000  -0.018378   0.006199  -0.000211   0.001066  -0.000089
    21  H    0.405698  -0.000000   0.000001  -0.000005   0.000002  -0.000025
    22  H    0.403461   0.000000  -0.000002  -0.000000  -0.000000   0.000026
    23  H    0.406111   0.000000  -0.000000   0.000005  -0.000002   0.000004
              13         14         15         16         17         18
     1  C   -0.039934  -0.007086  -0.000568  -0.000036   0.000090  -0.003634
     2  C    0.406724  -0.037337  -0.041481  -0.004328  -0.002881   0.000984
     3  C   -0.040765   0.409186   0.401188  -0.049037  -0.040898  -0.000080
     4  C    0.005768   0.000469  -0.000065  -0.000031  -0.000031  -0.060434
     5  C   -0.004799  -0.038519  -0.039152   0.411870   0.404345   0.000003
     6  C   -0.000446  -0.000007  -0.000033   0.000001  -0.000002   0.410259
     7  C    0.000219  -0.006710   0.000014  -0.039492  -0.036788  -0.000000
     8  H    0.000629  -0.000051   0.000001   0.000003  -0.000020   0.005497
     9  H    0.000040   0.000069   0.000951  -0.000001   0.000031   0.006054
    10  H    0.005663   0.001533  -0.000282   0.000014  -0.000004   0.000374
    11  H   -0.017534   0.000656   0.000042   0.000013  -0.000002   0.001329
    12  H   -0.038800   0.007694  -0.006626  -0.000354   0.002573   0.000129
    13  H    0.594565  -0.006112   0.007895   0.003513  -0.000031  -0.000069
    14  H   -0.006112   0.585607  -0.040893  -0.006216   0.007453   0.000012
    15  H    0.007895  -0.040893   0.586702   0.008391  -0.006336  -0.000008
    16  H    0.003513  -0.006216   0.008391   0.612629  -0.040787  -0.000000
    17  H   -0.000031   0.007453  -0.006336  -0.040787   0.595819  -0.000000
    18  H   -0.000069   0.000012  -0.000008  -0.000000  -0.000000   0.601079
    19  H    0.000011  -0.000006   0.000004   0.000000  -0.000000  -0.035299
    20  H    0.000059   0.000001   0.000005  -0.000000   0.000000  -0.035566
    21  H    0.000074   0.003156  -0.000382  -0.000468   0.007718  -0.000000
    22  H   -0.000034  -0.000025   0.002213   0.008093  -0.012225   0.000000
    23  H   -0.000006   0.000107  -0.000164  -0.012226  -0.000166   0.000000
              19         20         21         22         23
     1  C    0.004574   0.005034   0.000004   0.000000   0.000023
     2  C   -0.000727  -0.000611   0.000286  -0.000251  -0.000524
     3  C    0.000082   0.000001  -0.002524  -0.003062   0.008462
     4  C   -0.044148  -0.045616  -0.000002  -0.000002  -0.000001
     5  C   -0.000002  -0.000001  -0.051445  -0.041751  -0.041838
     6  C    0.404099   0.407751  -0.000000   0.000000   0.000000
     7  C    0.000000   0.000000   0.405698   0.403461   0.406111
     8  H    0.006872  -0.018378  -0.000000   0.000000   0.000000
     9  H   -0.018761   0.006199   0.000001  -0.000002  -0.000000
    10  H    0.001140  -0.000211  -0.000005  -0.000000   0.000005
    11  H   -0.000235   0.001066   0.000002  -0.000000  -0.000002
    12  H   -0.000070  -0.000089  -0.000025   0.000026   0.000004
    13  H    0.000011   0.000059   0.000074  -0.000034  -0.000006
    14  H   -0.000006   0.000001   0.003156  -0.000025   0.000107
    15  H    0.000004   0.000005  -0.000382   0.002213  -0.000164
    16  H    0.000000  -0.000000  -0.000468   0.008093  -0.012226
    17  H   -0.000000   0.000000   0.007718  -0.012225  -0.000166
    18  H   -0.035299  -0.035566  -0.000000   0.000000   0.000000
    19  H    0.615726  -0.032305   0.000000  -0.000000  -0.000000
    20  H   -0.032305   0.606191   0.000000  -0.000000  -0.000000
    21  H    0.000000   0.000000   0.598868  -0.037414  -0.033824
    22  H   -0.000000  -0.000000  -0.037414   0.606648  -0.030188
    23  H   -0.000000  -0.000000  -0.033824  -0.030188   0.602205
 Mulliken charges:
               1
     1  C   -0.253667
     2  C   -0.260903
     3  C   -0.245119
     4  C   -0.188437
     5  C   -0.212895
     6  C   -0.347392
     7  C   -0.342914
     8  H    0.108936
     9  H    0.116925
    10  H    0.126826
    11  H    0.126287
    12  H    0.131094
    13  H    0.123368
    14  H    0.127019
    15  H    0.128584
    16  H    0.108448
    17  H    0.122141
    18  H    0.109371
    19  H    0.099046
    20  H    0.106469
    21  H    0.110279
    22  H    0.104511
    23  H    0.102020
 Sum of Mulliken charges =  -0.00000
 Mulliken charges with hydrogens summed into heavy atoms:
               1
     1  C   -0.000554
     2  C   -0.006441
     3  C    0.010484
     4  C    0.037425
     5  C    0.017695
     6  C   -0.032506
     7  C   -0.026103
 APT charges:
               1
     1  C   -0.627488
     2  C   -0.587668
     3  C   -0.510097
     4  C   -0.330281
     5  C   -0.545343
     6  C   -1.568366
     7  C   -1.451770
     8  H    0.352755
     9  H    0.238612
    10  H    0.266744
    11  H    0.390296
    12  H    0.290421
    13  H    0.353891
    14  H    0.320696
    15  H    0.260199
    16  H    0.358667
    17  H    0.310387
    18  H    0.297534
    19  H    0.400638
    20  H    0.546189
    21  H    0.276760
    22  H    0.349580
    23  H    0.607645
 Sum of APT charges =  -0.00000
 APT charges with hydrogens summed into heavy atoms:
               1
     1  C    0.029551
     2  C    0.056643
     3  C    0.070798
     4  C    0.261086
     5  C    0.123711
     6  C   -0.324005
     7  C   -0.217785
 Electronic spatial extent (au):  <R**2>=           1586.1396
 Charge=             -0.0000 electrons
 Dipole moment (field-independent basis, Debye):
    X=              0.0168    Y=              0.0854    Z=             -0.0188  Tot=              0.0891
 Quadrupole moment (field-independent basis, Debye-Ang):
   XX=            -50.4488   YY=            -49.0189   ZZ=            -48.7218
   XY=              0.0289   XZ=             -0.2827   YZ=              0.5033
 Traceless Quadrupole moment (field-independent basis, Debye-Ang):
   XX=             -1.0523   YY=              0.3776   ZZ=              0.6747
   XY=              0.0289   XZ=             -0.2827   YZ=              0.5033
 Octapole moment (field-independent basis, Debye-Ang**2):
  XXX=             -0.5179  YYY=              0.2516  ZZZ=              0.1950  XYY=              1.5952
  XXY=              4.9135  XXZ=             -0.8609  XZZ=             -1.0506  YZZ=             -0.3873
  YYZ=             -0.0865  XYZ=             -0.3339
 Hexadecapole moment (field-independent basis, Debye-Ang**3):
 XXXX=          -1991.0153 YYYY=           -173.3015 ZZZZ=           -141.2779 XXXY=             -2.1803
 XXXZ=             -7.5006 YYYX=             -1.4788 YYYZ=              4.0674 ZZZX=              2.7657
 ZZZY=             -0.1026 XXYY=           -352.4556 XXZZ=           -348.4125 YYZZ=            -49.8865
 XXYZ=              1.8931 YYXZ=             -2.8915 ZZXY=              1.7108
 N-N= 3.124279239799D+02 E-N=-1.263250017253D+03  KE= 2.744594412669D+02
  Exact polarizability:   0.000   0.000   0.000   0.000   0.000   0.000
 Approx polarizability:  97.171  -0.119  99.595   0.099   0.234  98.844
 No NMR shielding tensors so no spin-rotation constants.
 Leave Link  601 at Sat Sep 28 21:57:39 2019, MaxMem=   671088640 cpu:              61.6 elap:              30.9
 (Enter /shared/centos7/gaussian/g16/l701.exe)
 SCFChk:  SCF convergence  5.00D-09 required  1.00D-08
 ... and contract with generalized density number  0.
 Compute integral second derivatives.
 Entering OneElI...
 Calculate overlap and kinetic energy integrals
    NBasis = 485  MinDer = 2  MaxDer = 2
 Requested accuracy = 0.1000D-12
 PrmmSu-InSpLW:  IPartL=    0 NPrtUS=   20 NPrtUL=    1 DoSpLW=F IThBeg=    0 IThEnd=   19 NThAct=   20.
 PrsmSu:  NPrtUS=  20 ThrOK=T IAlg=1 NPAlg=1 LenDen=           0 ISkipM=0 DoSpLW=F IThBeg=    0 IThEnd=   19.
 Prism:   IPart=     0 DynPar=F LinDyn=F Incr=           6.
 PRISM was handed    33214801 working-precision words and 13253 shell-pairs
 PRISM was handed    33214801 working-precision words and 13253 shell-pairs
 PRISM was handed    33214801 working-precision words and 13253 shell-pairs
 PRISM was handed    33214801 working-precision words and 13253 shell-pairs
 PRISM was handed    33214801 working-precision words and 13253 shell-pairs
 PRISM was handed    33214801 working-precision words and 13253 shell-pairs
 PRISM was handed    33214801 working-precision words and 13253 shell-pairs
 PRISM was handed    33214801 working-precision words and 13253 shell-pairs
 PRISM was handed    33214801 working-precision words and 13253 shell-pairs
 PRISM was handed    33214801 working-precision words and 13253 shell-pairs
 PRISM was handed    33214801 working-precision words and 13253 shell-pairs
 PRISM was handed    33214801 working-precision words and 13253 shell-pairs
 PRISM was handed    33214801 working-precision words and 13253 shell-pairs
 PRISM was handed    33214801 working-precision words and 13253 shell-pairs
 PRISM was handed    33214801 working-precision words and 13253 shell-pairs
 PRISM was handed    33214801 working-precision words and 13253 shell-pairs
 PRISM was handed    33214801 working-precision words and 13253 shell-pairs
 PRISM was handed    33214801 working-precision words and 13253 shell-pairs
 PRISM was handed    33214801 working-precision words and 13253 shell-pairs
 IPart=  4 NShTot=         684 NBatch=          73 AvBLen=         9.4
 IPart=  0 NShTot=         696 NBatch=          78 AvBLen=         8.9
 PRISM was handed    33214801 working-precision words and 13253 shell-pairs
 IPart=  1 NShTot=         693 NBatch=          76 AvBLen=         9.1
 IPart= 10 NShTot=         660 NBatch=          57 AvBLen=        11.6
 IPart=  7 NShTot=         668 NBatch=          61 AvBLen=        11.0
 IPart=  8 NShTot=         665 NBatch=          60 AvBLen=        11.1
 IPart= 12 NShTot=         652 NBatch=          53 AvBLen=        12.3
 IPart=  2 NShTot=         691 NBatch=          76 AvBLen=         9.1
 IPart= 18 NShTot=         634 NBatch=          43 AvBLen=        14.7
 IPart= 13 NShTot=         650 NBatch=          51 AvBLen=        12.7
 IPart= 16 NShTot=         638 NBatch=          45 AvBLen=        14.2
 IPart= 14 NShTot=         645 NBatch=          50 AvBLen=        12.9
 IPart= 17 NShTot=         637 NBatch=          45 AvBLen=        14.2
 IPart= 19 NShTot=         632 NBatch=          43 AvBLen=        14.7
 IPart=  6 NShTot=         676 NBatch=          67 AvBLen=        10.1
 IPart= 11 NShTot=         656 NBatch=          55 AvBLen=        11.9
 IPart=  3 NShTot=         688 NBatch=          76 AvBLen=         9.1
 IPart=  5 NShTot=         681 NBatch=          71 AvBLen=         9.6
 IPart= 15 NShTot=         644 NBatch=          49 AvBLen=        13.1
 IPart=  9 NShTot=         663 NBatch=          59 AvBLen=        11.2
 PrSmSu:  NxtVal=            121.
 Entering OneElI...
 Calculate potential energy integrals
    NBasis = 485  MinDer = 2  MaxDer = 2
 Requested accuracy = 0.1000D-12
 PrmmSu-InSpLW:  IPartL=    0 NPrtUS=   20 NPrtUL=    1 DoSpLW=F IThBeg=    0 IThEnd=   19 NThAct=   20.
 PrsmSu:  NPrtUS=  20 ThrOK=T IAlg=1 NPAlg=1 LenDen=           0 ISkipM=0 DoSpLW=F IThBeg=    0 IThEnd=   19.
 Prism:   IPart=     0 DynPar=F LinDyn=F Incr=         131.
 PRISM was handed    33279752 working-precision words and 11455 shell-pairs
 PRISM was handed    33279752 working-precision words and 11455 shell-pairs
 PRISM was handed    33279752 working-precision words and 11455 shell-pairs
 PRISM was handed    33279752 working-precision words and 11455 shell-pairs
 PRISM was handed    33279752 working-precision words and 11455 shell-pairs
 PRISM was handed    33279752 working-precision words and 11455 shell-pairs
 PRISM was handed    33279752 working-precision words and 11455 shell-pairs
 PRISM was handed    33279752 working-precision words and 11455 shell-pairs
 PRISM was handed    33279752 working-precision words and 11455 shell-pairs
 PRISM was handed    33279752 working-precision words and 11455 shell-pairs
 PRISM was handed    33279752 working-precision words and 11455 shell-pairs
 PRISM was handed    33279752 working-precision words and 11455 shell-pairs
 PRISM was handed    33279752 working-precision words and 11455 shell-pairs
 PRISM was handed    33279752 working-precision words and 11455 shell-pairs
 PRISM was handed    33279752 working-precision words and 11455 shell-pairs
 PRISM was handed    33279752 working-precision words and 11455 shell-pairs
 PRISM was handed    33279752 working-precision words and 11455 shell-pairs
 PRISM was handed    33279752 working-precision words and 11455 shell-pairs
 PRISM was handed    33279752 working-precision words and 11455 shell-pairs
 PRISM was handed    33279752 working-precision words and 11455 shell-pairs
 IPart= 12 NShTot=       12880 NBatch=         561 AvBLen=        23.0
 IPart=  0 NShTot=       13938 NBatch=         608 AvBLen=        22.9
 IPart=  1 NShTot=       13846 NBatch=         604 AvBLen=        22.9
 IPart= 13 NShTot=       12811 NBatch=         558 AvBLen=        23.0
 IPart= 16 NShTot=       12696 NBatch=         553 AvBLen=        23.0
 IPart=  4 NShTot=       13708 NBatch=         597 AvBLen=        23.0
 IPart=  8 NShTot=       13156 NBatch=         573 AvBLen=        23.0
 IPart= 14 NShTot=       12811 NBatch=         558 AvBLen=        23.0
 IPart= 10 NShTot=       12995 NBatch=         566 AvBLen=        23.0
 IPart=  7 NShTot=       13225 NBatch=         576 AvBLen=        23.0
 IPart= 19 NShTot=       12604 NBatch=         549 AvBLen=        23.0
 IPart= 17 NShTot=       12696 NBatch=         553 AvBLen=        23.0
 IPart=  2 NShTot=       13846 NBatch=         604 AvBLen=        22.9
 IPart=  5 NShTot=       13593 NBatch=         592 AvBLen=        23.0
 IPart= 18 NShTot=       12650 NBatch=         551 AvBLen=        23.0
 IPart=  6 NShTot=       13409 NBatch=         584 AvBLen=        23.0
 IPart=  9 NShTot=       13064 NBatch=         569 AvBLen=        23.0
 IPart= 15 NShTot=       12788 NBatch=         557 AvBLen=        23.0
 IPart= 11 NShTot=       12949 NBatch=         564 AvBLen=        23.0
 IPart=  3 NShTot=       13800 NBatch=         602 AvBLen=        22.9
 PrSmSu:  NxtVal=           2621.
 Polarizability after L701:
                1             2             3 
      1  0.000000D+00
      2  0.000000D+00  0.000000D+00
      3  0.000000D+00  0.000000D+00  0.000000D+00
 Dipole Derivatives after L701:
                 1             2             3             4             5 
      1  -0.410362D+00 -0.162793D-01 -0.102051D+01 -0.654918D-01  0.872449D-01
      2  -0.264538D+00 -0.721333D+00 -0.176568D+00  0.127363D+00 -0.949403D+00
      3  -0.190783D+00  0.464342D-01 -0.750771D+00  0.155135D+00 -0.167150D+00
                 6             7             8             9            10 
      1   0.132745D+00 -0.105263D+00 -0.586703D+00  0.408296D+00  0.477569D+00
      2   0.640570D-01  0.903210D-01 -0.579821D+00 -0.833295D-01 -0.243035D+00
      3  -0.748110D+00  0.797485D-01 -0.964371D-02 -0.845207D+00 -0.123380D+00
                11            12            13            14            15 
      1  -0.666459D+00  0.161908D+01 -0.131382D+00  0.158590D+01 -0.538132D+00
      2  -0.736187D+00 -0.287146D-01  0.191181D+00 -0.683597D+00 -0.540574D-01
      3   0.344830D-01 -0.732223D+00  0.278133D-01 -0.247142D-02 -0.821049D+00
                16            17            18            19            20 
      1  -0.277960D+01  0.714366D+00 -0.640690D+00 -0.241325D+01 -0.105528D+01
      2   0.125062D+00 -0.102653D+01  0.450263D-01 -0.206158D-01 -0.973362D+00
      3   0.164894D+00 -0.629715D-01 -0.898962D+00 -0.544556D-01 -0.532867D-01
                21            22            23            24            25 
      1   0.122431D+00  0.306850D+00  0.733070D+00 -0.437807D+00 -0.496423D-01
      2  -0.238625D-01  0.757054D-01  0.461153D+00 -0.181361D+00  0.701042D-01
      3  -0.968693D+00 -0.642737D-01 -0.311829D+00  0.290263D+00  0.140750D+00
                26            27            28            29            30 
      1  -0.410650D+00 -0.456603D+00  0.975658D-01 -0.303752D+00  0.197541D+00
      2   0.333742D+00  0.188549D+00  0.494616D-01  0.392269D+00 -0.135099D+00
      3   0.299334D+00  0.431735D+00 -0.461503D-01 -0.322212D+00  0.310396D+00
                31            32            33            34            35 
      1   0.341059D+00  0.373022D+00  0.414891D+00  0.140614D+00 -0.130001D-03
      2   0.103193D+00  0.389753D+00  0.244650D+00  0.236208D-01  0.207979D+00
      3   0.146588D+00  0.310906D+00  0.440075D+00 -0.416337D-01 -0.795217D-01
                36            37            38            39            40 
      1  -0.420409D-01  0.162126D+00 -0.784398D-01 -0.368909D-01  0.168722D+00
      2  -0.316814D+00 -0.919794D-01  0.645261D+00  0.314455D+00  0.979996D-02
      3   0.522669D+00 -0.286778D-01  0.210832D+00  0.254285D+00 -0.417887D-01
                41            42            43            44            45 
      1   0.115673D+00 -0.414879D+00  0.651984D-01  0.270047D+00  0.127179D+00
      2   0.167693D+00 -0.144459D+00 -0.836659D-01  0.493432D+00  0.210938D+00
      3  -0.109786D+00  0.625672D+00 -0.292325D-01  0.126493D+00  0.221968D+00
                46            47            48            49            50 
      1   0.353806D+00 -0.803397D+00 -0.417143D+00  0.114967D+00 -0.191352D+00
      2  -0.110740D+00  0.525268D+00  0.243055D+00  0.112912D-01  0.181120D+00
      3  -0.294931D-01  0.127481D+00  0.196926D+00 -0.192162D-01 -0.965138D-01
                51            52            53            54            55 
      1   0.783279D+00  0.213520D+00 -0.170676D+00  0.121119D+01  0.382750D+00
      2  -0.200240D+00 -0.223663D-01  0.114575D+00 -0.200071D+00 -0.104417D+00
      3   0.635074D+00  0.296201D-02 -0.499429D-01  0.564507D+00 -0.124868D-01
                56            57            58            59            60 
      1  -0.123606D+01 -0.528858D+00  0.128446D+01  0.103229D+01 -0.410903D+00
      2   0.629613D+00  0.259739D+00  0.857827D-01  0.216021D+00 -0.652282D-01
      3   0.199509D+00  0.189552D+00 -0.921515D-01 -0.115007D+00  0.138088D+00
                61            62            63            64            65 
      1   0.572074D-01  0.708059D+00 -0.940869D+00  0.214845D+00  0.832195D+00
      2  -0.249210D-01  0.340437D+00 -0.350529D+00  0.489673D-01  0.409944D+00
      3   0.402642D-01 -0.214013D+00  0.432634D+00  0.107785D-01  0.237507D+00
                66            67            68            69 
      1   0.100377D+01  0.157374D+01 -0.932679D+00 -0.135076D+00
      2   0.387649D+00 -0.455733D-01  0.161974D+00  0.221529D-02
      3   0.423950D+00  0.479067D-02  0.136796D-02  0.872208D-01
 Hessian after L701:
                1             2             3             4             5 
      1  0.139097D+02
      2  0.615320D+00  0.175461D+02
      3  0.366982D+00 -0.138542D+00  0.171226D+02
      4 -0.301075D+01 -0.109520D+01  0.107177D+01  0.139516D+02
      5 -0.109345D+01 -0.565654D+01 -0.324525D+00 -0.294789D+00  0.172310D+02
      6  0.108470D+01 -0.323457D+00 -0.570536D+01 -0.132120D+00  0.487064D-01
      7  0.431064D+00  0.998347D-01  0.676173D-01 -0.341307D+01  0.197674D+01
      8  0.120746D-02 -0.141784D+00 -0.209282D-01  0.196647D+01 -0.463215D+01
      9  0.177152D+00 -0.490866D-02 -0.152725D+00 -0.338744D+00 -0.158357D+00
     10 -0.385841D+01 -0.435322D+00 -0.200328D+01  0.372186D+00 -0.161271D+00
     11 -0.422095D+00 -0.585061D+01  0.458627D+00 -0.243999D+00 -0.997328D-01
     12 -0.197799D+01  0.453635D+00 -0.429433D+01 -0.134700D-01 -0.357800D-02
     13  0.284033D+00 -0.117028D-01  0.723971D-01  0.353328D+00  0.148335D-01
     14 -0.645953D-02 -0.133728D+00 -0.118264D-01  0.139409D+00 -0.785050D-01
     15  0.905457D-01 -0.399579D-02 -0.113069D+00  0.244734D-01 -0.177224D-01
     16  0.303763D+00 -0.156015D+00 -0.236777D-01  0.271677D+00 -0.127810D+00
     17 -0.142667D+00 -0.147847D+00  0.107218D-02 -0.134260D+00 -0.963880D-01
     18 -0.156768D+00  0.450538D-01 -0.132576D+00 -0.246489D-02 -0.290968D-02
     19  0.532194D-01  0.225558D-01  0.185393D-03  0.233223D+00  0.118783D+00
     20  0.339804D-02 -0.466400D-01  0.387109D-02  0.123420D+00 -0.897849D-01
     21  0.162739D-01  0.392515D-02 -0.478796D-01  0.111501D-01  0.644633D-03
     22  0.483384D-01 -0.225441D-01  0.969062D-01 -0.267425D-01 -0.202441D-01
     23  0.683994D-02  0.139129D+00  0.124515D-01 -0.259986D-02 -0.188066D-02
     24  0.570103D-01  0.140937D-01 -0.558782D-01 -0.203304D-01  0.215970D-02
     25  0.896302D-01  0.613260D-01  0.121942D+00  0.349905D-01 -0.152038D-01
     26  0.397746D-01  0.115678D+00 -0.513261D-01 -0.452652D-01 -0.315867D-01
     27  0.798365D-01 -0.355195D-01 -0.781080D-01 -0.589970D-01  0.130502D-01
     28 -0.444828D+01  0.235177D+00 -0.116027D+00 -0.205477D-01  0.177082D+00
     29  0.298999D+00 -0.255114D+01 -0.115050D+01  0.158721D+00  0.110188D+00
     30 -0.163593D+00 -0.121411D+01 -0.362810D+01 -0.144234D+00  0.787145D-01
     31 -0.402924D+01  0.526334D+00  0.640995D+00 -0.397833D-01  0.655911D-01
     32  0.534818D+00 -0.338821D+01  0.102981D+01  0.625601D-01  0.133394D+00
     33  0.653886D+00  0.103754D+01 -0.299013D+01 -0.477366D-01  0.745742D-01
     34 -0.841467D-02  0.105362D+00 -0.178173D+00 -0.459702D+01  0.310718D-01
     35  0.114541D+00  0.856901D-01  0.942797D-01  0.392260D-01 -0.427465D+01
     36 -0.165730D+00  0.810678D-01  0.981492D-01 -0.165413D+00 -0.697688D+00
     37 -0.460514D-01  0.753625D-01 -0.503409D-01 -0.431111D+01 -0.442928D+00
     38  0.699148D-01  0.959944D-01  0.805613D-01 -0.497105D+00 -0.239218D+01
     39 -0.478754D-01  0.659904D-01  0.114801D+00 -0.231719D+00  0.917477D+00
     40 -0.168145D-01  0.249338D-01  0.139837D-01  0.251328D-01 -0.827378D-01
     41  0.201988D-01  0.299141D-02 -0.449184D-02 -0.589289D-01 -0.243041D-01
     42 -0.277277D-02 -0.149437D-01  0.311001D-02  0.105081D-01  0.479341D-01
     43  0.383998D-01  0.259477D-01 -0.399096D-02  0.368830D-01 -0.136647D+00
     44  0.520491D-01 -0.109393D-02 -0.580822D-02 -0.986928D-01 -0.357261D-01
     45  0.191447D-01  0.124698D-01 -0.371073D-01 -0.715748D-02  0.280306D-01
     46  0.214647D-01 -0.902982D-02 -0.537906D-02  0.284299D-01 -0.134291D-01
     47 -0.229058D-01 -0.699768D-02  0.744014D-02 -0.311473D-01 -0.415387D-02
     48 -0.564548D-02  0.160417D-02 -0.842408D-02 -0.197879D-01  0.106294D-01
     49  0.143374D-01 -0.379314D-03  0.104589D-01  0.236069D-01 -0.124418D-02
     50 -0.640232D-02 -0.123080D-01 -0.110745D-02 -0.163336D-02 -0.235484D-01
[...]
 95,-0.30000949,-0.00445903,-0.00031880,0.00004903,0.00010919,0.0006805
 4,-0.01143077,-0.00061098,0.00002223,-0.00002132,0.00004776,-0.0006363
 1,0.00060860,0.00021886,0.00013530,0.00014746,-0.00005364,-0.00019627,
 -0.00029247,0.00015708,-0.00085115,0.00045827,0.00024020,0.00004707,0.
 00044477,-0.00001377,-0.00151092,0.00074163,-0.00164302,-0.00002905,0.
 00037651,-0.00036117,-0.00142886,0.32885291,0.00093884,0.00023883,0.00
 052575,-0.00082509,-0.01697799,-0.00059983,-0.00026987,-0.00379489,-0.
 04951919,0.00006294,0.00012698,0.00017335,0.00128082,-0.01687934,-0.00
 111560,-0.00004169,-0.00006898,0.00000794,-0.00076523,0.00036081,0.000
 11252,-0.00010977,-0.00009136,-0.00010316,-0.00021742,0.00001828,-0.00
 014084,-0.00009398,0.00038180,0.00018118,0.00020837,0.00010690,-0.0001
 4898,-0.00259378,-0.00134344,-0.00082216,0.00075128,-0.00008128,0.0003
 0460,0.00011330,0.00804688,0.05017441,0.00116612,0.00030945,-0.0001945
 8,-0.00032968,0.00957017,-0.02740396,-0.04577210,-0.00064986,0.0000194
 8,-0.00064028,0.00031604,0.00039199,-0.00305720,-0.00983088,0.02783869
 ,0.00007734,0.00000511,0.00024597,0.00179819,-0.00041212,0.00117762,-0
 .00001274,-0.00024597,0.00007800,-0.00169064,0.00037825,0.00095416,-0.
 00009485,-0.00001859,0.00003074,0.00013172,-0.00017217,0.00026462,0.00
 121899,0.00004050,0.00088017,-0.00455228,-0.00189880,-0.00260834,-0.00
 072674,0.00016059,-0.00033016,0.05595007,0.00031780,-0.00006405,0.0006
 8165,-0.00022177,0.00330165,-0.01198728,-0.00023121,-0.07818557,0.0815
 2890,0.00022116,0.00072591,0.00059716,0.00088598,0.00344181,-0.0110041
 4,-0.00013031,-0.00023604,-0.00022863,-0.00049350,0.00006228,0.0000764
 7,-0.00002295,-0.00029664,0.00000258,0.00008956,-0.00005582,-0.0003840
 1,-0.00002722,0.00005162,0.00003482,0.00010946,0.00001005,-0.00011621,
 0.00079635,0.00068801,-0.00016398,-0.00209028,0.00030110,-0.00184152,-
 0.00016789,-0.01097952,0.03107908,0.00020870,0.08026105,0.00035131,-0.
 00027599,-0.00028612,-0.00086611,0.00484192,-0.01529982,-0.00041341,0.
 08090525,-0.27596489,0.00029900,-0.00064212,-0.00099599,0.00139065,0.0
 0505272,-0.01621733,0.00021493,0.00017410,0.00060384,-0.00099213,0.000
 06795,0.00084018,-0.00030654,0.00004960,-0.00003790,0.00158111,0.00030
 580,0.00059417,-0.00001457,-0.00004733,0.00003617,-0.00013177,-0.00000
 479,0.00015467,0.00023141,-0.00031766,0.00057208,-0.00252433,-0.001455
 97,-0.00036013,0.00004240,0.00012669,0.00107998,-0.00190875,-0.0866717
 2,0.30421958,0.00007389,0.00022823,-0.00012187,0.00183450,-0.00034609,
 0.00169166,-0.00306966,-0.01027283,0.02743891,-0.00001284,0.00009545,0
 .00023356,-0.04611232,-0.00141877,0.00357101,-0.00005139,-0.00006108,-
 0.00016579,-0.00119806,0.00998268,-0.02796236,0.00003460,0.00000872,-0
 .00000875,-0.00006718,-0.00011090,-0.00022666,0.00000057,0.00001106,0.
 00001693,-0.00001527,0.00001125,-0.00003121,-0.00003989,-0.00001172,-0
 .00005303,-0.00039339,0.00016503,-0.00084084,0.00116546,0.00000331,-0.
 00084563,-0.00468506,0.00190647,0.00241994,0.05584307,-0.00017224,0.00
 001138,-0.00023536,-0.00044862,-0.00007914,0.00011804,0.00107352,0.003
 58181,-0.01127271,0.00008801,-0.00010930,-0.00008147,-0.00150814,-0.08
 054966,0.08417693,0.00001894,0.00003738,0.00001832,-0.00023718,0.00360
 935,-0.01121542,-0.00000869,0.00000801,0.00000462,0.00002576,0.0000376
 3,0.00004308,0.00001420,-0.00004319,-0.00000364,-0.00006029,-0.0000079
 0,0.00003567,0.00003005,-0.00000955,0.00011369,-0.00031302,0.00015790,
 0.00012670,-0.00078163,0.00061304,-0.00016512,0.00197924,0.00042176,-0
 .00159693,0.00146586,0.08267692,0.00014351,-0.00022200,0.00040569,-0.0
 0122063,-0.00002815,0.00039644,0.00161570,0.00522017,-0.01609259,-0.00
 025653,-0.00004200,-0.00014677,0.00353558,0.08308143,-0.27474613,0.000
 02102,0.00002249,0.00014137,-0.00071049,0.00505286,-0.01454185,-0.0000
 1039,-0.00000648,0.00000134,0.00006751,0.00009656,0.00012805,0.0000126
 2,-0.00002958,-0.00004243,0.00008245,-0.00001236,-0.00000367,0.0000133
 8,-0.00007454,0.00001833,0.00064416,0.00020222,0.00076353,-0.00031006,
 -0.00036552,0.00043948,0.00257737,-0.00161312,-0.00023298,-0.00376981,
 -0.08981924,0.30122214,-0.00012469,-0.00003654,0.00004979,0.00182861,0
 .00123897,0.00014442,-0.00233621,0.02968805,0.00086656,0.00008505,0.00
 001353,0.00003977,-0.04608355,-0.00071754,0.00007060,-0.00001196,-0.00
 001308,-0.00004185,-0.00171537,-0.02968002,-0.00139941,-0.00003274,-0.
 00003883,0.00002074,0.00001583,0.00001875,-0.00007804,0.00008923,-0.00
 026021,-0.00003127,-0.00003180,-0.00009423,0.00000110,-0.00038839,-0.0
 0069474,0.00004792,0.00000111,-0.00004392,-0.00016551,-0.00472841,0.00
 162415,0.00275151,0.00113422,-0.00078042,-0.00031297,-0.00071200,-0.00
 055593,0.00004583,0.05554769,0.00015177,0.00050587,-0.00002674,-0.0008
 5899,0.00037525,0.00019385,0.00111808,-0.01164400,-0.00075237,-0.00004
 200,-0.00007661,-0.00004353,-0.00105160,-0.30535617,-0.00870404,0.0000
 1418,0.00002906,0.00002160,-0.00071748,-0.00923624,-0.00041773,0.00003
 165,0.00004444,-0.00000947,0.00000029,-0.00000018,0.00007446,-0.000277
 44,0.00008710,0.00004639,0.00011192,0.00000198,-0.00002081,0.00075992,
 0.00047013,0.00026610,0.00014906,-0.00010357,-0.00002654,0.00170792,0.
 00089918,-0.00141036,-0.00001167,0.00057344,-0.00032737,0.00003793,-0.
 01133724,0.00021331,0.00086059,0.33279749,-0.00004085,0.00002957,-0.00
 014413,-0.00073889,0.00013345,0.00019848,0.00107011,-0.01673350,-0.001
 15655,-0.00001033,-0.00004052,0.00000325,0.00004426,-0.00766476,-0.050
 03110,0.00000451,0.00001905,-0.00001118,-0.00082876,-0.01715240,-0.001
 24859,0.00003115,0.00004087,-0.00000034,-0.00000461,-0.00003556,0.0000
 1605,-0.00007404,0.00006576,-0.00001680,-0.00000937,0.00005384,0.00000
 426,0.00006948,0.00029795,0.00030944,0.00011000,0.00017146,-0.00005147
 ,0.00269907,-0.00137998,-0.00070096,-0.00083530,-0.00016188,0.00037435
 ,0.00003262,0.03107641,0.00145664,0.00011868,0.01218163,0.05109965,0.0
 0104025,-0.00040698,-0.00204432,0.00023163,0.00033146,0.00019277,-0.00
 009198,0.00007582,-0.00030971,-0.02371597,-0.01273328,-0.01669290,0.00
 013267,-0.00004502,0.00016710,-0.18452697,-0.07906907,-0.10657853,0.00
 002074,0.00000425,-0.00001020,0.00125962,0.00025501,-0.00023474,-0.004
 63633,0.00262811,0.00270752,0.00000162,0.00003977,0.00006850,0.0003074
 9,0.00002302,0.00123246,-0.00004049,0.00002717,-0.00002320,-0.00001882
 ,0.00001971,0.00005707,0.00002471,0.00000792,-0.00001693,0.00012495,-0
 .00011978,0.00023473,-0.00006794,0.00001657,0.00004698,-0.00001571,0.0
 0001884,-0.00000139,0.20450531,-0.00028420,-0.00007844,0.00037368,0.00
 006370,0.00004366,0.00028733,0.00013928,-0.00010959,-0.00001366,0.0093
 0214,0.00475700,0.00677594,-0.00000746,0.00004202,-0.00002763,-0.07973
 578,-0.09252816,-0.06059686,0.00000190,-0.00000823,-0.00000759,-0.0004
 3715,0.00058489,0.00069655,0.00257944,0.00030318,-0.00085964,-0.000082
 66,-0.00002704,-0.00010084,-0.00035420,0.00010748,0.00012446,0.0000149
 0,-0.00004321,-0.00000370,-0.00006257,-0.00000972,0.00001999,-0.000008
 91,0.00000923,0.00000230,-0.00002131,0.00003164,-0.00005457,0.00001554
 ,-0.00000593,-0.00001024,0.00000132,-0.00000334,0.00000119,0.08512481,
 0.09635587,0.00087817,0.00057725,0.00159204,0.00003813,-0.00006425,0.0
 0017088,0.00014451,-0.00001215,-0.00006605,0.00788797,0.00517978,0.005
 21943,-0.00001357,0.00001509,-0.00005145,-0.10747237,-0.06067946,-0.13
 000731,-0.00000719,0.00000421,0.00000284,-0.00075505,0.00029439,0.0002
 5274,0.00246158,-0.00028812,0.00006186,-0.00003259,0.00003759,-0.00005
 475,-0.00026975,-0.00030838,0.00002705,-0.00001940,0.00002085,-0.00000
 534,-0.00005747,-0.00000106,0.00002168,-0.00001223,-0.00000093,0.00000
 879,-0.00005655,0.00000508,-0.00005501,0.00001812,-0.00000374,-0.00000
 638,0.00000182,0.,0.00000063,0.11635659,0.06750395,0.13796349,0.001329
 81,0.00059647,-0.00142056,-0.00013585,-0.00006826,-0.00006047,0.000020
 96,0.00004176,-0.00007086,-0.00269113,0.03235622,-0.00197353,0.0000072
 5,-0.00002094,0.00002131,-0.04727349,0.01459041,-0.00170638,0.00000328
 ,0.00000520,-0.00000234,-0.00548031,0.00186131,0.00245313,0.00126422,-
 0.00039289,-0.00074332,-0.00000939,-0.00068575,0.00042114,-0.00000480,
 -0.00015828,0.00012797,0.00009829,-0.00022168,-0.00007392,-0.00000357,
 -0.00010581,0.00001924,-0.00004038,-0.00005742,0.00003092,0.00005717,0
 .00004105,0.00002917,-0.00000829,0.00000027,0.00000605,0.00001332,-0.0
 0001302,-0.00001351,0.00151904,-0.02363769,0.00333520,0.05224823,-0.00
 074183,0.00055286,0.00047293,0.00006267,0.00044932,-0.00009279,0.00001
 283,-0.00007151,0.00005324,0.00123006,-0.01052923,0.00071146,-0.000014
 07,0.00002788,-0.00001548,0.01535911,-0.31009012,0.02144924,0.00000154
 ,-0.00001365,-0.00000286,0.00214462,0.00112468,-0.00045353,0.00029149,
 0.00059854,0.00013487,0.00031058,0.00029820,-0.00081466,0.00009561,-0.
 00012129,-0.00008815,-0.00019645,0.00007928,0.00016423,0.00008516,0.00
 000355,-0.00006837,0.00002318,0.00003975,-0.00001909,-0.00005605,-0.00
 000410,-0.00004659,0.00001550,-0.00000297,-0.00001273,-0.00000684,0.00
 000598,0.00000832,0.00075603,-0.01248672,0.00143984,-0.01940853,0.3372
 1812,-0.00049881,-0.00118691,0.00087905,0.00007813,-0.00001571,-0.0001
 1439,-0.00000954,0.00003294,0.00007024,0.00046262,-0.01057518,-0.00007
 192,-0.00002078,-0.00001609,-0.00003583,-0.00176644,0.02178443,-0.0495
 5450,-0.00000831,0.00000690,0.00001196,0.00210395,-0.00066746,-0.00004
 446,-0.00036055,0.00060814,0.00012551,0.00026861,0.00033002,0.00005388
 ,-0.00013881,-0.00006443,-0.00005096,-0.00004350,0.00015312,-0.0000338
 8,0.00000355,0.00004105,-0.00000930,0.00001405,-0.00000027,0.00000825,
 -0.00003402,0.00000795,-0.00002206,0.00000735,-0.00000130,-0.00000695,
 0.00000006,0.00000057,0.00000144,0.00203403,-0.01893153,0.00124737,-0.
 00010236,-0.02320493,0.04888938,-0.00577888,0.00300709,0.00002240,0.00
 033306,-0.00068179,0.00193616,0.00020745,0.00003591,0.00014899,-0.0037
 8288,-0.00920126,0.02974991,-0.00003804,-0.00003892,-0.00008213,-0.052
 85090,-0.01025889,0.03745813,-0.00001797,0.00002110,0.00002840,0.00121
 940,0.00014563,-0.00057013,0.00096936,-0.00076637,-0.00053937,-0.00002
 022,-0.00005622,-0.00026990,0.00020564,0.00024045,0.00014365,0.0000151
 2,0.00006356,-0.00002049,-0.00059001,0.00023950,0.00029416,-0.00000909
 ,-0.00002784,-0.00000761,-0.00002551,0.00001861,-0.00008276,0.00001864
 ,0.00000454,-0.00002501,0.00000626,0.00000133,0.00000691,0.00393546,0.
 00738603,-0.02241986,-0.00091127,0.00002843,-0.00197957,0.05714864,0.0
 0185078,-0.00052257,-0.00024596,0.00026098,0.00065632,-0.00054095,0.00
 000195,-0.00004343,-0.00005986,0.00102711,0.00208182,-0.01190833,0.000
 02423,0.00001499,0.00002057,-0.01062194,-0.06451190,0.06528562,0.00000
 748,-0.00000783,-0.00000168,-0.00068891,0.00025378,-0.00014589,-0.0004
 8224,0.00016961,0.00045000,0.00022260,0.00041568,-0.00033512,0.0001372
 9,-0.00012540,0.00030927,-0.00011341,0.00001788,0.00005605,0.00018215,
 -0.00007413,-0.00009562,0.00000959,0.00000186,0.00000383,0.00000397,0.
 00000967,0.00002088,-0.00000660,-0.00000190,0.00000631,-0.00000138,-0.
 00000405,-0.00000225,0.00305072,0.00306097,-0.01371861,-0.00471637,-0.
 00708840,0.03170057,0.00984729,0.06569408,0.00250667,-0.00155598,0.000
 58649,-0.00028596,0.00064914,-0.00036339,0.00002939,-0.00012032,-0.000
 18353,-0.00013255,0.00217790,-0.00771211,0.00003310,0.00006597,0.00009
 545,0.03857606,0.06478769,-0.29388521,0.00002755,-0.00002874,-0.000044
 18,-0.00004383,-0.00046091,0.00010213,0.00032519,0.00011062,0.00058452
 ,-0.00009911,0.00005761,0.00011058,0.00004188,0.00004613,0.00050989,0.
 00001440,-0.00006595,0.00000532,0.00022768,-0.00007911,-0.00012292,-0.
 00000170,0.00001617,0.00000195,-0.00000234,-0.00000341,0.00002893,-0.0
 0000411,-0.00000178,0.00000436,-0.00000173,-0.00000801,-0.00000461,0.0
 0280561,0.00481792,-0.01632313,-0.00028138,0.00038718,-0.00133665,-0.0
 4376832,-0.07080248,0.31792330,0.00003961,0.00011137,0.00002544,-0.000
 13677,0.00005966,-0.00012764,0.00199189,-0.00144026,0.00006327,-0.0000
 2508,-0.00001181,-0.00001178,-0.00169345,-0.02908201,-0.00056063,0.000
 00166,0.00000404,0.00000768,-0.04674676,-0.00393744,0.00056480,0.00000
 781,0.00001072,-0.00000396,-0.00000058,-0.00000158,0.00001881,-0.00005
 971,0.00003442,0.00000843,0.00003282,-0.00000333,-0.00000948,0.0001061
 0,0.00025940,0.00005512,0.00004390,-0.00003651,0.00001566,-0.00030627,
 0.00075528,0.00000987,-0.00004844,0.00006240,0.00009977,0.00112244,0.0
 0073288,0.00039433,-0.00454223,-0.00163118,-0.00287429,0.00000567,0.00
 000049,0.00000152,-0.00000443,0.00000138,0.00000026,-0.00000019,-0.000
 00033,-0.00000309,0.05032060,-0.00003572,-0.00003673,-0.00003449,-0.00
 009950,0.00050600,0.00000915,0.00079853,0.00058611,0.00026836,-0.00003
 390,0.00000291,-0.00001723,-0.00059249,-0.01047325,-0.00081675,0.00000
 598,-0.00000784,0.00001099,-0.00477301,-0.31260368,-0.00877355,0.00001
 105,0.00001547,-0.00000004,0.00000396,-0.00001195,0.00000063,-0.000027
 16,0.00002278,0.00000157,-0.00003323,0.00000407,0.00000770,0.00024730,
 0.00006982,0.00006676,0.00001595,-0.00003612,0.00000517,-0.00081247,0.
 00035089,0.00029198,-0.00007718,-0.00007875,-0.00004833,-0.00007930,0.
 00055607,-0.00037283,-0.00167025,0.00114555,-0.00137796,-0.00000018,0.
 00000226,0.00000022,-0.00000705,0.00000942,-0.00000317,-0.00000837,-0.
 00000118,0.00000786,0.00715329,0.33989824,0.00002502,0.00006087,0.0000
 0452,0.00008067,0.00002993,-0.00007325,0.00084605,0.00028355,0.0001473
 0,0.00000841,0.00001467,0.00000568,-0.00069127,-0.01804858,-0.00120267
 ,-0.00000110,-0.00000558,-0.00000173,0.00055489,-0.00838758,-0.0478386
 6,-0.00000397,-0.00000665,-0.00000679,-0.00000258,0.00000530,-0.000010
 31,-0.00002026,0.00000810,0.00001803,-0.00000438,-0.00001091,-0.000005
 51,0.00007858,0.00007319,-0.00001872,-0.00001506,-0.00003647,-0.000047
 94,-0.00008262,0.00032269,0.00032781,-0.00006583,0.00014525,-0.0000178
 3,0.00084646,-0.00012182,0.00028896,-0.00326155,-0.00101980,-0.0009379
 8,-0.00000468,-0.00000134,-0.00000169,0.00000297,-0.00000022,0.0000018
 3,-0.00000177,0.00000161,0.00000302,0.00262295,0.01124187,0.04834770,0
 .00003608,-0.00002760,0.00013521,-0.00016913,-0.00017746,-0.00008000,0
 .00200340,0.00056208,-0.00135516,-0.00005902,0.00000259,-0.00004002,-0
 .00122791,0.01068075,-0.02701636,0.00000405,0.00000313,0.00003558,-0.0
 4683940,0.00064452,0.00012616,-0.00000591,-0.00000894,-0.00000157,0.00
 000322,0.00002832,0.00002984,-0.00000288,-0.00000220,-0.00000413,0.000
 03720,-0.00001010,-0.00000800,0.00000402,0.00000137,-0.00000932,0.0000
 5707,-0.00002060,0.00031181,-0.00005261,0.00004256,0.00008925,-0.00033
 033,-0.00024084,0.00071946,-0.00452232,-0.00189337,-0.00264277,0.00114
 753,0.00008220,0.00082752,0.00001378,-0.00000152,0.00000068,0.00000228
 ,-0.00000450,-0.00000183,-0.00000714,0.00000164,-0.00000030,-0.0012563
 7,0.00015177,0.00019999,0.05042428,0.00003120,-0.00002041,0.00007470,0
 .00011978,0.00000230,-0.00022634,0.00042628,-0.00004453,0.00009689,0.0
 0001118,0.00003746,0.00003023,-0.00022050,0.00395522,-0.01161576,-0.00
 000476,-0.00001022,-0.00000698,0.00097952,-0.08078843,0.08827042,-0.00
 000554,-0.00000802,-0.00000436,-0.00000188,-0.00000710,-0.00001212,0.0
 0000551,-0.00000084,0.00000186,0.00001016,-0.00000484,-0.00001363,-0.0
 0001879,-0.00003853,-0.00001302,-0.00004383,-0.00004459,0.00002805,-0.
 00002758,-0.00004473,0.00013871,0.00024876,0.00012839,0.00020414,-0.00
 228640,0.00028158,-0.00139124,0.00080666,0.00049936,-0.00015228,-0.000
 00845,-0.00000048,-0.00000213,0.00000344,-0.00000096,0.00000314,0.0000
 0280,0.00000324,-0.00000096,-0.00030351,-0.01063732,0.03124115,0.00111
 848,0.08337489,-0.00000459,-0.00005413,0.00003225,-0.00007454,-0.00013
 636,0.00040874,0.00107234,-0.00001068,0.00066313,-0.00005499,0.0000329
 0,-0.00003848,-0.00053006,0.00535506,-0.01613986,0.00000167,-0.0000134
 1,0.00002754,-0.00072373,0.08786486,-0.27948877,-0.00000510,-0.0000175
 6,-0.00000187,0.00000143,0.00001413,-0.00000297,0.00000245,0.00000136,
 0.00000453,-0.00002351,0.00000221,0.00000215,-0.00001835,-0.00002676,-
 0.00004199,0.00025854,0.00002201,0.00013243,-0.00007534,-0.00004229,-0
 .00002513,-0.00074812,0.00019750,0.00059467,-0.00288806,-0.00173387,-0
 .00007274,0.00026694,-0.00039904,0.00037734,0.00000335,0.00000225,-0.0
 0000048,0.00000212,-0.00000166,-0.00000471,-0.00001537,0.00000146,0.00
 001401,0.00016866,-0.00058360,0.00216817,0.00374169,-0.09570444,0.3048
 0427,-0.00036920,-0.00038852,-0.00046134,-0.00087530,0.00101974,0.0013
 7412,-0.00330091,-0.00315602,-0.00463141,-0.00000962,0.00006719,-0.000
 06779,-0.02074005,0.00932616,0.01370879,0.00001252,-0.00003380,0.00003
 306,-0.23029141,0.07095531,0.10356802,0.00000355,-0.00001279,0.0000023
 5,0.00001209,-0.00001124,-0.00001950,0.00003135,0.00003052,0.00001549,
 -0.00025383,0.00007709,0.00008840,-0.00003736,-0.00011341,0.00001576,-
 0.00000023,0.00005614,-0.00008747,0.00025945,0.00004343,-0.00011994,0.
 00030709,-0.00013135,-0.00006052,0.00086243,0.00052926,-0.00026082,0.0
 0085420,-0.00044230,0.00041705,-0.00000875,0.00000390,-0.00000824,-0.0
 0000095,0.00001008,-0.00000811,-0.00002693,0.00000337,0.00003688,0.001
 14777,-0.00013802,-0.00111093,0.00074010,-0.00084252,-0.00035744,0.251
 68397,-0.00016554,-0.00011504,-0.00014274,-0.00052426,0.00071804,0.000
 11792,-0.00138854,-0.00058539,-0.00125822,-0.00000647,0.00000822,-0.00
 002246,-0.00988306,0.00292342,0.00656669,0.00000072,-0.00000518,0.0000
 0801,0.07164469,-0.07499925,-0.04002673,0.00000210,-0.00000033,0.00000
 357,0.00000538,-0.00000510,0.00000816,0.00000420,0.00000247,-0.0000108
 5,-0.00007296,0.00001850,0.00002597,0.00010266,0.00000658,0.00007740,-
 0.00001692,-0.00000036,-0.00001669,-0.00034096,0.00045021,0.00003545,0
 .00017382,-0.00010789,-0.00025969,0.00064663,0.00015394,0.00010467,0.0
 0034189,0.00032656,0.00062160,0.00000355,0.00000265,0.00000057,-0.0000
 0241,0.00000138,-0.00000183,-0.00000261,0.00000089,0.00000348,0.027262
 62,-0.00928276,-0.01578923,-0.01093229,0.00336855,0.00523007,-0.076852
 23,0.07711988,-0.00021685,-0.00015929,-0.00019348,-0.00082859,0.000178
 20,0.00081492,-0.00212658,-0.00134797,-0.00176924,-0.00001795,-0.00000
 524,-0.00006205,-0.01518971,0.00685347,0.00846680,0.00000084,-0.000002
 18,0.00002016,0.10464148,-0.04001496,-0.10599188,-0.00000094,-0.000006
 52,0.00000197,0.00000737,0.00001321,0.00001113,0.00001127,0.00000687,-
 0.00000371,-0.00009949,0.00003466,0.00003284,-0.00000201,-0.00001839,0
 .00000715,0.00010427,0.00006491,0.00002106,0.00006649,-0.00001996,-0.0
 0017017,-0.00027084,-0.00018055,0.00039146,0.00064156,0.00053893,0.000
 62616,0.00086660,0.00016791,0.00046219,0.00000991,0.00000204,0.0000027
 9,-0.00000058,-0.00000025,-0.00000330,-0.00000641,0.00000057,0.0000058
 0,-0.00046571,0.00011568,-0.00114996,0.02494226,-0.01094601,-0.0134122
 0,-0.11206640,0.04472488,0.11189157\\0.00000023,-0.00000094,-0.0000010
 7,0.00000041,-0.00000126,0.00000013,0.00000001,0.00000026,0.00000052,-
 0.00000025,-0.00000002,-0.00000034,0.00000070,0.00000039,0.00000109,-0
 .00000056,-0.00000020,-0.00000125,-0.00000033,0.00000141,0.00000100,-0
 .00000011,-0.00000016,0.00000078,-0.00000095,0.00000090,-0.00000058,-0
 .00000025,-0.00000111,-0.00000181,0.00000039,-0.00000197,-0.00000054,0
 .00000105,-0.00000100,0.00000111,0.00000065,-0.00000179,0.,-0.00000046
 ,0.00000033,-0.00000072,-0.00000008,0.00000119,0.00000043,0.00000069,-
 0.00000058,0.00000066,0.00000107,0.00000024,0.00000201,0.00000009,-0.0
 0000129,-0.00000120,-0.00000130,-0.00000021,-0.00000214,-0.00000061,0.
 00000041,-0.00000099,-0.00000063,0.00000162,0.00000007,-0.00000019,0.0
 0000236,0.00000131,0.00000044,0.00000145,0.00000152\\\@


 YOU SHOULDN'T LET PEOPLE DRIVE YOU CRAZY
 WHEN YOU KNOW IT'S WITHIN WALKING DISTANCE.
 Job cpu time:       0 days  6 hours 45 minutes 18.8 seconds.
 Elapsed time:       0 days  3 hours 22 minutes 44.3 seconds.
 File lengths (MBytes):  RWF=   1488 Int=      0 D2E=      0 Chk=     32 Scr=     32
 Normal termination of Gaussian 16 at Sun Sep 29 07:38:53 2019.
