 Entering Gaussian System, Link 0=g16
 Input=tight/species/CCCCCCC/conformers/CCCCCCC_804.com
 Output=tight/species/CCCCCCC/conformers/CCCCCCC_804.log
 Initial command:
 /shared/centos7/gaussian/g16/l1.exe "/scratch/harms.n/gauss_scrdir/Gau-32248.inp" -scrdir="/scratch/harms.n/gauss_scrdir/"
 Entering Link 1 = /shared/centos7/gaussian/g16/l1.exe PID=     32249.
  
 Copyright (c) 1988,1990,1992,1993,1995,1998,2003,2009,2016,
            Gaussian, Inc.  All Rights Reserved.
  
 This is part of the Gaussian(R) 16 program.  It is based on
 the Gaussian(R) 09 system (copyright 2009, Gaussian, Inc.),
 the Gaussian(R) 03 system (copyright 2003, Gaussian, Inc.),
 the Gaussian(R) 98 system (copyright 1998, Gaussian, Inc.),
 the Gaussian(R) 94 system (copyright 1995, Gaussian, Inc.),
 the Gaussian 92(TM) system (copyright 1992, Gaussian, Inc.),
 the Gaussian 90(TM) system (copyright 1990, Gaussian, Inc.),
 the Gaussian 88(TM) system (copyright 1988, Gaussian, Inc.),
 the Gaussian 86(TM) system (copyright 1986, Carnegie Mellon
 University), and the Gaussian 82(TM) system (copyright 1983,
 Carnegie Mellon University). Gaussian is a federally registered
 trademark of Gaussian, Inc.
  
 This software contains proprietary and confidential information,
 including trade secrets, belonging to Gaussian, Inc.
  
 This software is provided under written license and may be
 used, copied, transmitted, or stored only in accord with that
 written license.
  
 The following legend is applicable only to US Government
 contracts under FAR:
  
                    RESTRICTED RIGHTS LEGEND
  
 Use, reproduction and disclosure by the US Government is
 subject to restrictions as set forth in subparagraphs (a)
 and (c) of the Commercial Computer Software - Restricted
 Rights clause in FAR 52.227-19.
  
 Gaussian, Inc.
 340 Quinnipiac St., Bldg. 40, Wallingford CT 06492
  
  
 ---------------------------------------------------------------
 Warning -- This program may not be used in any manner that
 competes with the business of Gaussian, Inc. or will provide
 assistance to any competitor of Gaussian, Inc.  The licensee
 of this program is prohibited from giving any competitor of
 Gaussian, Inc. access to this program.  By using this program,
 the user acknowledges that Gaussian, Inc. is engaged in the
 business of creating and licensing software in the field of
 computational chemistry and represents and warrants to the
 licensee that it is not a competitor of Gaussian, Inc. and that
 it will not use this program in any manner prohibited above.
 ---------------------------------------------------------------
  

 Cite this work as:
 Gaussian 16, Revision A.03,
 M. J. Frisch, G. W. Trucks, H. B. Schlegel, G. E. Scuseria, 
 M. A. Robb, J. R. Cheeseman, G. Scalmani, V. Barone, 
 G. A. Petersson, H. Nakatsuji, X. Li, M. Caricato, A. V. Marenich, 
 J. Bloino, B. G. Janesko, R. Gomperts, B. Mennucci, H. P. Hratchian, 
 J. V. Ortiz, A. F. Izmaylov, J. L. Sonnenberg, D. Williams-Young, 
 F. Ding, F. Lipparini, F. Egidi, J. Goings, B. Peng, A. Petrone, 
 T. Henderson, D. Ranasinghe, V. G. Zakrzewski, J. Gao, N. Rega, 
 G. Zheng, W. Liang, M. Hada, M. Ehara, K. Toyota, R. Fukuda, 
 J. Hasegawa, M. Ishida, T. Nakajima, Y. Honda, O. Kitao, H. Nakai, 
 T. Vreven, K. Throssell, J. A. Montgomery, Jr., J. E. Peralta, 
 F. Ogliaro, M. J. Bearpark, J. J. Heyd, E. N. Brothers, K. N. Kudin, 
 V. N. Staroverov, T. A. Keith, R. Kobayashi, J. Normand, 
 K. Raghavachari, A. P. Rendell, J. C. Burant, S. S. Iyengar, 
 J. Tomasi, M. Cossi, J. M. Millam, M. Klene, C. Adamo, R. Cammi, 
 J. W. Ochterski, R. L. Martin, K. Morokuma, O. Farkas, 
 J. B. Foresman, and D. J. Fox, Gaussian, Inc., Wallingford CT, 2016.
 
 ******************************************
 Gaussian 16:  EM64L-G16RevA.03 25-Dec-2016
                28-Sep-2019 
 ******************************************
 %nprocshared=20
 Will use up to   20 processors via shared memory.
 %mem=5GB
 ----------------------------------------------------------------------
 #p m062x/cc-pVTZ opt=(calcfc,maxcycles=900,Tight) freq IOP(7/33=1,2/16
 =3) scf=(maxcycle=900)
 ----------------------------------------------------------------------
 1/6=900,7=10,10=4,18=20,19=15,26=3,38=1/1,3;
 2/9=110,12=2,16=3,17=6,18=5,40=1/2;
 3/5=16,6=1,11=2,25=1,30=1,71=2,74=-55,140=1/1,2,3;
 4//1;
 5/5=2,7=900,38=5/2;
 8/6=4,10=90,11=11/1;
 11/6=1,8=1,9=11,15=111,16=1/1,2,10;
 10/6=1,13=1/2;
 6/7=2,8=2,9=2,10=2,28=1/1;
 7/10=1,18=20,25=1,33=1/1,2,3,16;
 1/6=900,7=10,10=4,18=20,19=15,26=3/3(2);
 2/9=110,16=3/2;
 99//99;
 2/9=110,16=3/2;
 3/5=16,6=1,11=2,25=1,30=1,71=1,74=-55/1,2,3;
 4/5=5,16=3,69=1/1;
 5/5=2,7=900,38=5/2;
 7/33=1/1,2,3,16;
 1/6=900,7=10,18=20,19=15,26=3/3(-5);
 2/9=110,16=3/2;
 6/7=2,8=2,9=2,10=2,19=2,28=1/1;
 99/9=1/99;
 Leave Link    1 at Sat Sep 28 18:58:23 2019, MaxMem=   671088640 cpu:               4.2 elap:               2.1
 (Enter /shared/centos7/gaussian/g16/l101.exe)
 ------------------------------
 Gaussian input prepared by ASE
 ------------------------------
 Symbolic Z-matrix:
 Charge =  0 Multiplicity = 1
 C                     1.40711  -1.15847   0.51386 
 C                     0.16085  -0.45608   0.93273 
 C                    -0.85242  -0.26275  -0.16767 
 C                     2.13903  -0.49993  -0.6067 
 C                    -2.18124  -0.93349   0.08937 
 C                     3.52399  -0.11556  -0.28462 
 C                    -2.84846  -0.47646   1.36053 
 H                     1.56793   0.41019  -0.94531 
 H                     2.13761  -1.17614  -1.49468 
 H                     1.16215  -2.2056    0.23619 
 H                     2.07545  -1.23708   1.39578 
 H                     0.43114   0.52805   1.34639 
 H                    -0.29519  -1.01591   1.77646 
 H                    -0.44952  -0.62906  -1.12715 
 H                    -1.03232   0.82294  -0.30933 
 H                    -2.85656  -0.72757  -0.78187 
 H                    -2.04715  -2.0281    0.12267 
 H                     3.77716  -0.33686   0.76933 
 H                     4.27353  -0.66487  -0.92804 
 H                     3.6988    0.96968  -0.44332 
 H                    -2.71848   0.59576   1.51233 
 H                    -2.41433  -1.00822   2.25194 
 H                    -3.95405  -0.69723   1.3319 
 
 ITRead=  0  0  0  0  0  0  0  0  0  0  0  0  0  0  0  0  0  0  0  0
 ITRead=  0  0  0
 MicOpt= -1 -1 -1 -1 -1 -1 -1 -1 -1 -1 -1 -1 -1 -1 -1 -1 -1 -1 -1 -1
 MicOpt= -1 -1 -1
 NAtoms=     23 NQM=       23 NQMF=       0 NMMI=      0 NMMIF=      0
                NMic=       0 NMicF=      0.
                    Isotopes and Nuclear Properties:
 (Nuclear quadrupole moments (NQMom) in fm**2, nuclear magnetic moments (NMagM)
  in nuclear magnetons)

  Atom         1           2           3           4           5           6           7           8           9          10
 IAtWgt=          12          12          12          12          12          12          12           1           1           1
 AtmWgt=  12.0000000  12.0000000  12.0000000  12.0000000  12.0000000  12.0000000  12.0000000   1.0078250   1.0078250   1.0078250
 NucSpn=           0           0           0           0           0           0           0           1           1           1
 AtZEff=  -0.0000000  -0.0000000  -0.0000000  -0.0000000  -0.0000000  -0.0000000  -0.0000000  -0.0000000  -0.0000000  -0.0000000
 NQMom=    0.0000000   0.0000000   0.0000000   0.0000000   0.0000000   0.0000000   0.0000000   0.0000000   0.0000000   0.0000000
 NMagM=    0.0000000   0.0000000   0.0000000   0.0000000   0.0000000   0.0000000   0.0000000   2.7928460   2.7928460   2.7928460
 AtZNuc=   6.0000000   6.0000000   6.0000000   6.0000000   6.0000000   6.0000000   6.0000000   1.0000000   1.0000000   1.0000000

  Atom        11          12          13          14          15          16          17          18          19          20
 IAtWgt=           1           1           1           1           1           1           1           1           1           1
 AtmWgt=   1.0078250   1.0078250   1.0078250   1.0078250   1.0078250   1.0078250   1.0078250   1.0078250   1.0078250   1.0078250
 NucSpn=           1           1           1           1           1           1           1           1           1           1
 AtZEff=  -0.0000000  -0.0000000  -0.0000000  -0.0000000  -0.0000000  -0.0000000  -0.0000000  -0.0000000  -0.0000000  -0.0000000
 NQMom=    0.0000000   0.0000000   0.0000000   0.0000000   0.0000000   0.0000000   0.0000000   0.0000000   0.0000000   0.0000000
 NMagM=    2.7928460   2.7928460   2.7928460   2.7928460   2.7928460   2.7928460   2.7928460   2.7928460   2.7928460   2.7928460
 AtZNuc=   1.0000000   1.0000000   1.0000000   1.0000000   1.0000000   1.0000000   1.0000000   1.0000000   1.0000000   1.0000000

  Atom        21          22          23
 IAtWgt=           1           1           1
 AtmWgt=   1.0078250   1.0078250   1.0078250
 NucSpn=           1           1           1
 AtZEff=  -0.0000000  -0.0000000  -0.0000000
 NQMom=    0.0000000   0.0000000   0.0000000
 NMagM=    2.7928460   2.7928460   2.7928460
 AtZNuc=   1.0000000   1.0000000   1.0000000
 Leave Link  101 at Sat Sep 28 18:58:24 2019, MaxMem=   671088640 cpu:               2.6 elap:               1.3
 (Enter /shared/centos7/gaussian/g16/l103.exe)

 GradGradGradGradGradGradGradGradGradGradGradGradGradGradGradGradGradGrad
 Berny optimization.
 Initialization pass.
                           ----------------------------
                           !    Initial Parameters    !
                           ! (Angstroms and Degrees)  !
 --------------------------                            --------------------------
 ! Name  Definition              Value          Derivative Info.                !
 --------------------------------------------------------------------------------
 ! R1    R(1,2)                  1.4906         calculate D2E/DX2 analytically  !
 ! R2    R(1,4)                  1.4917         calculate D2E/DX2 analytically  !
 ! R3    R(1,10)                 1.1107         calculate D2E/DX2 analytically  !
 ! R4    R(1,11)                 1.1093         calculate D2E/DX2 analytically  !
 ! R5    R(2,3)                  1.5083         calculate D2E/DX2 analytically  !
 ! R6    R(2,12)                 1.1012         calculate D2E/DX2 analytically  !
 ! R7    R(2,13)                 1.1105         calculate D2E/DX2 analytically  !
 ! R8    R(3,5)                  1.5105         calculate D2E/DX2 analytically  !
 ! R9    R(3,14)                 1.1032         calculate D2E/DX2 analytically  !
 ! R10   R(3,15)                 1.1096         calculate D2E/DX2 analytically  !
 ! R11   R(4,6)                  1.473          calculate D2E/DX2 analytically  !
 ! R12   R(4,8)                  1.1266         calculate D2E/DX2 analytically  !
 ! R13   R(4,9)                  1.1161         calculate D2E/DX2 analytically  !
 ! R14   R(5,7)                  1.5066         calculate D2E/DX2 analytically  !
 ! R15   R(5,16)                 1.1214         calculate D2E/DX2 analytically  !
 ! R16   R(5,17)                 1.1033         calculate D2E/DX2 analytically  !
 ! R17   R(6,18)                 1.1063         calculate D2E/DX2 analytically  !
 ! R18   R(6,19)                 1.1303         calculate D2E/DX2 analytically  !
 ! R19   R(6,20)                 1.1106         calculate D2E/DX2 analytically  !
 ! R20   R(7,21)                 1.0907         calculate D2E/DX2 analytically  !
 ! R21   R(7,22)                 1.1251         calculate D2E/DX2 analytically  !
 ! R22   R(7,23)                 1.1278         calculate D2E/DX2 analytically  !
 ! A1    A(2,1,4)              114.4128         calculate D2E/DX2 analytically  !
 ! A2    A(2,1,10)             109.2753         calculate D2E/DX2 analytically  !
 ! A3    A(2,1,11)             108.2819         calculate D2E/DX2 analytically  !
 ! A4    A(4,1,10)             109.6723         calculate D2E/DX2 analytically  !
 ! A5    A(4,1,11)             109.4435         calculate D2E/DX2 analytically  !
 ! A6    A(10,1,11)            105.3559         calculate D2E/DX2 analytically  !
 ! A7    A(1,2,3)              114.6485         calculate D2E/DX2 analytically  !
 ! A8    A(1,2,12)             108.7506         calculate D2E/DX2 analytically  !
 ! A9    A(1,2,13)             108.62           calculate D2E/DX2 analytically  !
 ! A10   A(3,2,12)             108.9286         calculate D2E/DX2 analytically  !
 ! A11   A(3,2,13)             110.0613         calculate D2E/DX2 analytically  !
 ! A12   A(12,2,13)            105.4217         calculate D2E/DX2 analytically  !
 ! A13   A(2,3,5)              114.1998         calculate D2E/DX2 analytically  !
 ! A14   A(2,3,14)             110.2793         calculate D2E/DX2 analytically  !
 ! A15   A(2,3,15)             109.1161         calculate D2E/DX2 analytically  !
 ! A16   A(5,3,14)             108.773          calculate D2E/DX2 analytically  !
 ! A17   A(5,3,15)             108.2755         calculate D2E/DX2 analytically  !
 ! A18   A(14,3,15)            105.8463         calculate D2E/DX2 analytically  !
 ! A19   A(1,4,6)              114.3498         calculate D2E/DX2 analytically  !
 ! A20   A(1,4,8)              109.4943         calculate D2E/DX2 analytically  !
 ! A21   A(1,4,9)              109.2424         calculate D2E/DX2 analytically  !
 ! A22   A(6,4,8)              109.3635         calculate D2E/DX2 analytically  !
 ! A23   A(6,4,9)              109.4666         calculate D2E/DX2 analytically  !
 ! A24   A(8,4,9)              104.4583         calculate D2E/DX2 analytically  !
 ! A25   A(3,5,7)              113.4812         calculate D2E/DX2 analytically  !
 ! A26   A(3,5,16)             108.4227         calculate D2E/DX2 analytically  !
 ! A27   A(3,5,17)             109.8025         calculate D2E/DX2 analytically  !
 ! A28   A(7,5,16)             109.4571         calculate D2E/DX2 analytically  !
 ! A29   A(7,5,17)             109.2273         calculate D2E/DX2 analytically  !
 ! A30   A(16,5,17)            106.1901         calculate D2E/DX2 analytically  !
 ! A31   A(4,6,18)             111.7958         calculate D2E/DX2 analytically  !
 ! A32   A(4,6,19)             111.8535         calculate D2E/DX2 analytically  !
 ! A33   A(4,6,20)             111.8229         calculate D2E/DX2 analytically  !
 ! A34   A(18,6,19)            107.0583         calculate D2E/DX2 analytically  !
 ! A35   A(18,6,20)            107.1919         calculate D2E/DX2 analytically  !
 ! A36   A(19,6,20)            106.8078         calculate D2E/DX2 analytically  !
 ! A37   A(5,7,21)             111.2764         calculate D2E/DX2 analytically  !
 ! A38   A(5,7,22)             110.7451         calculate D2E/DX2 analytically  !
 ! A39   A(5,7,23)             110.6919         calculate D2E/DX2 analytically  !
 ! A40   A(21,7,22)            107.9617         calculate D2E/DX2 analytically  !
 ! A41   A(21,7,23)            108.2285         calculate D2E/DX2 analytically  !
 ! A42   A(22,7,23)            107.8097         calculate D2E/DX2 analytically  !
 ! D1    D(4,1,2,3)             57.2781         calculate D2E/DX2 analytically  !
 ! D2    D(4,1,2,12)           -64.9088         calculate D2E/DX2 analytically  !
 ! D3    D(4,1,2,13)          -179.1583         calculate D2E/DX2 analytically  !
 ! D4    D(10,1,2,3)           -66.1149         calculate D2E/DX2 analytically  !
 ! D5    D(10,1,2,12)          171.6982         calculate D2E/DX2 analytically  !
 ! D6    D(10,1,2,13)           57.4487         calculate D2E/DX2 analytically  !
 ! D7    D(11,1,2,3)           179.6182         calculate D2E/DX2 analytically  !
 ! D8    D(11,1,2,12)           57.4314         calculate D2E/DX2 analytically  !
 ! D9    D(11,1,2,13)          -56.8182         calculate D2E/DX2 analytically  !
 ! D10   D(2,1,4,6)            121.3252         calculate D2E/DX2 analytically  !
 ! D11   D(2,1,4,8)             -1.7867         calculate D2E/DX2 analytically  !
 ! D12   D(2,1,4,9)           -115.6216         calculate D2E/DX2 analytically  !
 ! D13   D(10,1,4,6)          -115.4957         calculate D2E/DX2 analytically  !
 ! D14   D(10,1,4,8)           121.3924         calculate D2E/DX2 analytically  !
 ! D15   D(10,1,4,9)             7.5575         calculate D2E/DX2 analytically  !
 ! D16   D(11,1,4,6)            -0.3804         calculate D2E/DX2 analytically  !
 ! D17   D(11,1,4,8)          -123.4923         calculate D2E/DX2 analytically  !
 ! D18   D(11,1,4,9)           122.6728         calculate D2E/DX2 analytically  !
 ! D19   D(1,2,3,5)            119.0943         calculate D2E/DX2 analytically  !
 ! D20   D(1,2,3,14)            -3.7392         calculate D2E/DX2 analytically  !
 ! D21   D(1,2,3,15)          -119.5983         calculate D2E/DX2 analytically  !
 ! D22   D(12,2,3,5)          -118.8155         calculate D2E/DX2 analytically  !
 ! D23   D(12,2,3,14)          118.351          calculate D2E/DX2 analytically  !
 ! D24   D(12,2,3,15)            2.4919         calculate D2E/DX2 analytically  !
 ! D25   D(13,2,3,5)            -3.6955         calculate D2E/DX2 analytically  !
 ! D26   D(13,2,3,14)         -126.529          calculate D2E/DX2 analytically  !
 ! D27   D(13,2,3,15)          117.6119         calculate D2E/DX2 analytically  !
 ! D28   D(2,3,5,7)             58.0683         calculate D2E/DX2 analytically  !
 ! D29   D(2,3,5,16)           179.9048         calculate D2E/DX2 analytically  !
 ! D30   D(2,3,5,17)           -64.4819         calculate D2E/DX2 analytically  !
 ! D31   D(14,3,5,7)          -178.2831         calculate D2E/DX2 analytically  !
 ! D32   D(14,3,5,16)          -56.4466         calculate D2E/DX2 analytically  !
 ! D33   D(14,3,5,17)           59.1667         calculate D2E/DX2 analytically  !
 ! D34   D(15,3,5,7)           -63.7026         calculate D2E/DX2 analytically  !
 ! D35   D(15,3,5,16)           58.1339         calculate D2E/DX2 analytically  !
 ! D36   D(15,3,5,17)          173.7472         calculate D2E/DX2 analytically  !
 ! D37   D(1,4,6,18)            -2.9659         calculate D2E/DX2 analytically  !
 ! D38   D(1,4,6,19)           117.0847         calculate D2E/DX2 analytically  !
 ! D39   D(1,4,6,20)          -123.1666         calculate D2E/DX2 analytically  !
 ! D40   D(8,4,6,18)           120.2166         calculate D2E/DX2 analytically  !
 ! D41   D(8,4,6,19)          -119.7328         calculate D2E/DX2 analytically  !
 ! D42   D(8,4,6,20)             0.0159         calculate D2E/DX2 analytically  !
 ! D43   D(9,4,6,18)          -125.8978         calculate D2E/DX2 analytically  !
 ! D44   D(9,4,6,19)            -5.8471         calculate D2E/DX2 analytically  !
 ! D45   D(9,4,6,20)           113.9015         calculate D2E/DX2 analytically  !
 ! D46   D(3,5,7,21)            39.2065         calculate D2E/DX2 analytically  !
 ! D47   D(3,5,7,22)           -80.8846         calculate D2E/DX2 analytically  !
 ! D48   D(3,5,7,23)           159.5988         calculate D2E/DX2 analytically  !
 ! D49   D(16,5,7,21)          -82.0518         calculate D2E/DX2 analytically  !
 ! D50   D(16,5,7,22)          157.8571         calculate D2E/DX2 analytically  !
 ! D51   D(16,5,7,23)           38.3405         calculate D2E/DX2 analytically  !
 ! D52   D(17,5,7,21)          162.0741         calculate D2E/DX2 analytically  !
 ! D53   D(17,5,7,22)           41.983          calculate D2E/DX2 analytically  !
 ! D54   D(17,5,7,23)          -77.5336         calculate D2E/DX2 analytically  !
 --------------------------------------------------------------------------------
 Trust Radius=3.00D-01 FncErr=1.00D-07 GrdErr=1.00D-06 EigMax=2.50D+02 EigMin=1.00D-04
 Number of steps in this run=    138 maximum allowed number of steps=    138.
 GradGradGradGradGradGradGradGradGradGradGradGradGradGradGradGradGradGrad

 Leave Link  103 at Sat Sep 28 18:58:25 2019, MaxMem=   671088640 cpu:               1.4 elap:               0.7
 (Enter /shared/centos7/gaussian/g16/l202.exe)
                          Input orientation:                          
 ---------------------------------------------------------------------
 Center     Atomic      Atomic             Coordinates (Angstroms)
 Number     Number       Type             X           Y           Z
 ---------------------------------------------------------------------
      1          6           0        1.407106   -1.158470    0.513857
      2          6           0        0.160851   -0.456079    0.932734
      3          6           0       -0.852424   -0.262750   -0.167666
      4          6           0        2.139027   -0.499934   -0.606700
      5          6           0       -2.181236   -0.933493    0.089367
      6          6           0        3.523986   -0.115565   -0.284619
      7          6           0       -2.848459   -0.476455    1.360530
      8          1           0        1.567930    0.410191   -0.945308
      9          1           0        2.137606   -1.176136   -1.494678
     10          1           0        1.162150   -2.205597    0.236193
     11          1           0        2.075452   -1.237078    1.395775
     12          1           0        0.431144    0.528054    1.346388
     13          1           0       -0.295192   -1.015909    1.776459
     14          1           0       -0.449519   -0.629063   -1.127148
     15          1           0       -1.032318    0.822935   -0.309332
     16          1           0       -2.856556   -0.727568   -0.781872
     17          1           0       -2.047155   -2.028105    0.122670
     18          1           0        3.777164   -0.336864    0.769329
     19          1           0        4.273527   -0.664870   -0.928039
     20          1           0        3.698799    0.969676   -0.443316
     21          1           0       -2.718478    0.595757    1.512331
     22          1           0       -2.414328   -1.008223    2.251941
     23          1           0       -3.954046   -0.697228    1.331901
 ---------------------------------------------------------------------
                    Distance matrix (angstroms):
                    1          2          3          4          5
     1  C    0.000000
     2  C    1.490625   0.000000
     3  C    2.524335   1.508304   0.000000
     4  C    1.491652   2.506983   3.032785   0.000000
     5  C    3.620360   2.534672   1.510531   4.397403   0.000000
     6  C    2.491264   3.592851   4.380446   1.472952   5.775676
     7  C    4.392247   3.039633   2.522936   5.361489   1.506627
     8  H    2.148424   2.501468   2.629771   1.126559   4.114886
     9  H    2.137324   3.212222   3.396397   1.116134   4.606568
    10  H    1.110665   2.132740   2.827766   2.138702   3.580228
    11  H    1.109344   2.118977   3.459208   2.134790   4.462987
    12  H    2.118956   1.101220   2.136650   2.790731   3.246651
    13  H    2.124219   1.110520   2.158095   3.445446   2.531843
    14  H    2.533817   2.155363   1.103233   2.643504   2.138090
    15  H    3.248754   2.145288   1.109570   3.449035   2.136355
    16  H    4.476986   3.481138   2.147056   5.003834   1.121392
    17  H    3.583464   2.828914   2.151314   4.515684   1.103295
    18  H    2.521403   3.621966   4.724038   2.145586   6.026677
    19  H    3.246394   4.518869   5.197619   2.164844   6.539972
    20  H    3.270633   4.055042   4.723186   2.149264   6.203274
    21  H    4.592898   3.119748   2.653598   5.411672   2.156864
    22  H    4.200817   2.945626   2.974856   5.400299   2.176382
    23  H    5.442784   4.141239   3.472396   6.397081   2.177744
                    6          7          8          9         10
     6  C    0.000000
     7  C    6.591268   0.000000
     8  H    2.130513   5.060388   0.000000
     9  H    2.123936   5.788144   1.772786   0.000000
    10  H    3.196522   4.509883   2.898785   2.237682   0.000000
    11  H    2.485914   4.982438   2.907188   2.891763   1.765441
    12  H    3.555293   3.430019   2.560868   3.726651   3.039696
    13  H    4.432244   2.642570   3.593467   4.079769   2.431383
    14  H    4.094176   3.459298   2.276668   2.669753   2.634698
    15  H    4.652022   2.788409   2.708527   3.930617   3.779590
    16  H    6.429084   2.157084   4.571355   5.064678   4.401252
    17  H    5.904346   2.140561   4.489399   4.566606   3.216213
    18  H    1.106291   6.653411   2.894613   2.918605   3.258021
    19  H    1.130281   7.483029   2.911410   2.268178   3.661959
    20  H    1.110627   6.943467   2.259562   2.854329   4.120520
    21  H    6.534782   1.090678   4.944464   5.980239   4.953321
    22  H    6.518784   1.125104   5.300253   5.897919   4.276462
    23  H    7.672838   1.127778   6.074890   6.732542   5.445292
                   11         12         13         14         15
    11  H    0.000000
    12  H    2.412857   0.000000
    13  H    2.411180   1.759643   0.000000
    14  H    3.620815   2.869297   2.933325   0.000000
    15  H    4.099912   2.229369   2.876669   1.765440   0.000000
    16  H    5.415390   4.112790   3.631636   2.433669   2.440327
    17  H    4.386617   3.764757   2.613222   2.464102   3.056951
    18  H    2.024511   3.503846   4.249647   4.641859   5.063573
    19  H    3.249472   4.621687   5.320783   4.727376   5.545120
    20  H    3.299587   3.751752   4.982159   4.498014   4.735288
    21  H    5.133676   3.154717   2.922250   3.689879   2.492630
    22  H    4.576408   3.358106   2.171837   3.927146   3.438490
    23  H    6.053954   4.553176   3.699513   4.281738   3.679815
                   16         17         18         19         20
    16  H    0.000000
    17  H    1.778966   0.000000
    18  H    6.823864   6.099275   0.000000
    19  H    7.131857   6.550833   1.798617   0.000000
    20  H    6.779965   6.505614   1.784292   1.799169   0.000000
    21  H    2.652098   3.044090   6.604181   7.512171   6.719063
    22  H    3.078693   2.389303   6.401830   7.413337   6.967554
    23  H    2.381898   2.621012   7.760023   8.532370   8.030940
                   21         22         23
    21  H    0.000000
    22  H    1.792284   0.000000
    23  H    1.797497   1.820419   0.000000
 Stoichiometry    C7H16
 Framework group  C1[X(C7H16)]
 Deg. of freedom    63
 Full point group                 C1      NOp   1
 Largest Abelian subgroup         C1      NOp   1
 Largest concise Abelian subgroup C1      NOp   1
                         Standard orientation:                         
 ---------------------------------------------------------------------
 Center     Atomic      Atomic             Coordinates (Angstroms)
 Number     Number       Type             X           Y           Z
 ---------------------------------------------------------------------
      1          6           0        1.116049    0.523733    0.611819
      2          6           0       -0.157823    0.631234   -0.154769
      3          6           0       -0.934906   -0.656586   -0.267212
      4          6           0        2.073461   -0.487806    0.077798
      5          6           0       -2.314228   -0.603059    0.346226
      6          6           0        3.386291    0.060524   -0.303513
      7          6           0       -3.191930    0.470556   -0.242769
      8          1           0        1.614193   -1.008524   -0.809367
      9          1           0        2.213621   -1.296752    0.833917
     10          1           0        0.886412    0.296718    1.674508
     11          1           0        1.600906    1.521450    0.622695
     12          1           0        0.068291    1.001551   -1.166907
     13          1           0       -0.788033    1.416808    0.313166
     14          1           0       -0.372070   -1.484522    0.196320
     15          1           0       -1.040788   -0.924721   -1.338677
     16          1           0       -2.802836   -1.602823    0.207467
     17          1           0       -2.233052   -0.448888    1.435676
     18          1           0        3.425458    1.158757   -0.176122
     19          1           0        4.221737   -0.375642    0.320446
     20          1           0        3.631578   -0.155786   -1.364898
     21          1           0       -3.050152    0.550189   -1.321256
     22          1           0       -2.956855    1.472010    0.212962
     23          1           0       -4.279897    0.248603   -0.045417
 ---------------------------------------------------------------------
 Rotational constants (GHZ):           7.8871166           0.9540425           0.9218582
 Leave Link  202 at Sat Sep 28 18:58:27 2019, MaxMem=   671088640 cpu:               3.1 elap:               1.6
 (Enter /shared/centos7/gaussian/g16/l301.exe)
 Standard basis: CC-pVTZ (5D, 7F)
 Ernie: Thresh=  0.10000D-02 Tol=  0.10000D-05 Strict=F.
 Ernie:  21 primitive shells out of 310 were deleted.
 There are   485 symmetry adapted cartesian basis functions of A   symmetry.
 There are   434 symmetry adapted basis functions of A   symmetry.
   434 basis functions,   636 primitive gaussians,   485 cartesian basis functions
    29 alpha electrons       29 beta electrons
       nuclear repulsion energy       321.0903916840 Hartrees.
 IExCor= 4336 DFT=T Ex+Corr=M062X ExCW=0 ScaHFX=  0.540000
 ScaDFX=  1.000000  1.000000  1.000000  1.000000 ScalE2=  1.000000  1.000000
 IRadAn=      5 IRanWt=     -1 IRanGd=            0 ICorTp=0 IEmpDi=  4
 NAtoms=   23 NActive=   23 NUniq=   23 SFac= 1.00D+00 NAtFMM=   60 NAOKFM=F Big=F
 Integral buffers will be    131072 words long.
 Raffenetti 2 integral format.
 Two-electron integral symmetry is turned on.
 Leave Link  301 at Sat Sep 28 18:58:27 2019, MaxMem=   671088640 cpu:               1.4 elap:               0.7
 (Enter /shared/centos7/gaussian/g16/l302.exe)
 NPDir=0 NMtPBC=     1 NCelOv=     1 NCel=       1 NClECP=     1 NCelD=      1
         NCelK=      1 NCelE2=     1 NClLst=     1 CellRange=     0.0.
 One-electron integrals computed using PRISM.
 One-electron integral symmetry used in STVInt
 NBasis=   434 RedAO= T EigKep=  3.52D-04  NBF=   434
 NBsUse=   434 1.00D-06 EigRej= -1.00D+00 NBFU=   434
 Precomputing XC quadrature grid using
 IXCGrd= 4 IRadAn=           5 IRanWt=          -1 IRanGd=           0 AccXCQ= 0.00D+00.
 Generated NRdTot=       0 NPtTot=           0 NUsed=           0 NTot=          32
 NSgBfM=   485   485   485   485   485 MxSgAt=    23 MxSgA2=    23.
 Leave Link  302 at Sat Sep 28 18:59:34 2019, MaxMem=   671088640 cpu:             134.0 elap:              67.0
 (Enter /shared/centos7/gaussian/g16/l303.exe)
 DipDrv:  MaxL=1.
 Leave Link  303 at Sat Sep 28 18:59:40 2019, MaxMem=   671088640 cpu:              10.1 elap:               5.1
 (Enter /shared/centos7/gaussian/g16/l401.exe)
 ExpMin= 1.03D-01 ExpMax= 8.24D+03 ExpMxC= 2.81D+02 IAcc=3 IRadAn=         5 AccDes= 0.00D+00
 Harris functional with IExCor= 1009 and IRadAn=       5 diagonalized for initial guess.
 HarFok:  IExCor= 1009 AccDes= 0.00D+00 IRadAn=         5 IDoV= 1 UseB2=F ITyADJ=14
 ICtDFT=  3500011 ScaDFX=  1.000000  1.000000  1.000000  1.000000
 FoFCou: FMM=F IPFlag=           0 FMFlag=      100000 FMFlg1=           0
         NFxFlg=           0 DoJE=T BraDBF=F KetDBF=T FulRan=T
         wScrn=  0.000000 ICntrl=       500 IOpCl=  0 I1Cent=   200000004 NGrid=           0
         NMat0=    1 NMatS0=      1 NMatT0=    0 NMatD0=    1 NMtDS0=    0 NMtDT0=    0
 Petite list used in FoFCou.
 Harris En= -276.321346965656    
 JPrj=0 DoOrth=F DoCkMO=F.
 Leave Link  401 at Sat Sep 28 19:00:21 2019, MaxMem=   671088640 cpu:              82.5 elap:              41.3
 (Enter /shared/centos7/gaussian/g16/l502.exe)
 Integral symmetry usage will be decided dynamically.
 Closed shell SCF:
 Using DIIS extrapolation, IDIIS=  1040.
 NGot=   671088640 LenX=   670604095 LenY=   670368385
 Requested convergence on RMS density matrix=1.00D-08 within 900 cycles.
 Requested convergence on MAX density matrix=1.00D-06.
 Requested convergence on             energy=1.00D-06.
 No special actions if energy rises.
 Fock matrices will be formed incrementally for  20 cycles.
 Integral accuracy reduced to 1.0D-05 until final iterations.

 Cycle   1  Pass 0  IDiag  1:
 FoFJK:  IHMeth= 1 ICntrl=       0 DoSepK=F KAlg= 0 I1Cent=           0 FoldK=F
 IRaf= 910000000 NMat=       1 IRICut=       1 DoRegI=T DoRafI=F ISym2E= 0 IDoP0=0 IntGTp=1.
 FoFCou: FMM=F IPFlag=           0 FMFlag=      100000 FMFlg1=           0
         NFxFlg=           0 DoJE=F BraDBF=F KetDBF=F FulRan=T
         wScrn=  0.000000 ICntrl=         0 IOpCl=  0 I1Cent=           0 NGrid=           0
         NMat0=    1 NMatS0=      1 NMatT0=    0 NMatD0=    1 NMtDS0=    0 NMtDT0=    0
 Symmetry not used in FoFCou.
 E= -275.946539277159    
 DIIS: error= 3.08D-02 at cycle   1 NSaved=   1.
 NSaved= 1 IEnMin= 1 EnMin= -275.946539277159     IErMin= 1 ErrMin= 3.08D-02
 ErrMax= 3.08D-02  0.00D+00 EMaxC= 1.00D-01 BMatC= 3.77D-01 BMatP= 3.77D-01
 IDIUse=3 WtCom= 6.92D-01 WtEn= 3.08D-01
 Coeff-Com:  0.100D+01
 Coeff-En:   0.100D+01
 Coeff:      0.100D+01
 Gap=     0.358 Goal=   None    Shift=    0.000
 GapD=    0.358 DampG=1.000 DampE=0.500 DampFc=0.5000 IDamp=-1.
 Damping current iteration by 5.00D-01
 RMSDP=1.89D-03 MaxDP=7.04D-02              OVMax= 1.68D-01

 Cycle   2  Pass 0  IDiag  1:
 RMSU=  9.41D-04    CP:  9.90D-01
 E= -276.127925489583     Delta-E=       -0.181386212424 Rises=F Damp=T
 DIIS: error= 3.70D-03 at cycle   2 NSaved=   2.
 NSaved= 2 IEnMin= 2 EnMin= -276.127925489583     IErMin= 2 ErrMin= 3.70D-03
 ErrMax= 3.70D-03  0.00D+00 EMaxC= 1.00D-01 BMatC= 1.80D-02 BMatP= 3.77D-01
 IDIUse=3 WtCom= 9.63D-01 WtEn= 3.70D-02
 Coeff-Com: -0.546D-01 0.105D+01
 Coeff-En:   0.000D+00 0.100D+01
 Coeff:     -0.526D-01 0.105D+01
 Gap=     0.444 Goal=   None    Shift=    0.000
 RMSDP=5.12D-04 MaxDP=1.83D-02 DE=-1.81D-01 OVMax= 9.24D-02

 Cycle   3  Pass 0  IDiag  1:
 RMSU=  5.04D-04    CP:  9.98D-01  9.22D-01
 E= -276.308770105992     Delta-E=       -0.180844616409 Rises=F Damp=F
 DIIS: error= 2.39D-03 at cycle   3 NSaved=   3.
 NSaved= 3 IEnMin= 3 EnMin= -276.308770105992     IErMin= 3 ErrMin= 2.39D-03
 ErrMax= 2.39D-03  0.00D+00 EMaxC= 1.00D-01 BMatC= 1.97D-03 BMatP= 1.80D-02
 IDIUse=3 WtCom= 9.76D-01 WtEn= 2.39D-02
 Coeff-Com: -0.481D-01 0.206D+00 0.842D+00
 Coeff-En:   0.000D+00 0.000D+00 0.100D+01
 Coeff:     -0.470D-01 0.201D+00 0.846D+00
 Gap=     0.415 Goal=   None    Shift=    0.000
 RMSDP=7.84D-05 MaxDP=2.49D-03 DE=-1.81D-01 OVMax= 8.45D-03

 Cycle   4  Pass 0  IDiag  1:
 RMSU=  6.09D-05    CP:  9.97D-01  9.68D-01  9.57D-01
 E= -276.310514066279     Delta-E=       -0.001743960287 Rises=F Damp=F
 DIIS: error= 5.14D-04 at cycle   4 NSaved=   4.
 NSaved= 4 IEnMin= 4 EnMin= -276.310514066279     IErMin= 4 ErrMin= 5.14D-04
 ErrMax= 5.14D-04  0.00D+00 EMaxC= 1.00D-01 BMatC= 1.92D-04 BMatP= 1.97D-03
 IDIUse=3 WtCom= 9.95D-01 WtEn= 5.14D-03
 Coeff-Com: -0.123D-01 0.340D-01 0.278D+00 0.701D+00
 Coeff-En:   0.000D+00 0.000D+00 0.000D+00 0.100D+01
 Coeff:     -0.122D-01 0.339D-01 0.276D+00 0.702D+00
 Gap=     0.416 Goal=   None    Shift=    0.000
 RMSDP=2.71D-05 MaxDP=1.17D-03 DE=-1.74D-03 OVMax= 2.63D-03

 Cycle   5  Pass 0  IDiag  1:
 RMSU=  1.73D-05    CP:  9.97D-01  9.61D-01  9.86D-01  7.86D-01
 E= -276.310683833546     Delta-E=       -0.000169767266 Rises=F Damp=F
 DIIS: error= 1.38D-04 at cycle   5 NSaved=   5.
 NSaved= 5 IEnMin= 5 EnMin= -276.310683833546     IErMin= 5 ErrMin= 1.38D-04
 ErrMax= 1.38D-04  0.00D+00 EMaxC= 1.00D-01 BMatC= 1.82D-05 BMatP= 1.92D-04
 IDIUse=3 WtCom= 9.99D-01 WtEn= 1.38D-03
 Coeff-Com: -0.928D-03-0.752D-03 0.473D-01 0.270D+00 0.684D+00
 Coeff-En:   0.000D+00 0.000D+00 0.000D+00 0.000D+00 0.100D+01
 Coeff:     -0.927D-03-0.751D-03 0.473D-01 0.270D+00 0.685D+00
 Gap=     0.416 Goal=   None    Shift=    0.000
 RMSDP=6.42D-06 MaxDP=3.24D-04 DE=-1.70D-04 OVMax= 7.09D-04

 Initial convergence to 1.0D-05 achieved.  Increase integral accuracy.
 Cycle   6  Pass 1  IDiag  1:
 E= -276.310665789336     Delta-E=        0.000018044210 Rises=F Damp=F
 DIIS: error= 5.91D-05 at cycle   1 NSaved=   1.
 NSaved= 1 IEnMin= 1 EnMin= -276.310665789336     IErMin= 1 ErrMin= 5.91D-05
 ErrMax= 5.91D-05  0.00D+00 EMaxC= 1.00D-01 BMatC= 1.36D-06 BMatP= 1.36D-06
 IDIUse=1 WtCom= 1.00D+00 WtEn= 0.00D+00
 Coeff-Com:  0.100D+01
 Coeff:      0.100D+01
 Gap=     0.416 Goal=   None    Shift=    0.000
 RMSDP=6.42D-06 MaxDP=3.24D-04 DE= 1.80D-05 OVMax= 2.25D-04

 Cycle   7  Pass 1  IDiag  1:
 RMSU=  1.64D-05    CP:  1.00D+00
 E= -276.310666475629     Delta-E=       -0.000000686293 Rises=F Damp=F
 DIIS: error= 1.88D-05 at cycle   2 NSaved=   2.
 NSaved= 2 IEnMin= 2 EnMin= -276.310666475629     IErMin= 2 ErrMin= 1.88D-05
 ErrMax= 1.88D-05  0.00D+00 EMaxC= 1.00D-01 BMatC= 3.00D-07 BMatP= 1.36D-06
 IDIUse=1 WtCom= 1.00D+00 WtEn= 0.00D+00
 Coeff-Com:  0.260D+00 0.740D+00
 Coeff:      0.260D+00 0.740D+00
 Gap=     0.416 Goal=   None    Shift=    0.000
 RMSDP=1.17D-06 MaxDP=4.04D-05 DE=-6.86D-07 OVMax= 1.16D-04

 Cycle   8  Pass 1  IDiag  1:
 RMSU=  1.10D-06    CP:  1.00D+00  1.02D+00
 E= -276.310666700843     Delta-E=       -0.000000225214 Rises=F Damp=F
 DIIS: error= 9.97D-06 at cycle   3 NSaved=   3.
 NSaved= 3 IEnMin= 3 EnMin= -276.310666700843     IErMin= 3 ErrMin= 9.97D-06
 ErrMax= 9.97D-06  0.00D+00 EMaxC= 1.00D-01 BMatC= 6.99D-08 BMatP= 3.00D-07
 IDIUse=1 WtCom= 1.00D+00 WtEn= 0.00D+00
 Coeff-Com: -0.943D-02 0.317D+00 0.692D+00
 Coeff:     -0.943D-02 0.317D+00 0.692D+00
 Gap=     0.416 Goal=   None    Shift=    0.000
 RMSDP=4.56D-07 MaxDP=1.52D-05 DE=-2.25D-07 OVMax= 4.50D-05

 Cycle   9  Pass 1  IDiag  1:
 RMSU=  2.85D-07    CP:  1.00D+00  1.04D+00  7.42D-01
 E= -276.310666767774     Delta-E=       -0.000000066932 Rises=F Damp=F
 DIIS: error= 1.42D-06 at cycle   4 NSaved=   4.
 NSaved= 4 IEnMin= 4 EnMin= -276.310666767774     IErMin= 4 ErrMin= 1.42D-06
 ErrMax= 1.42D-06  0.00D+00 EMaxC= 1.00D-01 BMatC= 9.84D-10 BMatP= 6.99D-08
 IDIUse=1 WtCom= 1.00D+00 WtEn= 0.00D+00
 Coeff-Com: -0.100D-01 0.685D-01 0.193D+00 0.749D+00
 Coeff:     -0.100D-01 0.685D-01 0.193D+00 0.749D+00
 Gap=     0.416 Goal=   None    Shift=    0.000
 RMSDP=7.15D-08 MaxDP=1.96D-06 DE=-6.69D-08 OVMax= 6.38D-06

 Cycle  10  Pass 1  IDiag  1:
 RMSU=  6.83D-08    CP:  1.00D+00  1.04D+00  7.49D-01  9.97D-01
 E= -276.310666768821     Delta-E=       -0.000000001047 Rises=F Damp=F
 DIIS: error= 2.75D-07 at cycle   5 NSaved=   5.
 NSaved= 5 IEnMin= 5 EnMin= -276.310666768821     IErMin= 5 ErrMin= 2.75D-07
 ErrMax= 2.75D-07  0.00D+00 EMaxC= 1.00D-01 BMatC= 4.98D-11 BMatP= 9.84D-10
 IDIUse=1 WtCom= 1.00D+00 WtEn= 0.00D+00
 Coeff-Com: -0.213D-03-0.217D-01-0.433D-01 0.748D-01 0.990D+00
 Coeff:     -0.213D-03-0.217D-01-0.433D-01 0.748D-01 0.990D+00
 Gap=     0.416 Goal=   None    Shift=    0.000
 RMSDP=3.04D-08 MaxDP=8.20D-07 DE=-1.05D-09 OVMax= 2.25D-06

 Cycle  11  Pass 1  IDiag  1:
 RMSU=  1.46D-08    CP:  1.00D+00  1.04D+00  7.52D-01  1.09D+00  1.05D+00
 E= -276.310666768875     Delta-E=       -0.000000000054 Rises=F Damp=F
 DIIS: error= 1.07D-07 at cycle   6 NSaved=   6.
 NSaved= 6 IEnMin= 6 EnMin= -276.310666768875     IErMin= 6 ErrMin= 1.07D-07
 ErrMax= 1.07D-07  0.00D+00 EMaxC= 1.00D-01 BMatC= 9.73D-12 BMatP= 4.98D-11
 IDIUse=1 WtCom= 1.00D+00 WtEn= 0.00D+00
 Coeff-Com:  0.380D-03-0.125D-01-0.276D-01-0.410D-02 0.426D+00 0.618D+00
 Coeff:      0.380D-03-0.125D-01-0.276D-01-0.410D-02 0.426D+00 0.618D+00
 Gap=     0.416 Goal=   None    Shift=    0.000
 RMSDP=4.94D-09 MaxDP=2.46D-07 DE=-5.39D-11 OVMax= 5.14D-07

 SCF Done:  E(RM062X) =  -276.310666769     A.U. after   11 cycles
            NFock= 11  Conv=0.49D-08     -V/T= 2.0066
 KE= 2.745049560731D+02 PE=-1.280628732984D+03 EE= 4.087227184580D+02
 Leave Link  502 at Sat Sep 28 19:15:02 2019, MaxMem=   671088640 cpu:            1762.9 elap:             881.6
 (Enter /shared/centos7/gaussian/g16/l801.exe)
 DoSCS=F DFT=T ScalE2(SS,OS)=  1.000000  1.000000
 Range of M.O.s used for correlation:     1   434
 NBasis=   434 NAE=    29 NBE=    29 NFC=     0 NFV=     0
 NROrb=    434 NOA=    29 NOB=    29 NVA=   405 NVB=   405

 **** Warning!!: The largest alpha MO coefficient is  0.11831888D+02

 Leave Link  801 at Sat Sep 28 19:15:03 2019, MaxMem=   671088640 cpu:               1.7 elap:               0.8
 (Enter /shared/centos7/gaussian/g16/l1101.exe)
 Using compressed storage, NAtomX=    23.
 Will process     24 centers per pass.
 Leave Link 1101 at Sat Sep 28 19:15:41 2019, MaxMem=   671088640 cpu:              75.5 elap:              37.8
 (Enter /shared/centos7/gaussian/g16/l1102.exe)
 Symmetrizing basis deriv contribution to polar:
 IMax=3 JMax=2 DiffMx= 0.00D+00
 Leave Link 1102 at Sat Sep 28 19:15:45 2019, MaxMem=   671088640 cpu:               7.2 elap:               3.6
 (Enter /shared/centos7/gaussian/g16/l1110.exe)
 Forming Gx(P) for the SCF density, NAtomX=    23.
 Integral derivatives from FoFJK, PRISM(SPDF).
 Do as many integral derivatives as possible in FoFJK.
 G2DrvN: MDV=     671086848.
 G2DrvN: will do    24 centers at a time, making    1 passes.
 Calling FoFCou, ICntrl=  3107 FMM=F I1Cent=   0 AccDes= 0.00D+00.
 FoFJK:  IHMeth= 1 ICntrl=    3107 DoSepK=F KAlg= 0 I1Cent=           0 FoldK=F
 IRaf=         0 NMat=       1 IRICut=       1 DoRegI=T DoRafI=F ISym2E= 0 IDoP0=0 IntGTp=1.
 FoFCou: FMM=F IPFlag=           0 FMFlag=      100000 FMFlg1=           0
         NFxFlg=           0 DoJE=F BraDBF=F KetDBF=F FulRan=T
         wScrn=  0.000000 ICntrl=      3107 IOpCl=  0 I1Cent=           0 NGrid=           0
         NMat0=    1 NMatS0=      1 NMatT0=    0 NMatD0=    1 NMtDS0=    0 NMtDT0=    0
 Symmetry not used in FoFCou.
 End of G2Drv F.D. properties file   721 does not exist.
 End of G2Drv F.D. properties file   722 does not exist.
 End of G2Drv F.D. properties file   788 does not exist.
 Leave Link 1110 at Sat Sep 28 19:52:54 2019, MaxMem=   671088640 cpu:            4458.5 elap:            2229.5
 (Enter /shared/centos7/gaussian/g16/l1002.exe)
 Minotr:  Closed shell wavefunction.
          IDoAtm=11111111111111111111111
          Direct CPHF calculation.
          Differentiating once with respect to nuclear coordinates.
          Requested convergence is 1.0D-08 RMS, and 1.0D-07 maximum.
          Secondary convergence is 1.0D-12 RMS, and 1.0D-12 maximum.
          NewPWx=T KeepS1=F KeepF1=F KeepIn=T MapXYZ=F SortEE=F KeepMc=T.
         6939 words used for storage of precomputed grid.
 Two-electron integrals replicated using symmetry.
          MDV=     671088640 using IRadAn=       1.
          Solving linear equations simultaneously, MaxMat=     380.
 FoF2E skips out because all densities are zero.
 CalDSu exits because no D1Ps are significant.
 FoFJK:  IHMeth= 1 ICntrl=       0 DoSepK=F KAlg= 0 I1Cent=           0 FoldK=F
 IRaf= 890000000 NMat=      69 IRICut=     172 DoRegI=T DoRafI=T ISym2E= 2 IDoP0=3 IntGTp=3.
 FoFCou: FMM=F IPFlag=           0 FMFlag=      100000 FMFlg1=           0
         NFxFlg=           0 DoJE=F BraDBF=F KetDBF=F FulRan=T
         wScrn=  0.000000 ICntrl=         0 IOpCl=  0 I1Cent=           0 NGrid=           0
         NMat0=   69 NMatS0=     69 NMatT0=    0 NMatD0=   69 NMtDS0=    0 NMtDT0=    0
 Integrals replicated using symmetry in FoFCou.
 Raff kept on since  85.56% of shell-pairs survive, threshold=   0.20 IRatSp=86.
          There are    72 degrees of freedom in the 1st order CPHF.  IDoFFX=6 NUNeed=     0.
     66 vectors produced by pass  0 Test12= 1.63D-14 1.39D-09 XBig12= 5.50D-02 5.21D-02.
 AX will form    66 AO Fock derivatives at one time.
     66 vectors produced by pass  1 Test12= 1.63D-14 1.39D-09 XBig12= 3.42D-03 7.33D-03.
     66 vectors produced by pass  2 Test12= 1.63D-14 1.39D-09 XBig12= 5.45D-05 1.18D-03.
     66 vectors produced by pass  3 Test12= 1.63D-14 1.39D-09 XBig12= 4.18D-07 7.44D-05.
     66 vectors produced by pass  4 Test12= 1.63D-14 1.39D-09 XBig12= 2.08D-09 4.06D-06.
     66 vectors produced by pass  5 Test12= 1.63D-14 1.39D-09 XBig12= 8.11D-12 2.47D-07.
     21 vectors produced by pass  6 Test12= 1.63D-14 1.39D-09 XBig12= 3.00D-14 1.60D-08.
 InvSVY:  IOpt=1 It=  1 EMax= 2.50D-16
 Solved reduced A of dimension   417 with    72 vectors.
 End of Minotr F.D. properties file   721 does not exist.
 End of Minotr F.D. properties file   722 does not exist.
 End of Minotr F.D. properties file   788 does not exist.
 Leave Link 1002 at Sat Sep 28 21:10:34 2019, MaxMem=   671088640 cpu:            9317.9 elap:            4659.7
 (Enter /shared/centos7/gaussian/g16/l601.exe)
 Copying SCF densities to generalized density rwf, IOpCl= 0 IROHF=0.

 **********************************************************************

            Population analysis using the SCF density.

 **********************************************************************

 Orbital symmetries:
       Occupied  (A) (A) (A) (A) (A) (A) (A) (A) (A) (A) (A) (A)
                 (A) (A) (A) (A) (A) (A) (A) (A) (A) (A) (A) (A)
                 (A) (A) (A) (A) (A)
       Virtual   (A) (A) (A) (A) (A) (A) (A) (A) (A) (A) (A) (A)
                 (A) (A) (A) (A) (A) (A) (A) (A) (A) (A) (A) (A)
                 (A) (A) (A) (A) (A) (A) (A) (A) (A) (A) (A) (A)
                 (A) (A) (A) (A) (A) (A) (A) (A) (A) (A) (A) (A)
                 (A) (A) (A) (A) (A) (A) (A) (A) (A) (A) (A) (A)
                 (A) (A) (A) (A) (A) (A) (A) (A) (A) (A) (A) (A)
                 (A) (A) (A) (A) (A) (A) (A) (A) (A) (A) (A) (A)
                 (A) (A) (A) (A) (A) (A) (A) (A) (A) (A) (A) (A)
                 (A) (A) (A) (A) (A) (A) (A) (A) (A) (A) (A) (A)
                 (A) (A) (A) (A) (A) (A) (A) (A) (A) (A) (A) (A)
                 (A) (A) (A) (A) (A) (A) (A) (A) (A) (A) (A) (A)
                 (A) (A) (A) (A) (A) (A) (A) (A) (A) (A) (A) (A)
                 (A) (A) (A) (A) (A) (A) (A) (A) (A) (A) (A) (A)
                 (A) (A) (A) (A) (A) (A) (A) (A) (A) (A) (A) (A)
                 (A) (A) (A) (A) (A) (A) (A) (A) (A) (A) (A) (A)
                 (A) (A) (A) (A) (A) (A) (A) (A) (A) (A) (A) (A)
                 (A) (A) (A) (A) (A) (A) (A) (A) (A) (A) (A) (A)
                 (A) (A) (A) (A) (A) (A) (A) (A) (A) (A) (A) (A)
                 (A) (A) (A) (A) (A) (A) (A) (A) (A) (A) (A) (A)
                 (A) (A) (A) (A) (A) (A) (A) (A) (A) (A) (A) (A)
                 (A) (A) (A) (A) (A) (A) (A) (A) (A) (A) (A) (A)
                 (A) (A) (A) (A) (A) (A) (A) (A) (A) (A) (A) (A)
                 (A) (A) (A) (A) (A) (A) (A) (A) (A) (A) (A) (A)
                 (A) (A) (A) (A) (A) (A) (A) (A) (A) (A) (A) (A)
                 (A) (A) (A) (A) (A) (A) (A) (A) (A) (A) (A) (A)
                 (A) (A) (A) (A) (A) (A) (A) (A) (A) (A) (A) (A)
                 (A) (A) (A) (A) (A) (A) (A) (A) (A) (A) (A) (A)
                 (A) (A) (A) (A) (A) (A) (A) (A) (A) (A) (A) (A)
                 (A) (A) (A) (A) (A) (A) (A) (A) (A) (A) (A) (A)
                 (A) (A) (A) (A) (A) (A) (A) (A) (A) (A) (A) (A)
                 (A) (A) (A) (A) (A) (A) (A) (A) (A) (A) (A) (A)
                 (A) (A) (A) (A) (A) (A) (A) (A) (A) (A) (A) (A)
                 (A) (A) (A) (A) (A) (A) (A) (A) (A) (A) (A) (A)
                 (A) (A) (A) (A) (A) (A) (A) (A) (A)
 The electronic state is 1-A.
 Alpha  occ. eigenvalues --  -10.52839 -10.52543 -10.52403 -10.52360 -10.52208
 Alpha  occ. eigenvalues --  -10.52202 -10.52159  -0.92245  -0.88330  -0.82607
 Alpha  occ. eigenvalues --   -0.76162  -0.70708  -0.66527  -0.61932  -0.55052
 Alpha  occ. eigenvalues --   -0.53551  -0.51217  -0.49551  -0.47847  -0.46256
 Alpha  occ. eigenvalues --   -0.44864  -0.43124  -0.41769  -0.39971  -0.39428
 Alpha  occ. eigenvalues --   -0.38037  -0.36195  -0.36075  -0.35374
 Alpha virt. eigenvalues --    0.06215   0.08032   0.08416   0.08588   0.10870
 Alpha virt. eigenvalues --    0.11349   0.11405   0.13434   0.13972   0.14629
 Alpha virt. eigenvalues --    0.15212   0.16980   0.18377   0.18613   0.20259
 Alpha virt. eigenvalues --    0.20955   0.22649   0.23553   0.24142   0.26179
 Alpha virt. eigenvalues --    0.27106   0.27956   0.28868   0.29742   0.30324
 Alpha virt. eigenvalues --    0.31308   0.33809   0.34386   0.36325   0.37540
 Alpha virt. eigenvalues --    0.38510   0.39125   0.39918   0.42278   0.44483
 Alpha virt. eigenvalues --    0.44660   0.45521   0.46480   0.47488   0.47936
 Alpha virt. eigenvalues --    0.48609   0.49296   0.49868   0.50243   0.50900
 Alpha virt. eigenvalues --    0.51929   0.52653   0.53237   0.53331   0.53425
 Alpha virt. eigenvalues --    0.53836   0.54822   0.55638   0.56151   0.56967
 Alpha virt. eigenvalues --    0.57780   0.58363   0.59419   0.60942   0.61186
 Alpha virt. eigenvalues --    0.65311   0.66857   0.70155   0.72314   0.76080
 Alpha virt. eigenvalues --    0.78469   0.79319   0.82459   0.84048   0.85462
 Alpha virt. eigenvalues --    0.86487   0.88428   0.89312   0.90798   0.92385
 Alpha virt. eigenvalues --    0.93446   0.94470   0.96002   0.96409   0.97280
 Alpha virt. eigenvalues --    0.99028   1.01705   1.02511   1.03543   1.04142
 Alpha virt. eigenvalues --    1.05815   1.06407   1.07631   1.09363   1.09809
 Alpha virt. eigenvalues --    1.10495   1.11264   1.12495   1.13134   1.14374
 Alpha virt. eigenvalues --    1.15764   1.17116   1.18294   1.18926   1.19354
 Alpha virt. eigenvalues --    1.20426   1.21838   1.22123   1.23249   1.23537
 Alpha virt. eigenvalues --    1.23870   1.24973   1.26488   1.27603   1.28512
 Alpha virt. eigenvalues --    1.29303   1.30597   1.32043   1.32599   1.33692
 Alpha virt. eigenvalues --    1.34271   1.35311   1.35521   1.36463   1.37591
 Alpha virt. eigenvalues --    1.40263   1.41627   1.41951   1.42850   1.44412
 Alpha virt. eigenvalues --    1.45249   1.46664   1.47563   1.48296   1.49632
 Alpha virt. eigenvalues --    1.51541   1.52358   1.53349   1.53913   1.55266
 Alpha virt. eigenvalues --    1.56146   1.57558   1.58252   1.59153   1.60877
 Alpha virt. eigenvalues --    1.64191   1.66109   1.67457   1.68294   1.70709
 Alpha virt. eigenvalues --    1.73166   1.73914   1.78147   1.85979   2.18881
 Alpha virt. eigenvalues --    2.24248   2.26642   2.28849   2.30641   2.33747
 Alpha virt. eigenvalues --    2.37051   2.39892   2.41443   2.42926   2.43238
 Alpha virt. eigenvalues --    2.46553   2.48237   2.50899   2.51728   2.52599
 Alpha virt. eigenvalues --    2.53393   2.54542   2.57066   2.57548   2.59422
 Alpha virt. eigenvalues --    2.60719   2.61772   2.63264   2.64431   2.66236
 Alpha virt. eigenvalues --    2.67094   2.67774   2.70634   2.71756   2.73236
 Alpha virt. eigenvalues --    2.74082   2.75767   2.76238   2.77166   2.77532
 Alpha virt. eigenvalues --    2.80715   2.81772   2.83500   2.84102   2.85536
 Alpha virt. eigenvalues --    2.87599   2.88320   2.90541   2.92211   2.92699
 Alpha virt. eigenvalues --    2.93452   2.94532   2.95944   2.96854   2.98370
 Alpha virt. eigenvalues --    2.99522   3.00151   3.00398   3.03069   3.03984
 Alpha virt. eigenvalues --    3.04887   3.05873   3.06907   3.07449   3.07973
 Alpha virt. eigenvalues --    3.08711   3.09038   3.10247   3.10847   3.12226
 Alpha virt. eigenvalues --    3.13227   3.14699   3.15173   3.16214   3.16981
 Alpha virt. eigenvalues --    3.17730   3.18972   3.20033   3.22287   3.23224
 Alpha virt. eigenvalues --    3.24777   3.24922   3.27045   3.28655   3.29407
 Alpha virt. eigenvalues --    3.30455   3.31640   3.32901   3.34078   3.34449
 Alpha virt. eigenvalues --    3.36141   3.37075   3.39441   3.40867   3.42179
 Alpha virt. eigenvalues --    3.42830   3.43660   3.44452   3.45903   3.46636
 Alpha virt. eigenvalues --    3.48622   3.50405   3.51098   3.52126   3.53590
 Alpha virt. eigenvalues --    3.55374   3.56655   3.57093   3.58330   3.58784
 Alpha virt. eigenvalues --    3.59619   3.61754   3.63108   3.64477   3.65840
 Alpha virt. eigenvalues --    3.66894   3.67911   3.69409   3.71240   3.72381
 Alpha virt. eigenvalues --    3.73649   3.75532   3.76136   3.76279   3.78408
 Alpha virt. eigenvalues --    3.79454   3.80619   3.81025   3.82090   3.83275
 Alpha virt. eigenvalues --    3.85252   3.85629   3.88412   3.89226   3.90722
 Alpha virt. eigenvalues --    3.91449   3.92133   3.93253   3.95155   3.96682
 Alpha virt. eigenvalues --    3.97509   3.99627   3.99942   4.00614   4.01628
 Alpha virt. eigenvalues --    4.02259   4.03692   4.04824   4.05200   4.06159
 Alpha virt. eigenvalues --    4.07050   4.07554   4.08930   4.10795   4.11442
 Alpha virt. eigenvalues --    4.12214   4.13925   4.14019   4.16196   4.17331
 Alpha virt. eigenvalues --    4.17762   4.18628   4.20459   4.21765   4.23495
 Alpha virt. eigenvalues --    4.24222   4.25224   4.26508   4.27246   4.29034
 Alpha virt. eigenvalues --    4.30372   4.32201   4.33967   4.34837   4.35592
 Alpha virt. eigenvalues --    4.37097   4.40461   4.42224   4.43126   4.44978
 Alpha virt. eigenvalues --    4.47591   4.50167   4.52391   4.54869   4.56509
 Alpha virt. eigenvalues --    4.57202   4.59754   4.62160   4.63825   4.64529
 Alpha virt. eigenvalues --    4.67597   4.68483   4.70795   4.72924   4.74250
 Alpha virt. eigenvalues --    4.75645   4.76856   4.79672   4.81050   4.84343
 Alpha virt. eigenvalues --    4.85069   4.86296   4.86869   4.89284   4.92479
 Alpha virt. eigenvalues --    4.94954   4.95820   4.96725   4.98606   4.99596
 Alpha virt. eigenvalues --    5.02030   5.03748   5.04212   5.06661   5.07259
 Alpha virt. eigenvalues --    5.09337   5.12731   5.13699   5.15680   5.16795
 Alpha virt. eigenvalues --    5.20088   5.22003   5.23774   5.24353   5.26837
 Alpha virt. eigenvalues --    5.27130   5.27776   5.29022   5.31923   5.32949
 Alpha virt. eigenvalues --    5.36120   5.36601   5.38288   5.40169   5.40901
 Alpha virt. eigenvalues --    5.43914   5.45379   5.49772   5.51594   5.55728
 Alpha virt. eigenvalues --    5.56641   5.61653   5.69482   5.76269   5.76806
 Alpha virt. eigenvalues --    5.79139   5.81635   5.84127   5.90919   5.91023
 Alpha virt. eigenvalues --    5.92991   5.99876   6.03421  11.38015  11.99914
 Alpha virt. eigenvalues --   12.30555  12.97147  13.31336  13.54307  13.87697
          Condensed to atoms (all electrons):
               1          2          3          4          5          6
     1  C    5.096489   0.311202  -0.044353   0.292029   0.004235  -0.055885
     2  C    0.311202   5.129726   0.278610  -0.044548  -0.045473   0.004758
     3  C   -0.044353   0.278610   5.154372  -0.013596   0.315648   0.000510
     4  C    0.292029  -0.044548  -0.013596   5.116068   0.000719   0.287994
     5  C    0.004235  -0.045473   0.315648   0.000719   5.030279  -0.000002
     6  C   -0.055885   0.004758   0.000510   0.287994  -0.000002   4.958484
     7  C   -0.000401  -0.010207  -0.047531  -0.000036   0.302674   0.000002
     8  H   -0.064039  -0.000938  -0.001478   0.419355   0.000443  -0.042843
     9  H   -0.042489   0.005563  -0.001094   0.405999  -0.000013  -0.033319
    10  H    0.406961  -0.039799  -0.005569  -0.053583   0.001269   0.007744
    11  H    0.424477  -0.048493   0.009994  -0.048995  -0.000661  -0.019103
    12  H   -0.036260   0.409013  -0.050983  -0.006362   0.006068   0.001829
    13  H   -0.044746   0.419754  -0.055335   0.010067  -0.006211  -0.000593
    14  H   -0.005245  -0.054622   0.416873   0.000094  -0.041251   0.000464
    15  H    0.007433  -0.053368   0.407671  -0.000858  -0.029442  -0.000023
    16  H   -0.000618   0.009980  -0.048247   0.000008   0.417913  -0.000001
    17  H    0.000892  -0.004594  -0.040318  -0.000070   0.407254   0.000002
    18  H   -0.013237   0.000742  -0.000075  -0.057454   0.000008   0.412445
    19  H    0.004456  -0.000318  -0.000030  -0.045772   0.000001   0.407268
    20  H    0.007431  -0.000472   0.000063  -0.048632  -0.000007   0.409034
    21  H    0.000032  -0.003139   0.003007   0.000009  -0.055423   0.000000
    22  H    0.000167  -0.000965  -0.003943  -0.000023  -0.039771   0.000000
    23  H   -0.000002   0.000214   0.007765   0.000004  -0.038033  -0.000000
               7          8          9         10         11         12
     1  C   -0.000401  -0.064039  -0.042489   0.406961   0.424477  -0.036260
     2  C   -0.010207  -0.000938   0.005563  -0.039799  -0.048493   0.409013
     3  C   -0.047531  -0.001478  -0.001094  -0.005569   0.009994  -0.050983
     4  C   -0.000036   0.419355   0.405999  -0.053583  -0.048995  -0.006362
     5  C    0.302674   0.000443  -0.000013   0.001269  -0.000661   0.006068
     6  C    0.000002  -0.042843  -0.033319   0.007744  -0.019103   0.001829
     7  C    4.989894   0.000008  -0.000005   0.000051   0.000066   0.000657
     8  H    0.000008   0.614080  -0.044007   0.007610   0.004884   0.000533
     9  H   -0.000005  -0.044007   0.607888  -0.019167   0.006147  -0.000153
    10  H    0.000051   0.007610  -0.019167   0.599196  -0.033557   0.009175
    11  H    0.000066   0.004884   0.006147  -0.033557   0.592097  -0.008939
    12  H    0.000657   0.000533  -0.000153   0.009175  -0.008939   0.583044
    13  H   -0.001246   0.000475  -0.000553  -0.008310  -0.005649  -0.034281
    14  H    0.008840  -0.004305  -0.001061   0.000325   0.000207   0.006408
    15  H   -0.009706  -0.001260   0.000067  -0.000264  -0.000480  -0.018831
    16  H   -0.041403   0.000019  -0.000001  -0.000113   0.000032  -0.000493
    17  H   -0.045930   0.000005  -0.000003   0.000608  -0.000092  -0.000152
    18  H   -0.000001   0.005381   0.006087   0.001206   0.003507   0.000462
    19  H   -0.000000   0.007706  -0.020156   0.000025   0.000680  -0.000058
    20  H    0.000000  -0.019164   0.006414  -0.000715   0.001276  -0.000164
    21  H    0.404441   0.000002  -0.000000  -0.000014   0.000002  -0.000484
    22  H    0.403978  -0.000008   0.000002  -0.000038   0.000002  -0.000397
    23  H    0.402020   0.000003  -0.000000   0.000009  -0.000002   0.000037
              13         14         15         16         17         18
     1  C   -0.044746  -0.005245   0.007433  -0.000618   0.000892  -0.013237
     2  C    0.419754  -0.054622  -0.053368   0.009980  -0.004594   0.000742
     3  C   -0.055335   0.416873   0.407671  -0.048247  -0.040318  -0.000075
     4  C    0.010067   0.000094  -0.000858   0.000008  -0.000070  -0.057454
     5  C   -0.006211  -0.041251  -0.029442   0.417913   0.407254   0.000008
     6  C   -0.000593   0.000464  -0.000023  -0.000001   0.000002   0.412445
     7  C   -0.001246   0.008840  -0.009706  -0.041403  -0.045930  -0.000001
     8  H    0.000475  -0.004305  -0.001260   0.000019   0.000005   0.005381
     9  H   -0.000553  -0.001061   0.000067  -0.000001  -0.000003   0.006087
    10  H   -0.008310   0.000325  -0.000264  -0.000113   0.000608   0.001206
    11  H   -0.005649   0.000207  -0.000480   0.000032  -0.000092   0.003507
    12  H   -0.034281   0.006408  -0.018831  -0.000493  -0.000152   0.000462
    13  H    0.582535   0.005250   0.005980   0.000493   0.000036  -0.000208
    14  H    0.005250   0.574798  -0.035500  -0.005828  -0.006582  -0.000058
    15  H    0.005980  -0.035500   0.585296  -0.007489   0.008346  -0.000006
    16  H    0.000493  -0.005828  -0.007489   0.600590  -0.034041  -0.000000
    17  H    0.000036  -0.006582   0.008346  -0.034041   0.590626   0.000000
    18  H   -0.000208  -0.000058  -0.000006  -0.000000   0.000000   0.612437
    19  H    0.000037  -0.000030  -0.000004   0.000000  -0.000000  -0.035063
    20  H    0.000021   0.000078  -0.000007   0.000000  -0.000000  -0.036900
    21  H    0.000123   0.000315   0.003548  -0.001018   0.008142  -0.000000
    22  H   -0.001199  -0.000505  -0.000041   0.007600  -0.010861   0.000000
    23  H   -0.000001  -0.000426   0.000282  -0.011810  -0.000243   0.000000
              19         20         21         22         23
     1  C    0.004456   0.007431   0.000032   0.000167  -0.000002
     2  C   -0.000318  -0.000472  -0.003139  -0.000965   0.000214
     3  C   -0.000030   0.000063   0.003007  -0.003943   0.007765
     4  C   -0.045772  -0.048632   0.000009  -0.000023   0.000004
     5  C    0.000001  -0.000007  -0.055423  -0.039771  -0.038033
     6  C    0.407268   0.409034   0.000000   0.000000  -0.000000
     7  C   -0.000000   0.000000   0.404441   0.403978   0.402020
     8  H    0.007706  -0.019164   0.000002  -0.000008   0.000003
     9  H   -0.020156   0.006414  -0.000000   0.000002  -0.000000
    10  H    0.000025  -0.000715  -0.000014  -0.000038   0.000009
    11  H    0.000680   0.001276   0.000002   0.000002  -0.000002
    12  H   -0.000058  -0.000164  -0.000484  -0.000397   0.000037
    13  H    0.000037   0.000021   0.000123  -0.001199  -0.000001
    14  H   -0.000030   0.000078   0.000315  -0.000505  -0.000426
    15  H   -0.000004  -0.000007   0.003548  -0.000041   0.000282
    16  H    0.000000   0.000000  -0.001018   0.007600  -0.011810
    17  H   -0.000000  -0.000000   0.008142  -0.010861  -0.000243
    18  H   -0.035063  -0.036900  -0.000000   0.000000   0.000000
    19  H    0.615623  -0.033746  -0.000000  -0.000000   0.000000
    20  H   -0.033746   0.609733   0.000000   0.000000  -0.000000
    21  H   -0.000000   0.000000   0.584678  -0.039005  -0.028880
    22  H   -0.000000   0.000000  -0.039005   0.607384  -0.030124
    23  H    0.000000  -0.000000  -0.028880  -0.030124   0.592420
 Mulliken charges:
               1
     1  C   -0.248528
     2  C   -0.262626
     3  C   -0.281962
     4  C   -0.212417
     5  C   -0.230226
     6  C   -0.338764
     7  C   -0.356168
     8  H    0.117537
     9  H    0.123853
    10  H    0.126951
    11  H    0.122599
    12  H    0.140329
    13  H    0.133561
    14  H    0.141762
    15  H    0.138655
    16  H    0.114426
    17  H    0.126974
    18  H    0.100728
    19  H    0.099383
    20  H    0.105759
    21  H    0.123661
    22  H    0.107745
    23  H    0.106767
 Sum of Mulliken charges =  -0.00000
 Mulliken charges with hydrogens summed into heavy atoms:
               1
     1  C    0.001022
     2  C    0.011265
     3  C   -0.001545
     4  C    0.028973
     5  C    0.011175
     6  C   -0.032894
     7  C   -0.017995
 APT charges:
               1
     1  C   -0.676264
     2  C   -0.579419
     3  C   -0.552547
     4  C   -0.327854
     5  C   -0.750219
     6  C   -1.539069
     7  C   -1.249169
     8  H    0.212212
     9  H    0.368124
    10  H    0.315889
    11  H    0.394638
    12  H    0.332742
    13  H    0.345204
    14  H    0.285883
    15  H    0.349419
    16  H    0.469423
    17  H    0.300133
    18  H    0.281457
    19  H    0.534817
    20  H    0.380694
    21  H    0.257793
    22  H    0.214001
    23  H    0.632113
 Sum of APT charges =  -0.00000
 APT charges with hydrogens summed into heavy atoms:
               1
     1  C    0.034263
     2  C    0.098527
     3  C    0.082756
     4  C    0.252481
     5  C    0.019338
     6  C   -0.342102
     7  C   -0.145263
 Electronic spatial extent (au):  <R**2>=           1371.2097
 Charge=             -0.0000 electrons
 Dipole moment (field-independent basis, Debye):
    X=             -0.0221    Y=             -0.0874    Z=              0.0295  Tot=              0.0948
 Quadrupole moment (field-independent basis, Debye-Ang):
   XX=            -50.2867   YY=            -49.2569   ZZ=            -48.5149
   XY=              0.1441   XZ=              0.1086   YZ=              0.0446
 Traceless Quadrupole moment (field-independent basis, Debye-Ang):
   XX=             -0.9339   YY=              0.0959   ZZ=              0.8379
   XY=              0.1441   XZ=              0.1086   YZ=              0.0446
 Octapole moment (field-independent basis, Debye-Ang**2):
  XXX=             -3.8732  YYY=              0.6165  ZZZ=             -1.2881  XYY=              0.7923
  XXY=             -3.2212  XXZ=              1.9787  XZZ=              0.6187  YZZ=             -0.9369
  YYZ=              0.9633  XYZ=             -1.3911
 Hexadecapole moment (field-independent basis, Debye-Ang**3):
 XXXX=          -1635.7781 YYYY=           -200.8600 ZZZZ=           -138.0222 XXXY=              4.4760
 XXXZ=              4.8248 YYYX=              4.2205 YYYZ=              0.6573 ZZZX=             -0.8493
 ZZZY=             -0.4684 XXYY=           -303.3568 XXZZ=           -292.2680 YYZZ=            -58.5656
 XXYZ=              0.4111 YYXZ=              0.4137 ZZXY=             -3.1177
 N-N= 3.210903916840D+02 E-N=-1.280628688802D+03  KE= 2.745049560731D+02
  Exact polarizability:   0.000   0.000   0.000   0.000   0.000   0.000
 Approx polarizability:  97.867   0.398  98.159   0.227   0.342  98.077
 No NMR shielding tensors so no spin-rotation constants.
 Leave Link  601 at Sat Sep 28 21:11:05 2019, MaxMem=   671088640 cpu:              62.4 elap:              31.2
 (Enter /shared/centos7/gaussian/g16/l701.exe)
 SCFChk:  SCF convergence  4.94D-09 required  1.00D-08
 ... and contract with generalized density number  0.
 Compute integral second derivatives.
 Entering OneElI...
 Calculate overlap and kinetic energy integrals
    NBasis = 485  MinDer = 2  MaxDer = 2
 Requested accuracy = 0.1000D-12
 PrmmSu-InSpLW:  IPartL=    0 NPrtUS=   20 NPrtUL=    1 DoSpLW=F IThBeg=    0 IThEnd=   19 NThAct=   20.
 PrsmSu:  NPrtUS=  20 ThrOK=T IAlg=1 NPAlg=1 LenDen=           0 ISkipM=0 DoSpLW=F IThBeg=    0 IThEnd=   19.
 Prism:   IPart=     0 DynPar=F LinDyn=F Incr=           6.
 PRISM was handed    33208029 working-precision words and 13432 shell-pairs
 PRISM was handed    33208029 working-precision words and 13432 shell-pairs
 PRISM was handed    33208029 working-precision words and 13432 shell-pairs
 PRISM was handed    33208029 working-precision words and 13432 shell-pairs
 PRISM was handed    33208029 working-precision words and 13432 shell-pairs
 PRISM was handed    33208029 working-precision words and 13432 shell-pairs
 PRISM was handed    33208029 working-precision words and 13432 shell-pairs
 PRISM was handed    33208029 working-precision words and 13432 shell-pairs
 PRISM was handed    33208029 working-precision words and 13432 shell-pairs
 PRISM was handed    33208029 working-precision words and 13432 shell-pairs
 PRISM was handed    33208029 working-precision words and 13432 shell-pairs
 PRISM was handed    33208029 working-precision words and 13432 shell-pairs
 IPart=  4 NShTot=         693 NBatch=          73 AvBLen=         9.5
 PRISM was handed    33208029 working-precision words and 13432 shell-pairs
 PRISM was handed    33208029 working-precision words and 13432 shell-pairs
 PRISM was handed    33208029 working-precision words and 13432 shell-pairs
 PRISM was handed    33208029 working-precision words and 13432 shell-pairs
 PRISM was handed    33208029 working-precision words and 13432 shell-pairs
 IPart= 16 NShTot=         650 NBatch=          50 AvBLen=        13.0
 IPart=  0 NShTot=         705 NBatch=          79 AvBLen=         8.9
 IPart=  3 NShTot=         695 NBatch=          74 AvBLen=         9.4
 PRISM was handed    33208029 working-precision words and 13432 shell-pairs
 PRISM was handed    33208029 working-precision words and 13432 shell-pairs
 IPart=  2 NShTot=         699 NBatch=          76 AvBLen=         9.2
 PRISM was handed    33208029 working-precision words and 13432 shell-pairs
 IPart=  6 NShTot=         683 NBatch=          67 AvBLen=        10.2
 IPart=  5 NShTot=         687 NBatch=          70 AvBLen=         9.8
 IPart=  7 NShTot=         676 NBatch=          61 AvBLen=        11.1
 IPart= 18 NShTot=         645 NBatch=          47 AvBLen=        13.7
 IPart= 13 NShTot=         660 NBatch=          53 AvBLen=        12.5
 IPart= 15 NShTot=         654 NBatch=          52 AvBLen=        12.6
 IPart= 19 NShTot=         643 NBatch=          47 AvBLen=        13.7
 IPart=  9 NShTot=         670 NBatch=          59 AvBLen=        11.4
 IPart= 14 NShTot=         656 NBatch=          52 AvBLen=        12.6
 IPart= 11 NShTot=         667 NBatch=          58 AvBLen=        11.5
 IPart=  8 NShTot=         673 NBatch=          61 AvBLen=        11.0
 IPart= 12 NShTot=         662 NBatch=          54 AvBLen=        12.3
 IPart=  1 NShTot=         701 NBatch=          78 AvBLen=         9.0
 IPart= 17 NShTot=         646 NBatch=          48 AvBLen=        13.5
 IPart= 10 NShTot=         667 NBatch=          58 AvBLen=        11.5
 PrSmSu:  NxtVal=            121.
 Entering OneElI...
 Calculate potential energy integrals
    NBasis = 485  MinDer = 2  MaxDer = 2
 Requested accuracy = 0.1000D-12
 PrmmSu-InSpLW:  IPartL=    0 NPrtUS=   20 NPrtUL=    1 DoSpLW=F IThBeg=    0 IThEnd=   19 NThAct=   20.
 PrsmSu:  NPrtUS=  20 ThrOK=T IAlg=1 NPAlg=1 LenDen=           0 ISkipM=0 DoSpLW=F IThBeg=    0 IThEnd=   19.
 Prism:   IPart=     0 DynPar=F LinDyn=F Incr=         136.
 PRISM was handed    33272131 working-precision words and 11859 shell-pairs
 PRISM was handed    33272131 working-precision words and 11859 shell-pairs
 PRISM was handed    33272131 working-precision words and 11859 shell-pairs
 PRISM was handed    33272131 working-precision words and 11859 shell-pairs
 PRISM was handed    33272131 working-precision words and 11859 shell-pairs
 PRISM was handed    33272131 working-precision words and 11859 shell-pairs
 PRISM was handed    33272131 working-precision words and 11859 shell-pairs
 PRISM was handed    33272131 working-precision words and 11859 shell-pairs
 PRISM was handed    33272131 working-precision words and 11859 shell-pairs
 PRISM was handed    33272131 working-precision words and 11859 shell-pairs
 PRISM was handed    33272131 working-precision words and 11859 shell-pairs
 PRISM was handed    33272131 working-precision words and 11859 shell-pairs
 PRISM was handed    33272131 working-precision words and 11859 shell-pairs
 PRISM was handed    33272131 working-precision words and 11859 shell-pairs
 PRISM was handed    33272131 working-precision words and 11859 shell-pairs
 PRISM was handed    33272131 working-precision words and 11859 shell-pairs
 PRISM was handed    33272131 working-precision words and 11859 shell-pairs
 PRISM was handed    33272131 working-precision words and 11859 shell-pairs
 PRISM was handed    33272131 working-precision words and 11859 shell-pairs
 PRISM was handed    33272131 working-precision words and 11859 shell-pairs
 IPart= 10 NShTot=       13570 NBatch=         591 AvBLen=        23.0
 IPart= 16 NShTot=       13179 NBatch=         574 AvBLen=        23.0
 IPart= 18 NShTot=       13110 NBatch=         571 AvBLen=        23.0
 IPart=  0 NShTot=       14352 NBatch=         626 AvBLen=        22.9
 IPart=  6 NShTot=       13777 NBatch=         600 AvBLen=        23.0
 IPart=  7 NShTot=       13616 NBatch=         593 AvBLen=        23.0
 IPart= 17 NShTot=       13110 NBatch=         571 AvBLen=        23.0
 IPart=  3 NShTot=       14191 NBatch=         619 AvBLen=        22.9
 IPart=  1 NShTot=       14306 NBatch=         624 AvBLen=        22.9
 IPart= 12 NShTot=       13409 NBatch=         584 AvBLen=        23.0
 IPart=  4 NShTot=       14122 NBatch=         616 AvBLen=        22.9
 IPart= 13 NShTot=       13363 NBatch=         582 AvBLen=        23.0
 IPart=  8 NShTot=       13593 NBatch=         592 AvBLen=        23.0
 IPart= 14 NShTot=       13340 NBatch=         581 AvBLen=        23.0
 IPart=  2 NShTot=       14237 NBatch=         621 AvBLen=        22.9
 IPart= 11 NShTot=       13501 NBatch=         588 AvBLen=        23.0
 IPart= 19 NShTot=       13110 NBatch=         571 AvBLen=        23.0
 IPart=  5 NShTot=       13984 NBatch=         609 AvBLen=        23.0
 IPart= 15 NShTot=       13294 NBatch=         579 AvBLen=        23.0
 IPart=  9 NShTot=       13593 NBatch=         592 AvBLen=        23.0
 PrSmSu:  NxtVal=           2721.
 Polarizability after L701:
                1             2             3 
      1  0.000000D+00
      2  0.000000D+00  0.000000D+00
      3  0.000000D+00  0.000000D+00  0.000000D+00
 Dipole Derivatives after L701:
                 1             2             3             4             5 
      1  -0.350931D+00 -0.860439D+00 -0.555444D+00 -0.285636D+00  0.390158D+00
      2  -0.425199D+00 -0.720508D+00 -0.132007D+00  0.379394D+00 -0.759112D+00
      3  -0.917524D-03 -0.132799D+00 -0.957355D+00  0.322449D+00  0.168122D+00
                 6             7             8             9            10 
      1   0.283388D+00 -0.934155D-01 -0.289406D+00 -0.495234D+00  0.427016D+00
      2   0.196896D+00  0.341229D+00 -0.750021D+00 -0.142700D+00 -0.350489D-01
      3  -0.693510D+00 -0.226371D+00 -0.144727D+00 -0.814204D+00 -0.290806D+00
                11            12            13            14            15 
      1   0.153807D+01 -0.918578D-01 -0.645342D+00 -0.131706D+01  0.105748D+01
      2  -0.777479D+00  0.172039D-01 -0.431161D+00 -0.789526D+00  0.759240D-01
      3   0.137846D+00 -0.633099D+00  0.634513D-01 -0.462551D-01 -0.815788D+00
                16            17            18            19            20 
      1  -0.272298D+01 -0.617347D+00  0.462800D+00 -0.190526D+01  0.118883D+01
      2   0.114900D+00 -0.886957D+00 -0.101902D-01 -0.431916D-01 -0.906561D+00
      3   0.777749D-01  0.465200D-01 -0.100728D+01  0.159859D-01 -0.510334D-01
                21            22            23            24            25 
      1  -0.611452D+00 -0.460035D-01 -0.285808D+00 -0.431663D+00  0.270900D+00
      2  -0.606720D-01  0.141479D+00  0.282648D+00  0.274681D+00 -0.715729D-01
      3  -0.935685D+00  0.110902D+00  0.147608D+00  0.399991D+00  0.430548D-01
                26            27            28            29            30 
      1  -0.579367D+00  0.524354D+00  0.989793D-01 -0.993880D-01  0.273469D+00
      2   0.452666D+00 -0.322998D+00 -0.438886D-01  0.134342D+00  0.689875D-01
      3  -0.230122D+00  0.380805D+00 -0.110691D+00 -0.163652D+00  0.714347D+00
                31            32            33            34            35 
      1   0.430771D+00  0.517133D+00 -0.254252D-01  0.163380D+00  0.372034D-01
      2   0.260107D+00  0.641055D+00 -0.243889D-01  0.924327D-01  0.258991D+00
      3   0.959200D-01  0.189822D+00  0.112087D+00 -0.772458D-01 -0.112179D+00
                36            37            38            39            40 
      1  -0.287254D-01  0.339776D+00 -0.204524D+00 -0.133385D+00  0.120241D+00
      2  -0.312180D+00 -0.301510D+00  0.501216D+00  0.234892D+00 -0.279955D+00
      3   0.575856D+00 -0.777681D-01  0.979266D-01  0.194620D+00  0.489537D-01
                41            42            43            44            45 
      1   0.935888D-01 -0.364099D-01  0.181243D+00  0.105967D+00  0.358880D+00
      2   0.553591D+00 -0.230925D+00  0.489309D-01  0.220470D+00  0.298566D+00
      3  -0.780006D-01  0.183818D+00  0.341328D-01  0.855822D-01  0.646545D+00
                46            47            48            49            50 
      1   0.633175D+00  0.889561D+00  0.130488D+00  0.973820D-01 -0.128687D+00
      2   0.270387D+00  0.666013D+00  0.913317D-01 -0.203922D-01  0.126463D+00
      3  -0.275337D-01 -0.453943D-01  0.109083D+00  0.406917D-01  0.953091D-01
                51            52            53            54            55 
      1  -0.754834D+00  0.178234D+00  0.114759D+01  0.111000D+00  0.122203D+01
      2  -0.135824D+00  0.296938D-04  0.584853D+00  0.665217D-01 -0.109637D+00
      3   0.676555D+00 -0.194255D-01 -0.377494D-01  0.812839D-01  0.104267D+00
                56            57            58            59            60 
      1  -0.617034D+00  0.868050D+00  0.374754D+00 -0.218287D+00 -0.121250D+01
      2   0.179529D+00 -0.128777D+00  0.931250D-02  0.116775D+00  0.930019D-01
      3  -0.991338D-01  0.202889D+00 -0.890049D-01  0.131133D+00  0.650552D+00
                61            62            63            64            65 
      1  -0.294413D-01 -0.172465D+00  0.996536D+00 -0.154881D+00 -0.900495D+00
      2   0.198788D-01  0.141531D+00 -0.166823D+00  0.154129D+00  0.622430D+00
      3  -0.818452D-01 -0.515889D-01  0.661288D+00  0.462031D-01  0.103486D+00
                66            67            68            69 
      1  -0.388027D+00  0.169600D+01  0.382211D+00 -0.301482D+00
      2   0.246980D+00 -0.706544D-01  0.107592D+00  0.249802D-02
      3   0.174454D+00 -0.217615D-02 -0.107196D-01  0.927433D-01
 Hessian after L701:
                1             2             3             4             5 
      1  0.144404D+02
      2  0.243880D+00  0.174881D+02
      3 -0.484813D+00 -0.356193D+00  0.171455D+02
      4 -0.331513D+01 -0.270336D+00  0.171488D+01  0.145388D+02
      5 -0.226898D+00 -0.630993D+01 -0.173689D+00 -0.240497D+00  0.171204D+02
      6  0.172959D+01 -0.177566D+00 -0.521162D+01 -0.458346D+00  0.233482D+00
      7  0.293866D+00  0.280647D+00  0.125793D+00 -0.470659D+01  0.185430D+01
      8  0.239417D+00  0.767635D-01  0.920681D-01  0.184377D+01 -0.340058D+01
      9  0.171847D+00  0.120640D+00 -0.963848D-01  0.165100D+00  0.257075D+00
     10 -0.413863D+01 -0.177552D+01 -0.877704D+00  0.371191D+00 -0.268722D+00
     11 -0.173294D+01 -0.440154D+01  0.754112D+00 -0.248076D+00  0.287383D-01
     12 -0.858497D+00  0.758032D+00 -0.556578D+01  0.209818D-01  0.150255D-01
     13  0.226934D+00  0.963614D-01 -0.965249D-03  0.303177D+00  0.239634D+00
     14  0.955507D-01 -0.107255D+00  0.538760D-02  0.298020D+00  0.743172D-01
     15  0.619503D-01  0.116159D-01 -0.155028D+00 -0.547449D-01 -0.525474D-01
     16  0.264445D+00  0.319034D-01 -0.114921D+00  0.240575D+00 -0.487544D-01
     17 -0.113516D+00 -0.899386D-01  0.398311D-01 -0.789117D-01 -0.144083D+00
     18 -0.188528D+00  0.415433D-02 -0.695682D-01  0.164178D-02  0.767271D-02
     19  0.979271D-01 -0.108667D-01  0.201884D-01  0.239109D+00 -0.648364D-01
     20  0.171068D-01 -0.780056D-01 -0.553314D-02  0.745062D-01 -0.178787D+00
     21  0.327996D-01 -0.135448D-02 -0.689069D-01 -0.894324D-02 -0.138011D-02
     22  0.158729D+00  0.148960D+00  0.142642D+00  0.333804D-01 -0.228383D-01
     23  0.114188D+00 -0.530138D-01 -0.177378D+00 -0.678308D-01 -0.236429D-01
     24  0.110912D+00 -0.172418D+00  0.768921D-01 -0.335959D-01  0.656799D-02
     25  0.460650D-01  0.103222D+00  0.275944D-01  0.381182D-01 -0.680896D-01
     26  0.642993D-01 -0.357675D-01 -0.710499D-01 -0.857747D-01  0.245636D-01
     27  0.301263D-01 -0.539122D-01  0.148132D+00  0.483288D-01 -0.387246D-01
     28 -0.433874D+01  0.732649D-01 -0.405384D+00  0.766961D-02  0.489079D-01
     29  0.800299D-01 -0.428256D+01 -0.356572D+00  0.271746D-01  0.829142D-01
     30 -0.508875D+00 -0.406465D+00 -0.193746D+01 -0.130348D+00  0.483546D-01
     31 -0.394993D+01  0.103603D+01  0.507661D-01 -0.575504D-01 -0.621709D-01
     32  0.107787D+01 -0.226106D+01  0.114370D+00 -0.706675D-01  0.141163D+00
     33  0.808986D-01  0.171700D+00 -0.439457D+01 -0.102892D+00 -0.532147D-01
     34 -0.129910D-01  0.152501D-01 -0.144217D+00 -0.448585D+01  0.153411D+00
     35  0.205777D-01  0.907954D-01 -0.116420D-01  0.182276D+00 -0.412297D+01
     36 -0.109398D+00 -0.439438D-01  0.318835D-01 -0.477624D+00 -0.869942D+00
     37 -0.580449D-01  0.628992D-01 -0.615254D-01 -0.373123D+01 -0.111248D+01
     38  0.795636D-01  0.952657D-01  0.547445D-01 -0.124268D+01 -0.304344D+01
     39 -0.730828D-01  0.552620D-01  0.113295D+00 -0.619149D+00  0.746345D+00
     40  0.157697D-01 -0.648183D-02  0.152419D-01  0.173908D+00 -0.144235D+00
     41  0.422079D-01 -0.328350D-01  0.496192D-02 -0.111519D+00 -0.174963D+00
     42  0.823971D-02  0.287861D-03 -0.130131D-01  0.299757D-01 -0.100691D-02
     43  0.314834D-01  0.525204D-01  0.744143D-01  0.917226D-01 -0.127345D+00
     44  0.633638D-01 -0.103532D-01  0.551914D-01 -0.119252D+00 -0.706179D-01
     45  0.977431D-01  0.598127D-01  0.362567D-01 -0.511773D-01 -0.119841D+00
     46  0.786725D-02  0.388516D-02 -0.337839D-02  0.918575D-01  0.117154D+00
     47  0.146684D-01 -0.209737D-02 -0.437892D-02  0.139022D+00  0.509366D-01
     48  0.298815D-02  0.217013D-02 -0.849737D-02 -0.143621D-01 -0.148358D-01
     49  0.341104D-01  0.137665D-01 -0.196813D-01  0.150222D-01  0.543706D-02
     50  0.127031D-01 -0.159382D-01 -0.387058D-02  0.132305D-01 -0.124053D-01
[...]
 7293,-0.01262515,-0.12327166,-0.11531785,-0.00007208,0.00001442,-0.000
 44027,-0.00072194,-0.00151487,-0.00016622,0.00015890,-0.00011571,-0.00
 003850,0.00098191,0.00058514,-0.00017359,0.00000049,-0.00029125,0.0001
 2063,0.00001557,0.00002270,0.00008043,-0.00036142,-0.00013818,-0.00025
 582,-0.00024879,-0.00001381,0.00012994,0.00239643,-0.00032433,0.002044
 37,-0.00067539,0.00056886,-0.00030928,0.01087060,0.13046372,0.00142734
 ,-0.00035571,0.00083248,-0.00399135,-0.01111859,-0.01879213,-0.0180151
 6,-0.11501787,-0.22711556,-0.00031539,-0.00000466,0.00027901,-0.001253
 34,-0.00777573,-0.01201582,0.00018106,-0.00003238,0.00011366,0.0034201
 8,0.00063199,0.00042268,-0.00031036,-0.00014685,-0.00008416,-0.0000640
 5,-0.00005898,0.00002494,-0.00079800,0.00043021,0.00058654,0.00029272,
 0.00029008,0.00027713,-0.00233051,0.00249846,-0.00158374,0.00049761,0.
 00011925,0.00017470,0.02122148,0.12630575,0.24910785,0.00102295,0.0000
 1747,0.00018086,0.00720770,0.02217899,-0.00601732,-0.06920624,-0.07138
 758,0.01928133,-0.00109946,-0.00004428,0.00082146,-0.01250787,-0.02859
 701,0.00920285,-0.00042782,0.00010788,0.00023157,0.00120191,-0.0008355
 1,-0.00137038,-0.00183627,0.00025618,0.00056664,0.00010421,-0.00007203
 ,-0.00006906,-0.00008155,0.00000357,-0.00004287,0.00009044,-0.00030854
 ,-0.00001120,0.00100034,-0.00085699,0.00049894,-0.00312585,0.00227621,
 -0.00280115,-0.00158230,-0.00228099,0.00050279,0.08277978,-0.00056067,
 -0.00039376,0.00052932,-0.00356395,-0.01364002,0.00410557,-0.07101066,
 -0.26279006,0.05932976,-0.00005543,-0.00039337,0.00077384,0.00028682,0
 .00137576,-0.00106852,-0.00019331,0.00043246,-0.00003489,0.00051974,0.
 00125983,-0.00009492,-0.00016038,0.00040077,-0.00084467,-0.00030452,0.
 00025500,-0.00037855,-0.00000330,0.00008864,0.00005933,0.00023825,0.00
 019728,-0.00010756,0.00009288,0.00085204,-0.00003848,0.00243332,0.0002
 2359,0.00148768,-0.00521905,-0.01624050,0.00409926,0.07776747,0.286044
 78,0.00038823,-0.00050997,-0.00002192,0.00565292,0.01992228,-0.0069525
 1,0.01930532,0.05870858,-0.06501979,0.00032138,-0.00005655,0.00039720,
 0.00548274,0.01320934,-0.00462703,-0.00032925,0.00019590,0.00013549,-0
 .00036173,0.00156098,0.00045839,0.00085340,-0.00025486,-0.00013916,0.0
 0000226,-0.00015541,-0.00000236,-0.00002919,-0.00001218,0.00004622,0.0
 0002067,0.00002056,0.00001572,0.00084279,-0.00023779,0.00065707,-0.003
 00827,0.00216861,-0.00195127,-0.00848282,-0.02507823,0.00737215,-0.022
 72242,-0.06769065,0.07030958,-0.00083196,0.00065594,-0.00173050,-0.004
 12864,-0.00064019,0.00521264,-0.02108954,0.01290508,-0.02011590,0.0000
 3812,0.00020512,-0.00013466,-0.15520127,0.06381337,-0.11147607,0.00000
 071,-0.00003770,0.00006573,0.00036597,-0.00034129,0.00084368,0.0000537
 7,-0.00006509,0.00005325,-0.00003752,-0.00007309,0.00005314,0.00000616
 ,0.00004364,0.00006321,-0.00063872,0.00016661,0.00031199,0.00015045,-0
 .00019023,-0.00008735,0.00025405,0.00003036,0.00014319,0.00121276,0.00
 029645,0.00011266,0.00082982,-0.00070715,-0.00039043,0.17049022,0.0000
 9682,0.00036850,0.00030908,0.00083964,0.00034475,-0.00051685,0.0000662
 6,-0.00147991,0.00099106,0.00010859,-0.00008458,-0.00003069,0.06490655
 ,-0.08897927,0.06869657,-0.00000199,0.00000737,-0.00002132,-0.01319248
 ,0.00767384,-0.01526808,-0.00001111,0.00001226,0.00001443,0.00004258,0
 .00004511,-0.00002355,-0.00003447,-0.00001821,-0.00000918,0.00007833,-
 0.00002907,-0.00002536,0.00022530,0.00004571,0.00006910,-0.00023056,0.
 00047656,-0.00038364,0.00025985,-0.00024454,0.00000289,0.00001639,0.00
 039861,-0.00044060,-0.07223672,0.09343014,0.00057047,-0.00033228,0.000
 60617,0.00252968,0.00018633,-0.00115452,0.01127982,-0.00680072,0.01018
 420,-0.00007443,-0.00003179,0.00005747,-0.11186829,0.06842420,-0.16087
 816,0.00001760,-0.00000426,-0.00001981,-0.01711143,0.01017015,-0.02107
 628,-0.00000802,0.00003275,-0.00002344,-0.00000800,0.00001207,-0.00000
 598,-0.00004058,-0.00000197,0.00000646,0.00026117,-0.00008630,-0.00012
 983,0.00026085,0.00004221,0.00012403,-0.00002638,-0.00016448,-0.000067
 91,-0.00065790,-0.00007579,0.00083518,-0.00077038,0.00005262,0.0004086
 2,0.11931568,-0.07077862,0.17854542,0.00013410,0.00029954,0.00016139,0
 .00170706,-0.00199547,0.00049695,-0.01237430,-0.02825568,0.00815521,0.
 00004651,-0.00015601,0.00017054,-0.07477194,-0.07501186,0.01794941,0.0
 0003416,0.00004739,-0.00005672,-0.00027193,-0.00014296,-0.00038132,-0.
 00002509,0.00008955,-0.00023423,-0.00007458,0.00009556,-0.00011092,-0.
 00002050,0.00000175,0.00002923,0.00001144,0.00002605,-0.00002567,-0.00
 005868,0.00006554,-0.00000835,-0.00018447,0.00097246,-0.00057106,0.001
 12086,0.00041473,-0.00024201,-0.00514327,0.00058580,0.00264989,0.00712
 276,0.01959731,-0.00441061,0.08196221,-0.00005519,0.00032060,-0.000154
 12,0.00038423,0.00084359,-0.00041101,0.00082699,0.00191973,0.00010001,
 0.00017175,-0.00006323,0.00001510,-0.07606644,-0.26416120,0.05626667,0
 .00005963,-0.00000799,-0.00004188,-0.00587708,-0.01785897,0.00343409,-
 0.00001076,-0.00000675,-0.00001584,0.00002826,0.00004125,-0.00000072,-
 0.00001474,-0.00001027,0.00002822,-0.00007577,0.00000260,0.00001200,0.
 00007691,0.00002767,0.00004337,-0.00065251,0.00018931,-0.00030368,-0.0
 0055829,0.00047996,0.00042778,0.00091019,0.00145164,-0.00002410,-0.003
 51379,-0.01176501,0.00318247,0.08358832,0.28807080,-0.00007226,0.00001
 083,-0.00002066,-0.00115747,-0.00043841,0.00007413,0.00601346,0.014074
 09,-0.00470332,-0.00005056,0.00004041,-0.00015626,0.01848402,0.0572068
 3,-0.06169700,-0.00000452,-0.00002633,0.00001498,-0.00975925,-0.028065
 06,0.00550176,0.00002839,-0.00001793,0.00012563,0.00005856,-0.00002360
 ,0.00004578,0.00002004,-0.00001911,-0.00005145,0.00001259,-0.00002555,
 0.00000473,-0.00000702,-0.00005192,0.00003574,0.00007502,-0.00026496,0
 .00039541,-0.00045047,0.00009301,-0.00000128,0.00295344,-0.00080948,-0
 .00062150,0.00742649,0.01955600,-0.00551135,-0.02362736,-0.05889008,0.
 06887868,0.00008786,0.00023990,0.00051315,-0.00072184,-0.00049815,0.00
 100942,0.00000683,-0.00062911,0.00012135,0.00720853,-0.00213815,-0.002
 07388,-0.00005092,0.00001500,0.00002522,-0.24253712,0.08729848,0.07946
 091,0.00012381,-0.00008163,-0.00004135,0.00060333,0.00054651,0.0004463
 5,0.00107271,-0.00165210,-0.00123284,0.00008000,0.00023453,-0.00005551
 ,-0.00001121,-0.00008272,0.00000189,-0.00060738,-0.00131138,-0.0002120
 7,0.00004096,-0.00010893,-0.00031634,0.00004395,0.00009275,-0.00002292
 ,0.00005342,0.00023643,-0.00031302,0.00000957,-0.00000290,-0.00000645,
 0.00001923,-0.00000221,-0.00001691,0.26301526,0.00115370,0.00066582,-0
 .00006314,-0.00035817,-0.00064262,-0.00006461,-0.00023629,0.00001867,0
 .00014953,0.02178006,-0.00930350,-0.00822576,-0.00008368,0.00007799,0.
 00004523,0.08613518,-0.08514188,-0.03473914,0.00002059,0.00002800,-0.0
 0003640,-0.00032661,0.00113500,0.00062312,-0.00153693,-0.00323455,-0.0
 0330039,-0.00027287,0.00021096,0.00009780,-0.00007668,-0.00002833,-0.0
 0004876,-0.00092312,-0.00103528,0.00091811,0.00008150,0.00031797,0.000
 22497,0.00020307,0.00013671,0.00009358,-0.00027983,0.00004935,-0.00030
 918,0.00004262,-0.00001106,0.00001048,0.00004633,0.00000705,-0.0000388
 6,-0.09374214,0.09175564,-0.00005035,0.00086344,0.00017647,0.00020474,
 0.00018335,0.00034612,-0.00012580,-0.00050639,0.00018069,0.02004544,-0
 .00853904,-0.00926887,-0.00005476,0.00021966,-0.00000547,0.07939582,-0
 .03481329,-0.07912308,-0.00003449,-0.00005932,0.00006604,0.00034161,0.
 00082938,0.00058563,-0.00143686,-0.00386501,-0.00244275,0.00001383,0.0
 0001813,-0.00000147,-0.00003956,-0.00001620,0.00002775,0.00036370,0.00
 082635,0.00004624,-0.00013974,0.00013996,0.00004947,0.00005942,0.00019
 392,-0.00004838,-0.00045358,0.00003494,-0.00037426,-0.00002344,-0.0000
 1512,-0.00001251,0.00009668,0.00000389,-0.00005860,-0.08802205,0.04098
 568,0.08567293,0.00015874,0.00053966,-0.00031117,-0.00008407,-0.000025
 98,-0.00034900,0.00004817,0.00028734,-0.00016067,-0.00357320,0.0013432
 6,-0.00429728,0.00002551,-0.00012261,0.00003583,-0.12260108,0.04925772
 ,-0.10794723,-0.00001408,0.00009067,-0.00005788,0.00095033,-0.00107237
 ,-0.00070943,0.00036715,-0.00042683,0.00025260,0.00012500,-0.00002996,
 0.00024469,-0.00006225,-0.00047388,0.00007025,-0.00028617,0.00023346,0
 .00020390,0.00002284,-0.00000082,0.00013057,-0.00001823,-0.00013363,0.
 00009966,0.00022225,-0.00015539,0.00015486,0.00002246,0.00000196,0.000
 00471,-0.00006156,-0.00000874,0.00002212,-0.01444912,0.00957462,-0.022
 19782,0.12925334,-0.00046619,0.00209332,-0.00064473,0.00000509,0.00003
 677,0.00017964,-0.00003787,-0.00012252,-0.00016073,-0.01489498,0.00853
 944,-0.02008723,0.00003082,0.00001387,0.00007060,0.04948520,-0.0790498
 5,0.07199709,-0.00001040,-0.00004666,0.00000664,-0.00125879,-0.0036105
 8,-0.00383403,0.00039752,0.00091448,0.00080448,0.00036910,0.00022320,0
 .00010122,0.00058662,-0.00017767,0.00049881,-0.00001339,0.00001392,0.0
 0006070,0.00000552,0.00003477,0.00004210,0.00000257,0.00009348,0.00004
 072,-0.00000542,-0.00003524,-0.00008776,0.00001887,-0.00001029,-0.0000
 1148,0.00000230,0.00000397,-0.00000311,0.00522902,-0.00520756,0.009342
 65,-0.05334432,0.08457383,0.00078069,0.00118170,0.00101997,-0.00014658
 ,-0.00021917,0.00026561,0.00007667,0.00008251,0.00010467,-0.01262959,0
 .00736498,-0.01836785,0.00003519,-0.00003821,0.00003138,-0.10797536,0.
 07167399,-0.20343830,-0.00002304,-0.00001987,-0.00000240,0.00001953,-0
 .00396608,-0.00193331,0.00049562,0.00037696,0.00023511,0.00038245,0.00
 001498,0.00018455,-0.00023976,-0.00085299,0.00050079,-0.00027556,-0.00
 013614,-0.00010473,-0.00009676,-0.00001068,0.00002039,0.00009556,0.000
 07622,-0.00000832,0.00002596,-0.00006662,-0.00008004,0.00000461,0.0000
 0344,-0.00000240,-0.00001704,-0.00000203,0.00001554,0.00618330,-0.0042
 3190,0.00990065,0.12071851,-0.07556191,0.22248939,0.00038859,-0.000060
 59,-0.00094340,0.00017022,0.00007261,0.00026327,0.00012343,-0.00005058
 ,0.00002942,-0.00327441,-0.00240555,0.00230103,0.00003751,-0.00002282,
 -0.00002016,-0.11927288,-0.10286686,0.06063294,-0.00002750,0.00001568,
 0.00001286,-0.00027200,0.00001420,0.00004763,0.00060403,0.00027456,-0.
 00030891,0.00011219,-0.00026965,0.00026631,0.00004110,-0.00027882,0.00
 015911,-0.00004657,-0.00006126,-0.00042739,-0.00003675,-0.00015598,-0.
 00015968,-0.00003385,-0.00005564,-0.00004140,0.00006595,-0.00005897,0.
 00012289,-0.00004216,0.00001076,-0.00000606,-0.00001362,-0.00000226,0.
 00001364,-0.01408165,-0.02115703,0.01208023,0.00994048,0.01389678,-0.0
 0740663,0.12559390,-0.00040893,-0.00226944,-0.00523950,0.00059405,0.00
 012241,-0.00061525,-0.00004190,-0.00008000,0.00010498,-0.01150316,-0.0
 1774929,0.01175545,-0.00000453,0.00005555,-0.00006204,-0.10239892,-0.1
 9282643,0.08740109,-0.00002775,-0.00004089,0.00001213,-0.00014423,0.00
 082407,-0.00015177,0.00070276,0.00052896,0.00052049,-0.00094015,-0.001
 36216,0.00059171,0.00014557,0.00037968,-0.00008884,0.00016305,0.000205
 40,0.00023398,-0.00005171,0.00008488,0.00014169,0.00003605,0.00000718,
 0.00002918,-0.00001507,0.00003458,-0.00004735,-0.00004613,0.00001481,0
 .00000893,0.00001654,0.00000265,0.00000456,0.00620946,0.01021957,-0.00
 587038,-0.00545273,-0.00832538,0.00431450,0.11318057,0.21013645,-0.000
 47051,-0.00274150,-0.00356088,0.00029928,-0.00013671,-0.00059976,-0.00
 003498,0.00006266,0.00009067,-0.01269905,-0.01829517,0.01101877,-0.000
 02827,0.00002126,-0.00001175,0.06099361,0.08837475,-0.09857048,-0.0000
 0027,-0.00000896,-0.00002482,-0.00004912,0.00093339,0.00068074,0.00030
 413,0.00079607,0.00105470,-0.00045641,-0.00121446,0.00051965,0.0001399
 1,-0.00024843,0.00005849,-0.00009144,0.00025908,0.00038736,-0.00000750
 ,0.00014626,0.00018277,0.00007292,-0.00003065,0.00005819,-0.00000488,0
 .00002309,-0.00003452,0.00000176,-0.00000131,0.00000910,0.00001014,0.0
 0000521,-0.00000662,0.00457029,0.00784520,-0.00567477,0.01404814,0.017
 23454,-0.01084285,-0.06658785,-0.09303758,0.10524085,-0.00004630,-0.00
 009275,-0.00002107,0.00012575,0.00007618,0.00001731,0.00078928,0.00132
 142,-0.00015921,0.00002022,-0.00000095,0.00001060,-0.00094342,-0.00032
 221,0.00016552,-0.00010932,0.00004932,0.00004182,-0.08656446,-0.090601
 41,0.02108685,-0.00000726,-0.00000857,0.00001483,0.00001385,-0.0000227
 5,-0.00000713,0.00003311,-0.00000818,-0.00001856,0.00002689,-0.0000045
 0,-0.00000007,0.00000667,-0.00014760,-0.00024983,0.00002375,-0.0001234
 4,-0.00003749,-0.00000901,0.00001585,-0.00008674,0.00033382,-0.0002067
 0,-0.00000401,-0.00025955,-0.00026610,-0.00003108,0.00075718,0.0004982
 1,-0.00005610,0.00005018,-0.00005391,-0.00001330,0.00002381,-0.0000102
 3,-0.00000879,0.00003682,-0.00000433,-0.00001541,0.08903387,0.00002371
 ,0.00006271,0.00007420,0.00023256,-0.00013229,-0.00014376,-0.00067592,
 0.00076804,0.00123100,-0.00001615,-0.00007535,-0.00003767,-0.00700721,
 -0.01866564,0.00336305,0.00011118,-0.00006178,-0.00005425,-0.09054168,
 -0.25914365,0.05102356,0.00001219,-0.00000144,-0.00000347,0.00001055,0
 .00005555,0.00001714,-0.00001567,0.00001929,0.00000850,0.00002492,-0.0
 0001420,-0.00001382,0.00015454,-0.00031439,0.00010736,-0.00010164,0.00
 025632,0.00000155,0.00002997,0.00051572,0.00000179,0.00087833,0.000180
 05,-0.00061385,-0.00005979,0.00070229,-0.00013915,-0.00011852,-0.00069
 985,-0.00396434,0.00010549,0.00002451,-0.00002093,-0.00003279,0.000016
 96,0.00000760,-0.00003268,0.00002569,0.00002449,0.10057454,0.28353382,
 0.00004582,-0.00003715,0.00000821,0.00014728,0.00014752,0.00008949,-0.
 00109728,-0.00034635,0.00187700,0.00003242,0.00001151,0.00004136,-0.01
 040761,-0.02699225,0.00563642,-0.00002393,0.00000254,-0.00002363,0.021
 39792,0.05139009,-0.05854636,-0.00000408,-0.00000174,-0.00002778,-0.00
 001538,-0.00001248,-0.00001266,-0.00000705,-0.00000441,0.00000348,-0.0
 0000002,0.00000723,-0.00000619,0.00002301,0.00006425,-0.00005727,-0.00
 013987,0.00000780,-0.00013065,-0.00027750,0.00035824,0.00012669,0.0003
 4001,0.00070995,-0.00018158,-0.00023733,0.00078555,0.00105966,0.000166
 95,-0.00371433,-0.00456492,-0.00001593,0.00000500,0.00006692,-0.000014
 64,0.00001094,-0.00000234,0.00000728,-0.00000665,-0.00000324,-0.023598
 30,-0.05246016,0.06310446,0.00010075,0.00000847,0.00016909,-0.00087018
 ,0.00007221,0.00005621,0.00023573,-0.00056919,0.00017472,0.00001153,-0
 .00001294,0.00000635,-0.00041485,-0.00097583,-0.00033617,-0.00003274,0
 .00004327,0.00000106,-0.12799346,0.06216984,-0.10663086,-0.00001195,-0
 .00000471,0.00000675,0.00001364,-0.00000041,-0.00001295,-0.00001724,0.
 00000668,0.00001397,0.00005955,-0.00001024,-0.00001350,-0.00150616,0.0
 0088601,0.00128357,0.00008202,0.00000157,-0.00019594,0.00001760,0.0000
 5230,-0.00018399,-0.00001692,0.00002255,0.00003956,0.00100107,-0.00033
 678,0.00028350,-0.00001633,-0.00019376,-0.00026503,0.00003279,-0.00004
 748,-0.00000208,-0.00000627,-0.00000058,0.00000273,0.00002565,-0.00000
 122,-0.00001661,0.00748816,-0.00527202,0.01058132,0.13785537,-0.000137
 90,-0.00025507,-0.00014286,0.00093887,0.00067663,0.00021364,0.00004954
 ,0.00035305,0.00088880,-0.00003136,0.00004156,0.00004529,-0.01271040,0
 .00913955,-0.01532130,-0.00003196,0.00001456,-0.00000072,0.06218477,-0
 .09554261,0.08320082,-0.00000393,-0.00001011,-0.00001824,-0.00001320,-
 0.00002827,0.00000005,0.00004853,-0.00001680,-0.00006547,-0.00001007,0
 .00001544,0.00000104,0.00051388,-0.00029893,-0.00057836,-0.00013190,-0
 .00037546,0.00012490,-0.00012013,0.00001551,0.00013161,0.00008195,-0.0
 0000630,-0.00001724,0.00013210,-0.00172936,-0.00431240,-0.00033698,0.0
 0110040,0.00086890,0.00000441,-0.00003992,0.00006671,-0.00002635,0.000
 01599,-0.00000388,0.00001963,-0.00000830,-0.00001752,0.01727031,-0.011
 93059,0.02034886,-0.06902051,0.10141307,0.00041032,0.00013206,0.000471
 04,-0.00043350,-0.00033492,-0.00036706,-0.00092484,0.00068142,0.000457
 12,-0.00007158,0.00009081,-0.00005452,-0.01537431,0.01186595,-0.019990
 22,0.00003098,-0.00006921,0.00002428,-0.10577333,0.08209218,-0.1866575
 5,0.00000754,-0.00002722,0.00004889,-0.00002411,-0.00003739,0.00003810
 ,-0.00022072,0.00007173,0.00014144,0.00005655,-0.00002419,-0.00004238,
 0.00106765,0.00022339,0.00052688,0.00009045,-0.00016663,-0.00015190,0.
 00016805,-0.00015629,0.00022525,0.00004717,-0.00008943,-0.00001034,0.0
 0055588,-0.00391940,-0.00370503,0.00016566,0.00001452,0.00137749,0.000
 00020,0.00005787,-0.00006427,0.00003532,0.00000243,0.00000354,-0.00003
 863,-0.00000988,0.00002243,-0.00316512,0.00251122,-0.00510831,0.117407
 60,-0.08742172,0.20378138,0.00018272,0.00010289,0.00016058,-0.00007531
 ,-0.00034355,-0.00020316,0.00094126,0.00003992,-0.00029900,-0.00001770
 ,0.00002923,-0.00001746,0.00273546,-0.00073309,-0.00190915,0.00006043,
 -0.00005706,-0.00001281,-0.28149189,0.03166366,0.08716266,0.00001601,-
 0.00000573,-0.00000836,-0.00003286,-0.00000216,0.00002004,-0.00009693,
 0.00001690,0.00006213,-0.00001406,-0.00000576,-0.00001635,0.00026568,0
 .00012927,0.00029216,0.00001492,0.00004767,-0.00000128,-0.00006947,0.0
 0002478,-0.00010028,0.00011496,0.00001621,-0.00019574,0.00067147,0.000
 06278,0.00049611,0.00010076,0.00048707,0.00035919,0.00001083,0.0000570
 7,-0.00000765,-0.00000403,0.00001276,-0.00000170,-0.00003849,-0.000007
 31,0.00002209,-0.01082403,0.00171610,0.00309692,-0.01603773,0.00133068
 ,0.00598278,0.30358800,-0.00005828,-0.00006407,-0.00001703,-0.00011147
 ,0.00031017,-0.00024017,-0.00132854,-0.00206949,-0.00271310,-0.0000294
 9,-0.00004459,-0.00002653,0.01875180,-0.00265324,-0.00584349,0.0000671
 5,-0.00002406,-0.00003987,0.03107293,-0.05143066,-0.01103356,-0.000005
 03,-0.00001589,0.00002064,0.00002880,0.00002988,0.00001677,0.00004066,
 0.00002782,-0.00000896,0.00004669,-0.00000262,0.00001222,-0.00005546,-
 0.00018006,-0.00001862,-0.00003636,0.00003319,0.00009181,0.00098141,0.
 00020481,-0.00059177,0.00018862,0.00025485,-0.00025053,-0.00039899,0.0
 0083137,0.00061704,0.00016829,0.00011204,0.00078411,0.00003744,-0.0000
 0255,-0.00000237,-0.00002230,0.00001177,0.00001259,-0.00000611,0.00002
 002,0.00000628,-0.02793221,0.00487821,0.00972606,0.01318279,-0.0025440
 1,-0.00548729,-0.03458234,0.05231711,0.00024133,0.00006025,0.00028403,
 -0.00088265,-0.00003676,-0.00048694,-0.00205418,-0.00397239,-0.0044492
 8,-0.00004754,0.00000778,-0.00003842,0.02664277,-0.00191908,-0.0099106
 5,0.00001101,-0.00001760,0.00000938,0.08595866,-0.01108900,-0.07787618
 ,-0.00002311,-0.00003183,0.00005369,0.00002385,-0.00000723,0.00001469,
 -0.00011348,0.00006976,0.00008592,0.00010941,-0.00000823,-0.00000102,0
 .00021053,0.00034647,0.00039925,0.00007067,-0.00008596,0.00000385,0.00
 166856,-0.00044996,-0.00078705,-0.00038977,0.00001841,0.00021583,0.000
 03179,0.00100561,0.00075088,-0.00036676,0.00002444,0.00092310,-0.00000
 281,0.00000159,-0.00004447,0.00002395,-0.00000158,0.00001097,0.0000035
 1,0.00001057,0.00000597,0.00613529,-0.00092009,-0.00334875,-0.02236932
 ,0.00200909,0.00903373,-0.09488172,0.01498576,0.08515146\\0.00000071,-
 0.00000055,0.00000109,-0.00000014,0.00000024,0.00000070,0.00000045,-0.
 00000014,-0.00000055,0.00000042,-0.00000106,0.00000166,-0.00000015,-0.
 00000002,-0.00000140,0.00000003,0.00000040,0.00000051,-0.00000078,0.00
 000096,-0.00000161,0.00000109,-0.00000135,0.00000073,0.00000086,-0.000
 00081,0.00000196,0.00000062,-0.00000057,0.00000164,-0.00000065,-0.0000
 0007,0.00000209,-0.00000077,0.00000063,0.00000030,-0.00000053,0.000000
 36,0.00000082,0.00000083,-0.00000082,-0.00000030,0.00000052,-0.0000004
 9,-0.00000086,0.00000045,-0.00000020,-0.00000203,-0.00000022,0.0000003
 4,-0.00000110,0.00000008,0.00000029,0.00000011,-0.00000045,0.00000023,
 0.00000125,0.00000042,-0.00000049,0.00000061,-0.00000060,0.00000071,-0
 .00000205,-0.00000124,0.00000130,-0.00000112,-0.00000092,0.00000110,-0
 .00000246\\\@


 RESEARCH IS WHAT I AM DOING WHEN I DON'T KNOW WHAT I AM DOING.
     -- WERNER VON BRAUN
 Job cpu time:       0 days  5 hours 31 minutes 53.9 seconds.
 Elapsed time:       0 days  2 hours 45 minutes 58.7 seconds.
 File lengths (MBytes):  RWF=   1488 Int=      0 D2E=      0 Chk=     32 Scr=     32
 Normal termination of Gaussian 16 at Sun Sep 29 09:09:43 2019.
