 Entering Gaussian System, Link 0=g16
 Input=tight/species/CCCCCCC/conformers/CCCCCCC_625.com
 Output=tight/species/CCCCCCC/conformers/CCCCCCC_625.log
 Initial command:
 /shared/centos7/gaussian/g16/l1.exe "/scratch/harms.n/gauss_scrdir/Gau-42442.inp" -scrdir="/scratch/harms.n/gauss_scrdir/"
 Entering Link 1 = /shared/centos7/gaussian/g16/l1.exe PID=     42443.
  
 Copyright (c) 1988,1990,1992,1993,1995,1998,2003,2009,2016,
            Gaussian, Inc.  All Rights Reserved.
  
 This is part of the Gaussian(R) 16 program.  It is based on
 the Gaussian(R) 09 system (copyright 2009, Gaussian, Inc.),
 the Gaussian(R) 03 system (copyright 2003, Gaussian, Inc.),
 the Gaussian(R) 98 system (copyright 1998, Gaussian, Inc.),
 the Gaussian(R) 94 system (copyright 1995, Gaussian, Inc.),
 the Gaussian 92(TM) system (copyright 1992, Gaussian, Inc.),
 the Gaussian 90(TM) system (copyright 1990, Gaussian, Inc.),
 the Gaussian 88(TM) system (copyright 1988, Gaussian, Inc.),
 the Gaussian 86(TM) system (copyright 1986, Carnegie Mellon
 University), and the Gaussian 82(TM) system (copyright 1983,
 Carnegie Mellon University). Gaussian is a federally registered
 trademark of Gaussian, Inc.
  
 This software contains proprietary and confidential information,
 including trade secrets, belonging to Gaussian, Inc.
  
 This software is provided under written license and may be
 used, copied, transmitted, or stored only in accord with that
 written license.
  
 The following legend is applicable only to US Government
 contracts under FAR:
  
                    RESTRICTED RIGHTS LEGEND
  
 Use, reproduction and disclosure by the US Government is
 subject to restrictions as set forth in subparagraphs (a)
 and (c) of the Commercial Computer Software - Restricted
 Rights clause in FAR 52.227-19.
  
 Gaussian, Inc.
 340 Quinnipiac St., Bldg. 40, Wallingford CT 06492
  
  
 ---------------------------------------------------------------
 Warning -- This program may not be used in any manner that
 competes with the business of Gaussian, Inc. or will provide
 assistance to any competitor of Gaussian, Inc.  The licensee
 of this program is prohibited from giving any competitor of
 Gaussian, Inc. access to this program.  By using this program,
 the user acknowledges that Gaussian, Inc. is engaged in the
 business of creating and licensing software in the field of
 computational chemistry and represents and warrants to the
 licensee that it is not a competitor of Gaussian, Inc. and that
 it will not use this program in any manner prohibited above.
 ---------------------------------------------------------------
  

 Cite this work as:
 Gaussian 16, Revision A.03,
 M. J. Frisch, G. W. Trucks, H. B. Schlegel, G. E. Scuseria, 
 M. A. Robb, J. R. Cheeseman, G. Scalmani, V. Barone, 
 G. A. Petersson, H. Nakatsuji, X. Li, M. Caricato, A. V. Marenich, 
 J. Bloino, B. G. Janesko, R. Gomperts, B. Mennucci, H. P. Hratchian, 
 J. V. Ortiz, A. F. Izmaylov, J. L. Sonnenberg, D. Williams-Young, 
 F. Ding, F. Lipparini, F. Egidi, J. Goings, B. Peng, A. Petrone, 
 T. Henderson, D. Ranasinghe, V. G. Zakrzewski, J. Gao, N. Rega, 
 G. Zheng, W. Liang, M. Hada, M. Ehara, K. Toyota, R. Fukuda, 
 J. Hasegawa, M. Ishida, T. Nakajima, Y. Honda, O. Kitao, H. Nakai, 
 T. Vreven, K. Throssell, J. A. Montgomery, Jr., J. E. Peralta, 
 F. Ogliaro, M. J. Bearpark, J. J. Heyd, E. N. Brothers, K. N. Kudin, 
 V. N. Staroverov, T. A. Keith, R. Kobayashi, J. Normand, 
 K. Raghavachari, A. P. Rendell, J. C. Burant, S. S. Iyengar, 
 J. Tomasi, M. Cossi, J. M. Millam, M. Klene, C. Adamo, R. Cammi, 
 J. W. Ochterski, R. L. Martin, K. Morokuma, O. Farkas, 
 J. B. Foresman, and D. J. Fox, Gaussian, Inc., Wallingford CT, 2016.
 
 ******************************************
 Gaussian 16:  EM64L-G16RevA.03 25-Dec-2016
                28-Sep-2019 
 ******************************************
 %nprocshared=20
 Will use up to   20 processors via shared memory.
 %mem=5GB
 ----------------------------------------------------------------------
 #p m062x/cc-pVTZ opt=(calcfc,maxcycles=900,Tight) freq IOP(7/33=1,2/16
 =3) scf=(maxcycle=900)
 ----------------------------------------------------------------------
 1/6=900,7=10,10=4,18=20,19=15,26=3,38=1/1,3;
 2/9=110,12=2,16=3,17=6,18=5,40=1/2;
 3/5=16,6=1,11=2,25=1,30=1,71=2,74=-55,140=1/1,2,3;
 4//1;
 5/5=2,7=900,38=5/2;
 8/6=4,10=90,11=11/1;
 11/6=1,8=1,9=11,15=111,16=1/1,2,10;
 10/6=1,13=1/2;
 6/7=2,8=2,9=2,10=2,28=1/1;
 7/10=1,18=20,25=1,33=1/1,2,3,16;
 1/6=900,7=10,10=4,18=20,19=15,26=3/3(2);
 2/9=110,16=3/2;
 99//99;
 2/9=110,16=3/2;
 3/5=16,6=1,11=2,25=1,30=1,71=1,74=-55/1,2,3;
 4/5=5,16=3,69=1/1;
 5/5=2,7=900,38=5/2;
 7/33=1/1,2,3,16;
 1/6=900,7=10,18=20,19=15,26=3/3(-5);
 2/9=110,16=3/2;
 6/7=2,8=2,9=2,10=2,19=2,28=1/1;
 99/9=1/99;
 Leave Link    1 at Sat Sep 28 17:55:45 2019, MaxMem=   671088640 cpu:               4.3 elap:               2.4
 (Enter /shared/centos7/gaussian/g16/l101.exe)
 ------------------------------
 Gaussian input prepared by ASE
 ------------------------------
 Symbolic Z-matrix:
 Charge =  0 Multiplicity = 1
 C                     1.38662  -1.14566   0.49432 
 C                     0.12962  -0.45987   0.90859 
 C                    -0.11328   0.87089   0.24146 
 C                     2.14355  -0.48324  -0.60718 
 C                    -1.42138   1.51486   0.63629 
 C                     3.36966  -1.19033  -1.01492 
 C                    -1.68701   2.82766  -0.05359 
 H                     2.40648   0.56304  -0.28268 
 H                     1.4706   -0.35059  -1.48769 
 H                     1.15205  -2.18995   0.19765 
 H                     2.06233  -1.23962   1.36909 
 H                     0.13228  -0.31167   1.99978 
 H                    -0.73716  -1.12332   0.70418 
 H                    -0.09409   0.73309  -0.85296 
 H                     0.7257    1.55831   0.47533 
 H                    -2.25873   0.80667   0.40212 
 H                    -1.45151   1.66884   1.72837 
 H                     3.55849  -2.0921   -0.40252 
 H                     3.31919  -1.52445  -2.09351 
 H                     4.26671  -0.54222  -0.92132 
 H                    -1.34664   2.82079  -1.08977 
 H                    -1.17036   3.67538   0.47586 
 H                    -2.7928    3.04925  -0.04981 
 
 ITRead=  0  0  0  0  0  0  0  0  0  0  0  0  0  0  0  0  0  0  0  0
 ITRead=  0  0  0
 MicOpt= -1 -1 -1 -1 -1 -1 -1 -1 -1 -1 -1 -1 -1 -1 -1 -1 -1 -1 -1 -1
 MicOpt= -1 -1 -1
 NAtoms=     23 NQM=       23 NQMF=       0 NMMI=      0 NMMIF=      0
                NMic=       0 NMicF=      0.
                    Isotopes and Nuclear Properties:
 (Nuclear quadrupole moments (NQMom) in fm**2, nuclear magnetic moments (NMagM)
  in nuclear magnetons)

  Atom         1           2           3           4           5           6           7           8           9          10
 IAtWgt=          12          12          12          12          12          12          12           1           1           1
 AtmWgt=  12.0000000  12.0000000  12.0000000  12.0000000  12.0000000  12.0000000  12.0000000   1.0078250   1.0078250   1.0078250
 NucSpn=           0           0           0           0           0           0           0           1           1           1
 AtZEff=  -0.0000000  -0.0000000  -0.0000000  -0.0000000  -0.0000000  -0.0000000  -0.0000000  -0.0000000  -0.0000000  -0.0000000
 NQMom=    0.0000000   0.0000000   0.0000000   0.0000000   0.0000000   0.0000000   0.0000000   0.0000000   0.0000000   0.0000000
 NMagM=    0.0000000   0.0000000   0.0000000   0.0000000   0.0000000   0.0000000   0.0000000   2.7928460   2.7928460   2.7928460
 AtZNuc=   6.0000000   6.0000000   6.0000000   6.0000000   6.0000000   6.0000000   6.0000000   1.0000000   1.0000000   1.0000000

  Atom        11          12          13          14          15          16          17          18          19          20
 IAtWgt=           1           1           1           1           1           1           1           1           1           1
 AtmWgt=   1.0078250   1.0078250   1.0078250   1.0078250   1.0078250   1.0078250   1.0078250   1.0078250   1.0078250   1.0078250
 NucSpn=           1           1           1           1           1           1           1           1           1           1
 AtZEff=  -0.0000000  -0.0000000  -0.0000000  -0.0000000  -0.0000000  -0.0000000  -0.0000000  -0.0000000  -0.0000000  -0.0000000
 NQMom=    0.0000000   0.0000000   0.0000000   0.0000000   0.0000000   0.0000000   0.0000000   0.0000000   0.0000000   0.0000000
 NMagM=    2.7928460   2.7928460   2.7928460   2.7928460   2.7928460   2.7928460   2.7928460   2.7928460   2.7928460   2.7928460
 AtZNuc=   1.0000000   1.0000000   1.0000000   1.0000000   1.0000000   1.0000000   1.0000000   1.0000000   1.0000000   1.0000000

  Atom        21          22          23
 IAtWgt=           1           1           1
 AtmWgt=   1.0078250   1.0078250   1.0078250
 NucSpn=           1           1           1
 AtZEff=  -0.0000000  -0.0000000  -0.0000000
 NQMom=    0.0000000   0.0000000   0.0000000
 NMagM=    2.7928460   2.7928460   2.7928460
 AtZNuc=   1.0000000   1.0000000   1.0000000
 Leave Link  101 at Sat Sep 28 17:55:47 2019, MaxMem=   671088640 cpu:               3.4 elap:               1.7
 (Enter /shared/centos7/gaussian/g16/l103.exe)

 GradGradGradGradGradGradGradGradGradGradGradGradGradGradGradGradGradGrad
 Berny optimization.
 Initialization pass.
                           ----------------------------
                           !    Initial Parameters    !
                           ! (Angstroms and Degrees)  !
 --------------------------                            --------------------------
 ! Name  Definition              Value          Derivative Info.                !
 --------------------------------------------------------------------------------
 ! R1    R(1,2)                  1.4906         calculate D2E/DX2 analytically  !
 ! R2    R(1,4)                  1.4917         calculate D2E/DX2 analytically  !
 ! R3    R(1,10)                 1.1107         calculate D2E/DX2 analytically  !
 ! R4    R(1,11)                 1.1093         calculate D2E/DX2 analytically  !
 ! R5    R(2,3)                  1.5083         calculate D2E/DX2 analytically  !
 ! R6    R(2,12)                 1.1012         calculate D2E/DX2 analytically  !
 ! R7    R(2,13)                 1.1105         calculate D2E/DX2 analytically  !
 ! R8    R(3,5)                  1.5105         calculate D2E/DX2 analytically  !
 ! R9    R(3,14)                 1.1032         calculate D2E/DX2 analytically  !
 ! R10   R(3,15)                 1.1096         calculate D2E/DX2 analytically  !
 ! R11   R(4,6)                  1.473          calculate D2E/DX2 analytically  !
 ! R12   R(4,8)                  1.1266         calculate D2E/DX2 analytically  !
 ! R13   R(4,9)                  1.1161         calculate D2E/DX2 analytically  !
 ! R14   R(5,7)                  1.5066         calculate D2E/DX2 analytically  !
 ! R15   R(5,16)                 1.1214         calculate D2E/DX2 analytically  !
 ! R16   R(5,17)                 1.1033         calculate D2E/DX2 analytically  !
 ! R17   R(6,18)                 1.1063         calculate D2E/DX2 analytically  !
 ! R18   R(6,19)                 1.1303         calculate D2E/DX2 analytically  !
 ! R19   R(6,20)                 1.1106         calculate D2E/DX2 analytically  !
 ! R20   R(7,21)                 1.0907         calculate D2E/DX2 analytically  !
 ! R21   R(7,22)                 1.1251         calculate D2E/DX2 analytically  !
 ! R22   R(7,23)                 1.1278         calculate D2E/DX2 analytically  !
 ! A1    A(2,1,4)              115.393          calculate D2E/DX2 analytically  !
 ! A2    A(2,1,10)             109.1909         calculate D2E/DX2 analytically  !
 ! A3    A(2,1,11)             109.4792         calculate D2E/DX2 analytically  !
 ! A4    A(4,1,10)             109.1153         calculate D2E/DX2 analytically  !
 ! A5    A(4,1,11)             108.1083         calculate D2E/DX2 analytically  !
 ! A6    A(10,1,11)            105.0481         calculate D2E/DX2 analytically  !
 ! A7    A(1,2,3)              114.7586         calculate D2E/DX2 analytically  !
 ! A8    A(1,2,12)             109.5888         calculate D2E/DX2 analytically  !
 ! A9    A(1,2,13)             109.4012         calculate D2E/DX2 analytically  !
 ! A10   A(3,2,12)             108.6583         calculate D2E/DX2 analytically  !
 ! A11   A(3,2,13)             108.6621         calculate D2E/DX2 analytically  !
 ! A12   A(12,2,13)            105.3475         calculate D2E/DX2 analytically  !
 ! A13   A(2,3,5)              113.5779         calculate D2E/DX2 analytically  !
 ! A14   A(2,3,14)             109.0118         calculate D2E/DX2 analytically  !
 ! A15   A(2,3,15)             109.3669         calculate D2E/DX2 analytically  !
 ! A16   A(5,3,14)             109.1238         calculate D2E/DX2 analytically  !
 ! A17   A(5,3,15)             109.6082         calculate D2E/DX2 analytically  !
 ! A18   A(14,3,15)            105.8619         calculate D2E/DX2 analytically  !
 ! A19   A(1,4,6)              114.4339         calculate D2E/DX2 analytically  !
 ! A20   A(1,4,8)              108.5523         calculate D2E/DX2 analytically  !
 ! A21   A(1,4,9)              109.2311         calculate D2E/DX2 analytically  !
 ! A22   A(6,4,8)              109.3472         calculate D2E/DX2 analytically  !
 ! A23   A(6,4,9)              109.9108         calculate D2E/DX2 analytically  !
 ! A24   A(8,4,9)              104.9262         calculate D2E/DX2 analytically  !
 ! A25   A(3,5,7)              113.858          calculate D2E/DX2 analytically  !
 ! A26   A(3,5,16)             108.8334         calculate D2E/DX2 analytically  !
 ! A27   A(3,5,17)             109.9908         calculate D2E/DX2 analytically  !
 ! A28   A(7,5,16)             108.8455         calculate D2E/DX2 analytically  !
 ! A29   A(7,5,17)             109.0758         calculate D2E/DX2 analytically  !
 ! A30   A(16,5,17)            105.9287         calculate D2E/DX2 analytically  !
 ! A31   A(4,6,18)             112.3423         calculate D2E/DX2 analytically  !
 ! A32   A(4,6,19)             111.6472         calculate D2E/DX2 analytically  !
 ! A33   A(4,6,20)             111.6469         calculate D2E/DX2 analytically  !
 ! A34   A(18,6,19)            107.1521         calculate D2E/DX2 analytically  !
 ! A35   A(18,6,20)            106.9274         calculate D2E/DX2 analytically  !
 ! A36   A(19,6,20)            106.7977         calculate D2E/DX2 analytically  !
 ! A37   A(5,7,21)             111.9935         calculate D2E/DX2 analytically  !
 ! A38   A(5,7,22)             111.1057         calculate D2E/DX2 analytically  !
 ! A39   A(5,7,23)             110.0314         calculate D2E/DX2 analytically  !
 ! A40   A(21,7,22)            107.9696         calculate D2E/DX2 analytically  !
 ! A41   A(21,7,23)            108.0837         calculate D2E/DX2 analytically  !
 ! A42   A(22,7,23)            107.4957         calculate D2E/DX2 analytically  !
 ! D1    D(4,1,2,3)             -5.7013         calculate D2E/DX2 analytically  !
 ! D2    D(4,1,2,12)          -128.2537         calculate D2E/DX2 analytically  !
 ! D3    D(4,1,2,13)           116.7112         calculate D2E/DX2 analytically  !
 ! D4    D(10,1,2,3)          -129.0024         calculate D2E/DX2 analytically  !
 ! D5    D(10,1,2,12)          108.4451         calculate D2E/DX2 analytically  !
 ! D6    D(10,1,2,13)           -6.5899         calculate D2E/DX2 analytically  !
 ! D7    D(11,1,2,3)           116.4966         calculate D2E/DX2 analytically  !
 ! D8    D(11,1,2,12)           -6.0559         calculate D2E/DX2 analytically  !
 ! D9    D(11,1,2,13)         -121.0909         calculate D2E/DX2 analytically  !
 ! D10   D(2,1,4,6)           -179.0262         calculate D2E/DX2 analytically  !
 ! D11   D(2,1,4,8)             58.5413         calculate D2E/DX2 analytically  !
 ! D12   D(2,1,4,9)            -55.3391         calculate D2E/DX2 analytically  !
 ! D13   D(10,1,4,6)           -55.6851         calculate D2E/DX2 analytically  !
 ! D14   D(10,1,4,8)          -178.1177         calculate D2E/DX2 analytically  !
 ! D15   D(10,1,4,9)            68.002          calculate D2E/DX2 analytically  !
 ! D16   D(11,1,4,6)            58.0454         calculate D2E/DX2 analytically  !
 ! D17   D(11,1,4,8)           -64.3871         calculate D2E/DX2 analytically  !
 ! D18   D(11,1,4,9)          -178.2675         calculate D2E/DX2 analytically  !
 ! D19   D(1,2,3,5)            177.5644         calculate D2E/DX2 analytically  !
 ! D20   D(1,2,3,14)            55.6636         calculate D2E/DX2 analytically  !
 ! D21   D(1,2,3,15)           -59.6481         calculate D2E/DX2 analytically  !
 ! D22   D(12,2,3,5)           -59.3825         calculate D2E/DX2 analytically  !
 ! D23   D(12,2,3,14)          178.7167         calculate D2E/DX2 analytically  !
 ! D24   D(12,2,3,15)           63.4049         calculate D2E/DX2 analytically  !
 ! D25   D(13,2,3,5)            54.7534         calculate D2E/DX2 analytically  !
 ! D26   D(13,2,3,14)          -67.1474         calculate D2E/DX2 analytically  !
 ! D27   D(13,2,3,15)          177.5409         calculate D2E/DX2 analytically  !
 ! D28   D(2,3,5,7)           -178.5036         calculate D2E/DX2 analytically  !
 ! D29   D(2,3,5,16)           -56.901          calculate D2E/DX2 analytically  !
 ! D30   D(2,3,5,17)            58.734          calculate D2E/DX2 analytically  !
 ! D31   D(14,3,5,7)           -56.6651         calculate D2E/DX2 analytically  !
 ! D32   D(14,3,5,16)           64.9375         calculate D2E/DX2 analytically  !
 ! D33   D(14,3,5,17)         -179.4275         calculate D2E/DX2 analytically  !
 ! D34   D(15,3,5,7)            58.8419         calculate D2E/DX2 analytically  !
 ! D35   D(15,3,5,16)         -179.5555         calculate D2E/DX2 analytically  !
 ! D36   D(15,3,5,17)          -63.9205         calculate D2E/DX2 analytically  !
 ! D37   D(1,4,6,18)            -2.342          calculate D2E/DX2 analytically  !
 ! D38   D(1,4,6,19)           118.0659         calculate D2E/DX2 analytically  !
 ! D39   D(1,4,6,20)          -122.4604         calculate D2E/DX2 analytically  !
 ! D40   D(8,4,6,18)           119.6575         calculate D2E/DX2 analytically  !
 ! D41   D(8,4,6,19)          -119.9347         calculate D2E/DX2 analytically  !
 ! D42   D(8,4,6,20)            -0.4609         calculate D2E/DX2 analytically  !
 ! D43   D(9,4,6,18)          -125.6641         calculate D2E/DX2 analytically  !
 ! D44   D(9,4,6,19)            -5.2562         calculate D2E/DX2 analytically  !
 ! D45   D(9,4,6,20)           114.2175         calculate D2E/DX2 analytically  !
 ! D46   D(3,5,7,21)            37.5033         calculate D2E/DX2 analytically  !
 ! D47   D(3,5,7,22)           -83.3304         calculate D2E/DX2 analytically  !
 ! D48   D(3,5,7,23)           157.7405         calculate D2E/DX2 analytically  !
 ! D49   D(16,5,7,21)          -84.0926         calculate D2E/DX2 analytically  !
 ! D50   D(16,5,7,22)          155.0737         calculate D2E/DX2 analytically  !
 ! D51   D(16,5,7,23)           36.1446         calculate D2E/DX2 analytically  !
 ! D52   D(17,5,7,21)          160.7653         calculate D2E/DX2 analytically  !
 ! D53   D(17,5,7,22)           39.9316         calculate D2E/DX2 analytically  !
 ! D54   D(17,5,7,23)          -78.9975         calculate D2E/DX2 analytically  !
 --------------------------------------------------------------------------------
 Trust Radius=3.00D-01 FncErr=1.00D-07 GrdErr=1.00D-06 EigMax=2.50D+02 EigMin=1.00D-04
 Number of steps in this run=    138 maximum allowed number of steps=    138.
 GradGradGradGradGradGradGradGradGradGradGradGradGradGradGradGradGradGrad

 Leave Link  103 at Sat Sep 28 17:55:48 2019, MaxMem=   671088640 cpu:               1.7 elap:               0.9
 (Enter /shared/centos7/gaussian/g16/l202.exe)
                          Input orientation:                          
 ---------------------------------------------------------------------
 Center     Atomic      Atomic             Coordinates (Angstroms)
 Number     Number       Type             X           Y           Z
 ---------------------------------------------------------------------
      1          6           0        1.386616   -1.145662    0.494317
      2          6           0        0.129621   -0.459872    0.908586
      3          6           0       -0.113284    0.870889    0.241463
      4          6           0        2.143546   -0.483244   -0.607175
      5          6           0       -1.421380    1.514863    0.636286
      6          6           0        3.369664   -1.190325   -1.014920
      7          6           0       -1.687006    2.827664   -0.053586
      8          1           0        2.406476    0.563037   -0.282678
      9          1           0        1.470602   -0.350593   -1.487690
     10          1           0        1.152052   -2.189953    0.197648
     11          1           0        2.062335   -1.239625    1.369085
     12          1           0        0.132280   -0.311669    1.999785
     13          1           0       -0.737164   -1.123317    0.704183
     14          1           0       -0.094090    0.733088   -0.852962
     15          1           0        0.725703    1.558312    0.475332
     16          1           0       -2.258729    0.806673    0.402117
     17          1           0       -1.451510    1.668837    1.728368
     18          1           0        3.558486   -2.092096   -0.402520
     19          1           0        3.319185   -1.524446   -2.093508
     20          1           0        4.266711   -0.542221   -0.921323
     21          1           0       -1.346640    2.820789   -1.089772
     22          1           0       -1.170357    3.675377    0.475862
     23          1           0       -2.792796    3.049248   -0.049806
 ---------------------------------------------------------------------
                    Distance matrix (angstroms):
                    1          2          3          4          5
     1  C    0.000000
     2  C    1.490625   0.000000
     3  C    2.525889   1.508304   0.000000
     4  C    1.491652   2.520709   2.765347   0.000000
     5  C    3.870839   2.525735   1.510531   4.271689   0.000000
     6  C    2.492443   3.838140   4.237692   1.472952   5.744444
     7  C    5.053185   3.877346   2.528364   5.093300   1.506627
     8  H    2.136233   2.765777   2.592044   1.126559   4.050056
     9  H    2.137180   2.748147   2.643990   1.116134   4.044102
    10  H    1.110665   2.131661   3.312363   2.131586   4.532176
    11  H    1.109344   2.134351   3.234056   2.117620   4.501163
    12  H    2.129633   1.101220   2.133175   3.297100   2.758480
    13  H    2.134241   1.110520   2.140138   3.229217   2.726308
    14  H    2.745424   2.139218   1.103233   2.558688   2.142599
    15  H    2.783639   2.148509   1.109570   2.711098   2.153546
    16  H    4.136261   2.750430   2.152409   4.697082   1.121392
    17  H    4.183210   2.775504   2.153707   4.796941   1.103295
    18  H    2.533194   4.017496   4.761922   2.152289   6.236052
    19  H    3.251944   4.507683   4.792867   2.162271   6.257966
    20  H    3.265444   4.524474   4.746926   2.147090   6.245968
    21  H    5.070775   4.115279   2.663731   4.830210   2.165710
    22  H    5.457185   4.356315   3.006243   5.426698   2.180956
    23  H    5.946497   4.666151   3.465526   6.095623   2.169295
                    6          7          8          9         10
     6  C    0.000000
     7  C    6.529803   0.000000
     8  H    2.130303   4.683761   0.000000
     9  H    2.129577   4.704090   1.778380   0.000000
    10  H    2.717974   5.770602   3.063209   2.514972   0.000000
    11  H    2.719379   5.711776   2.469078   3.049867   1.761819
    12  H    4.510115   4.169118   3.338669   3.735652   2.795637
    13  H    4.452622   4.133602   3.701373   3.205563   2.227875
    14  H    3.965267   2.750206   2.570403   2.006366   3.346762
    15  H    4.094679   2.777080   2.095269   2.837648   3.782641
    16  H    6.137981   2.149171   4.721487   4.338034   4.544777
    17  H    6.240526   2.138621   4.489004   4.791645   4.900194
    18  H    1.106291   7.200069   2.896761   2.927403   2.482077
    19  H    1.130281   6.940036   2.910280   2.272049   3.223161
    20  H    1.110627   6.896074   2.256089   2.859321   3.697056
    21  H    6.191782   1.090678   4.453619   4.260616   5.745298
    22  H    6.819771   1.125104   4.801643   5.199868   6.314514
    23  H    7.541972   1.127778   5.767834   5.639414   6.562948
                   11         12         13         14         15
    11  H    0.000000
    12  H    2.232486   0.000000
    13  H    2.879725   1.758775   0.000000
    14  H    3.671410   3.046460   2.506887   0.000000
    15  H    3.227047   2.484539   3.063248   1.765621   0.000000
    16  H    4.877904   3.085474   2.476139   2.503258   3.078499
    17  H    4.575515   2.550384   3.058655   3.062920   2.514472
    18  H    2.470579   4.547513   4.540477   4.639599   4.703272
    19  H    3.694638   5.327498   4.943880   4.276197   4.777917
    20  H    3.254476   5.067499   5.293270   4.543970   4.347600
    21  H    5.844146   4.641643   4.375580   2.446110   2.887560
    22  H    5.950242   4.462705   4.823614   3.403115   2.842007
    23  H    6.631740   4.904350   4.712157   3.645912   3.857265
                   16         17         18         19         20
    16  H    0.000000
    17  H    1.775914   0.000000
    18  H    6.549068   6.617051   0.000000
    19  H    6.540290   6.896617   1.799704   0.000000
    20  H    6.793554   6.678899   1.781250   1.799052   0.000000
    21  H    2.667265   3.046293   6.976318   6.454338   6.545832
    22  H    3.069113   2.382020   7.509811   7.334563   7.021536
    23  H    2.349171   2.620398   8.179035   7.902639   7.968364
                   21         22         23
    21  H    0.000000
    22  H    1.792375   0.000000
    23  H    1.795853   1.816776   0.000000
 Stoichiometry    C7H16
 Framework group  C1[X(C7H16)]
 Deg. of freedom    63
 Full point group                 C1      NOp   1
 Largest Abelian subgroup         C1      NOp   1
 Largest concise Abelian subgroup C1      NOp   1
                         Standard orientation:                         
 ---------------------------------------------------------------------
 Center     Atomic      Atomic             Coordinates (Angstroms)
 Number     Number       Type             X           Y           Z
 ---------------------------------------------------------------------
      1          6           0       -1.454094    0.915894    0.021068
      2          6           0        0.007261    1.208219   -0.009815
      3          6           0        0.896365   -0.008269    0.058238
      4          6           0       -1.818184   -0.530062   -0.019849
      5          6           0        2.369268    0.313964   -0.033555
      6          6           0       -3.267277   -0.793960   -0.011121
      7          6           0        3.261666   -0.899526   -0.002060
      8          1           0       -1.339702   -1.045217    0.860381
      9          1           0       -1.351379   -1.001454   -0.917422
     10          1           0       -1.949133    1.439662   -0.824024
     11          1           0       -1.900579    1.358147    0.935238
     12          1           0        0.266806    1.881281    0.822237
     13          1           0        0.250644    1.775038   -0.933252
     14          1           0        0.625539   -0.697559   -0.759475
     15          1           0        0.693828   -0.559863    0.999444
     16          1           0        2.557922    0.877754   -0.984382
     17          1           0        2.658041    0.995248    0.784810
     18          1           0       -3.863401    0.134725    0.066717
     19          1           0       -3.599909   -1.325746   -0.951385
     20          1           0       -3.561029   -1.439376    0.843653
     21          1           0        2.828427   -1.739393   -0.546582
     22          1           0        3.454305   -1.233431    1.054944
     23          1           0        4.259585   -0.657381   -0.468330
 ---------------------------------------------------------------------
 Rotational constants (GHZ):           5.9508006           0.9829152           0.8764944
 Leave Link  202 at Sat Sep 28 17:55:50 2019, MaxMem=   671088640 cpu:               3.8 elap:               1.9
 (Enter /shared/centos7/gaussian/g16/l301.exe)
 Standard basis: CC-pVTZ (5D, 7F)
 Ernie: Thresh=  0.10000D-02 Tol=  0.10000D-05 Strict=F.
 Ernie:  21 primitive shells out of 310 were deleted.
 There are   485 symmetry adapted cartesian basis functions of A   symmetry.
 There are   434 symmetry adapted basis functions of A   symmetry.
   434 basis functions,   636 primitive gaussians,   485 cartesian basis functions
    29 alpha electrons       29 beta electrons
       nuclear repulsion energy       318.6828833762 Hartrees.
 IExCor= 4336 DFT=T Ex+Corr=M062X ExCW=0 ScaHFX=  0.540000
 ScaDFX=  1.000000  1.000000  1.000000  1.000000 ScalE2=  1.000000  1.000000
 IRadAn=      5 IRanWt=     -1 IRanGd=            0 ICorTp=0 IEmpDi=  4
 NAtoms=   23 NActive=   23 NUniq=   23 SFac= 1.00D+00 NAtFMM=   60 NAOKFM=F Big=F
 Integral buffers will be    131072 words long.
 Raffenetti 2 integral format.
 Two-electron integral symmetry is turned on.
 Leave Link  301 at Sat Sep 28 17:55:51 2019, MaxMem=   671088640 cpu:               1.8 elap:               0.9
 (Enter /shared/centos7/gaussian/g16/l302.exe)
 NPDir=0 NMtPBC=     1 NCelOv=     1 NCel=       1 NClECP=     1 NCelD=      1
         NCelK=      1 NCelE2=     1 NClLst=     1 CellRange=     0.0.
 One-electron integrals computed using PRISM.
 One-electron integral symmetry used in STVInt
 NBasis=   434 RedAO= T EigKep=  1.49D-04  NBF=   434
 NBsUse=   434 1.00D-06 EigRej= -1.00D+00 NBFU=   434
 Precomputing XC quadrature grid using
 IXCGrd= 4 IRadAn=           5 IRanWt=          -1 IRanGd=           0 AccXCQ= 0.00D+00.
 Generated NRdTot=       0 NPtTot=           0 NUsed=           0 NTot=          32
 NSgBfM=   485   485   485   485   485 MxSgAt=    23 MxSgA2=    23.
 Leave Link  302 at Sat Sep 28 17:57:09 2019, MaxMem=   671088640 cpu:             157.1 elap:              78.6
 (Enter /shared/centos7/gaussian/g16/l303.exe)
 DipDrv:  MaxL=1.
 Leave Link  303 at Sat Sep 28 17:57:15 2019, MaxMem=   671088640 cpu:              12.5 elap:               6.3
 (Enter /shared/centos7/gaussian/g16/l401.exe)
 ExpMin= 1.03D-01 ExpMax= 8.24D+03 ExpMxC= 2.81D+02 IAcc=3 IRadAn=         5 AccDes= 0.00D+00
 Harris functional with IExCor= 1009 and IRadAn=       5 diagonalized for initial guess.
 HarFok:  IExCor= 1009 AccDes= 0.00D+00 IRadAn=         5 IDoV= 1 UseB2=F ITyADJ=14
 ICtDFT=  3500011 ScaDFX=  1.000000  1.000000  1.000000  1.000000
 FoFCou: FMM=F IPFlag=           0 FMFlag=      100000 FMFlg1=           0
         NFxFlg=           0 DoJE=T BraDBF=F KetDBF=T FulRan=T
         wScrn=  0.000000 ICntrl=       500 IOpCl=  0 I1Cent=   200000004 NGrid=           0
         NMat0=    1 NMatS0=      1 NMatT0=    0 NMatD0=    1 NMtDS0=    0 NMtDT0=    0
 Petite list used in FoFCou.
 Harris En= -276.323448022857    
 JPrj=0 DoOrth=F DoCkMO=F.
 Leave Link  401 at Sat Sep 28 17:58:07 2019, MaxMem=   671088640 cpu:             103.9 elap:              52.0
 (Enter /shared/centos7/gaussian/g16/l502.exe)
 Integral symmetry usage will be decided dynamically.
 Closed shell SCF:
 Using DIIS extrapolation, IDIIS=  1040.
 NGot=   671088640 LenX=   670604095 LenY=   670368385
 Requested convergence on RMS density matrix=1.00D-08 within 900 cycles.
 Requested convergence on MAX density matrix=1.00D-06.
 Requested convergence on             energy=1.00D-06.
 No special actions if energy rises.
 Fock matrices will be formed incrementally for  20 cycles.
 Integral accuracy reduced to 1.0D-05 until final iterations.

 Cycle   1  Pass 0  IDiag  1:
 FoFJK:  IHMeth= 1 ICntrl=       0 DoSepK=F KAlg= 0 I1Cent=           0 FoldK=F
 IRaf= 900000000 NMat=       1 IRICut=       1 DoRegI=T DoRafI=F ISym2E= 0 IDoP0=0 IntGTp=1.
 FoFCou: FMM=F IPFlag=           0 FMFlag=      100000 FMFlg1=           0
         NFxFlg=           0 DoJE=F BraDBF=F KetDBF=F FulRan=T
         wScrn=  0.000000 ICntrl=         0 IOpCl=  0 I1Cent=           0 NGrid=           0
         NMat0=    1 NMatS0=      1 NMatT0=    0 NMatD0=    1 NMtDS0=    0 NMtDT0=    0
 Symmetry not used in FoFCou.
 E= -275.955924891499    
 DIIS: error= 3.71D-02 at cycle   1 NSaved=   1.
 NSaved= 1 IEnMin= 1 EnMin= -275.955924891499     IErMin= 1 ErrMin= 3.71D-02
 ErrMax= 3.71D-02  0.00D+00 EMaxC= 1.00D-01 BMatC= 3.71D-01 BMatP= 3.71D-01
 IDIUse=3 WtCom= 6.29D-01 WtEn= 3.71D-01
 Coeff-Com:  0.100D+01
 Coeff-En:   0.100D+01
 Coeff:      0.100D+01
 Gap=     0.357 Goal=   None    Shift=    0.000
 GapD=    0.357 DampG=1.000 DampE=0.500 DampFc=0.5000 IDamp=-1.
 Damping current iteration by 5.00D-01
 RMSDP=1.91D-03 MaxDP=7.79D-02              OVMax= 1.66D-01

 Cycle   2  Pass 0  IDiag  1:
 RMSU=  9.54D-04    CP:  9.90D-01
 E= -276.136625326434     Delta-E=       -0.180700434934 Rises=F Damp=T
 DIIS: error= 4.70D-03 at cycle   2 NSaved=   2.
 NSaved= 2 IEnMin= 2 EnMin= -276.136625326434     IErMin= 2 ErrMin= 4.70D-03
 ErrMax= 4.70D-03  0.00D+00 EMaxC= 1.00D-01 BMatC= 1.76D-02 BMatP= 3.71D-01
 IDIUse=3 WtCom= 9.53D-01 WtEn= 4.70D-02
 Coeff-Com: -0.685D-01 0.107D+01
 Coeff-En:   0.000D+00 0.100D+01
 Coeff:     -0.653D-01 0.107D+01
 Gap=     0.445 Goal=   None    Shift=    0.000
 RMSDP=5.23D-04 MaxDP=2.13D-02 DE=-1.81D-01 OVMax= 8.79D-02

 Cycle   3  Pass 0  IDiag  1:
 RMSU=  5.13D-04    CP:  9.97D-01  9.03D-01
 E= -276.312462877570     Delta-E=       -0.175837551136 Rises=F Damp=F
 DIIS: error= 2.24D-03 at cycle   3 NSaved=   3.
 NSaved= 3 IEnMin= 3 EnMin= -276.312462877570     IErMin= 3 ErrMin= 2.24D-03
 ErrMax= 2.24D-03  0.00D+00 EMaxC= 1.00D-01 BMatC= 1.69D-03 BMatP= 1.76D-02
 IDIUse=3 WtCom= 9.78D-01 WtEn= 2.24D-02
 Coeff-Com: -0.467D-01 0.195D+00 0.852D+00
 Coeff-En:   0.000D+00 0.000D+00 0.100D+01
 Coeff:     -0.457D-01 0.191D+00 0.855D+00
 Gap=     0.404 Goal=   None    Shift=    0.000
 RMSDP=7.77D-05 MaxDP=3.14D-03 DE=-1.76D-01 OVMax= 8.19D-03

 Cycle   4  Pass 0  IDiag  1:
 RMSU=  6.29D-05    CP:  9.96D-01  9.45D-01  9.59D-01
 E= -276.313902881970     Delta-E=       -0.001440004400 Rises=F Damp=F
 DIIS: error= 6.48D-04 at cycle   4 NSaved=   4.
 NSaved= 4 IEnMin= 4 EnMin= -276.313902881970     IErMin= 4 ErrMin= 6.48D-04
 ErrMax= 6.48D-04  0.00D+00 EMaxC= 1.00D-01 BMatC= 2.49D-04 BMatP= 1.69D-03
 IDIUse=3 WtCom= 9.94D-01 WtEn= 6.48D-03
 Coeff-Com: -0.135D-01 0.377D-01 0.320D+00 0.656D+00
 Coeff-En:   0.000D+00 0.000D+00 0.000D+00 0.100D+01
 Coeff:     -0.134D-01 0.375D-01 0.318D+00 0.658D+00
 Gap=     0.405 Goal=   None    Shift=    0.000
 RMSDP=2.76D-05 MaxDP=1.30D-03 DE=-1.44D-03 OVMax= 2.99D-03

 Cycle   5  Pass 0  IDiag  1:
 RMSU=  1.74D-05    CP:  9.96D-01  9.38D-01  9.86D-01  7.62D-01
 E= -276.314128515695     Delta-E=       -0.000225633725 Rises=F Damp=F
 DIIS: error= 1.54D-04 at cycle   5 NSaved=   5.
 NSaved= 5 IEnMin= 5 EnMin= -276.314128515695     IErMin= 5 ErrMin= 1.54D-04
 ErrMax= 1.54D-04  0.00D+00 EMaxC= 1.00D-01 BMatC= 1.45D-05 BMatP= 2.49D-04
 IDIUse=3 WtCom= 9.98D-01 WtEn= 1.54D-03
 Coeff-Com: -0.509D-03-0.138D-02 0.432D-01 0.223D+00 0.736D+00
 Coeff-En:   0.000D+00 0.000D+00 0.000D+00 0.000D+00 0.100D+01
 Coeff:     -0.509D-03-0.138D-02 0.431D-01 0.223D+00 0.736D+00
 Gap=     0.405 Goal=   None    Shift=    0.000
 RMSDP=6.32D-06 MaxDP=2.39D-04 DE=-2.26D-04 OVMax= 6.51D-04

 Initial convergence to 1.0D-05 achieved.  Increase integral accuracy.
 Cycle   6  Pass 1  IDiag  1:
 E= -276.314069730663     Delta-E=        0.000058785032 Rises=F Damp=F
 DIIS: error= 5.29D-05 at cycle   1 NSaved=   1.
 NSaved= 1 IEnMin= 1 EnMin= -276.314069730663     IErMin= 1 ErrMin= 5.29D-05
 ErrMax= 5.29D-05  0.00D+00 EMaxC= 1.00D-01 BMatC= 1.43D-06 BMatP= 1.43D-06
 IDIUse=1 WtCom= 1.00D+00 WtEn= 0.00D+00
 Coeff-Com:  0.100D+01
 Coeff:      0.100D+01
 Gap=     0.405 Goal=   None    Shift=    0.000
 RMSDP=6.32D-06 MaxDP=2.39D-04 DE= 5.88D-05 OVMax= 2.79D-04

 Cycle   7  Pass 1  IDiag  1:
 RMSU=  1.94D-05    CP:  1.00D+00
 E= -276.314070543530     Delta-E=       -0.000000812866 Rises=F Damp=F
 DIIS: error= 2.71D-05 at cycle   2 NSaved=   2.
 NSaved= 2 IEnMin= 2 EnMin= -276.314070543530     IErMin= 2 ErrMin= 2.71D-05
 ErrMax= 2.71D-05  0.00D+00 EMaxC= 1.00D-01 BMatC= 2.88D-07 BMatP= 1.43D-06
 IDIUse=1 WtCom= 1.00D+00 WtEn= 0.00D+00
 Coeff-Com:  0.243D+00 0.757D+00
 Coeff:      0.243D+00 0.757D+00
 Gap=     0.405 Goal=   None    Shift=    0.000
 RMSDP=1.19D-06 MaxDP=5.43D-05 DE=-8.13D-07 OVMax= 1.48D-04

 Cycle   8  Pass 1  IDiag  1:
 RMSU=  1.11D-06    CP:  1.00D+00  1.02D+00
 E= -276.314070744627     Delta-E=       -0.000000201098 Rises=F Damp=F
 DIIS: error= 1.39D-05 at cycle   3 NSaved=   3.
 NSaved= 3 IEnMin= 3 EnMin= -276.314070744627     IErMin= 3 ErrMin= 1.39D-05
 ErrMax= 1.39D-05  0.00D+00 EMaxC= 1.00D-01 BMatC= 8.47D-08 BMatP= 2.88D-07
 IDIUse=1 WtCom= 1.00D+00 WtEn= 0.00D+00
 Coeff-Com: -0.102D-01 0.345D+00 0.665D+00
 Coeff:     -0.102D-01 0.345D+00 0.665D+00
 Gap=     0.405 Goal=   None    Shift=    0.000
 RMSDP=4.75D-07 MaxDP=1.80D-05 DE=-2.01D-07 OVMax= 5.39D-05

 Cycle   9  Pass 1  IDiag  1:
 RMSU=  2.81D-07    CP:  1.00D+00  1.03D+00  7.42D-01
 E= -276.314070825712     Delta-E=       -0.000000081085 Rises=F Damp=F
 DIIS: error= 1.69D-06 at cycle   4 NSaved=   4.
 NSaved= 4 IEnMin= 4 EnMin= -276.314070825712     IErMin= 4 ErrMin= 1.69D-06
 ErrMax= 1.69D-06  0.00D+00 EMaxC= 1.00D-01 BMatC= 8.25D-10 BMatP= 8.47D-08
 IDIUse=1 WtCom= 1.00D+00 WtEn= 0.00D+00
 Coeff-Com: -0.870D-02 0.768D-01 0.181D+00 0.751D+00
 Coeff:     -0.870D-02 0.768D-01 0.181D+00 0.751D+00
 Gap=     0.405 Goal=   None    Shift=    0.000
 RMSDP=6.30D-08 MaxDP=2.03D-06 DE=-8.11D-08 OVMax= 6.09D-06

 Cycle  10  Pass 1  IDiag  1:
 RMSU=  6.01D-08    CP:  1.00D+00  1.04D+00  7.49D-01  1.01D+00
 E= -276.314070826556     Delta-E=       -0.000000000844 Rises=F Damp=F
 DIIS: error= 3.97D-07 at cycle   5 NSaved=   5.
 NSaved= 5 IEnMin= 5 EnMin= -276.314070826556     IErMin= 5 ErrMin= 3.97D-07
 ErrMax= 3.97D-07  0.00D+00 EMaxC= 1.00D-01 BMatC= 4.45D-11 BMatP= 8.25D-10
 IDIUse=1 WtCom= 1.00D+00 WtEn= 0.00D+00
 Coeff-Com: -0.266D-03-0.182D-01-0.315D-01 0.884D-01 0.962D+00
 Coeff:     -0.266D-03-0.182D-01-0.315D-01 0.884D-01 0.962D+00
 Gap=     0.405 Goal=   None    Shift=    0.000
 RMSDP=2.74D-08 MaxDP=8.53D-07 DE=-8.44D-10 OVMax= 1.97D-06

 Cycle  11  Pass 1  IDiag  1:
 RMSU=  1.50D-08    CP:  1.00D+00  1.04D+00  7.54D-01  1.08D+00  1.09D+00
 E= -276.314070826595     Delta-E=       -0.000000000039 Rises=F Damp=F
 DIIS: error= 1.26D-07 at cycle   6 NSaved=   6.
 NSaved= 6 IEnMin= 6 EnMin= -276.314070826595     IErMin= 6 ErrMin= 1.26D-07
 ErrMax= 1.26D-07  0.00D+00 EMaxC= 1.00D-01 BMatC= 1.01D-11 BMatP= 4.45D-11
 IDIUse=1 WtCom= 1.00D+00 WtEn= 0.00D+00
 Coeff-Com:  0.455D-03-0.127D-01-0.251D-01-0.127D-01 0.410D+00 0.640D+00
 Coeff:      0.455D-03-0.127D-01-0.251D-01-0.127D-01 0.410D+00 0.640D+00
 Gap=     0.405 Goal=   None    Shift=    0.000
 RMSDP=5.08D-09 MaxDP=2.36D-07 DE=-3.94D-11 OVMax= 5.77D-07

 SCF Done:  E(RM062X) =  -276.314070827     A.U. after   11 cycles
            NFock= 11  Conv=0.51D-08     -V/T= 2.0066
 KE= 2.744918432043D+02 PE=-1.275812664851D+03 EE= 4.063238674442D+02
 Leave Link  502 at Sat Sep 28 18:22:17 2019, MaxMem=   671088640 cpu:            2497.7 elap:            1449.5
 (Enter /shared/centos7/gaussian/g16/l801.exe)
 DoSCS=F DFT=T ScalE2(SS,OS)=  1.000000  1.000000
 Range of M.O.s used for correlation:     1   434
 NBasis=   434 NAE=    29 NBE=    29 NFC=     0 NFV=     0
 NROrb=    434 NOA=    29 NOB=    29 NVA=   405 NVB=   405

 **** Warning!!: The largest alpha MO coefficient is  0.18041473D+02

 Leave Link  801 at Sat Sep 28 18:22:18 2019, MaxMem=   671088640 cpu:               1.3 elap:               0.6
 (Enter /shared/centos7/gaussian/g16/l1101.exe)
 Using compressed storage, NAtomX=    23.
 Will process     24 centers per pass.
 Leave Link 1101 at Sat Sep 28 18:22:56 2019, MaxMem=   671088640 cpu:              77.0 elap:              38.5
 (Enter /shared/centos7/gaussian/g16/l1102.exe)
 Symmetrizing basis deriv contribution to polar:
 IMax=3 JMax=2 DiffMx= 0.00D+00
 Leave Link 1102 at Sat Sep 28 18:22:59 2019, MaxMem=   671088640 cpu:               5.2 elap:               2.6
 (Enter /shared/centos7/gaussian/g16/l1110.exe)
 Forming Gx(P) for the SCF density, NAtomX=    23.
 Integral derivatives from FoFJK, PRISM(SPDF).
 Do as many integral derivatives as possible in FoFJK.
 G2DrvN: MDV=     671086848.
 G2DrvN: will do    24 centers at a time, making    1 passes.
 Calling FoFCou, ICntrl=  3107 FMM=F I1Cent=   0 AccDes= 0.00D+00.
 FoFJK:  IHMeth= 1 ICntrl=    3107 DoSepK=F KAlg= 0 I1Cent=           0 FoldK=F
 IRaf=         0 NMat=       1 IRICut=       1 DoRegI=T DoRafI=F ISym2E= 0 IDoP0=0 IntGTp=1.
 FoFCou: FMM=F IPFlag=           0 FMFlag=      100000 FMFlg1=           0
         NFxFlg=           0 DoJE=F BraDBF=F KetDBF=F FulRan=T
         wScrn=  0.000000 ICntrl=      3107 IOpCl=  0 I1Cent=           0 NGrid=           0
         NMat0=    1 NMatS0=      1 NMatT0=    0 NMatD0=    1 NMtDS0=    0 NMtDT0=    0
 Symmetry not used in FoFCou.
 End of G2Drv F.D. properties file   721 does not exist.
 End of G2Drv F.D. properties file   722 does not exist.
 End of G2Drv F.D. properties file   788 does not exist.
 Leave Link 1110 at Sat Sep 28 19:13:29 2019, MaxMem=   671088640 cpu:            6060.2 elap:            3030.6
 (Enter /shared/centos7/gaussian/g16/l1002.exe)
 Minotr:  Closed shell wavefunction.
          IDoAtm=11111111111111111111111
          Direct CPHF calculation.
          Differentiating once with respect to nuclear coordinates.
          Requested convergence is 1.0D-08 RMS, and 1.0D-07 maximum.
          Secondary convergence is 1.0D-12 RMS, and 1.0D-12 maximum.
          NewPWx=T KeepS1=F KeepF1=F KeepIn=T MapXYZ=F SortEE=F KeepMc=T.
         6939 words used for storage of precomputed grid.
 Two-electron integrals replicated using symmetry.
          MDV=     671088640 using IRadAn=       1.
          Solving linear equations simultaneously, MaxMat=     380.
 FoF2E skips out because all densities are zero.
 CalDSu exits because no D1Ps are significant.
 FoFJK:  IHMeth= 1 ICntrl=       0 DoSepK=F KAlg= 0 I1Cent=           0 FoldK=F
 IRaf= 880000000 NMat=      69 IRICut=     172 DoRegI=T DoRafI=T ISym2E= 2 IDoP0=3 IntGTp=3.
 FoFCou: FMM=F IPFlag=           0 FMFlag=      100000 FMFlg1=           0
         NFxFlg=           0 DoJE=F BraDBF=F KetDBF=F FulRan=T
         wScrn=  0.000000 ICntrl=         0 IOpCl=  0 I1Cent=           0 NGrid=           0
         NMat0=   69 NMatS0=     69 NMatT0=    0 NMatD0=   69 NMtDS0=    0 NMtDT0=    0
 Integrals replicated using symmetry in FoFCou.
 Raff kept on since  84.77% of shell-pairs survive, threshold=   0.20 IRatSp=85.
          There are    72 degrees of freedom in the 1st order CPHF.  IDoFFX=6 NUNeed=     0.
     66 vectors produced by pass  0 Test12= 1.63D-14 1.39D-09 XBig12= 5.62D-02 5.20D-02.
 AX will form    66 AO Fock derivatives at one time.
     66 vectors produced by pass  1 Test12= 1.63D-14 1.39D-09 XBig12= 3.27D-03 8.65D-03.
     66 vectors produced by pass  2 Test12= 1.63D-14 1.39D-09 XBig12= 5.74D-05 1.37D-03.
     66 vectors produced by pass  3 Test12= 1.63D-14 1.39D-09 XBig12= 4.47D-07 9.69D-05.
     66 vectors produced by pass  4 Test12= 1.63D-14 1.39D-09 XBig12= 2.21D-09 6.92D-06.
     66 vectors produced by pass  5 Test12= 1.63D-14 1.39D-09 XBig12= 1.18D-11 3.76D-07.
     21 vectors produced by pass  6 Test12= 1.63D-14 1.39D-09 XBig12= 4.68D-14 2.17D-08.
 InvSVY:  IOpt=1 It=  1 EMax= 3.33D-16
 Solved reduced A of dimension   417 with    72 vectors.
 End of Minotr F.D. properties file   721 does not exist.
 End of Minotr F.D. properties file   722 does not exist.
 End of Minotr F.D. properties file   788 does not exist.
 Leave Link 1002 at Sat Sep 28 20:37:38 2019, MaxMem=   671088640 cpu:           10095.1 elap:            5048.4
 (Enter /shared/centos7/gaussian/g16/l601.exe)
 Copying SCF densities to generalized density rwf, IOpCl= 0 IROHF=0.

 **********************************************************************

            Population analysis using the SCF density.

 **********************************************************************

 Orbital symmetries:
       Occupied  (A) (A) (A) (A) (A) (A) (A) (A) (A) (A) (A) (A)
                 (A) (A) (A) (A) (A) (A) (A) (A) (A) (A) (A) (A)
                 (A) (A) (A) (A) (A)
       Virtual   (A) (A) (A) (A) (A) (A) (A) (A) (A) (A) (A) (A)
                 (A) (A) (A) (A) (A) (A) (A) (A) (A) (A) (A) (A)
                 (A) (A) (A) (A) (A) (A) (A) (A) (A) (A) (A) (A)
                 (A) (A) (A) (A) (A) (A) (A) (A) (A) (A) (A) (A)
                 (A) (A) (A) (A) (A) (A) (A) (A) (A) (A) (A) (A)
                 (A) (A) (A) (A) (A) (A) (A) (A) (A) (A) (A) (A)
                 (A) (A) (A) (A) (A) (A) (A) (A) (A) (A) (A) (A)
                 (A) (A) (A) (A) (A) (A) (A) (A) (A) (A) (A) (A)
                 (A) (A) (A) (A) (A) (A) (A) (A) (A) (A) (A) (A)
                 (A) (A) (A) (A) (A) (A) (A) (A) (A) (A) (A) (A)
                 (A) (A) (A) (A) (A) (A) (A) (A) (A) (A) (A) (A)
                 (A) (A) (A) (A) (A) (A) (A) (A) (A) (A) (A) (A)
                 (A) (A) (A) (A) (A) (A) (A) (A) (A) (A) (A) (A)
                 (A) (A) (A) (A) (A) (A) (A) (A) (A) (A) (A) (A)
                 (A) (A) (A) (A) (A) (A) (A) (A) (A) (A) (A) (A)
                 (A) (A) (A) (A) (A) (A) (A) (A) (A) (A) (A) (A)
                 (A) (A) (A) (A) (A) (A) (A) (A) (A) (A) (A) (A)
                 (A) (A) (A) (A) (A) (A) (A) (A) (A) (A) (A) (A)
                 (A) (A) (A) (A) (A) (A) (A) (A) (A) (A) (A) (A)
                 (A) (A) (A) (A) (A) (A) (A) (A) (A) (A) (A) (A)
                 (A) (A) (A) (A) (A) (A) (A) (A) (A) (A) (A) (A)
                 (A) (A) (A) (A) (A) (A) (A) (A) (A) (A) (A) (A)
                 (A) (A) (A) (A) (A) (A) (A) (A) (A) (A) (A) (A)
                 (A) (A) (A) (A) (A) (A) (A) (A) (A) (A) (A) (A)
                 (A) (A) (A) (A) (A) (A) (A) (A) (A) (A) (A) (A)
                 (A) (A) (A) (A) (A) (A) (A) (A) (A) (A) (A) (A)
                 (A) (A) (A) (A) (A) (A) (A) (A) (A) (A) (A) (A)
                 (A) (A) (A) (A) (A) (A) (A) (A) (A) (A) (A) (A)
                 (A) (A) (A) (A) (A) (A) (A) (A) (A) (A) (A) (A)
                 (A) (A) (A) (A) (A) (A) (A) (A) (A) (A) (A) (A)
                 (A) (A) (A) (A) (A) (A) (A) (A) (A) (A) (A) (A)
                 (A) (A) (A) (A) (A) (A) (A) (A) (A) (A) (A) (A)
                 (A) (A) (A) (A) (A) (A) (A) (A) (A) (A) (A) (A)
                 (A) (A) (A) (A) (A) (A) (A) (A) (A)
 The electronic state is 1-A.
 Alpha  occ. eigenvalues --  -10.52738 -10.52509 -10.52433 -10.52392 -10.52295
 Alpha  occ. eigenvalues --  -10.52225 -10.52187  -0.92216  -0.88119  -0.83000
 Alpha  occ. eigenvalues --   -0.76179  -0.69795  -0.66772  -0.62386  -0.55840
 Alpha  occ. eigenvalues --   -0.52169  -0.50994  -0.49975  -0.48197  -0.45854
 Alpha  occ. eigenvalues --   -0.44544  -0.43827  -0.41261  -0.39793  -0.39607
 Alpha  occ. eigenvalues --   -0.38064  -0.37191  -0.36338  -0.34401
 Alpha virt. eigenvalues --    0.06107   0.08120   0.08546   0.08837   0.10340
 Alpha virt. eigenvalues --    0.11854   0.12097   0.12837   0.14201   0.15173
 Alpha virt. eigenvalues --    0.16248   0.17274   0.17889   0.18741   0.20686
 Alpha virt. eigenvalues --    0.21540   0.23337   0.23465   0.24925   0.25856
 Alpha virt. eigenvalues --    0.27691   0.28863   0.30024   0.30691   0.31976
 Alpha virt. eigenvalues --    0.32314   0.34053   0.34659   0.35151   0.36826
 Alpha virt. eigenvalues --    0.37419   0.39569   0.39882   0.42505   0.42881
 Alpha virt. eigenvalues --    0.44037   0.45515   0.46888   0.47662   0.48295
 Alpha virt. eigenvalues --    0.48887   0.49015   0.49781   0.50894   0.51203
 Alpha virt. eigenvalues --    0.51814   0.52291   0.52820   0.52953   0.53524
 Alpha virt. eigenvalues --    0.54473   0.56071   0.56542   0.56756   0.57891
 Alpha virt. eigenvalues --    0.58580   0.59260   0.61253   0.62964   0.64894
 Alpha virt. eigenvalues --    0.66430   0.67513   0.72422   0.75883   0.76933
 Alpha virt. eigenvalues --    0.78337   0.79252   0.80919   0.83047   0.83529
 Alpha virt. eigenvalues --    0.86102   0.87468   0.88900   0.90070   0.90938
 Alpha virt. eigenvalues --    0.92295   0.93488   0.94743   0.95662   0.97610
 Alpha virt. eigenvalues --    0.98897   1.02623   1.03270   1.05225   1.05646
 Alpha virt. eigenvalues --    1.06607   1.06882   1.07877   1.08954   1.10471
 Alpha virt. eigenvalues --    1.10904   1.11774   1.12940   1.13825   1.14543
 Alpha virt. eigenvalues --    1.15219   1.16125   1.17286   1.18196   1.18699
 Alpha virt. eigenvalues --    1.19689   1.20813   1.21136   1.21536   1.23358
 Alpha virt. eigenvalues --    1.24396   1.25273   1.26706   1.27260   1.27809
 Alpha virt. eigenvalues --    1.28807   1.29955   1.32067   1.32753   1.33459
 Alpha virt. eigenvalues --    1.34717   1.36118   1.36403   1.36734   1.37496
 Alpha virt. eigenvalues --    1.38934   1.40012   1.40641   1.41771   1.43460
 Alpha virt. eigenvalues --    1.44244   1.46540   1.47771   1.49027   1.49988
 Alpha virt. eigenvalues --    1.50637   1.51694   1.52589   1.54381   1.55071
 Alpha virt. eigenvalues --    1.56293   1.57604   1.58866   1.59582   1.61293
 Alpha virt. eigenvalues --    1.64632   1.66686   1.68213   1.70425   1.71508
 Alpha virt. eigenvalues --    1.74646   1.76286   1.82856   1.93953   2.20039
 Alpha virt. eigenvalues --    2.21096   2.24130   2.29833   2.30991   2.32942
 Alpha virt. eigenvalues --    2.35167   2.36854   2.38324   2.40332   2.42655
 Alpha virt. eigenvalues --    2.45594   2.46902   2.48613   2.50366   2.50804
 Alpha virt. eigenvalues --    2.52195   2.52959   2.57630   2.58601   2.59820
 Alpha virt. eigenvalues --    2.60763   2.61308   2.62499   2.64621   2.65275
 Alpha virt. eigenvalues --    2.68137   2.68653   2.70028   2.71481   2.72489
 Alpha virt. eigenvalues --    2.74159   2.76241   2.76560   2.77473   2.81791
 Alpha virt. eigenvalues --    2.82484   2.82710   2.82970   2.83456   2.83801
 Alpha virt. eigenvalues --    2.85452   2.86321   2.88054   2.88688   2.92443
 Alpha virt. eigenvalues --    2.94371   2.94653   2.96265   2.97754   3.00668
 Alpha virt. eigenvalues --    3.01329   3.01588   3.02370   3.03810   3.04797
 Alpha virt. eigenvalues --    3.05095   3.06628   3.06686   3.07378   3.08441
 Alpha virt. eigenvalues --    3.10110   3.11051   3.11490   3.12092   3.13469
 Alpha virt. eigenvalues --    3.13739   3.14070   3.14728   3.15539   3.17004
 Alpha virt. eigenvalues --    3.17332   3.18537   3.20363   3.20599   3.21962
 Alpha virt. eigenvalues --    3.24337   3.24879   3.25995   3.26519   3.27525
 Alpha virt. eigenvalues --    3.28455   3.30749   3.30878   3.32742   3.33537
 Alpha virt. eigenvalues --    3.34137   3.36481   3.37010   3.38510   3.40699
 Alpha virt. eigenvalues --    3.40973   3.41873   3.43346   3.45484   3.46630
 Alpha virt. eigenvalues --    3.48337   3.50018   3.51963   3.52514   3.54024
 Alpha virt. eigenvalues --    3.54715   3.55887   3.57522   3.58957   3.59756
 Alpha virt. eigenvalues --    3.61750   3.63790   3.64608   3.66153   3.66792
 Alpha virt. eigenvalues --    3.67819   3.69401   3.70117   3.70969   3.72650
 Alpha virt. eigenvalues --    3.73318   3.74657   3.76259   3.77525   3.78743
 Alpha virt. eigenvalues --    3.80335   3.80961   3.81545   3.83652   3.84627
 Alpha virt. eigenvalues --    3.85877   3.86638   3.87755   3.88012   3.90098
 Alpha virt. eigenvalues --    3.90678   3.92791   3.93423   3.93858   3.94662
 Alpha virt. eigenvalues --    3.95057   3.95369   3.97744   3.99408   3.99434
 Alpha virt. eigenvalues --    3.99871   4.02082   4.03622   4.03872   4.04760
 Alpha virt. eigenvalues --    4.07090   4.08481   4.08707   4.10418   4.10732
 Alpha virt. eigenvalues --    4.11297   4.13376   4.15040   4.15552   4.16759
 Alpha virt. eigenvalues --    4.18233   4.18796   4.20259   4.21083   4.21306
 Alpha virt. eigenvalues --    4.23160   4.24280   4.25108   4.25860   4.27640
 Alpha virt. eigenvalues --    4.30985   4.32028   4.32469   4.33316   4.35551
 Alpha virt. eigenvalues --    4.37834   4.41058   4.44299   4.46396   4.48417
 Alpha virt. eigenvalues --    4.50042   4.51436   4.54337   4.56739   4.58449
 Alpha virt. eigenvalues --    4.59880   4.60646   4.62248   4.63957   4.66676
 Alpha virt. eigenvalues --    4.66935   4.70208   4.71639   4.73101   4.74322
 Alpha virt. eigenvalues --    4.75073   4.76962   4.79288   4.80079   4.82033
 Alpha virt. eigenvalues --    4.83862   4.85751   4.86992   4.89177   4.90804
 Alpha virt. eigenvalues --    4.92495   4.94763   4.95769   4.97625   4.99140
 Alpha virt. eigenvalues --    4.99816   5.00253   5.02766   5.05770   5.08413
 Alpha virt. eigenvalues --    5.09146   5.11792   5.12457   5.14674   5.15781
 Alpha virt. eigenvalues --    5.20871   5.22661   5.23747   5.25959   5.27212
 Alpha virt. eigenvalues --    5.27782   5.29216   5.31418   5.32558   5.35732
 Alpha virt. eigenvalues --    5.37749   5.38693   5.41729   5.44325   5.44824
 Alpha virt. eigenvalues --    5.46438   5.48726   5.50535   5.52598   5.60055
 Alpha virt. eigenvalues --    5.61171   5.63045   5.69079   5.72798   5.75624
 Alpha virt. eigenvalues --    5.77077   5.79478   5.81920   5.85485   5.89960
 Alpha virt. eigenvalues --    5.96331   5.99150   6.09746  11.26314  12.16342
 Alpha virt. eigenvalues --   12.43963  13.03489  13.32139  13.49807  13.99627
          Condensed to atoms (all electrons):
               1          2          3          4          5          6
     1  C    5.065275   0.315809  -0.049919   0.302523   0.006909  -0.047429
     2  C    0.315809   5.077246   0.310007  -0.053951  -0.060232   0.008695
     3  C   -0.049919   0.310007   5.096546  -0.021786   0.327058   0.000951
     4  C    0.302523  -0.053951  -0.021786   5.104116   0.000781   0.277176
     5  C    0.006909  -0.060232   0.327058   0.000781   5.026963  -0.000001
     6  C   -0.047429   0.008695   0.000951   0.277176  -0.000001   4.977310
     7  C   -0.000523   0.007581  -0.051569   0.000066   0.314246  -0.000001
     8  H   -0.041157  -0.005192  -0.000182   0.411108   0.000752  -0.041954
     9  H   -0.048698   0.002351  -0.010949   0.415973   0.000121  -0.038432
    10  H    0.417470  -0.046511   0.007445  -0.046335  -0.000192  -0.005046
    11  H    0.409611  -0.041522   0.004027  -0.046354  -0.000302  -0.004989
    12  H   -0.044870   0.417661  -0.047180   0.007473  -0.004625  -0.000322
    13  H   -0.044758   0.413734  -0.048210   0.004814  -0.004402  -0.000442
    14  H   -0.005975  -0.033058   0.407976  -0.002594  -0.040173   0.000697
    15  H    0.001435  -0.044115   0.406210  -0.008829  -0.034708   0.000111
    16  H    0.000035  -0.004629  -0.051164  -0.000018   0.413540   0.000001
    17  H   -0.000105  -0.002377  -0.041578   0.000029   0.404695   0.000003
    18  H   -0.003461   0.001019   0.000036  -0.063453   0.000005   0.412332
    19  H    0.003891  -0.000586   0.000013  -0.047472  -0.000001   0.408240
    20  H    0.004537  -0.000501  -0.000055  -0.047591  -0.000004   0.410510
    21  H   -0.000063   0.000493   0.000364   0.000056  -0.053341   0.000003
    22  H    0.000017  -0.000344  -0.003786  -0.000016  -0.041268  -0.000000
    23  H    0.000022  -0.000490   0.008712   0.000002  -0.042266  -0.000000
               7          8          9         10         11         12
     1  C   -0.000523  -0.041157  -0.048698   0.417470   0.409611  -0.044870
     2  C    0.007581  -0.005192   0.002351  -0.046511  -0.041522   0.417661
     3  C   -0.051569  -0.000182  -0.010949   0.007445   0.004027  -0.047180
     4  C    0.000066   0.411108   0.415973  -0.046335  -0.046354   0.007473
     5  C    0.314246   0.000752   0.000121  -0.000192  -0.000302  -0.004625
     6  C   -0.000001  -0.041954  -0.038432  -0.005046  -0.004989  -0.000322
     7  C    4.941682   0.000053   0.000091   0.000020   0.000022  -0.000026
     8  H    0.000053   0.614603  -0.041313   0.008608  -0.008827   0.000376
     9  H    0.000091  -0.041313   0.609234  -0.007092   0.008927  -0.000474
    10  H    0.000020   0.008608  -0.007092   0.603194  -0.041208   0.005391
    11  H    0.000022  -0.008827   0.008927  -0.041208   0.608577  -0.017292
    12  H   -0.000026   0.000376  -0.000474   0.005391  -0.017292   0.593807
    13  H    0.000162  -0.000369   0.001091  -0.017527   0.007240  -0.038268
    14  H   -0.007308  -0.002750  -0.004586   0.000207  -0.000233   0.007664
    15  H   -0.000284  -0.004928   0.000771  -0.000409   0.000868  -0.006219
    16  H   -0.040079  -0.000075   0.000042  -0.000036  -0.000015  -0.000259
    17  H   -0.037529   0.000009  -0.000074  -0.000016  -0.000030   0.002751
    18  H    0.000000   0.005566   0.006068   0.000868   0.001186  -0.000105
    19  H   -0.000000   0.006842  -0.017854   0.001197  -0.000253   0.000017
    20  H    0.000000  -0.017894   0.006067  -0.000194   0.000960   0.000040
    21  H    0.405244   0.000039  -0.000013   0.000000   0.000002  -0.000030
    22  H    0.403523  -0.000009  -0.000004   0.000000  -0.000003   0.000038
    23  H    0.406134  -0.000002  -0.000002  -0.000001  -0.000001   0.000001
              13         14         15         16         17         18
     1  C   -0.044758  -0.005975   0.001435   0.000035  -0.000105  -0.003461
     2  C    0.413734  -0.033058  -0.044115  -0.004629  -0.002377   0.001019
     3  C   -0.048210   0.407976   0.406210  -0.051164  -0.041578   0.000036
     4  C    0.004814  -0.002594  -0.008829  -0.000018   0.000029  -0.063453
     5  C   -0.004402  -0.040173  -0.034708   0.413540   0.404695   0.000005
     6  C   -0.000442   0.000697   0.000111   0.000001   0.000003   0.412332
     7  C    0.000162  -0.007308  -0.000284  -0.040079  -0.037529   0.000000
     8  H   -0.000369  -0.002750  -0.004928  -0.000075   0.000009   0.005566
     9  H    0.001091  -0.004586   0.000771   0.000042  -0.000074   0.006068
    10  H   -0.017527   0.000207  -0.000409  -0.000036  -0.000016   0.000868
    11  H    0.007240  -0.000233   0.000868  -0.000015  -0.000030   0.001186
    12  H   -0.038268   0.007664  -0.006219  -0.000259   0.002751  -0.000105
    13  H    0.604012  -0.005801   0.008080   0.003750  -0.000332  -0.000082
    14  H   -0.005801   0.588968  -0.041398  -0.006650   0.007970  -0.000080
    15  H    0.008080  -0.041398   0.588493   0.008763  -0.006976  -0.000038
    16  H    0.003750  -0.006650   0.008763   0.615140  -0.041152  -0.000001
    17  H   -0.000332   0.007970  -0.006976  -0.041152   0.598424  -0.000001
    18  H   -0.000082  -0.000080  -0.000038  -0.000001  -0.000001   0.602170
    19  H    0.000040   0.000038  -0.000031  -0.000001   0.000000  -0.034572
    20  H    0.000017  -0.000009   0.000073   0.000000  -0.000000  -0.036259
    21  H    0.000065   0.003251  -0.000565  -0.000853   0.007739   0.000000
    22  H   -0.000032  -0.000014   0.002279   0.008159  -0.011850  -0.000000
    23  H   -0.000006   0.000109  -0.000126  -0.012155  -0.000472  -0.000000
              19         20         21         22         23
     1  C    0.003891   0.004537  -0.000063   0.000017   0.000022
     2  C   -0.000586  -0.000501   0.000493  -0.000344  -0.000490
     3  C    0.000013  -0.000055   0.000364  -0.003786   0.008712
     4  C   -0.047472  -0.047591   0.000056  -0.000016   0.000002
     5  C   -0.000001  -0.000004  -0.053341  -0.041268  -0.042266
     6  C    0.408240   0.410510   0.000003  -0.000000  -0.000000
     7  C   -0.000000   0.000000   0.405244   0.403523   0.406134
     8  H    0.006842  -0.017894   0.000039  -0.000009  -0.000002
     9  H   -0.017854   0.006067  -0.000013  -0.000004  -0.000002
    10  H    0.001197  -0.000194   0.000000   0.000000  -0.000001
    11  H   -0.000253   0.000960   0.000002  -0.000003  -0.000001
    12  H    0.000017   0.000040  -0.000030   0.000038   0.000001
    13  H    0.000040   0.000017   0.000065  -0.000032  -0.000006
    14  H    0.000038  -0.000009   0.003251  -0.000014   0.000109
    15  H   -0.000031   0.000073  -0.000565   0.002279  -0.000126
    16  H   -0.000001   0.000000  -0.000853   0.008159  -0.012155
    17  H    0.000000  -0.000000   0.007739  -0.011850  -0.000472
    18  H   -0.034572  -0.036259   0.000000  -0.000000  -0.000000
    19  H    0.613212  -0.032959   0.000000  -0.000000  -0.000000
    20  H   -0.032959   0.606923  -0.000000   0.000000  -0.000000
    21  H    0.000000  -0.000000   0.598058  -0.037412  -0.033368
    22  H   -0.000000   0.000000  -0.037412   0.606369  -0.030064
    23  H   -0.000000  -0.000000  -0.033368  -0.030064   0.601990
 Mulliken charges:
               1
     1  C   -0.240578
     2  C   -0.261088
     3  C   -0.242968
     4  C   -0.185718
     5  C   -0.213555
     6  C   -0.357413
     7  C   -0.341506
     8  H    0.116697
     9  H    0.118755
    10  H    0.120166
    11  H    0.119608
    12  H    0.124451
    13  H    0.117223
    14  H    0.133749
    15  H    0.131544
    16  H    0.107655
    17  H    0.120871
    18  H    0.108802
    19  H    0.100238
    20  H    0.106340
    21  H    0.110329
    22  H    0.104417
    23  H    0.101982
 Sum of Mulliken charges =  -0.00000
 Mulliken charges with hydrogens summed into heavy atoms:
               1
     1  C   -0.000805
     2  C   -0.019414
     3  C    0.022325
     4  C    0.049734
     5  C    0.014971
     6  C   -0.042033
     7  C   -0.024778
 APT charges:
               1
     1  C   -0.860225
     2  C   -0.729688
     3  C   -0.363060
     4  C   -0.051028
     5  C   -0.652442
     6  C   -1.615363
     7  C   -1.350685
     8  H    0.225620
     9  H    0.224119
    10  H    0.399689
    11  H    0.386147
    12  H    0.366901
    13  H    0.350016
    14  H    0.257817
    15  H    0.267425
    16  H    0.353825
    17  H    0.381465
    18  H    0.404606
    19  H    0.418767
    20  H    0.419842
    21  H    0.212033
    22  H    0.365363
    23  H    0.588856
 Sum of APT charges =  -0.00000
 APT charges with hydrogens summed into heavy atoms:
               1
     1  C   -0.074389
     2  C   -0.012772
     3  C    0.162182
     4  C    0.398711
     5  C    0.082848
     6  C   -0.372148
     7  C   -0.184433
 Electronic spatial extent (au):  <R**2>=           1407.0593
 Charge=             -0.0000 electrons
 Dipole moment (field-independent basis, Debye):
    X=              0.0097    Y=              0.0214    Z=              0.0141  Tot=              0.0274
 Quadrupole moment (field-independent basis, Debye-Ang):
   XX=            -50.9382   YY=            -49.6875   ZZ=            -47.7790
   XY=              0.2464   XZ=             -0.0273   YZ=              0.0988
 Traceless Quadrupole moment (field-independent basis, Debye-Ang):
   XX=             -1.4700   YY=             -0.2193   ZZ=              1.6893
   XY=              0.2464   XZ=             -0.0273   YZ=              0.0988
 Octapole moment (field-independent basis, Debye-Ang**2):
  XXX=              3.8168  YYY=              0.1140  ZZZ=              0.4980  XYY=             -1.6349
  XXY=              2.8984  XXZ=             -0.2898  XZZ=             -0.0281  YZZ=             -0.1627
  YYZ=             -0.0430  XYZ=              0.1001
 Hexadecapole moment (field-independent basis, Debye-Ang**3):
 XXXX=          -1640.0328 YYYY=           -307.1847 ZZZZ=           -103.9255 XXXY=              3.8618
 XXXZ=             -5.1486 YYYX=              1.2015 YYYZ=              1.2760 ZZZX=              2.1541
 ZZZY=             -0.6067 XXYY=           -323.9035 XXZZ=           -278.6602 YYZZ=            -62.6597
 XXYZ=             -0.6629 YYXZ=             -0.1053 ZZXY=              2.4929
 N-N= 3.186828833762D+02 E-N=-1.275812634956D+03  KE= 2.744918432043D+02
  Exact polarizability:   0.000   0.000   0.000   0.000   0.000   0.000
 Approx polarizability:  97.673  -0.132  97.675  -0.102  -0.558  98.857
 No NMR shielding tensors so no spin-rotation constants.
 Leave Link  601 at Sat Sep 28 20:38:05 2019, MaxMem=   671088640 cpu:              53.9 elap:              27.0
 (Enter /shared/centos7/gaussian/g16/l701.exe)
 SCFChk:  SCF convergence  5.08D-09 required  1.00D-08
 ... and contract with generalized density number  0.
 Compute integral second derivatives.
 Entering OneElI...
 Calculate overlap and kinetic energy integrals
    NBasis = 485  MinDer = 2  MaxDer = 2
 Requested accuracy = 0.1000D-12
 PrmmSu-InSpLW:  IPartL=    0 NPrtUS=   20 NPrtUL=    1 DoSpLW=F IThBeg=    0 IThEnd=   19 NThAct=   20.
 PrsmSu:  NPrtUS=  20 ThrOK=T IAlg=1 NPAlg=1 LenDen=           0 ISkipM=0 DoSpLW=F IThBeg=    0 IThEnd=   19.
 Prism:   IPart=     0 DynPar=F LinDyn=F Incr=           6.
 PRISM was handed    33209621 working-precision words and 13421 shell-pairs
 PRISM was handed    33209621 working-precision words and 13421 shell-pairs
 PRISM was handed    33209621 working-precision words and 13421 shell-pairs
 PRISM was handed    33209621 working-precision words and 13421 shell-pairs
 PRISM was handed    33209621 working-precision words and 13421 shell-pairs
 PRISM was handed    33209621 working-precision words and 13421 shell-pairs
 PRISM was handed    33209621 working-precision words and 13421 shell-pairs
 PRISM was handed    33209621 working-precision words and 13421 shell-pairs
 PRISM was handed    33209621 working-precision words and 13421 shell-pairs
 PRISM was handed    33209621 working-precision words and 13421 shell-pairs
 PRISM was handed    33209621 working-precision words and 13421 shell-pairs
 PRISM was handed    33209621 working-precision words and 13421 shell-pairs
 PRISM was handed    33209621 working-precision words and 13421 shell-pairs
 PRISM was handed    33209621 working-precision words and 13421 shell-pairs
 PRISM was handed    33209621 working-precision words and 13421 shell-pairs
 PRISM was handed    33209621 working-precision words and 13421 shell-pairs
 PRISM was handed    33209621 working-precision words and 13421 shell-pairs
 PRISM was handed    33209621 working-precision words and 13421 shell-pairs
 IPart=  7 NShTot=         678 NBatch=          63 AvBLen=        10.8
 IPart=  6 NShTot=         684 NBatch=          69 AvBLen=         9.9
 IPart=  9 NShTot=         674 NBatch=          61 AvBLen=        11.0
 IPart= 16 NShTot=         644 NBatch=          48 AvBLen=        13.4
 PRISM was handed    33209621 working-precision words and 13421 shell-pairs
 PRISM was handed    33209621 working-precision words and 13421 shell-pairs
 IPart=  1 NShTot=         702 NBatch=          80 AvBLen=         8.8
 IPart=  5 NShTot=         687 NBatch=          70 AvBLen=         9.8
 IPart=  0 NShTot=         703 NBatch=          80 AvBLen=         8.8
 IPart= 12 NShTot=         664 NBatch=          54 AvBLen=        12.3
 IPart= 11 NShTot=         667 NBatch=          57 AvBLen=        11.7
 IPart= 14 NShTot=         655 NBatch=          51 AvBLen=        12.8
 IPart=  8 NShTot=         676 NBatch=          62 AvBLen=        10.9
 IPart=  2 NShTot=         699 NBatch=          77 AvBLen=         9.1
 IPart= 10 NShTot=         669 NBatch=          59 AvBLen=        11.3
 IPart=  4 NShTot=         695 NBatch=          74 AvBLen=         9.4
 IPart= 13 NShTot=         659 NBatch=          52 AvBLen=        12.7
 IPart= 18 NShTot=         639 NBatch=          45 AvBLen=        14.2
 IPart= 19 NShTot=         637 NBatch=          45 AvBLen=        14.2
 IPart= 15 NShTot=         648 NBatch=          51 AvBLen=        12.7
 IPart= 17 NShTot=         644 NBatch=          48 AvBLen=        13.4
 IPart=  3 NShTot=         697 NBatch=          76 AvBLen=         9.2
 PrSmSu:  NxtVal=            121.
 Entering OneElI...
 Calculate potential energy integrals
    NBasis = 485  MinDer = 2  MaxDer = 2
 Requested accuracy = 0.1000D-12
 PrmmSu-InSpLW:  IPartL=    0 NPrtUS=   20 NPrtUL=    1 DoSpLW=F IThBeg=    0 IThEnd=   19 NThAct=   20.
 PrsmSu:  NPrtUS=  20 ThrOK=T IAlg=1 NPAlg=1 LenDen=           0 ISkipM=0 DoSpLW=F IThBeg=    0 IThEnd=   19.
 Prism:   IPart=     0 DynPar=F LinDyn=F Incr=         135.
 PRISM was handed    33273125 working-precision words and 11764 shell-pairs
 PRISM was handed    33273125 working-precision words and 11764 shell-pairs
 PRISM was handed    33273125 working-precision words and 11764 shell-pairs
 PRISM was handed    33273125 working-precision words and 11764 shell-pairs
 PRISM was handed    33273125 working-precision words and 11764 shell-pairs
 PRISM was handed    33273125 working-precision words and 11764 shell-pairs
 PRISM was handed    33273125 working-precision words and 11764 shell-pairs
 PRISM was handed    33273125 working-precision words and 11764 shell-pairs
 PRISM was handed    33273125 working-precision words and 11764 shell-pairs
 PRISM was handed    33273125 working-precision words and 11764 shell-pairs
 PRISM was handed    33273125 working-precision words and 11764 shell-pairs
 PRISM was handed    33273125 working-precision words and 11764 shell-pairs
 PRISM was handed    33273125 working-precision words and 11764 shell-pairs
 PRISM was handed    33273125 working-precision words and 11764 shell-pairs
 PRISM was handed    33273125 working-precision words and 11764 shell-pairs
 PRISM was handed    33273125 working-precision words and 11764 shell-pairs
 PRISM was handed    33273125 working-precision words and 11764 shell-pairs
 PRISM was handed    33273125 working-precision words and 11764 shell-pairs
 PRISM was handed    33273125 working-precision words and 11764 shell-pairs
 PRISM was handed    33273125 working-precision words and 11764 shell-pairs
 IPart= 19 NShTot=       12880 NBatch=         561 AvBLen=        23.0
 IPart=  9 NShTot=       13524 NBatch=         589 AvBLen=        23.0
 IPart= 17 NShTot=       12926 NBatch=         563 AvBLen=        23.0
 IPart=  8 NShTot=       13593 NBatch=         592 AvBLen=        23.0
 IPart=  6 NShTot=       13777 NBatch=         600 AvBLen=        23.0
 IPart=  7 NShTot=       13616 NBatch=         593 AvBLen=        23.0
 IPart= 16 NShTot=       12972 NBatch=         565 AvBLen=        23.0
 IPart= 18 NShTot=       12926 NBatch=         563 AvBLen=        23.0
 IPart= 12 NShTot=       13340 NBatch=         581 AvBLen=        23.0
 IPart=  4 NShTot=       14007 NBatch=         610 AvBLen=        23.0
 IPart= 14 NShTot=       13179 NBatch=         574 AvBLen=        23.0
 IPart= 15 NShTot=       13087 NBatch=         570 AvBLen=        23.0
 IPart= 10 NShTot=       13478 NBatch=         587 AvBLen=        23.0
 IPart= 11 NShTot=       13409 NBatch=         584 AvBLen=        23.0
 IPart= 13 NShTot=       13271 NBatch=         578 AvBLen=        23.0
 IPart=  3 NShTot=       14076 NBatch=         614 AvBLen=        22.9
 IPart=  5 NShTot=       14007 NBatch=         610 AvBLen=        23.0
 IPart=  0 NShTot=       14191 NBatch=         619 AvBLen=        22.9
 IPart=  1 NShTot=       14168 NBatch=         618 AvBLen=        22.9
 IPart=  2 NShTot=       14145 NBatch=         617 AvBLen=        22.9
 PrSmSu:  NxtVal=           2701.
 Polarizability after L701:
                1             2             3 
      1  0.000000D+00
      2  0.000000D+00  0.000000D+00
      3  0.000000D+00  0.000000D+00  0.000000D+00
 Dipole Derivatives after L701:
                 1             2             3             4             5 
      1  -0.109760D+01  0.956262D+00  0.516040D-01 -0.869626D-01 -0.168208D+00
      2   0.698049D+00 -0.640654D+00  0.137071D-02 -0.479779D+00 -0.124076D+01
      3  -0.131258D-01  0.433006D-01 -0.842417D+00  0.990376D-02 -0.623868D-01
                 6             7             8             9            10 
      1   0.671905D-02  0.840106D-01  0.482285D+00 -0.341111D-01  0.115836D+01
      2   0.101603D-01 -0.403920D-01 -0.332778D+00 -0.457073D-01  0.443649D+00
      3  -0.861346D+00 -0.617849D-02  0.144029D-02 -0.840413D+00  0.997834D-02
                11            12            13            14            15 
      1  -0.735097D+00 -0.434013D-01 -0.627875D+00 -0.162575D+01  0.952572D-01
      2  -0.506315D+00 -0.519996D-02 -0.326650D+00 -0.489995D+00  0.275402D-01
      3  -0.637240D-02 -0.805125D+00 -0.301884D-01  0.285513D-01 -0.839456D+00
                16            17            18            19            20 
      1  -0.279806D+01 -0.378039D+00 -0.237617D-02 -0.202037D+01  0.123750D+01
      2  -0.472483D+00 -0.105990D+01 -0.367219D-02  0.105839D+00 -0.104969D+01
      3   0.515736D-03 -0.443745D-02 -0.988135D+00  0.200093D-01 -0.274860D-01
                21            22            23            24            25 
      1  -0.102251D+00 -0.428891D-01  0.254465D+00 -0.363097D+00 -0.472584D-01
      2   0.227185D-01 -0.143942D+00  0.303801D+00 -0.299509D+00 -0.142627D+00
      3  -0.981988D+00  0.132199D+00 -0.165475D+00  0.415948D+00 -0.143293D+00
                26            27            28            29            30 
      1   0.242803D+00  0.378677D+00  0.420221D+00 -0.332478D+00  0.494689D+00
      2   0.281330D+00  0.295921D+00 -0.192422D+00  0.380021D+00 -0.392420D+00
      3   0.166299D+00  0.438285D+00  0.120451D+00 -0.170118D+00  0.398826D+00
                31            32            33            34            35 
      1   0.381484D+00 -0.262500D+00 -0.514871D+00  0.162885D+00  0.572633D-01
      2  -0.155965D+00  0.329998D+00  0.388975D+00  0.120176D+00  0.536582D+00
      3  -0.122463D+00  0.155866D+00  0.446959D+00  0.511143D-01  0.208497D+00
                36            37            38            39            40 
      1   0.643864D-01  0.156309D+00  0.411956D-01 -0.663754D-01  0.939471D-01
      2   0.511307D+00  0.893316D-01  0.447400D+00 -0.515148D+00  0.870867D-01
      3   0.401236D+00 -0.494002D-01 -0.196638D+00  0.446338D+00  0.905762D-01
                41            42            43            44            45 
      1  -0.137624D+00 -0.145080D+00  0.874821D-01 -0.122340D+00  0.190006D+00
      2   0.292146D+00  0.189180D+00  0.600164D-01  0.230547D+00 -0.165516D+00
      3   0.194729D+00  0.387359D+00 -0.928684D-01 -0.194901D+00  0.484246D+00
                46            47            48            49            50 
      1   0.344171D+00  0.440080D+00 -0.731124D+00  0.413820D+00  0.544471D+00
      2   0.619441D-01  0.260190D+00 -0.261265D+00  0.103831D+00  0.342541D+00
      3  -0.834818D-01 -0.183441D+00  0.457114D+00  0.967832D-01  0.181640D+00
                51            52            53            54            55 
      1   0.676556D+00  0.887533D+00 -0.108609D+01 -0.998577D-01  0.472821D+00
      2   0.270089D+00 -0.501714D-01  0.238872D+00  0.976608D-02  0.131829D+00
      3   0.388034D+00 -0.163028D-01  0.250746D-01  0.874120D-01  0.819590D-01
                56            57            58            59            60 
      1   0.609979D+00  0.105959D+01  0.445901D+00  0.706122D+00 -0.960708D+00
      2   0.328287D+00  0.440323D+00  0.129933D+00  0.415493D+00 -0.452051D+00
      3   0.206857D+00  0.455193D+00 -0.621234D-01 -0.225863D+00  0.398133D+00
                61            62            63            64            65 
      1  -0.213864D+00 -0.753291D+00 -0.382072D+00  0.311859D+00 -0.346429D+00
      2   0.251963D+00  0.627033D+00  0.306252D+00 -0.908327D-01  0.236664D+00
      3   0.108009D+00  0.195778D+00  0.222931D+00  0.734572D-01 -0.106351D+00
                66            67            68            69 
      1   0.115294D+01  0.151409D+01  0.375420D+00 -0.725106D+00
      2  -0.415301D+00 -0.188384D+00  0.691829D-01  0.821878D-01
      3   0.547566D+00 -0.175531D+00 -0.645622D-01  0.183299D+00
 Hessian after L701:
                1             2             3             4             5 
      1  0.147999D+02
      2 -0.957674D+00  0.162535D+02
      3 -0.381945D-01  0.106487D+00  0.177489D+02
      4 -0.246503D+01  0.743402D+00 -0.927957D-01  0.146046D+02
      5  0.701455D+00 -0.608762D+01 -0.161721D-01  0.397238D+00  0.166292D+02
      6 -0.916659D-01 -0.136668D-01 -0.591443D+01 -0.307171D-01 -0.462237D-01
      7  0.354762D+00 -0.137260D+00  0.563725D-01 -0.437920D+01 -0.216630D+01
      8 -0.117671D+00 -0.105804D-03 -0.260771D-01 -0.211074D+01 -0.383410D+01
      9  0.432412D-01 -0.205347D-01 -0.164612D+00  0.975141D-01 -0.102644D+00
     10 -0.575117D+01  0.142879D+01  0.176537D-01  0.175475D+00  0.216222D+00
     11  0.135972D+01 -0.252660D+01  0.503748D-01  0.190931D+00  0.156465D+00
     12  0.213377D-01  0.576027D-01 -0.604325D+01  0.356377D-01  0.320056D-01
     13  0.255599D+00 -0.562668D-01 -0.253596D-02  0.283476D+00 -0.598016D-01
     14 -0.741075D-01 -0.120486D+00  0.126442D-02 -0.207197D+00 -0.348694D-01
     15 -0.560484D-02  0.294183D-02 -0.133196D+00  0.915961D-02 -0.113004D-01
     16  0.168369D+00  0.180065D+00 -0.134764D-02  0.173632D+00  0.183668D+00
     17  0.335956D+00  0.391420D-01  0.169637D-02  0.191261D+00 -0.326646D-01
     18  0.560346D-02  0.526102D-02 -0.198696D+00 -0.159406D-02 -0.285463D-02
     19  0.355313D-01 -0.261487D-01  0.122076D-02  0.167403D+00 -0.180874D+00
     20 -0.229997D-01 -0.307634D-01 -0.443527D-03 -0.188778D+00 -0.172070D-01
     21 -0.171705D-02  0.700954D-04 -0.476675D-01 -0.412560D-02  0.672018D-03
     22  0.101075D+00 -0.124913D-01  0.306882D-01 -0.322742D-02  0.314317D-02
     23  0.470084D-01 -0.988340D-01  0.272595D-01  0.205725D-01  0.689162D-02
     24 -0.685786D-03  0.233437D-01  0.131102D+00 -0.392734D-02 -0.189019D-02
     25  0.134591D+00 -0.247189D-01 -0.382666D-01 -0.895144D-02  0.403282D-01
     26  0.318343D-01 -0.124786D+00 -0.702493D-01  0.629161D-01  0.411884D-01
     27 -0.635946D-02 -0.718653D-01  0.136710D+00  0.244878D-01  0.308504D-01
     28 -0.376468D+01 -0.632947D+00  0.850790D+00 -0.122720D+00 -0.639099D-02
     29 -0.660498D+00 -0.366277D+01 -0.954335D+00  0.148159D-01  0.127081D+00
     30  0.837996D+00 -0.899811D+00 -0.298228D+01 -0.606129D-02 -0.339532D-01
     31 -0.385821D+01 -0.490732D+00 -0.839882D+00 -0.104995D+00 -0.344467D-01
     32 -0.515380D+00 -0.383360D+01  0.887486D+00 -0.109134D-01  0.110961D+00
     33 -0.823284D+00  0.825411D+00 -0.273004D+01  0.124662D-01  0.439747D-01
     34 -0.888361D-01 -0.834356D-01 -0.151130D-01 -0.431780D+01  0.413163D+00
     35 -0.107479D+00  0.837225D-01  0.241222D-01  0.463660D+00 -0.331947D+01
     36 -0.194938D-01  0.289713D-01  0.165107D+00  0.456180D+00  0.115101D+01
     37 -0.924166D-01 -0.632861D-01  0.411855D-01 -0.429234D+01  0.328789D+00
     38 -0.901431D-01  0.970910D-01 -0.116394D-01  0.373862D+00 -0.355461D+01
     39  0.452608D-01 -0.236791D-01  0.162480D+00 -0.471462D+00 -0.111213D+01
     40  0.224529D-02  0.577457D-02  0.209011D-01  0.584371D-01  0.747306D-01
     41 -0.130340D-01 -0.571776D-02 -0.898611D-02  0.211102D-01 -0.613441D-01
     42  0.368227D-02 -0.607316D-02 -0.171886D-01  0.906905D-03  0.207969D-01
     43  0.313047D-01 -0.360691D-01  0.474383D-02  0.838404D-01  0.100572D+00
     44 -0.551871D-01 -0.459814D-02 -0.122308D-01  0.573170D-01 -0.812914D-01
     45  0.294860D-01 -0.150257D-01 -0.287593D-01 -0.251623D-01  0.466718D-01
     46  0.188848D-01  0.358050D-02 -0.111636D-01  0.242955D-01 -0.870374D-03
     47  0.622125D-02 -0.916946D-02 -0.233612D-02  0.482485D-02 -0.147821D-01
     48 -0.175388D-01 -0.460336D-02 -0.462921D-02 -0.358046D-01 -0.783695D-02
     49  0.183456D-01  0.478502D-02  0.970945D-02  0.465997D-01 -0.206909D-02
     50  0.781197D-02 -0.736116D-02  0.329190D-02  0.832944D-02 -0.188271D-01
[...]
 0002297,-0.00946550,-0.00909786,0.03248955,-0.01730403,-0.06100970,0.0
 5438497,0.00044712,0.00002932,0.00007469,0.00323704,0.00102595,-0.0096
 3000,0.00008592,0.00018565,-0.00027590,0.00001748,0.00097862,-0.001149
 57,0.00100816,0.00005795,-0.00036024,-0.00006743,-0.00024620,-0.000237
 44,-0.00003551,0.00010223,-0.00024495,0.00008089,-0.00005235,-0.000049
 00,0.00090739,-0.00648651,0.00104336,-0.00035552,0.00155396,-0.0004787
 4,0.01576079,0.06871209,0.00046040,0.00031483,-0.00039126,0.00063105,0
 .00123001,-0.00380910,0.06371811,0.05524529,-0.27359654,0.00119353,0.0
 0087306,-0.00025752,0.00202689,0.00106429,-0.00530544,-0.00031034,-0.0
 0058117,0.00027727,-0.00058540,0.00009900,0.00043917,0.00024097,-0.001
 31338,0.00034905,-0.00026113,0.00007007,-0.00017146,-0.00019898,0.0000
 5746,0.00015294,0.00004316,0.00002592,0.00004844,-0.00004335,0.0006533
 3,0.00155131,-0.00007931,0.00037604,0.00085550,-0.07379053,-0.06142559
 ,0.29633902,0.00108882,0.00075566,0.00079210,0.00109478,0.00173815,0.0
 0216875,-0.13896244,-0.07512165,-0.09538930,0.00016071,-0.00000221,-0.
 00005809,-0.02235595,-0.01481537,-0.02086886,-0.00004219,-0.00006281,-
 0.00003990,0.00115324,-0.00153768,-0.00024582,0.00004754,-0.00033478,-
 0.00005538,0.00003189,-0.00004883,-0.00004550,0.00011562,-0.00002171,0
 .00009597,0.00031787,-0.00023695,-0.00025629,-0.00011686,-0.00039000,-
 0.00004258,0.00039050,0.00118928,0.00016537,0.00533023,0.00487170,0.00
 533995,0.15535068,-0.00167619,0.00149310,-0.00079042,-0.01921264,-0.01
 939506,-0.02207562,-0.07534000,-0.10648399,-0.07682803,0.00027060,-0.0
 0002439,-0.00004525,0.00653788,0.00388119,0.00677709,0.00003670,0.0000
 4495,-0.00006331,0.00041950,0.00135891,0.00070436,0.00005906,-0.000087
 52,-0.00018556,-0.00010449,0.00006861,0.00023848,-0.00001368,0.0004721
 5,0.00042769,0.00111241,0.00007574,0.00054518,-0.00016492,0.00115675,0
 .00038983,0.00069522,-0.00624734,0.00159941,0.00510078,0.00337325,0.00
 442410,0.08092560,0.12035345,0.00004927,-0.00008244,0.00039548,0.00308
 410,0.00245168,0.00313180,-0.09616598,-0.07693395,-0.14984246,0.000093
 55,-0.00025301,0.00000314,0.00397732,0.00253334,0.00334708,0.00000621,
 0.00006526,0.00000638,-0.00001705,0.00022913,0.00004026,-0.00004176,0.
 00002042,-0.00029103,0.00000943,0.00023058,0.00007576,0.00025477,0.000
 04670,0.00005369,0.00032051,-0.00035737,-0.00000916,0.00032795,-0.0004
 9404,0.00055067,0.00003753,0.00127800,0.00131862,-0.01881981,-0.014929
 14,-0.01932974,0.10595602,0.08535627,0.15838296,0.00004570,0.00022829,
 0.00030942,0.00106240,-0.00176285,-0.00043202,-0.02263654,-0.01505044,
 -0.02078158,-0.00001449,-0.00012116,-0.00001059,-0.14189006,-0.0791199
 7,-0.09570182,0.00002578,0.00004505,-0.00000323,0.00280279,0.00262570,
 0.00320501,0.00004046,0.00001864,-0.00009689,-0.00000231,0.00006884,0.
 00006090,-0.00000563,0.00010094,0.00006566,0.00033130,-0.00006140,0.00
 012949,-0.00002819,0.00016082,-0.00001493,0.00018508,0.00109912,0.0003
 5263,0.00127020,-0.00043500,0.00033418,-0.00556518,0.00233296,0.001517
 33,0.15783847,0.00014345,0.00006541,0.00017362,0.00040896,0.00122364,0
 .00055483,0.00651120,0.00426478,0.00676557,-0.00004638,0.00001510,-0.0
 0003610,-0.07883980,-0.11118533,-0.07885925,-0.00000571,-0.00000564,0.
 00002788,-0.01998860,-0.01894849,-0.02089213,-0.00001553,0.00000054,0.
 00001313,0.00000869,0.00001117,-0.00000304,-0.00004915,-0.00000710,-0.
 00002590,-0.00002048,-0.00014093,-0.00007869,-0.00016287,0.00001803,0.
 00011636,-0.00002537,0.00010817,-0.00034278,-0.00068353,0.00011041,-0.
 00006287,0.00230308,-0.00029088,-0.00017123,0.08434529,0.12509271,0.00
 014388,0.00028428,0.00012593,0.00006102,0.00008024,0.00011630,0.003518
 94,0.00273307,0.00323507,-0.00001400,-0.00003580,0.00001109,-0.0963760
 8,-0.07967124,-0.14839548,0.00000979,0.00001554,-0.00001422,0.00431658
 ,0.00373632,0.00394551,0.00003102,0.00003074,-0.00000931,-0.00000218,-
 0.00000651,0.00000250,-0.00008270,0.00003444,-0.00001284,0.00010108,-0
 .00007425,-0.00003083,-0.00011468,-0.00007759,-0.00014377,-0.00026696,
 0.00034217,0.00009792,-0.00036560,0.00051999,0.00070142,0.00143374,-0.
 00011822,0.00132587,0.10563263,0.08702509,0.15651360,-0.00002858,-0.00
 012244,-0.00026691,0.00099244,-0.00183071,0.00070845,-0.01135749,-0.00
 532000,0.03180303,-0.00017721,-0.00023398,0.00011091,-0.06616606,-0.01
 613233,0.06381329,0.00009999,0.00015427,-0.00009528,0.00078235,0.00104
 391,-0.00418717,0.00014001,0.00023541,-0.00008659,0.00002266,-0.000023
 10,-0.00000970,-0.00000069,0.00001902,-0.00004139,-0.00005374,-0.00002
 592,-0.00000448,0.00029505,0.00074924,-0.00069465,0.00000190,0.0000673
 1,-0.00010627,-0.00578920,0.00224825,0.00089151,0.00129767,-0.00068539
 ,-0.00039707,0.00540474,0.00485478,-0.01884425,0.07383690,0.00001214,0
 .00005260,0.00008722,0.00012666,0.00101215,-0.00136367,0.00281517,0.00
 090184,-0.00946527,0.00008843,-0.00002247,-0.00005916,-0.01604968,-0.0
 5893871,0.05040276,-0.00002740,-0.00005117,0.00003299,-0.00862041,-0.0
 0919387,0.03264547,-0.00005846,-0.00006353,0.00005918,-0.00000885,0.00
 001613,0.00000825,-0.00000010,-0.00000867,0.00000612,-0.00002574,-0.00
 000489,-0.00001095,0.00015613,-0.00011630,0.00038941,-0.00000892,-0.00
 002075,-0.00004549,0.00209094,-0.00031919,-0.00012636,-0.00043331,0.00
 014389,0.00051630,0.00506098,0.00330803,-0.01541180,0.01433453,0.06716
 978,0.00001769,-0.00027592,0.00046695,-0.00054313,0.00040140,0.0001472
 3,0.00190101,0.00089224,-0.00512471,-0.00015315,0.00020186,-0.00006922
 ,0.06467725,0.05107814,-0.27630331,-0.00004155,-0.00004066,0.00007854,
 0.00069970,0.00111001,-0.00371901,-0.00004255,-0.00008145,0.00002202,0
 .00000530,0.00000770,0.00000515,0.00008029,-0.00006578,-0.00001747,0.0
 0001211,0.00000968,-0.00002641,0.00016354,-0.00077301,0.00034929,0.000
 05342,0.00005586,-0.00001227,0.00094974,-0.00017323,0.00161213,0.00034
 274,-0.00006013,0.00077641,0.00518364,0.00396601,-0.01930535,-0.072744
 36,-0.05768633,0.29873528,0.00139868,-0.00081554,-0.00166111,0.0000389
 5,0.00024035,0.00025149,0.00003049,0.00001283,-0.00011910,-0.01986479,
 -0.01275451,-0.02194449,0.00000779,-0.00002412,0.00004483,-0.13734678,
 -0.06280186,-0.10901485,0.00000146,-0.00000555,-0.00000955,0.00135648,
 0.00006809,0.00010766,-0.00511769,0.00328580,0.00091140,-0.00007430,-0
 .00007426,0.00011957,-0.00010345,0.00032212,0.00105650,-0.00000984,0.0
 0006145,0.00010217,0.00034673,0.00002621,0.00007138,0.00001234,-0.0001
 0221,0.00002696,-0.00000739,0.00005351,0.00005965,0.00002218,0.0000021
 5,-0.00000315,-0.00002037,0.00000652,0.00000979,0.15227117,-0.00040151
 ,0.00025736,0.00053542,0.00005148,-0.00001380,0.00020780,-0.00000483,0
 .00001978,0.00000717,0.00935418,0.00596408,0.01087705,-0.00000220,-0.0
 0001460,-0.00000156,-0.06334744,-0.09027848,-0.07499077,0.00000118,0.0
 0000074,-0.00000119,-0.00069800,0.00066932,0.00050975,0.00329323,-0.00
 027068,-0.00018233,-0.00009572,-0.00009746,-0.00016053,-0.00033139,0.0
 0005744,-0.00012171,-0.00007341,-0.00000877,-0.00002331,-0.00001278,-0
 .00005848,-0.00005100,0.00001315,0.00001423,0.00002833,0.00000299,-0.0
 0001547,-0.00003011,-0.00001140,-0.00000036,0.00000002,-0.00000587,0.0
 0000053,0.00000224,0.06661078,0.09432838,0.00061978,0.00038805,0.00110
 572,0.00020459,0.00014130,0.00017393,-0.00006180,-0.00003043,-0.000030
 59,0.00088223,0.00126944,0.00060872,0.00002211,0.00002712,0.00000611,-
 0.10962199,-0.07478957,-0.17929270,-0.00001843,-0.00000569,-0.00000061
 ,-0.00035687,0.00031940,-0.00003756,0.00078964,0.00030042,0.00098828,-
 0.00013325,0.00010744,-0.00000530,-0.00031365,-0.00026959,0.00038870,-
 0.00006919,0.00001046,0.00000929,0.00008413,-0.00004945,-0.00014455,-0
 .00000516,-0.00001700,0.00000443,0.00000346,0.00000765,0.00003049,0.00
 000680,-0.00000002,-0.00000107,-0.00000472,0.00000170,0.00000163,0.121
 01711,0.08260530,0.19175577,0.00168862,0.00089566,-0.00144575,-0.00000
 550,-0.00012052,-0.00024127,-0.00012848,0.00017128,-0.00019502,0.00084
 876,0.03257300,-0.00425719,0.00002391,-0.00010597,0.00015188,-0.047211
 57,-0.01644897,0.00249279,0.00000841,-0.00001329,-0.00000628,-0.005689
 61,0.00267925,0.00066937,0.00144780,-0.00066045,-0.00032305,-0.0000625
 7,-0.00075577,0.00046281,-0.00003573,-0.00011611,0.00008430,0.00001604
 ,-0.00005598,-0.00000199,-0.00003033,0.00000771,-0.00002846,0.00003115
 ,-0.00013246,0.00022175,0.00002537,-0.00001401,-0.00001284,-0.00001479
 ,0.00000304,-0.00001040,-0.00006793,0.00002334,0.00002010,-0.00161354,
 -0.01864878,0.00434731,0.05243070,-0.00108327,0.00043488,0.00049485,0.
 00018107,0.00044317,-0.00011077,-0.00017042,-0.00006971,0.00020891,-0.
 00013603,-0.01375420,0.00212263,-0.00001768,0.00010679,-0.00007626,-0.
 01536332,-0.30572332,0.04013878,-0.00001335,0.00000691,0.00000868,0.00
 287963,0.00069481,0.00001890,0.00020088,0.00074186,0.00019259,0.000498
 78,0.00036066,-0.00081774,0.00004371,-0.00003200,0.00003536,0.00008063
 ,-0.00002195,-0.00004188,0.00001481,-0.00002959,0.00002210,-0.00001914
 ,0.00006667,-0.00014832,-0.00000421,0.00000890,0.00001296,0.00001434,-
 0.00000212,0.00000842,0.00004282,-0.00001279,-0.00001673,-0.00070350,-
 0.01210711,0.00219082,0.01406465,0.33285341,-0.00024189,-0.00130282,0.
 00043036,0.00006630,0.00007270,0.00000849,-0.00000318,-0.00002937,-0.0
 0006943,-0.00032465,-0.00052169,-0.00083438,0.00001606,0.00002189,-0.0
 0000746,0.00240210,0.04039093,-0.05412762,-0.00001294,-0.00000178,0.00
 000002,0.00013056,-0.00022407,0.00072351,0.00002346,0.00041512,-0.0000
 9236,0.00022753,0.00016055,0.00014393,-0.00002020,-0.00005355,-0.00001
 244,-0.00000686,-0.00000133,-0.00000095,-0.00004043,-0.00000185,-0.000
 02912,-0.00000590,0.00003454,0.00000376,-0.00000107,0.00000394,0.00000
 847,-0.00000063,-0.00000136,-0.00000151,0.00000158,-0.00000432,0.00000
 048,-0.00056300,-0.02360835,0.00400035,-0.00274659,-0.04476027,0.05354
 083,-0.00554338,0.00324207,-0.00198583,-0.00005261,-0.00032277,0.00206
 060,-0.00009858,-0.00023397,0.00009814,-0.01176789,-0.00618750,0.02807
 030,0.00005926,0.00012078,-0.00004206,-0.09373402,-0.01828419,0.100115
 67,-0.00005807,-0.00000991,0.00001063,0.00129781,0.00011273,-0.0002764
 2,0.00083038,-0.00087533,-0.00036944,0.00006688,0.00002133,-0.00039431
 ,0.00013650,0.00023534,0.00017922,-0.00067001,0.00021868,0.00008525,0.
 00003152,-0.00006348,-0.00007819,0.00002343,0.00004272,-0.00006555,0.0
 0001307,0.00002451,0.00001123,-0.00000460,-0.00001117,0.00000143,0.000
 01924,-0.00000700,-0.00001997,0.00867110,0.00430483,-0.01739077,-0.001
 66728,-0.00050857,0.00110089,0.10245231,0.00251108,-0.00119307,0.00078
 608,0.00040113,0.00068209,-0.00078174,-0.00013129,0.00011622,-0.000033
 91,0.00540321,0.00140274,-0.01401616,-0.00000149,-0.00000633,0.0000134
 0,-0.01873257,-0.05456804,0.03924912,0.00000083,0.00000231,-0.00000171
 ,-0.00066503,0.00029547,-0.00032802,-0.00058028,0.00027944,0.00038899,
 0.00016379,0.00045260,-0.00026592,-0.00008480,-0.00000803,0.00036480,0
 .00030551,-0.00009961,-0.00002606,0.00004819,-0.00000843,0.00000886,0.
 00000178,-0.00002324,0.00004300,-0.00000779,-0.00001037,-0.00000650,-0
 .00000357,0.00000155,-0.00000450,-0.00001206,0.00000219,0.00001226,0.0
 0658952,0.00155608,-0.01222163,-0.01334047,-0.00397309,0.02940357,0.01
 813154,0.05511050,0.00070475,-0.00041868,0.00102154,-0.00032202,0.0002
 3905,-0.00000352,0.00010107,0.00005863,-0.00003714,-0.00147383,-0.0002
 7525,0.00095169,-0.00004766,-0.00005253,0.00001945,0.10119051,0.038726
 20,-0.26294550,0.00003674,0.00000933,-0.00001422,0.00028438,-0.0004827
 1,0.00013026,0.00047481,-0.00013333,0.00046548,-0.00019784,-0.00008886
 ,0.00007065,-0.00015684,0.00015099,0.00037757,0.00006429,-0.00002558,-
 0.00001744,0.00010630,-0.00002134,0.00001522,-0.00000190,0.00000369,0.
 00001290,-0.00001100,0.00000061,-0.00000798,0.00000282,0.00000295,0.00
 000065,0.00000100,-0.00000044,-0.00000032,0.00952558,0.00439813,-0.019
 56354,0.00081263,0.00052475,-0.00368631,-0.11109724,-0.04258875,0.2832
 0301,-0.00002107,-0.00002636,0.00000620,-0.00000387,0.00018159,-0.0000
 5922,0.00070192,-0.00005069,-0.00120915,0.00002287,0.00004108,0.000005
 22,-0.00015083,0.00041272,-0.00300147,-0.00001228,-0.00001611,0.000000
 60,-0.06440104,-0.01487705,0.06265806,-0.00002112,-0.00002079,0.000011
 24,-0.00000450,-0.00000633,-0.00000308,0.00002051,-0.00002112,0.000004
 23,-0.00000013,0.00000810,-0.00000349,-0.00010072,0.00000051,0.0000882
 1,-0.00001841,-0.00004468,-0.00000680,0.00017879,0.00013058,0.00024498
 ,-0.00002504,-0.00004605,-0.00005795,-0.00010746,-0.00025199,0.0003582
 0,0.00064682,0.00067556,-0.00029578,0.00000018,0.00000226,0.00000044,0
 .00000784,-0.00000928,0.00000254,0.00000504,0.00000243,-0.00000397,0.0
 6484894,0.00001800,0.00006959,-0.00015166,-0.00004821,-0.00017295,-0.0
 0012434,-0.00151509,0.00158773,0.00083040,0.00004421,-0.00004559,0.000
 04595,-0.00823165,-0.00880035,0.03328134,0.00001177,0.00001203,-0.0000
 3233,-0.01458728,-0.05923918,0.05465474,0.00002081,0.00002001,0.000003
 55,-0.00000675,-0.00001763,-0.00000861,-0.00002645,0.00000894,0.000003
 30,-0.00000204,0.00000022,-0.00000068,0.00005260,0.00021536,-0.0002530
 8,-0.00002357,-0.00003723,0.00000500,0.00070416,0.00001148,-0.00071764
 ,0.00011238,-0.00001660,-0.00010049,-0.00044519,0.00143366,-0.00045042
 ,0.00113140,-0.00658748,0.00072636,-0.00000639,0.00000030,-0.00000153,
 -0.00000567,0.00000559,0.00000030,0.00001129,-0.00000432,-0.00000178,0
 .01589069,0.06692935,0.00001344,0.00004219,-0.00000059,-0.00024961,-0.
 00003823,0.00041873,0.00010291,-0.00060381,0.00033235,-0.00000764,0.00
 005734,-0.00003732,0.00125798,0.00141439,-0.00446141,-0.00000754,-0.00
 001207,0.00002162,0.06242044,0.05558138,-0.28347646,-0.00001014,-0.000
 01130,-0.00000573,0.00000396,0.00000357,0.00000634,-0.00002389,0.00001
 237,0.00000506,-0.00000314,-0.00000045,0.00000073,0.00007680,-0.000229
 19,0.00003026,0.00000781,0.00000915,-0.00002086,-0.00066265,0.00039627
 ,0.00020247,0.00003116,0.00007765,-0.00008085,-0.00002407,0.00039605,0
 .00069802,0.00001326,0.00089592,0.00162719,0.00000274,0.00000311,-0.00
 000388,0.00000334,-0.00000749,-0.00000061,-0.00001360,0.00000615,0.000
 00939,-0.06919212,-0.06261827,0.30682528,-0.00003235,-0.00007082,-0.00
 001448,0.00014477,0.00020693,0.00014005,0.00116766,0.00046541,0.000758
 20,0.00000976,0.00000809,0.00001055,0.00143208,0.00166138,0.00277314,-
 0.00000676,-0.00000301,-0.00000699,-0.14209034,-0.08124433,-0.09794025
 ,-0.00001120,-0.00000752,0.00001054,-0.00000074,-0.00000113,0.00000003
 ,0.00003064,-0.00003006,-0.00000690,-0.00000811,0.00000894,-0.00000620
 ,-0.00000804,-0.00004052,0.00001277,-0.00012931,0.00004589,-0.00005215
 ,-0.00002839,-0.00008552,0.00006729,0.00030200,-0.00016997,-0.00032724
 ,0.00080167,0.00104734,0.00036265,-0.00006013,-0.00049856,0.00012063,0
 .00000207,0.00000183,0.00000383,0.00000324,-0.00000516,0.00000146,0.00
 000782,-0.00000087,-0.00000604,0.00518765,0.00552281,0.00555494,0.1506
 5536,0.00004252,0.00006535,0.00005679,0.00019414,0.00000222,0.00028959
 ,-0.00174948,0.00150797,-0.00062275,0.00001217,-0.00003183,0.00001021,
 -0.02014272,-0.01889462,-0.02158115,0.00000105,0.00000578,-0.00000993,
 -0.08059686,-0.11531018,-0.08389326,0.00000211,0.00000236,-0.00001111,
 -0.00000143,0.00001128,0.00001295,-0.00001067,0.00000078,0.00000122,0.
 00007454,-0.00002614,0.00001461,-0.00006107,-0.00000443,-0.00003483,0.
 00004004,0.00033557,0.00012116,0.00012946,-0.00002534,0.00000952,0.001
 08714,0.00003593,0.00034893,0.00132999,-0.00626847,0.00172537,-0.00016
 833,0.00138747,0.00032802,0.00000654,-0.00000187,0.00000396,-0.0000006
 6,0.00000248,0.00000017,0.00000437,-0.00000276,-0.00000217,0.00540105,
 0.00337383,0.00434741,0.08913649,0.12908235,-0.00002691,-0.00007637,-0
 .00002560,0.00029093,0.00007457,0.00014901,0.00019279,0.00000965,0.000
 04964,0.00000494,-0.00003298,0.00000558,0.00412582,0.00354567,0.004093
 07,0.00000072,0.00000678,-0.00000693,-0.09789454,-0.08454596,-0.149788
 28,-0.00000569,0.00000130,-0.00001400,0.00000497,0.00001733,0.00000595
 ,0.00002234,-0.00000468,-0.00000003,0.00000055,-0.00000298,0.00001534,
 0.00000818,0.00003578,-0.00002768,-0.00004074,0.00009721,-0.00004907,-
 0.00010373,-0.00008486,-0.00009128,0.00025697,-0.00038976,0.00003451,-
 0.00008407,0.00170678,0.00113214,0.00048374,-0.00050032,0.00064015,0.0
 0000637,-0.00000369,0.00000662,-0.00000005,0.00000450,0.00000053,0.000
 00276,-0.00000295,-0.00000341,-0.01913458,-0.01573830,-0.01828700,0.10
 819928,0.09186533,0.15882859,0.00009673,0.00011983,-0.00002175,-0.0001
 7822,-0.00035867,0.00021859,0.00110205,0.00121945,-0.00037199,-0.00002
 015,-0.00002494,-0.00002572,-0.00075251,-0.00077680,-0.00002211,0.0000
 1170,0.00000024,0.00001606,-0.28835616,0.07359851,0.03971831,0.0000181
 0,0.00001394,-0.00001050,0.00000454,0.00000181,0.00000184,-0.00006909,
 0.00003309,0.00000585,-0.00000997,-0.00002380,0.00000432,-0.00000109,0
 .00005356,-0.00004523,0.00000581,0.00011313,0.00001401,0.00014223,-0.0
 0017548,-0.00010615,0.00035506,-0.00014140,0.00013482,0.00043848,0.000
 47259,0.00010905,0.00018164,0.00034804,-0.00039647,-0.00000147,-0.0000
 0260,-0.00000559,-0.00000452,0.00001262,-0.00000517,-0.00001792,0.0000
 0121,0.00001343,-0.00675408,0.00137818,0.00070562,-0.01736935,0.005269
 60,0.00368996,0.31117819,-0.00020841,-0.00076380,0.00011011,0.00224294
 ,0.00020819,-0.00034168,-0.00174808,-0.00678383,0.00160473,-0.00000073
 ,-0.00002500,0.00010232,0.03255136,-0.00814145,-0.00599515,-0.00000539
 ,0.00000945,-0.00004774,0.07237912,-0.06878863,-0.01209107,-0.00001606
 ,0.00000614,0.00000141,-0.00000752,-0.00000174,-0.00001151,0.00026904,
 -0.00013044,-0.00002070,-0.00000084,0.00003924,0.00001410,-0.00001380,
 0.00003311,0.00009644,-0.00004114,-0.00000712,-0.00009924,-0.00027212,
 0.00004591,-0.00013891,0.00003133,0.00010480,0.00026869,-0.00041998,0.
 00119612,-0.00068537,-0.00032082,0.00134521,0.00038147,0.00000209,-0.0
 0000116,0.00001185,0.00000119,-0.00000026,0.00000706,0.00003371,-0.000
 00391,-0.00002290,-0.00737612,0.00125325,0.00027787,-0.01594764,0.0047
 5226,0.00401795,-0.08113213,0.07565368,0.00001630,0.00008611,-0.000010
 65,-0.00024928,0.00016057,0.00062770,0.00017150,0.00105288,0.00002622,
 0.00001575,0.00002550,-0.00001829,-0.00620779,0.00143243,-0.00045583,-
 0.00000601,-0.00000515,0.00000635,0.03994085,-0.01239320,-0.05413736,-
 0.00000832,-0.00000950,-0.00000613,0.00000182,0.00000421,0.00000240,-0
 .00002915,0.00001082,-0.00000296,-0.00000042,-0.00000769,0.00000084,0.
 00001495,-0.00010506,-0.00001154,-0.00001073,0.00007901,-0.00002232,-0
 .00039573,0.00008565,0.00040253,0.00042756,0.00000405,0.00007964,0.000
 34930,-0.00027490,0.00000837,-0.00034392,-0.00037121,0.00011566,0.0000
 0203,0.00000022,-0.00000023,0.00000262,-0.00000479,0.00000147,-0.00000
 275,0.00000160,0.00000158,0.02958771,-0.00935179,-0.00380271,-0.019655
 12,0.00701996,0.00333217,-0.04362119,0.01256027,0.05386311\\0.00000100
 ,0.00000085,-0.00000002,0.00000095,0.00000021,0.00000110,-0.00000043,-
 0.00000032,-0.00000015,0.00000017,-0.00000012,-0.00000025,-0.00000032,
 -0.00000098,0.00000064,0.00000024,0.00000132,-0.00000078,-0.00000136,-
 0.00000113,-0.00000029,-0.00000074,0.00000058,-0.00000102,-0.00000016,
 -0.00000046,0.00000035,0.00000172,0.00000093,0.00000085,0.00000127,0.0
 0000156,-0.00000042,0.00000153,0.00000028,0.00000118,0.00000069,-0.000
 00081,0.00000140,-0.00000097,-0.00000066,-0.00000032,-0.00000008,0.000
 00061,-0.00000068,-0.00000045,-0.00000173,0.00000136,0.00000040,-0.000
 00053,0.00000092,0.00000070,0.00000195,-0.00000142,0.00000103,0.000001
 13,-0.00000012,-0.00000021,0.00000087,-0.00000121,-0.00000215,-0.00000
 159,-0.00000048,-0.00000128,-0.00000034,-0.00000089,-0.00000152,-0.000
 00162,0.00000023\\\@


 SI MONUMENTUM REQUIRIS, CIRCUMSPICE
     -- FROM SIR CHRISTOPHER WREN'S TOMBSTONE
 Job cpu time:       0 days  6 hours 49 minutes  3.4 seconds.
 Elapsed time:       0 days  3 hours 24 minutes 39.4 seconds.
 File lengths (MBytes):  RWF=   1488 Int=      0 D2E=      0 Chk=     32 Scr=     32
 Normal termination of Gaussian 16 at Sun Sep 29 07:52:24 2019.
