 Entering Gaussian System, Link 0=g16
 Input=tight/species/CCCCCCC/conformers/CCCCCCC_421.com
 Output=tight/species/CCCCCCC/conformers/CCCCCCC_421.log
 Initial command:
 /shared/centos7/gaussian/g16/l1.exe "/scratch/harms.n/gauss_scrdir/Gau-15355.inp" -scrdir="/scratch/harms.n/gauss_scrdir/"
 Entering Link 1 = /shared/centos7/gaussian/g16/l1.exe PID=     15356.
  
 Copyright (c) 1988,1990,1992,1993,1995,1998,2003,2009,2016,
            Gaussian, Inc.  All Rights Reserved.
  
 This is part of the Gaussian(R) 16 program.  It is based on
 the Gaussian(R) 09 system (copyright 2009, Gaussian, Inc.),
 the Gaussian(R) 03 system (copyright 2003, Gaussian, Inc.),
 the Gaussian(R) 98 system (copyright 1998, Gaussian, Inc.),
 the Gaussian(R) 94 system (copyright 1995, Gaussian, Inc.),
 the Gaussian 92(TM) system (copyright 1992, Gaussian, Inc.),
 the Gaussian 90(TM) system (copyright 1990, Gaussian, Inc.),
 the Gaussian 88(TM) system (copyright 1988, Gaussian, Inc.),
 the Gaussian 86(TM) system (copyright 1986, Carnegie Mellon
 University), and the Gaussian 82(TM) system (copyright 1983,
 Carnegie Mellon University). Gaussian is a federally registered
 trademark of Gaussian, Inc.
  
 This software contains proprietary and confidential information,
 including trade secrets, belonging to Gaussian, Inc.
  
 This software is provided under written license and may be
 used, copied, transmitted, or stored only in accord with that
 written license.
  
 The following legend is applicable only to US Government
 contracts under FAR:
  
                    RESTRICTED RIGHTS LEGEND
  
 Use, reproduction and disclosure by the US Government is
 subject to restrictions as set forth in subparagraphs (a)
 and (c) of the Commercial Computer Software - Restricted
 Rights clause in FAR 52.227-19.
  
 Gaussian, Inc.
 340 Quinnipiac St., Bldg. 40, Wallingford CT 06492
  
  
 ---------------------------------------------------------------
 Warning -- This program may not be used in any manner that
 competes with the business of Gaussian, Inc. or will provide
 assistance to any competitor of Gaussian, Inc.  The licensee
 of this program is prohibited from giving any competitor of
 Gaussian, Inc. access to this program.  By using this program,
 the user acknowledges that Gaussian, Inc. is engaged in the
 business of creating and licensing software in the field of
 computational chemistry and represents and warrants to the
 licensee that it is not a competitor of Gaussian, Inc. and that
 it will not use this program in any manner prohibited above.
 ---------------------------------------------------------------
  

 Cite this work as:
 Gaussian 16, Revision A.03,
 M. J. Frisch, G. W. Trucks, H. B. Schlegel, G. E. Scuseria, 
 M. A. Robb, J. R. Cheeseman, G. Scalmani, V. Barone, 
 G. A. Petersson, H. Nakatsuji, X. Li, M. Caricato, A. V. Marenich, 
 J. Bloino, B. G. Janesko, R. Gomperts, B. Mennucci, H. P. Hratchian, 
 J. V. Ortiz, A. F. Izmaylov, J. L. Sonnenberg, D. Williams-Young, 
 F. Ding, F. Lipparini, F. Egidi, J. Goings, B. Peng, A. Petrone, 
 T. Henderson, D. Ranasinghe, V. G. Zakrzewski, J. Gao, N. Rega, 
 G. Zheng, W. Liang, M. Hada, M. Ehara, K. Toyota, R. Fukuda, 
 J. Hasegawa, M. Ishida, T. Nakajima, Y. Honda, O. Kitao, H. Nakai, 
 T. Vreven, K. Throssell, J. A. Montgomery, Jr., J. E. Peralta, 
 F. Ogliaro, M. J. Bearpark, J. J. Heyd, E. N. Brothers, K. N. Kudin, 
 V. N. Staroverov, T. A. Keith, R. Kobayashi, J. Normand, 
 K. Raghavachari, A. P. Rendell, J. C. Burant, S. S. Iyengar, 
 J. Tomasi, M. Cossi, J. M. Millam, M. Klene, C. Adamo, R. Cammi, 
 J. W. Ochterski, R. L. Martin, K. Morokuma, O. Farkas, 
 J. B. Foresman, and D. J. Fox, Gaussian, Inc., Wallingford CT, 2016.
 
 ******************************************
 Gaussian 16:  EM64L-G16RevA.03 25-Dec-2016
                29-Sep-2019 
 ******************************************
 %nprocshared=20
 Will use up to   20 processors via shared memory.
 %mem=5GB
 ----------------------------------------------------------------------
 #p m062x/cc-pVTZ opt=(calcfc,maxcycles=900,Tight) freq IOP(7/33=1,2/16
 =3) scf=(maxcycle=900)
 ----------------------------------------------------------------------
 1/6=900,7=10,10=4,18=20,19=15,26=3,38=1/1,3;
 2/9=110,12=2,16=3,17=6,18=5,40=1/2;
 3/5=16,6=1,11=2,25=1,30=1,71=2,74=-55,140=1/1,2,3;
 4//1;
 5/5=2,7=900,38=5/2;
 8/6=4,10=90,11=11/1;
 11/6=1,8=1,9=11,15=111,16=1/1,2,10;
 10/6=1,13=1/2;
 6/7=2,8=2,9=2,10=2,28=1/1;
 7/10=1,18=20,25=1,33=1/1,2,3,16;
 1/6=900,7=10,10=4,18=20,19=15,26=3/3(2);
 2/9=110,16=3/2;
 99//99;
 2/9=110,16=3/2;
 3/5=16,6=1,11=2,25=1,30=1,71=1,74=-55/1,2,3;
 4/5=5,16=3,69=1/1;
 5/5=2,7=900,38=5/2;
 7/33=1/1,2,3,16;
 1/6=900,7=10,18=20,19=15,26=3/3(-5);
 2/9=110,16=3/2;
 6/7=2,8=2,9=2,10=2,19=2,28=1/1;
 99/9=1/99;
 Leave Link    1 at Sun Sep 29 03:53:23 2019, MaxMem=   671088640 cpu:               6.6 elap:               3.3
 (Enter /shared/centos7/gaussian/g16/l101.exe)
 ------------------------------
 Gaussian input prepared by ASE
 ------------------------------
 Symbolic Z-matrix:
 Charge =  0 Multiplicity = 1
 C                     1.40428  -1.16569   0.52068 
 C                     0.15186  -0.46137   0.91735 
 C                    -0.86322  -0.27776  -0.18304 
 C                     2.17329  -0.47801  -0.5567 
 C                    -1.27121  -1.54871  -0.89011 
 C                     3.39015  -1.18107  -0.99777 
 C                    -2.73015  -1.89224  -0.73709 
 H                     2.44882   0.55011  -0.18767 
 H                     1.50193  -0.30389  -1.43118 
 H                     1.15788  -2.20267   0.20836 
 H                     2.0488   -1.26538   1.41807 
 H                     0.40378   0.53119   1.32237 
 H                    -0.31836  -1.02051   1.75372 
 H                    -0.46661   0.44175  -0.91934 
 H                    -1.75852   0.20839   0.25655 
 H                    -1.04188  -1.4517   -1.98351 
 H                    -0.66514  -2.39964  -0.53536 
 H                     3.60851  -2.07647  -0.38584 
 H                     3.30063  -1.53016  -2.06906 
 H                     4.28325  -0.52292  -0.94578 
 H                    -3.36817  -1.05032  -1.00855 
 H                    -2.96916  -2.18096   0.32375 
 H                    -3.00252  -2.76163  -1.40181 
 
 ITRead=  0  0  0  0  0  0  0  0  0  0  0  0  0  0  0  0  0  0  0  0
 ITRead=  0  0  0
 MicOpt= -1 -1 -1 -1 -1 -1 -1 -1 -1 -1 -1 -1 -1 -1 -1 -1 -1 -1 -1 -1
 MicOpt= -1 -1 -1
 NAtoms=     23 NQM=       23 NQMF=       0 NMMI=      0 NMMIF=      0
                NMic=       0 NMicF=      0.
                    Isotopes and Nuclear Properties:
 (Nuclear quadrupole moments (NQMom) in fm**2, nuclear magnetic moments (NMagM)
  in nuclear magnetons)

  Atom         1           2           3           4           5           6           7           8           9          10
 IAtWgt=          12          12          12          12          12          12          12           1           1           1
 AtmWgt=  12.0000000  12.0000000  12.0000000  12.0000000  12.0000000  12.0000000  12.0000000   1.0078250   1.0078250   1.0078250
 NucSpn=           0           0           0           0           0           0           0           1           1           1
 AtZEff=  -0.0000000  -0.0000000  -0.0000000  -0.0000000  -0.0000000  -0.0000000  -0.0000000  -0.0000000  -0.0000000  -0.0000000
 NQMom=    0.0000000   0.0000000   0.0000000   0.0000000   0.0000000   0.0000000   0.0000000   0.0000000   0.0000000   0.0000000
 NMagM=    0.0000000   0.0000000   0.0000000   0.0000000   0.0000000   0.0000000   0.0000000   2.7928460   2.7928460   2.7928460
 AtZNuc=   6.0000000   6.0000000   6.0000000   6.0000000   6.0000000   6.0000000   6.0000000   1.0000000   1.0000000   1.0000000

  Atom        11          12          13          14          15          16          17          18          19          20
 IAtWgt=           1           1           1           1           1           1           1           1           1           1
 AtmWgt=   1.0078250   1.0078250   1.0078250   1.0078250   1.0078250   1.0078250   1.0078250   1.0078250   1.0078250   1.0078250
 NucSpn=           1           1           1           1           1           1           1           1           1           1
 AtZEff=  -0.0000000  -0.0000000  -0.0000000  -0.0000000  -0.0000000  -0.0000000  -0.0000000  -0.0000000  -0.0000000  -0.0000000
 NQMom=    0.0000000   0.0000000   0.0000000   0.0000000   0.0000000   0.0000000   0.0000000   0.0000000   0.0000000   0.0000000
 NMagM=    2.7928460   2.7928460   2.7928460   2.7928460   2.7928460   2.7928460   2.7928460   2.7928460   2.7928460   2.7928460
 AtZNuc=   1.0000000   1.0000000   1.0000000   1.0000000   1.0000000   1.0000000   1.0000000   1.0000000   1.0000000   1.0000000

  Atom        21          22          23
 IAtWgt=           1           1           1
 AtmWgt=   1.0078250   1.0078250   1.0078250
 NucSpn=           1           1           1
 AtZEff=  -0.0000000  -0.0000000  -0.0000000
 NQMom=    0.0000000   0.0000000   0.0000000
 NMagM=    2.7928460   2.7928460   2.7928460
 AtZNuc=   1.0000000   1.0000000   1.0000000
 Leave Link  101 at Sun Sep 29 03:53:26 2019, MaxMem=   671088640 cpu:               5.2 elap:               2.6
 (Enter /shared/centos7/gaussian/g16/l103.exe)

 GradGradGradGradGradGradGradGradGradGradGradGradGradGradGradGradGradGrad
 Berny optimization.
 Initialization pass.
                           ----------------------------
                           !    Initial Parameters    !
                           ! (Angstroms and Degrees)  !
 --------------------------                            --------------------------
 ! Name  Definition              Value          Derivative Info.                !
 --------------------------------------------------------------------------------
 ! R1    R(1,2)                  1.4906         calculate D2E/DX2 analytically  !
 ! R2    R(1,4)                  1.4917         calculate D2E/DX2 analytically  !
 ! R3    R(1,10)                 1.1107         calculate D2E/DX2 analytically  !
 ! R4    R(1,11)                 1.1093         calculate D2E/DX2 analytically  !
 ! R5    R(2,3)                  1.5083         calculate D2E/DX2 analytically  !
 ! R6    R(2,12)                 1.1012         calculate D2E/DX2 analytically  !
 ! R7    R(2,13)                 1.1105         calculate D2E/DX2 analytically  !
 ! R8    R(3,5)                  1.5105         calculate D2E/DX2 analytically  !
 ! R9    R(3,14)                 1.1032         calculate D2E/DX2 analytically  !
 ! R10   R(3,15)                 1.1096         calculate D2E/DX2 analytically  !
 ! R11   R(4,6)                  1.473          calculate D2E/DX2 analytically  !
 ! R12   R(4,8)                  1.1266         calculate D2E/DX2 analytically  !
 ! R13   R(4,9)                  1.1161         calculate D2E/DX2 analytically  !
 ! R14   R(5,7)                  1.5066         calculate D2E/DX2 analytically  !
 ! R15   R(5,16)                 1.1214         calculate D2E/DX2 analytically  !
 ! R16   R(5,17)                 1.1033         calculate D2E/DX2 analytically  !
 ! R17   R(6,18)                 1.1063         calculate D2E/DX2 analytically  !
 ! R18   R(6,19)                 1.1303         calculate D2E/DX2 analytically  !
 ! R19   R(6,20)                 1.1106         calculate D2E/DX2 analytically  !
 ! R20   R(7,21)                 1.0907         calculate D2E/DX2 analytically  !
 ! R21   R(7,22)                 1.1251         calculate D2E/DX2 analytically  !
 ! R22   R(7,23)                 1.1278         calculate D2E/DX2 analytically  !
 ! A1    A(2,1,4)              114.0497         calculate D2E/DX2 analytically  !
 ! A2    A(2,1,10)             109.2434         calculate D2E/DX2 analytically  !
 ! A3    A(2,1,11)             108.3812         calculate D2E/DX2 analytically  !
 ! A4    A(4,1,10)             109.9808         calculate D2E/DX2 analytically  !
 ! A5    A(4,1,11)             109.0369         calculate D2E/DX2 analytically  !
 ! A6    A(10,1,11)            105.8109         calculate D2E/DX2 analytically  !
 ! A7    A(1,2,3)              115.3934         calculate D2E/DX2 analytically  !
 ! A8    A(1,2,12)             109.3625         calculate D2E/DX2 analytically  !
 ! A9    A(1,2,13)             108.5587         calculate D2E/DX2 analytically  !
 ! A10   A(3,2,12)             108.2136         calculate D2E/DX2 analytically  !
 ! A11   A(3,2,13)             109.013          calculate D2E/DX2 analytically  !
 ! A12   A(12,2,13)            105.8831         calculate D2E/DX2 analytically  !
 ! A13   A(2,3,5)              114.8881         calculate D2E/DX2 analytically  !
 ! A14   A(2,3,14)             108.9263         calculate D2E/DX2 analytically  !
 ! A15   A(2,3,15)             107.8984         calculate D2E/DX2 analytically  !
 ! A16   A(5,3,14)             109.4776         calculate D2E/DX2 analytically  !
 ! A17   A(5,3,15)             109.6436         calculate D2E/DX2 analytically  !
 ! A18   A(14,3,15)            105.5891         calculate D2E/DX2 analytically  !
 ! A19   A(1,4,6)              114.9699         calculate D2E/DX2 analytically  !
 ! A20   A(1,4,8)              108.0731         calculate D2E/DX2 analytically  !
 ! A21   A(1,4,9)              109.1298         calculate D2E/DX2 analytically  !
 ! A22   A(6,4,8)              109.3686         calculate D2E/DX2 analytically  !
 ! A23   A(6,4,9)              109.6807         calculate D2E/DX2 analytically  !
 ! A24   A(8,4,9)              105.1523         calculate D2E/DX2 analytically  !
 ! A25   A(3,5,7)              113.9445         calculate D2E/DX2 analytically  !
 ! A26   A(3,5,16)             109.1708         calculate D2E/DX2 analytically  !
 ! A27   A(3,5,17)             110.4903         calculate D2E/DX2 analytically  !
 ! A28   A(7,5,16)             108.469          calculate D2E/DX2 analytically  !
 ! A29   A(7,5,17)             108.8705         calculate D2E/DX2 analytically  !
 ! A30   A(16,5,17)            105.5385         calculate D2E/DX2 analytically  !
 ! A31   A(4,6,18)             112.5659         calculate D2E/DX2 analytically  !
 ! A32   A(4,6,19)             111.457          calculate D2E/DX2 analytically  !
 ! A33   A(4,6,20)             111.559          calculate D2E/DX2 analytically  !
 ! A34   A(18,6,19)            106.8536         calculate D2E/DX2 analytically  !
 ! A35   A(18,6,20)            107.1586         calculate D2E/DX2 analytically  !
 ! A36   A(19,6,20)            106.9228         calculate D2E/DX2 analytically  !
 ! A37   A(5,7,21)             111.418          calculate D2E/DX2 analytically  !
 ! A38   A(5,7,22)             111.0994         calculate D2E/DX2 analytically  !
 ! A39   A(5,7,23)             110.4733         calculate D2E/DX2 analytically  !
 ! A40   A(21,7,22)            107.9683         calculate D2E/DX2 analytically  !
 ! A41   A(21,7,23)            107.884          calculate D2E/DX2 analytically  !
 ! A42   A(22,7,23)            107.8554         calculate D2E/DX2 analytically  !
 ! D1    D(4,1,2,3)             60.1298         calculate D2E/DX2 analytically  !
 ! D2    D(4,1,2,12)           -62.1156         calculate D2E/DX2 analytically  !
 ! D3    D(4,1,2,13)          -177.2017         calculate D2E/DX2 analytically  !
 ! D4    D(10,1,2,3)           -63.3826         calculate D2E/DX2 analytically  !
 ! D5    D(10,1,2,12)          174.372          calculate D2E/DX2 analytically  !
 ! D6    D(10,1,2,13)           59.2859         calculate D2E/DX2 analytically  !
 ! D7    D(11,1,2,3)          -178.2235         calculate D2E/DX2 analytically  !
 ! D8    D(11,1,2,12)           59.531          calculate D2E/DX2 analytically  !
 ! D9    D(11,1,2,13)          -55.555          calculate D2E/DX2 analytically  !
 ! D10   D(2,1,4,6)           -177.9358         calculate D2E/DX2 analytically  !
 ! D11   D(2,1,4,8)             59.599          calculate D2E/DX2 analytically  !
 ! D12   D(2,1,4,9)            -54.243          calculate D2E/DX2 analytically  !
 ! D13   D(10,1,4,6)           -54.8232         calculate D2E/DX2 analytically  !
 ! D14   D(10,1,4,8)          -177.2884         calculate D2E/DX2 analytically  !
 ! D15   D(10,1,4,9)            68.8696         calculate D2E/DX2 analytically  !
 ! D16   D(11,1,4,6)            60.7804         calculate D2E/DX2 analytically  !
 ! D17   D(11,1,4,8)           -61.6848         calculate D2E/DX2 analytically  !
 ! D18   D(11,1,4,9)          -175.5267         calculate D2E/DX2 analytically  !
 ! D19   D(1,2,3,5)             54.519          calculate D2E/DX2 analytically  !
 ! D20   D(1,2,3,14)           -68.6876         calculate D2E/DX2 analytically  !
 ! D21   D(1,2,3,15)           177.1526         calculate D2E/DX2 analytically  !
 ! D22   D(12,2,3,5)           177.3768         calculate D2E/DX2 analytically  !
 ! D23   D(12,2,3,14)           54.1702         calculate D2E/DX2 analytically  !
 ! D24   D(12,2,3,15)          -59.9897         calculate D2E/DX2 analytically  !
 ! D25   D(13,2,3,5)           -67.9073         calculate D2E/DX2 analytically  !
 ! D26   D(13,2,3,14)          168.886          calculate D2E/DX2 analytically  !
 ! D27   D(13,2,3,15)           54.7262         calculate D2E/DX2 analytically  !
 ! D28   D(2,3,5,7)            117.206          calculate D2E/DX2 analytically  !
 ! D29   D(2,3,5,16)          -121.3705         calculate D2E/DX2 analytically  !
 ! D30   D(2,3,5,17)            -5.7321         calculate D2E/DX2 analytically  !
 ! D31   D(14,3,5,7)          -119.8824         calculate D2E/DX2 analytically  !
 ! D32   D(14,3,5,16)            1.5411         calculate D2E/DX2 analytically  !
 ! D33   D(14,3,5,17)          117.1795         calculate D2E/DX2 analytically  !
 ! D34   D(15,3,5,7)            -4.4842         calculate D2E/DX2 analytically  !
 ! D35   D(15,3,5,16)          116.9393         calculate D2E/DX2 analytically  !
 ! D36   D(15,3,5,17)         -127.4223         calculate D2E/DX2 analytically  !
 ! D37   D(1,4,6,18)            -5.7643         calculate D2E/DX2 analytically  !
 ! D38   D(1,4,6,19)           114.2807         calculate D2E/DX2 analytically  !
 ! D39   D(1,4,6,20)          -126.275          calculate D2E/DX2 analytically  !
 ! D40   D(8,4,6,18)           116.0015         calculate D2E/DX2 analytically  !
 ! D41   D(8,4,6,19)          -123.9536         calculate D2E/DX2 analytically  !
 ! D42   D(8,4,6,20)            -4.5092         calculate D2E/DX2 analytically  !
 ! D43   D(9,4,6,18)          -129.1644         calculate D2E/DX2 analytically  !
 ! D44   D(9,4,6,19)            -9.1195         calculate D2E/DX2 analytically  !
 ! D45   D(9,4,6,20)           110.3249         calculate D2E/DX2 analytically  !
 ! D46   D(3,5,7,21)            52.0538         calculate D2E/DX2 analytically  !
 ! D47   D(3,5,7,22)           -68.3801         calculate D2E/DX2 analytically  !
 ! D48   D(3,5,7,23)           171.9588         calculate D2E/DX2 analytically  !
 ! D49   D(16,5,7,21)          -69.7582         calculate D2E/DX2 analytically  !
 ! D50   D(16,5,7,22)          169.8078         calculate D2E/DX2 analytically  !
 ! D51   D(16,5,7,23)           50.1468         calculate D2E/DX2 analytically  !
 ! D52   D(17,5,7,21)          175.8713         calculate D2E/DX2 analytically  !
 ! D53   D(17,5,7,22)           55.4374         calculate D2E/DX2 analytically  !
 ! D54   D(17,5,7,23)          -64.2236         calculate D2E/DX2 analytically  !
 --------------------------------------------------------------------------------
 Trust Radius=3.00D-01 FncErr=1.00D-07 GrdErr=1.00D-06 EigMax=2.50D+02 EigMin=1.00D-04
 Number of steps in this run=    138 maximum allowed number of steps=    138.
 GradGradGradGradGradGradGradGradGradGradGradGradGradGradGradGradGradGrad

 Leave Link  103 at Sun Sep 29 03:53:27 2019, MaxMem=   671088640 cpu:               1.7 elap:               0.9
 (Enter /shared/centos7/gaussian/g16/l202.exe)
                          Input orientation:                          
 ---------------------------------------------------------------------
 Center     Atomic      Atomic             Coordinates (Angstroms)
 Number     Number       Type             X           Y           Z
 ---------------------------------------------------------------------
      1          6           0        1.404283   -1.165693    0.520679
      2          6           0        0.151864   -0.461374    0.917348
      3          6           0       -0.863224   -0.277761   -0.183045
      4          6           0        2.173293   -0.478014   -0.556700
      5          6           0       -1.271213   -1.548708   -0.890112
      6          6           0        3.390155   -1.181072   -0.997772
      7          6           0       -2.730150   -1.892237   -0.737088
      8          1           0        2.448821    0.550111   -0.187674
      9          1           0        1.501929   -0.303892   -1.431176
     10          1           0        1.157882   -2.202670    0.208364
     11          1           0        2.048797   -1.265380    1.418069
     12          1           0        0.403783    0.531188    1.322370
     13          1           0       -0.318356   -1.020509    1.753719
     14          1           0       -0.466611    0.441749   -0.919337
     15          1           0       -1.758519    0.208394    0.256553
     16          1           0       -1.041877   -1.451704   -1.983508
     17          1           0       -0.665136   -2.399637   -0.535358
     18          1           0        3.608510   -2.076470   -0.385840
     19          1           0        3.300632   -1.530160   -2.069060
     20          1           0        4.283253   -0.522919   -0.945782
     21          1           0       -3.368166   -1.050321   -1.008547
     22          1           0       -2.969161   -2.180957    0.323748
     23          1           0       -3.002517   -2.761628   -1.401813
 ---------------------------------------------------------------------
                    Distance matrix (angstroms):
                    1          2          3          4          5
     1  C    0.000000
     2  C    1.490625   0.000000
     3  C    2.534806   1.508304   0.000000
     4  C    1.491652   2.501853   3.065967   0.000000
     5  C    3.048821   2.544475   1.510531   3.622453   0.000000
     6  C    2.499923   3.830427   4.423910   1.472952   4.677081
     7  C    4.382166   3.618084   2.529606   5.106497   1.506627
     8  H    2.129978   2.742296   3.413947   1.126559   4.328638
     9  H    2.135878   2.713493   2.674410   1.116134   3.087496
    10  H    1.110665   2.132332   2.818394   2.142621   2.744962
    11  H    1.109344   2.120260   3.466818   2.129591   4.053448
    12  H    2.126761   1.101220   2.127435   2.771382   3.467946
    13  H    2.123429   1.110520   2.144670   3.441025   2.859506
    14  H    2.856179   2.138119   1.103233   2.818964   2.147127
    15  H    3.458496   2.129507   1.109570   4.073288   2.153999
    16  H    3.512329   3.289489   2.156786   3.649818   1.121392
    17  H    2.630651   2.556307   2.160028   3.427793   1.103295
    18  H    2.551452   4.031778   4.824198   2.155019   4.934016
    19  H    3.230438   4.469416   4.739542   2.159893   4.721443
    20  H    3.294258   4.532484   5.208464   2.146004   5.648666
    21  H    5.012795   4.055434   2.748279   5.589228   2.158618
    22  H    4.494058   3.612495   2.883394   5.488172   2.180877
    23  H    5.065853   4.540902   3.497365   5.719975   2.174955
                    6          7          8          9         10
     6  C    0.000000
     7  C    6.166996   0.000000
     8  H    2.130577   5.752273   0.000000
     9  H    2.126659   4.573302   1.781073   0.000000
    10  H    2.735228   4.013357   3.066133   2.532158   0.000000
    11  H    2.764531   5.279771   2.456509   3.056423   1.770771
    12  H    4.151302   4.464962   2.542198   3.079821   3.046909
    13  H    4.620556   3.575022   3.727348   3.737718   2.442315
    14  H    4.185014   3.256426   3.007792   2.166359   3.302066
    15  H    5.478392   2.518737   4.244504   3.706938   3.784302
    16  H    4.548387   2.144271   4.406501   2.844907   3.194870
    17  H    4.259590   2.135985   4.303326   3.144966   1.978714
    18  H    1.106291   6.351057   2.878033   2.944901   2.524793
    19  H    1.130281   6.186726   2.931335   2.268471   3.198486
    20  H    1.110627   7.148874   2.256382   2.831844   3.731161
    21  H    6.759594   1.090678   6.088723   4.945059   4.826375
    22  H    6.571688   1.125104   6.088909   5.156916   4.128713
    23  H    6.597549   1.127778   6.492983   5.131410   4.496000
                   11         12         13         14         15
    11  H    0.000000
    12  H    2.437804   0.000000
    13  H    2.403339   1.765024   0.000000
    14  H    3.834714   2.406415   3.050477   0.000000
    15  H    4.244618   2.432223   2.413665   1.762441   0.000000
    16  H    4.599751   4.117113   3.830964   2.246899   2.878780
    17  H    3.530984   3.630905   2.694833   2.874078   2.936738
    18  H    2.518860   4.470809   4.594893   4.820027   5.868413
    19  H    3.714467   4.913521   5.288711   4.404816   5.833185
    20  H    3.336440   4.615836   5.358144   4.846905   6.203502
    21  H    5.939546   4.707647   4.114893   3.263932   2.403290
    22  H    5.216869   4.441816   3.227728   3.832310   2.679397
    23  H    5.975472   5.465042   4.493729   4.114028   3.621980
                   16         17         18         19         20
    16  H    0.000000
    17  H    1.771342   0.000000
    18  H    4.956710   4.288454   0.000000
    19  H    4.344060   4.339994   1.796240   0.000000
    20  H    5.504228   5.308207   1.783910   1.800509   0.000000
    21  H    2.554071   3.057930   7.079178   6.769624   7.669831
    22  H    3.093488   2.468687   6.616660   6.742357   7.547073
    23  H    2.428658   2.518955   6.723638   6.456889   7.635589
                   21         22         23
    21  H    0.000000
    22  H    1.792360   0.000000
    23  H    1.793581   1.820948   0.000000
 Stoichiometry    C7H16
 Framework group  C1[X(C7H16)]
 Deg. of freedom    63
 Full point group                 C1      NOp   1
 Largest Abelian subgroup         C1      NOp   1
 Largest concise Abelian subgroup C1      NOp   1
                         Standard orientation:                         
 ---------------------------------------------------------------------
 Center     Atomic      Atomic             Coordinates (Angstroms)
 Number     Number       Type             X           Y           Z
 ---------------------------------------------------------------------
      1          6           0        1.064562    0.541991    0.657027
      2          6           0       -0.097968    1.332282    0.161117
      3          6           0       -1.094069    0.564508   -0.671522
      4          6           0        1.897977   -0.057640   -0.425049
      5          6           0       -1.647273   -0.678421   -0.015172
      6          6           0        3.024992   -0.882516    0.042931
      7          6           0       -3.134386   -0.634170    0.222448
      8          1           0        2.289836    0.779588   -1.068967
      9          1           0        1.244010   -0.661805   -1.098151
     10          1           0        0.701066   -0.253819    1.341231
     11          1           0        1.700372    1.206633    1.277221
     12          1           0        0.266705    2.182760   -0.435864
     13          1           0       -0.621828    1.776070    1.033974
     14          1           0       -0.624619    0.294993   -1.632824
     15          1           0       -1.925908    1.252403   -0.928404
     16          1           0       -1.416513   -1.567995   -0.657768
     17          1           0       -1.137936   -0.867386    0.945103
     18          1           0        3.145960   -0.851688    1.142156
     19          1           0        2.889018   -1.967948   -0.241470
     20          1           0        3.986664   -0.549766   -0.401993
     21          1           0       -3.675862   -0.377342   -0.688826
     22          1           0       -3.396514    0.127229    1.008209
     23          1           0       -3.507456   -1.638124    0.575689
 ---------------------------------------------------------------------
 Rotational constants (GHZ):           5.0191265           1.1209826           1.0242029
 Leave Link  202 at Sun Sep 29 03:53:29 2019, MaxMem=   671088640 cpu:               3.9 elap:               1.9
 (Enter /shared/centos7/gaussian/g16/l301.exe)
 Standard basis: CC-pVTZ (5D, 7F)
 Ernie: Thresh=  0.10000D-02 Tol=  0.10000D-05 Strict=F.
 Ernie:  21 primitive shells out of 310 were deleted.
 There are   485 symmetry adapted cartesian basis functions of A   symmetry.
 There are   434 symmetry adapted basis functions of A   symmetry.
   434 basis functions,   636 primitive gaussians,   485 cartesian basis functions
    29 alpha electrons       29 beta electrons
       nuclear repulsion energy       323.7302614246 Hartrees.
 IExCor= 4336 DFT=T Ex+Corr=M062X ExCW=0 ScaHFX=  0.540000
 ScaDFX=  1.000000  1.000000  1.000000  1.000000 ScalE2=  1.000000  1.000000
 IRadAn=      5 IRanWt=     -1 IRanGd=            0 ICorTp=0 IEmpDi=  4
 NAtoms=   23 NActive=   23 NUniq=   23 SFac= 1.00D+00 NAtFMM=   60 NAOKFM=F Big=F
 Integral buffers will be    131072 words long.
 Raffenetti 2 integral format.
 Two-electron integral symmetry is turned on.
 Leave Link  301 at Sun Sep 29 03:53:30 2019, MaxMem=   671088640 cpu:               1.9 elap:               0.9
 (Enter /shared/centos7/gaussian/g16/l302.exe)
 NPDir=0 NMtPBC=     1 NCelOv=     1 NCel=       1 NClECP=     1 NCelD=      1
         NCelK=      1 NCelE2=     1 NClLst=     1 CellRange=     0.0.
 One-electron integrals computed using PRISM.
 One-electron integral symmetry used in STVInt
 NBasis=   434 RedAO= T EigKep=  2.87D-04  NBF=   434
 NBsUse=   434 1.00D-06 EigRej= -1.00D+00 NBFU=   434
 Precomputing XC quadrature grid using
 IXCGrd= 4 IRadAn=           5 IRanWt=          -1 IRanGd=           0 AccXCQ= 0.00D+00.
 Generated NRdTot=       0 NPtTot=           0 NUsed=           0 NTot=          32
 NSgBfM=   485   485   485   485   485 MxSgAt=    23 MxSgA2=    23.
 Leave Link  302 at Sun Sep 29 03:54:43 2019, MaxMem=   671088640 cpu:             146.9 elap:              73.5
 (Enter /shared/centos7/gaussian/g16/l303.exe)
 DipDrv:  MaxL=1.
 Leave Link  303 at Sun Sep 29 03:54:49 2019, MaxMem=   671088640 cpu:              11.0 elap:               5.5
 (Enter /shared/centos7/gaussian/g16/l401.exe)
 ExpMin= 1.03D-01 ExpMax= 8.24D+03 ExpMxC= 2.81D+02 IAcc=3 IRadAn=         5 AccDes= 0.00D+00
 Harris functional with IExCor= 1009 and IRadAn=       5 diagonalized for initial guess.
 HarFok:  IExCor= 1009 AccDes= 0.00D+00 IRadAn=         5 IDoV= 1 UseB2=F ITyADJ=14
 ICtDFT=  3500011 ScaDFX=  1.000000  1.000000  1.000000  1.000000
 FoFCou: FMM=F IPFlag=           0 FMFlag=      100000 FMFlg1=           0
         NFxFlg=           0 DoJE=T BraDBF=F KetDBF=T FulRan=T
         wScrn=  0.000000 ICntrl=       500 IOpCl=  0 I1Cent=   200000004 NGrid=           0
         NMat0=    1 NMatS0=      1 NMatT0=    0 NMatD0=    1 NMtDS0=    0 NMtDT0=    0
 Petite list used in FoFCou.
 Harris En= -276.327251760589    
 JPrj=0 DoOrth=F DoCkMO=F.
 Leave Link  401 at Sun Sep 29 03:55:39 2019, MaxMem=   671088640 cpu:             100.1 elap:              50.1
 (Enter /shared/centos7/gaussian/g16/l502.exe)
 Integral symmetry usage will be decided dynamically.
 Closed shell SCF:
 Using DIIS extrapolation, IDIIS=  1040.
 NGot=   671088640 LenX=   670604095 LenY=   670368385
 Requested convergence on RMS density matrix=1.00D-08 within 900 cycles.
 Requested convergence on MAX density matrix=1.00D-06.
 Requested convergence on             energy=1.00D-06.
 No special actions if energy rises.
 Fock matrices will be formed incrementally for  20 cycles.
 Integral accuracy reduced to 1.0D-05 until final iterations.

 Cycle   1  Pass 0  IDiag  1:
 FoFJK:  IHMeth= 1 ICntrl=       0 DoSepK=F KAlg= 0 I1Cent=           0 FoldK=F
 IRaf= 920000000 NMat=       1 IRICut=       1 DoRegI=T DoRafI=F ISym2E= 0 IDoP0=0 IntGTp=1.
 FoFCou: FMM=F IPFlag=           0 FMFlag=      100000 FMFlg1=           0
         NFxFlg=           0 DoJE=F BraDBF=F KetDBF=F FulRan=T
         wScrn=  0.000000 ICntrl=         0 IOpCl=  0 I1Cent=           0 NGrid=           0
         NMat0=    1 NMatS0=      1 NMatT0=    0 NMatD0=    1 NMtDS0=    0 NMtDT0=    0
 Symmetry not used in FoFCou.
 E= -275.956623912940    
 DIIS: error= 2.53D-02 at cycle   1 NSaved=   1.
 NSaved= 1 IEnMin= 1 EnMin= -275.956623912940     IErMin= 1 ErrMin= 2.53D-02
 ErrMax= 2.53D-02  0.00D+00 EMaxC= 1.00D-01 BMatC= 3.75D-01 BMatP= 3.75D-01
 IDIUse=3 WtCom= 7.47D-01 WtEn= 2.53D-01
 Coeff-Com:  0.100D+01
 Coeff-En:   0.100D+01
 Coeff:      0.100D+01
 Gap=     0.374 Goal=   None    Shift=    0.000
 GapD=    0.374 DampG=1.000 DampE=0.500 DampFc=0.5000 IDamp=-1.
 Damping current iteration by 5.00D-01
 RMSDP=1.90D-03 MaxDP=7.38D-02              OVMax= 1.65D-01

 Cycle   2  Pass 0  IDiag  1:
 RMSU=  9.45D-04    CP:  9.90D-01
 E= -276.137073247054     Delta-E=       -0.180449334114 Rises=F Damp=T
 DIIS: error= 3.81D-03 at cycle   2 NSaved=   2.
 NSaved= 2 IEnMin= 2 EnMin= -276.137073247054     IErMin= 2 ErrMin= 3.81D-03
 ErrMax= 3.81D-03  0.00D+00 EMaxC= 1.00D-01 BMatC= 1.80D-02 BMatP= 3.75D-01
 IDIUse=3 WtCom= 9.62D-01 WtEn= 3.81D-02
 Coeff-Com: -0.559D-01 0.106D+01
 Coeff-En:   0.000D+00 0.100D+01
 Coeff:     -0.538D-01 0.105D+01
 Gap=     0.454 Goal=   None    Shift=    0.000
 RMSDP=5.38D-04 MaxDP=1.89D-02 DE=-1.80D-01 OVMax= 9.12D-02

 Cycle   3  Pass 0  IDiag  1:
 RMSU=  5.26D-04    CP:  9.97D-01  8.97D-01
 E= -276.316505372994     Delta-E=       -0.179432125940 Rises=F Damp=F
 DIIS: error= 2.01D-03 at cycle   3 NSaved=   3.
 NSaved= 3 IEnMin= 3 EnMin= -276.316505372994     IErMin= 3 ErrMin= 2.01D-03
 ErrMax= 2.01D-03  0.00D+00 EMaxC= 1.00D-01 BMatC= 2.24D-03 BMatP= 1.80D-02
 IDIUse=3 WtCom= 9.80D-01 WtEn= 2.01D-02
 Coeff-Com: -0.488D-01 0.221D+00 0.828D+00
 Coeff-En:   0.000D+00 0.000D+00 0.100D+01
 Coeff:     -0.479D-01 0.217D+00 0.831D+00
 Gap=     0.417 Goal=   None    Shift=    0.000
 RMSDP=8.86D-05 MaxDP=2.55D-03 DE=-1.79D-01 OVMax= 9.67D-03

 Cycle   4  Pass 0  IDiag  1:
 RMSU=  7.14D-05    CP:  9.96D-01  9.42D-01  9.44D-01
 E= -276.318399591660     Delta-E=       -0.001894218666 Rises=F Damp=F
 DIIS: error= 6.28D-04 at cycle   4 NSaved=   4.
 NSaved= 4 IEnMin= 4 EnMin= -276.318399591660     IErMin= 4 ErrMin= 6.28D-04
 ErrMax= 6.28D-04  0.00D+00 EMaxC= 1.00D-01 BMatC= 3.18D-04 BMatP= 2.24D-03
 IDIUse=3 WtCom= 9.94D-01 WtEn= 6.28D-03
 Coeff-Com: -0.148D-01 0.422D-01 0.315D+00 0.657D+00
 Coeff-En:   0.000D+00 0.000D+00 0.000D+00 0.100D+01
 Coeff:     -0.147D-01 0.419D-01 0.313D+00 0.659D+00
 Gap=     0.418 Goal=   None    Shift=    0.000
 RMSDP=3.16D-05 MaxDP=1.37D-03 DE=-1.89D-03 OVMax= 3.33D-03

 Cycle   5  Pass 0  IDiag  1:
 RMSU=  1.87D-05    CP:  9.96D-01  9.35D-01  9.77D-01  7.63D-01
 E= -276.318688771254     Delta-E=       -0.000289179594 Rises=F Damp=F
 DIIS: error= 1.48D-04 at cycle   5 NSaved=   5.
 NSaved= 5 IEnMin= 5 EnMin= -276.318688771254     IErMin= 5 ErrMin= 1.48D-04
 ErrMax= 1.48D-04  0.00D+00 EMaxC= 1.00D-01 BMatC= 1.71D-05 BMatP= 3.18D-04
 IDIUse=3 WtCom= 9.99D-01 WtEn= 1.48D-03
 Coeff-Com: -0.953D-03-0.742D-03 0.457D-01 0.223D+00 0.734D+00
 Coeff-En:   0.000D+00 0.000D+00 0.000D+00 0.000D+00 0.100D+01
 Coeff:     -0.952D-03-0.741D-03 0.456D-01 0.222D+00 0.734D+00
 Gap=     0.418 Goal=   None    Shift=    0.000
 RMSDP=6.66D-06 MaxDP=3.39D-04 DE=-2.89D-04 OVMax= 7.54D-04

 Initial convergence to 1.0D-05 achieved.  Increase integral accuracy.
 Cycle   6  Pass 1  IDiag  1:
 E= -276.318706225005     Delta-E=       -0.000017453751 Rises=F Damp=F
 DIIS: error= 4.46D-05 at cycle   1 NSaved=   1.
 NSaved= 1 IEnMin= 1 EnMin= -276.318706225005     IErMin= 1 ErrMin= 4.46D-05
 ErrMax= 4.46D-05  0.00D+00 EMaxC= 1.00D-01 BMatC= 1.40D-06 BMatP= 1.40D-06
 IDIUse=1 WtCom= 1.00D+00 WtEn= 0.00D+00
 Coeff-Com:  0.100D+01
 Coeff:      0.100D+01
 Gap=     0.418 Goal=   None    Shift=    0.000
 RMSDP=6.66D-06 MaxDP=3.39D-04 DE=-1.75D-05 OVMax= 2.20D-04

 Cycle   7  Pass 1  IDiag  1:
 RMSU=  1.00D-05    CP:  1.00D+00
 E= -276.318706878526     Delta-E=       -0.000000653522 Rises=F Damp=F
 DIIS: error= 1.97D-05 at cycle   2 NSaved=   2.
 NSaved= 2 IEnMin= 2 EnMin= -276.318706878526     IErMin= 2 ErrMin= 1.97D-05
 ErrMax= 1.97D-05  0.00D+00 EMaxC= 1.00D-01 BMatC= 2.91D-07 BMatP= 1.40D-06
 IDIUse=1 WtCom= 1.00D+00 WtEn= 0.00D+00
 Coeff-Com:  0.252D+00 0.748D+00
 Coeff:      0.252D+00 0.748D+00
 Gap=     0.418 Goal=   None    Shift=    0.000
 RMSDP=1.12D-06 MaxDP=4.22D-05 DE=-6.54D-07 OVMax= 1.13D-04

 Cycle   8  Pass 1  IDiag  1:
 RMSU=  1.12D-06    CP:  1.00D+00  1.01D+00
 E= -276.318707099519     Delta-E=       -0.000000220993 Rises=F Damp=F
 DIIS: error= 1.06D-05 at cycle   3 NSaved=   3.
 NSaved= 3 IEnMin= 3 EnMin= -276.318707099519     IErMin= 3 ErrMin= 1.06D-05
 ErrMax= 1.06D-05  0.00D+00 EMaxC= 1.00D-01 BMatC= 6.93D-08 BMatP= 2.91D-07
 IDIUse=1 WtCom= 1.00D+00 WtEn= 0.00D+00
 Coeff-Com: -0.728D-02 0.320D+00 0.688D+00
 Coeff:     -0.728D-02 0.320D+00 0.688D+00
 Gap=     0.418 Goal=   None    Shift=    0.000
 RMSDP=4.36D-07 MaxDP=1.62D-05 DE=-2.21D-07 OVMax= 4.35D-05

 Cycle   9  Pass 1  IDiag  1:
 RMSU=  2.92D-07    CP:  1.00D+00  1.03D+00  7.59D-01
 E= -276.318707165605     Delta-E=       -0.000000066086 Rises=F Damp=F
 DIIS: error= 1.63D-06 at cycle   4 NSaved=   4.
 NSaved= 4 IEnMin= 4 EnMin= -276.318707165605     IErMin= 4 ErrMin= 1.63D-06
 ErrMax= 1.63D-06  0.00D+00 EMaxC= 1.00D-01 BMatC= 1.45D-09 BMatP= 6.93D-08
 IDIUse=1 WtCom= 1.00D+00 WtEn= 0.00D+00
 Coeff-Com: -0.104D-01 0.853D-01 0.230D+00 0.696D+00
 Coeff:     -0.104D-01 0.853D-01 0.230D+00 0.696D+00
 Gap=     0.418 Goal=   None    Shift=    0.000
 RMSDP=7.36D-08 MaxDP=2.79D-06 DE=-6.61D-08 OVMax= 7.04D-06

 Cycle  10  Pass 1  IDiag  1:
 RMSU=  7.13D-08    CP:  1.00D+00  1.03D+00  7.63D-01  9.61D-01
 E= -276.318707167066     Delta-E=       -0.000000001462 Rises=F Damp=F
 DIIS: error= 3.53D-07 at cycle   5 NSaved=   5.
 NSaved= 5 IEnMin= 5 EnMin= -276.318707167066     IErMin= 5 ErrMin= 3.53D-07
 ErrMax= 3.53D-07  0.00D+00 EMaxC= 1.00D-01 BMatC= 5.50D-11 BMatP= 1.45D-09
 IDIUse=1 WtCom= 1.00D+00 WtEn= 0.00D+00
 Coeff-Com: -0.329D-03-0.226D-01-0.449D-01 0.608D-01 0.101D+01
 Coeff:     -0.329D-03-0.226D-01-0.449D-01 0.608D-01 0.101D+01
 Gap=     0.418 Goal=   None    Shift=    0.000
 RMSDP=3.22D-08 MaxDP=8.53D-07 DE=-1.46D-09 OVMax= 2.52D-06

 Cycle  11  Pass 1  IDiag  1:
 RMSU=  1.39D-08    CP:  1.00D+00  1.03D+00  7.68D-01  1.05D+00  1.09D+00
 E= -276.318707167140     Delta-E=       -0.000000000074 Rises=F Damp=F
 DIIS: error= 1.05D-07 at cycle   6 NSaved=   6.
 NSaved= 6 IEnMin= 6 EnMin= -276.318707167140     IErMin= 6 ErrMin= 1.05D-07
 ErrMax= 1.05D-07  0.00D+00 EMaxC= 1.00D-01 BMatC= 7.88D-12 BMatP= 5.50D-11
 IDIUse=1 WtCom= 1.00D+00 WtEn= 0.00D+00
 Coeff-Com:  0.325D-03-0.124D-01-0.272D-01-0.732D-02 0.392D+00 0.655D+00
 Coeff:      0.325D-03-0.124D-01-0.272D-01-0.732D-02 0.392D+00 0.655D+00
 Gap=     0.418 Goal=   None    Shift=    0.000
 RMSDP=4.68D-09 MaxDP=1.77D-07 DE=-7.37D-11 OVMax= 5.10D-07

 SCF Done:  E(RM062X) =  -276.318707167     A.U. after   11 cycles
            NFock= 11  Conv=0.47D-08     -V/T= 2.0067
 KE= 2.744714469474D+02 PE=-1.285862613531D+03 EE= 4.113421979918D+02
 Leave Link  502 at Sun Sep 29 04:13:02 2019, MaxMem=   671088640 cpu:            2086.1 elap:            1043.3
 (Enter /shared/centos7/gaussian/g16/l801.exe)
 DoSCS=F DFT=T ScalE2(SS,OS)=  1.000000  1.000000
 Range of M.O.s used for correlation:     1   434
 NBasis=   434 NAE=    29 NBE=    29 NFC=     0 NFV=     0
 NROrb=    434 NOA=    29 NOB=    29 NVA=   405 NVB=   405

 **** Warning!!: The largest alpha MO coefficient is  0.12160445D+02

 Leave Link  801 at Sun Sep 29 04:13:03 2019, MaxMem=   671088640 cpu:               1.7 elap:               0.8
 (Enter /shared/centos7/gaussian/g16/l1101.exe)
 Using compressed storage, NAtomX=    23.
 Will process     24 centers per pass.
 Leave Link 1101 at Sun Sep 29 04:13:39 2019, MaxMem=   671088640 cpu:              72.2 elap:              36.1
 (Enter /shared/centos7/gaussian/g16/l1102.exe)
 Symmetrizing basis deriv contribution to polar:
 IMax=3 JMax=2 DiffMx= 0.00D+00
 Leave Link 1102 at Sun Sep 29 04:13:42 2019, MaxMem=   671088640 cpu:               5.2 elap:               2.6
 (Enter /shared/centos7/gaussian/g16/l1110.exe)
 Forming Gx(P) for the SCF density, NAtomX=    23.
 Integral derivatives from FoFJK, PRISM(SPDF).
 Do as many integral derivatives as possible in FoFJK.
 G2DrvN: MDV=     671086848.
 G2DrvN: will do    24 centers at a time, making    1 passes.
 Calling FoFCou, ICntrl=  3107 FMM=F I1Cent=   0 AccDes= 0.00D+00.
 FoFJK:  IHMeth= 1 ICntrl=    3107 DoSepK=F KAlg= 0 I1Cent=           0 FoldK=F
 IRaf=         0 NMat=       1 IRICut=       1 DoRegI=T DoRafI=F ISym2E= 0 IDoP0=0 IntGTp=1.
 FoFCou: FMM=F IPFlag=           0 FMFlag=      100000 FMFlg1=           0
         NFxFlg=           0 DoJE=F BraDBF=F KetDBF=F FulRan=T
         wScrn=  0.000000 ICntrl=      3107 IOpCl=  0 I1Cent=           0 NGrid=           0
         NMat0=    1 NMatS0=      1 NMatT0=    0 NMatD0=    1 NMtDS0=    0 NMtDT0=    0
 Symmetry not used in FoFCou.
 End of G2Drv F.D. properties file   721 does not exist.
 End of G2Drv F.D. properties file   722 does not exist.
 End of G2Drv F.D. properties file   788 does not exist.
 Leave Link 1110 at Sun Sep 29 04:56:31 2019, MaxMem=   671088640 cpu:            5137.2 elap:            2569.0
 (Enter /shared/centos7/gaussian/g16/l1002.exe)
 Minotr:  Closed shell wavefunction.
          IDoAtm=11111111111111111111111
          Direct CPHF calculation.
          Differentiating once with respect to nuclear coordinates.
          Requested convergence is 1.0D-08 RMS, and 1.0D-07 maximum.
          Secondary convergence is 1.0D-12 RMS, and 1.0D-12 maximum.
          NewPWx=T KeepS1=F KeepF1=F KeepIn=T MapXYZ=F SortEE=F KeepMc=T.
         6925 words used for storage of precomputed grid.
 Two-electron integrals replicated using symmetry.
          MDV=     671088640 using IRadAn=       1.
          Solving linear equations simultaneously, MaxMat=     380.
 FoF2E skips out because all densities are zero.
 CalDSu exits because no D1Ps are significant.
 FoFJK:  IHMeth= 1 ICntrl=       0 DoSepK=F KAlg= 0 I1Cent=           0 FoldK=F
 IRaf= 900000000 NMat=      69 IRICut=     172 DoRegI=T DoRafI=T ISym2E= 2 IDoP0=3 IntGTp=3.
 FoFCou: FMM=F IPFlag=           0 FMFlag=      100000 FMFlg1=           0
         NFxFlg=           0 DoJE=F BraDBF=F KetDBF=F FulRan=T
         wScrn=  0.000000 ICntrl=         0 IOpCl=  0 I1Cent=           0 NGrid=           0
         NMat0=   69 NMatS0=     69 NMatT0=    0 NMatD0=   69 NMtDS0=    0 NMtDT0=    0
 Integrals replicated using symmetry in FoFCou.
 Raff kept on since  86.83% of shell-pairs survive, threshold=   0.20 IRatSp=87.
          There are    72 degrees of freedom in the 1st order CPHF.  IDoFFX=6 NUNeed=     0.
     66 vectors produced by pass  0 Test12= 1.63D-14 1.39D-09 XBig12= 5.70D-02 3.97D-02.
 AX will form    66 AO Fock derivatives at one time.
     66 vectors produced by pass  1 Test12= 1.63D-14 1.39D-09 XBig12= 2.68D-03 6.21D-03.
     66 vectors produced by pass  2 Test12= 1.63D-14 1.39D-09 XBig12= 5.11D-05 1.24D-03.
     66 vectors produced by pass  3 Test12= 1.63D-14 1.39D-09 XBig12= 4.20D-07 7.59D-05.
     66 vectors produced by pass  4 Test12= 1.63D-14 1.39D-09 XBig12= 1.68D-09 5.33D-06.
     66 vectors produced by pass  5 Test12= 1.63D-14 1.39D-09 XBig12= 8.69D-12 3.53D-07.
     22 vectors produced by pass  6 Test12= 1.63D-14 1.39D-09 XBig12= 3.43D-14 1.85D-08.
 InvSVY:  IOpt=1 It=  1 EMax= 4.16D-16
 Solved reduced A of dimension   418 with    72 vectors.
 End of Minotr F.D. properties file   721 does not exist.
 End of Minotr F.D. properties file   722 does not exist.
 End of Minotr F.D. properties file   788 does not exist.
 Leave Link 1002 at Sun Sep 29 06:17:48 2019, MaxMem=   671088640 cpu:            9751.7 elap:            4876.8
 (Enter /shared/centos7/gaussian/g16/l601.exe)
 Copying SCF densities to generalized density rwf, IOpCl= 0 IROHF=0.

 **********************************************************************

            Population analysis using the SCF density.

 **********************************************************************

 Orbital symmetries:
       Occupied  (A) (A) (A) (A) (A) (A) (A) (A) (A) (A) (A) (A)
                 (A) (A) (A) (A) (A) (A) (A) (A) (A) (A) (A) (A)
                 (A) (A) (A) (A) (A)
       Virtual   (A) (A) (A) (A) (A) (A) (A) (A) (A) (A) (A) (A)
                 (A) (A) (A) (A) (A) (A) (A) (A) (A) (A) (A) (A)
                 (A) (A) (A) (A) (A) (A) (A) (A) (A) (A) (A) (A)
                 (A) (A) (A) (A) (A) (A) (A) (A) (A) (A) (A) (A)
                 (A) (A) (A) (A) (A) (A) (A) (A) (A) (A) (A) (A)
                 (A) (A) (A) (A) (A) (A) (A) (A) (A) (A) (A) (A)
                 (A) (A) (A) (A) (A) (A) (A) (A) (A) (A) (A) (A)
                 (A) (A) (A) (A) (A) (A) (A) (A) (A) (A) (A) (A)
                 (A) (A) (A) (A) (A) (A) (A) (A) (A) (A) (A) (A)
                 (A) (A) (A) (A) (A) (A) (A) (A) (A) (A) (A) (A)
                 (A) (A) (A) (A) (A) (A) (A) (A) (A) (A) (A) (A)
                 (A) (A) (A) (A) (A) (A) (A) (A) (A) (A) (A) (A)
                 (A) (A) (A) (A) (A) (A) (A) (A) (A) (A) (A) (A)
                 (A) (A) (A) (A) (A) (A) (A) (A) (A) (A) (A) (A)
                 (A) (A) (A) (A) (A) (A) (A) (A) (A) (A) (A) (A)
                 (A) (A) (A) (A) (A) (A) (A) (A) (A) (A) (A) (A)
                 (A) (A) (A) (A) (A) (A) (A) (A) (A) (A) (A) (A)
                 (A) (A) (A) (A) (A) (A) (A) (A) (A) (A) (A) (A)
                 (A) (A) (A) (A) (A) (A) (A) (A) (A) (A) (A) (A)
                 (A) (A) (A) (A) (A) (A) (A) (A) (A) (A) (A) (A)
                 (A) (A) (A) (A) (A) (A) (A) (A) (A) (A) (A) (A)
                 (A) (A) (A) (A) (A) (A) (A) (A) (A) (A) (A) (A)
                 (A) (A) (A) (A) (A) (A) (A) (A) (A) (A) (A) (A)
                 (A) (A) (A) (A) (A) (A) (A) (A) (A) (A) (A) (A)
                 (A) (A) (A) (A) (A) (A) (A) (A) (A) (A) (A) (A)
                 (A) (A) (A) (A) (A) (A) (A) (A) (A) (A) (A) (A)
                 (A) (A) (A) (A) (A) (A) (A) (A) (A) (A) (A) (A)
                 (A) (A) (A) (A) (A) (A) (A) (A) (A) (A) (A) (A)
                 (A) (A) (A) (A) (A) (A) (A) (A) (A) (A) (A) (A)
                 (A) (A) (A) (A) (A) (A) (A) (A) (A) (A) (A) (A)
                 (A) (A) (A) (A) (A) (A) (A) (A) (A) (A) (A) (A)
                 (A) (A) (A) (A) (A) (A) (A) (A) (A) (A) (A) (A)
                 (A) (A) (A) (A) (A) (A) (A) (A) (A) (A) (A) (A)
                 (A) (A) (A) (A) (A) (A) (A) (A) (A)
 The electronic state is 1-A.
 Alpha  occ. eigenvalues --  -10.52725 -10.52637 -10.52553 -10.52389 -10.52346
 Alpha  occ. eigenvalues --  -10.52319 -10.52287  -0.92303  -0.88053  -0.82983
 Alpha  occ. eigenvalues --   -0.76287  -0.70227  -0.66835  -0.62121  -0.54815
 Alpha  occ. eigenvalues --   -0.53633  -0.50528  -0.50070  -0.47845  -0.47078
 Alpha  occ. eigenvalues --   -0.44571  -0.42627  -0.41824  -0.40954  -0.38960
 Alpha  occ. eigenvalues --   -0.37339  -0.37204  -0.36082  -0.35502
 Alpha virt. eigenvalues --    0.06323   0.07865   0.08459   0.08574   0.10952
 Alpha virt. eigenvalues --    0.11413   0.13038   0.13766   0.14420   0.14960
 Alpha virt. eigenvalues --    0.15326   0.15840   0.17623   0.18093   0.19609
 Alpha virt. eigenvalues --    0.21235   0.22561   0.23447   0.24470   0.25823
 Alpha virt. eigenvalues --    0.27074   0.27792   0.29178   0.31169   0.31449
 Alpha virt. eigenvalues --    0.31899   0.33231   0.33472   0.35094   0.36131
 Alpha virt. eigenvalues --    0.37373   0.37873   0.39502   0.43546   0.44160
 Alpha virt. eigenvalues --    0.44444   0.45302   0.46266   0.47226   0.47742
 Alpha virt. eigenvalues --    0.49031   0.49157   0.49743   0.50766   0.51038
 Alpha virt. eigenvalues --    0.52276   0.52359   0.53232   0.53709   0.54535
 Alpha virt. eigenvalues --    0.54962   0.55881   0.55986   0.56371   0.57371
 Alpha virt. eigenvalues --    0.57906   0.58495   0.59099   0.60110   0.62749
 Alpha virt. eigenvalues --    0.65819   0.67550   0.70037   0.72906   0.75380
 Alpha virt. eigenvalues --    0.77113   0.78854   0.81736   0.81947   0.84992
 Alpha virt. eigenvalues --    0.87170   0.88304   0.89489   0.90976   0.91640
 Alpha virt. eigenvalues --    0.93459   0.94449   0.94872   0.95647   0.98409
 Alpha virt. eigenvalues --    1.00083   1.01879   1.03083   1.04215   1.05167
 Alpha virt. eigenvalues --    1.05570   1.06334   1.06979   1.08599   1.10072
 Alpha virt. eigenvalues --    1.11553   1.11662   1.11895   1.13777   1.14425
 Alpha virt. eigenvalues --    1.15650   1.16475   1.17070   1.17470   1.18060
 Alpha virt. eigenvalues --    1.19081   1.20531   1.22279   1.22977   1.23181
 Alpha virt. eigenvalues --    1.25025   1.25358   1.26629   1.27437   1.28104
 Alpha virt. eigenvalues --    1.29333   1.30897   1.31328   1.32247   1.33424
 Alpha virt. eigenvalues --    1.34743   1.35340   1.36454   1.37065   1.38992
 Alpha virt. eigenvalues --    1.39305   1.40375   1.41513   1.43078   1.43853
 Alpha virt. eigenvalues --    1.45397   1.47319   1.47772   1.48102   1.50454
 Alpha virt. eigenvalues --    1.50845   1.51529   1.53377   1.54623   1.56035
 Alpha virt. eigenvalues --    1.56306   1.58870   1.60375   1.61021   1.62518
 Alpha virt. eigenvalues --    1.63199   1.64313   1.66673   1.67328   1.74593
 Alpha virt. eigenvalues --    1.76119   1.78130   1.83757   1.85539   2.22461
 Alpha virt. eigenvalues --    2.24947   2.26946   2.31126   2.31861   2.33953
 Alpha virt. eigenvalues --    2.36037   2.37219   2.39246   2.42561   2.43076
 Alpha virt. eigenvalues --    2.45853   2.46515   2.48853   2.49459   2.51143
 Alpha virt. eigenvalues --    2.53101   2.55620   2.57160   2.59007   2.60790
 Alpha virt. eigenvalues --    2.61577   2.62377   2.63351   2.64575   2.65294
 Alpha virt. eigenvalues --    2.68095   2.68815   2.70137   2.71688   2.73478
 Alpha virt. eigenvalues --    2.74683   2.75049   2.76563   2.78632   2.79902
 Alpha virt. eigenvalues --    2.81297   2.82074   2.82361   2.83041   2.84867
 Alpha virt. eigenvalues --    2.85943   2.86889   2.87290   2.90076   2.92366
 Alpha virt. eigenvalues --    2.93498   2.94144   2.94887   2.96732   2.98273
 Alpha virt. eigenvalues --    2.99911   3.00638   3.01578   3.03644   3.03932
 Alpha virt. eigenvalues --    3.05002   3.06473   3.07022   3.07777   3.08028
 Alpha virt. eigenvalues --    3.08932   3.09966   3.10422   3.11055   3.13089
 Alpha virt. eigenvalues --    3.14081   3.15173   3.15871   3.16702   3.19189
 Alpha virt. eigenvalues --    3.19546   3.19840   3.20690   3.20972   3.21999
 Alpha virt. eigenvalues --    3.23271   3.25265   3.25763   3.28306   3.29226
 Alpha virt. eigenvalues --    3.30448   3.31143   3.33771   3.34637   3.35134
 Alpha virt. eigenvalues --    3.36028   3.38223   3.38354   3.39681   3.40170
 Alpha virt. eigenvalues --    3.42050   3.43831   3.44709   3.46229   3.47054
 Alpha virt. eigenvalues --    3.48107   3.49622   3.51032   3.52577   3.53948
 Alpha virt. eigenvalues --    3.54657   3.55588   3.56834   3.58306   3.60124
 Alpha virt. eigenvalues --    3.60487   3.62100   3.63390   3.64764   3.66055
 Alpha virt. eigenvalues --    3.66579   3.68460   3.70113   3.70372   3.71889
 Alpha virt. eigenvalues --    3.74522   3.75364   3.76553   3.77898   3.78728
 Alpha virt. eigenvalues --    3.80839   3.81686   3.83531   3.84049   3.84494
 Alpha virt. eigenvalues --    3.86111   3.86473   3.88053   3.88576   3.89485
 Alpha virt. eigenvalues --    3.91061   3.91837   3.92965   3.94638   3.95853
 Alpha virt. eigenvalues --    3.96487   3.96804   3.98199   3.98755   4.00120
 Alpha virt. eigenvalues --    4.01240   4.02147   4.03676   4.03960   4.05615
 Alpha virt. eigenvalues --    4.06553   4.06805   4.07819   4.09283   4.10515
 Alpha virt. eigenvalues --    4.10678   4.12755   4.13549   4.14685   4.16719
 Alpha virt. eigenvalues --    4.17350   4.18974   4.20689   4.21456   4.21911
 Alpha virt. eigenvalues --    4.24409   4.25176   4.27034   4.28573   4.30483
 Alpha virt. eigenvalues --    4.31728   4.33583   4.35367   4.37480   4.39152
 Alpha virt. eigenvalues --    4.39580   4.40376   4.41390   4.42614   4.45521
 Alpha virt. eigenvalues --    4.49038   4.51452   4.52500   4.53136   4.56170
 Alpha virt. eigenvalues --    4.58004   4.59561   4.61006   4.61717   4.64739
 Alpha virt. eigenvalues --    4.66916   4.69567   4.71964   4.72896   4.74348
 Alpha virt. eigenvalues --    4.76698   4.77768   4.79951   4.80596   4.81600
 Alpha virt. eigenvalues --    4.82513   4.84582   4.86682   4.88589   4.89756
 Alpha virt. eigenvalues --    4.92031   4.93046   4.96235   4.98034   4.98765
 Alpha virt. eigenvalues --    5.00688   5.02188   5.03830   5.05350   5.07974
 Alpha virt. eigenvalues --    5.09820   5.10999   5.13117   5.18109   5.19451
 Alpha virt. eigenvalues --    5.20798   5.23171   5.24429   5.25833   5.26478
 Alpha virt. eigenvalues --    5.26785   5.28692   5.30387   5.31920   5.35087
 Alpha virt. eigenvalues --    5.35683   5.38057   5.41900   5.42155   5.42785
 Alpha virt. eigenvalues --    5.45913   5.47544   5.48623   5.51323   5.54587
 Alpha virt. eigenvalues --    5.59230   5.66067   5.67296   5.73918   5.75382
 Alpha virt. eigenvalues --    5.79319   5.80848   5.81803   5.90067   5.91502
 Alpha virt. eigenvalues --    5.99120   6.00113   6.03661  11.64534  11.92759
 Alpha virt. eigenvalues --   12.67510  13.06958  13.23717  13.45685  13.89561
          Condensed to atoms (all electrons):
               1          2          3          4          5          6
     1  C    5.122620   0.319419  -0.048971   0.301927  -0.006818  -0.045886
     2  C    0.319419   5.081532   0.303087  -0.064190  -0.049426   0.008272
     3  C   -0.048971   0.303087   5.160088   0.005122   0.291448  -0.000195
     4  C    0.301927  -0.064190   0.005122   5.092096  -0.003228   0.287672
     5  C   -0.006818  -0.049426   0.291448  -0.003228   5.090621  -0.000129
     6  C   -0.045886   0.008272  -0.000195   0.287672  -0.000129   4.956410
     7  C   -0.000777   0.006012  -0.050891   0.000224   0.312971  -0.000007
     8  H   -0.053099   0.003769  -0.003597   0.408699   0.000365  -0.037116
     9  H   -0.040247  -0.010646   0.007079   0.408497  -0.000353  -0.040661
    10  H    0.408242  -0.034539  -0.008262  -0.048703  -0.002805  -0.003768
    11  H    0.413435  -0.040069   0.008705  -0.041187   0.000339  -0.005428
    12  H   -0.043757   0.420755  -0.051373  -0.005539   0.009444  -0.000024
    13  H   -0.054771   0.419627  -0.044275   0.010269  -0.002216  -0.000422
    14  H   -0.008494  -0.034751   0.407509   0.000586  -0.049448   0.000326
    15  H    0.008960  -0.042933   0.414488  -0.000152  -0.050945   0.000016
    16  H    0.001013   0.004316  -0.042635  -0.000663   0.402117   0.000006
    17  H   -0.004103  -0.001162  -0.057797  -0.000231   0.410461   0.000223
    18  H   -0.003727   0.000925  -0.000018  -0.062042  -0.000026   0.411417
    19  H    0.003292  -0.000351  -0.000013  -0.045847   0.000025   0.406149
    20  H    0.005777  -0.000671   0.000031  -0.045583   0.000006   0.408536
    21  H   -0.000074   0.000754  -0.009156  -0.000001  -0.044494   0.000000
    22  H    0.000211  -0.000416  -0.001605  -0.000020  -0.046143   0.000000
    23  H    0.000069  -0.000628   0.009301   0.000000  -0.041993  -0.000000
               7          8          9         10         11         12
     1  C   -0.000777  -0.053099  -0.040247   0.408242   0.413435  -0.043757
     2  C    0.006012   0.003769  -0.010646  -0.034539  -0.040069   0.420755
     3  C   -0.050891  -0.003597   0.007079  -0.008262   0.008705  -0.051373
     4  C    0.000224   0.408699   0.408497  -0.048703  -0.041187  -0.005539
     5  C    0.312971   0.000365  -0.000353  -0.002805   0.000339   0.009444
     6  C   -0.000007  -0.037116  -0.040661  -0.003768  -0.005428  -0.000024
     7  C    4.931018  -0.000007   0.000191   0.000251   0.000023  -0.000589
     8  H   -0.000007   0.608743  -0.041512   0.008923  -0.008934   0.003488
     9  H    0.000191  -0.041512   0.607712  -0.005900   0.008191   0.000187
    10  H    0.000251   0.008923  -0.005900   0.580527  -0.035944   0.007770
    11  H    0.000023  -0.008934   0.008191  -0.035944   0.572625  -0.006997
    12  H   -0.000589   0.003488   0.000187   0.007770  -0.006997   0.567343
    13  H    0.000738   0.000072  -0.000487  -0.005519  -0.007666  -0.026716
    14  H    0.006235   0.001019  -0.008756   0.000569  -0.000464  -0.007449
    15  H   -0.009386  -0.000220   0.000556  -0.000362  -0.000243  -0.005190
    16  H   -0.031755   0.000029   0.000377  -0.000312   0.000026  -0.000458
    17  H   -0.037481  -0.000046  -0.000520  -0.002367   0.000023   0.000182
    18  H    0.000001   0.005114   0.006722   0.000397   0.001639   0.000055
    19  H   -0.000002   0.007119  -0.018787   0.001247  -0.000265  -0.000019
    20  H    0.000000  -0.018559   0.005767  -0.000180   0.000950   0.000006
    21  H    0.409676  -0.000001  -0.000007  -0.000063   0.000003  -0.000035
    22  H    0.404678   0.000001  -0.000009   0.000053  -0.000006  -0.000067
    23  H    0.406079   0.000000   0.000007   0.000036  -0.000002   0.000031
              13         14         15         16         17         18
     1  C   -0.054771  -0.008494   0.008960   0.001013  -0.004103  -0.003727
     2  C    0.419627  -0.034751  -0.042933   0.004316  -0.001162   0.000925
     3  C   -0.044275   0.407509   0.414488  -0.042635  -0.057797  -0.000018
     4  C    0.010269   0.000586  -0.000152  -0.000663  -0.000231  -0.062042
     5  C   -0.002216  -0.049448  -0.050945   0.402117   0.410461  -0.000026
     6  C   -0.000422   0.000326   0.000016   0.000006   0.000223   0.411417
     7  C    0.000738   0.006235  -0.009386  -0.031755  -0.037481   0.000001
     8  H    0.000072   0.001019  -0.000220   0.000029  -0.000046   0.005114
     9  H   -0.000487  -0.008756   0.000556   0.000377  -0.000520   0.006722
    10  H   -0.005519   0.000569  -0.000362  -0.000312  -0.002367   0.000397
    11  H   -0.007666  -0.000464  -0.000243   0.000026   0.000023   0.001639
    12  H   -0.026716  -0.007449  -0.005190  -0.000458   0.000182   0.000055
    13  H    0.575888   0.008301  -0.009727  -0.000239   0.000951  -0.000122
    14  H    0.008301   0.586517  -0.034370  -0.018757   0.005919  -0.000051
    15  H   -0.009727  -0.034370   0.579913   0.006139   0.005508   0.000003
    16  H   -0.000239  -0.018757   0.006139   0.612386  -0.043036   0.000010
    17  H    0.000951   0.005919   0.005508  -0.043036   0.596522  -0.000013
    18  H   -0.000122  -0.000051   0.000003   0.000010  -0.000013   0.602857
    19  H    0.000036   0.000082  -0.000007   0.000037   0.000022  -0.035759
    20  H    0.000027  -0.000014  -0.000000  -0.000001  -0.000010  -0.035606
    21  H    0.000075   0.000760   0.002438  -0.005672   0.008261  -0.000000
    22  H    0.000610  -0.000178   0.000886   0.008660  -0.009497  -0.000000
    23  H   -0.000092  -0.000513   0.000570  -0.008162  -0.003625   0.000000
              19         20         21         22         23
     1  C    0.003292   0.005777  -0.000074   0.000211   0.000069
     2  C   -0.000351  -0.000671   0.000754  -0.000416  -0.000628
     3  C   -0.000013   0.000031  -0.009156  -0.001605   0.009301
     4  C   -0.045847  -0.045583  -0.000001  -0.000020   0.000000
     5  C    0.000025   0.000006  -0.044494  -0.046143  -0.041993
     6  C    0.406149   0.408536   0.000000   0.000000  -0.000000
     7  C   -0.000002   0.000000   0.409676   0.404678   0.406079
     8  H    0.007119  -0.018559  -0.000001   0.000001   0.000000
     9  H   -0.018787   0.005767  -0.000007  -0.000009   0.000007
    10  H    0.001247  -0.000180  -0.000063   0.000053   0.000036
    11  H   -0.000265   0.000950   0.000003  -0.000006  -0.000002
    12  H   -0.000019   0.000006  -0.000035  -0.000067   0.000031
    13  H    0.000036   0.000027   0.000075   0.000610  -0.000092
    14  H    0.000082  -0.000014   0.000760  -0.000178  -0.000513
    15  H   -0.000007  -0.000000   0.002438   0.000886   0.000570
    16  H    0.000037  -0.000001  -0.005672   0.008660  -0.008162
    17  H    0.000022  -0.000010   0.008261  -0.009497  -0.003625
    18  H   -0.035759  -0.035606  -0.000000  -0.000000   0.000000
    19  H    0.615450  -0.032436   0.000000   0.000000  -0.000000
    20  H   -0.032436   0.605842   0.000000   0.000000   0.000000
    21  H    0.000000   0.000000   0.595283  -0.039788  -0.032810
    22  H    0.000000   0.000000  -0.039788   0.606454  -0.029527
    23  H   -0.000000   0.000000  -0.032810  -0.029527   0.597900
 Mulliken charges:
               1
     1  C   -0.274239
     2  C   -0.288685
     3  C   -0.288072
     4  C   -0.197708
     5  C   -0.219773
     6  C   -0.345391
     7  C   -0.347200
     8  H    0.115750
     9  H    0.122600
    10  H    0.140710
    11  H    0.141248
    12  H    0.138951
    13  H    0.135658
    14  H    0.145423
    15  H    0.134057
    16  H    0.116574
    17  H    0.131814
    18  H    0.108224
    19  H    0.100028
    20  H    0.106119
    21  H    0.114851
    22  H    0.105704
    23  H    0.103359
 Sum of Mulliken charges =  -0.00000
 Mulliken charges with hydrogens summed into heavy atoms:
               1
     1  C    0.007719
     2  C   -0.014077
     3  C   -0.008592
     4  C    0.040641
     5  C    0.028614
     6  C   -0.031019
     7  C   -0.023286
 APT charges:
               1
     1  C   -0.613163
     2  C   -0.838862
     3  C   -0.686098
     4  C   -0.338102
     5  C   -0.335543
     6  C   -1.460273
     7  C   -1.437507
     8  H    0.391053
     9  H    0.203269
    10  H    0.252721
    11  H    0.444064
    12  H    0.398017
    13  H    0.374502
    14  H    0.295548
    15  H    0.435916
    16  H    0.304008
    17  H    0.214250
    18  H    0.319113
    19  H    0.313952
    20  H    0.541490
    21  H    0.422691
    22  H    0.326028
    23  H    0.472923
 Sum of APT charges =  -0.00000
 APT charges with hydrogens summed into heavy atoms:
               1
     1  C    0.083623
     2  C   -0.066343
     3  C    0.045366
     4  C    0.256221
     5  C    0.182715
     6  C   -0.285718
     7  C   -0.215864
 Electronic spatial extent (au):  <R**2>=           1269.4995
 Charge=             -0.0000 electrons
 Dipole moment (field-independent basis, Debye):
    X=              0.0451    Y=              0.0520    Z=             -0.0559  Tot=              0.0887
 Quadrupole moment (field-independent basis, Debye-Ang):
   XX=            -50.1406   YY=            -48.9545   ZZ=            -48.9548
   XY=              0.5292   XZ=             -0.1806   YZ=              0.2331
 Traceless Quadrupole moment (field-independent basis, Debye-Ang):
   XX=             -0.7906   YY=              0.3955   ZZ=              0.3952
   XY=              0.5292   XZ=             -0.1806   YZ=              0.2331
 Octapole moment (field-independent basis, Debye-Ang**2):
  XXX=              2.7872  YYY=             -0.5740  ZZZ=              0.5254  XYY=             -0.6124
  XXY=              3.6165  XXZ=             -1.9799  XZZ=             -0.3654  YZZ=              0.0645
  YYZ=             -0.6402  XYZ=             -0.2383
 Hexadecapole moment (field-independent basis, Debye-Ang**3):
 XXXX=          -1383.3625 YYYY=           -290.0075 ZZZZ=           -165.0321 XXXY=              8.4483
 XXXZ=             -0.9251 YYYX=              3.8597 YYYZ=              0.4744 ZZZX=              1.5550
 ZZZY=              1.2214 XXYY=           -274.7954 XXZZ=           -251.4846 YYZZ=            -74.7395
 XXYZ=             -0.0672 YYXZ=             -2.3040 ZZXY=              0.2755
 N-N= 3.237302614246D+02 E-N=-1.285862570979D+03  KE= 2.744714469475D+02
  Exact polarizability:   0.000   0.000   0.000   0.000   0.000   0.000
 Approx polarizability:  98.141   0.649  99.082  -0.295  -0.064  98.563
 No NMR shielding tensors so no spin-rotation constants.
 Leave Link  601 at Sun Sep 29 06:18:24 2019, MaxMem=   671088640 cpu:              72.6 elap:              36.3
 (Enter /shared/centos7/gaussian/g16/l701.exe)
 SCFChk:  SCF convergence  4.68D-09 required  1.00D-08
 ... and contract with generalized density number  0.
 Compute integral second derivatives.
 Entering OneElI...
 Calculate overlap and kinetic energy integrals
    NBasis = 485  MinDer = 2  MaxDer = 2
 Requested accuracy = 0.1000D-12
 PrmmSu-InSpLW:  IPartL=    0 NPrtUS=   20 NPrtUL=    1 DoSpLW=F IThBeg=    0 IThEnd=   19 NThAct=   20.
 PrsmSu:  NPrtUS=  20 ThrOK=T IAlg=1 NPAlg=1 LenDen=           0 ISkipM=0 DoSpLW=F IThBeg=    0 IThEnd=   19.
 Prism:   IPart=     0 DynPar=F LinDyn=F Incr=           6.
 PRISM was handed    33205009 working-precision words and 13554 shell-pairs
 PRISM was handed    33205009 working-precision words and 13554 shell-pairs
 PRISM was handed    33205009 working-precision words and 13554 shell-pairs
 PRISM was handed    33205009 working-precision words and 13554 shell-pairs
 PRISM was handed    33205009 working-precision words and 13554 shell-pairs
 PRISM was handed    33205009 working-precision words and 13554 shell-pairs
 PRISM was handed    33205009 working-precision words and 13554 shell-pairs
 PRISM was handed    33205009 working-precision words and 13554 shell-pairs
 PRISM was handed    33205009 working-precision words and 13554 shell-pairs
 PRISM was handed    33205009 working-precision words and 13554 shell-pairs
 PRISM was handed    33205009 working-precision words and 13554 shell-pairs
 PRISM was handed    33205009 working-precision words and 13554 shell-pairs
 PRISM was handed    33205009 working-precision words and 13554 shell-pairs
 PRISM was handed    33205009 working-precision words and 13554 shell-pairs
 PRISM was handed    33205009 working-precision words and 13554 shell-pairs
 PRISM was handed    33205009 working-precision words and 13554 shell-pairs
 PRISM was handed    33205009 working-precision words and 13554 shell-pairs
 PRISM was handed    33205009 working-precision words and 13554 shell-pairs
 IPart=  0 NShTot=         711 NBatch=          77 AvBLen=         9.2
 IPart=  2 NShTot=         705 NBatch=          76 AvBLen=         9.3
 PRISM was handed    33205009 working-precision words and 13554 shell-pairs
 PRISM was handed    33205009 working-precision words and 13554 shell-pairs
 IPart= 12 NShTot=         667 NBatch=          55 AvBLen=        12.1
 IPart=  1 NShTot=         708 NBatch=          77 AvBLen=         9.2
 IPart=  9 NShTot=         677 NBatch=          59 AvBLen=        11.5
 IPart= 11 NShTot=         671 NBatch=          57 AvBLen=        11.8
 IPart= 19 NShTot=         651 NBatch=          48 AvBLen=        13.6
 IPart=  7 NShTot=         680 NBatch=          60 AvBLen=        11.3
 IPart= 18 NShTot=         653 NBatch=          48 AvBLen=        13.6
 IPart= 15 NShTot=         659 NBatch=          52 AvBLen=        12.7
 IPart=  8 NShTot=         677 NBatch=          59 AvBLen=        11.5
 IPart= 16 NShTot=         656 NBatch=          50 AvBLen=        13.1
 IPart=  3 NShTot=         702 NBatch=          74 AvBLen=         9.5
 IPart= 17 NShTot=         656 NBatch=          50 AvBLen=        13.1
 IPart= 13 NShTot=         664 NBatch=          53 AvBLen=        12.5
 IPart= 10 NShTot=         673 NBatch=          57 AvBLen=        11.8
 IPart= 14 NShTot=         660 NBatch=          52 AvBLen=        12.7
 IPart=  6 NShTot=         690 NBatch=          66 AvBLen=        10.5
 IPart=  4 NShTot=         700 NBatch=          73 AvBLen=         9.6
 IPart=  5 NShTot=         694 NBatch=          69 AvBLen=        10.1
 PrSmSu:  NxtVal=            121.
 Entering OneElI...
 Calculate potential energy integrals
    NBasis = 485  MinDer = 2  MaxDer = 2
 Requested accuracy = 0.1000D-12
 PrmmSu-InSpLW:  IPartL=    0 NPrtUS=   20 NPrtUL=    1 DoSpLW=F IThBeg=    0 IThEnd=   19 NThAct=   20.
 PrsmSu:  NPrtUS=  20 ThrOK=T IAlg=1 NPAlg=1 LenDen=           0 ISkipM=0 DoSpLW=F IThBeg=    0 IThEnd=   19.
 Prism:   IPart=     0 DynPar=F LinDyn=F Incr=         138.
 PRISM was handed    33268925 working-precision words and 12041 shell-pairs
 PRISM was handed    33268925 working-precision words and 12041 shell-pairs
 PRISM was handed    33268925 working-precision words and 12041 shell-pairs
 PRISM was handed    33268925 working-precision words and 12041 shell-pairs
 PRISM was handed    33268925 working-precision words and 12041 shell-pairs
 PRISM was handed    33268925 working-precision words and 12041 shell-pairs
 PRISM was handed    33268925 working-precision words and 12041 shell-pairs
 PRISM was handed    33268925 working-precision words and 12041 shell-pairs
 PRISM was handed    33268925 working-precision words and 12041 shell-pairs
 PRISM was handed    33268925 working-precision words and 12041 shell-pairs
 PRISM was handed    33268925 working-precision words and 12041 shell-pairs
 PRISM was handed    33268925 working-precision words and 12041 shell-pairs
 PRISM was handed    33268925 working-precision words and 12041 shell-pairs
 PRISM was handed    33268925 working-precision words and 12041 shell-pairs
 PRISM was handed    33268925 working-precision words and 12041 shell-pairs
 PRISM was handed    33268925 working-precision words and 12041 shell-pairs
 PRISM was handed    33268925 working-precision words and 12041 shell-pairs
 PRISM was handed    33268925 working-precision words and 12041 shell-pairs
 PRISM was handed    33268925 working-precision words and 12041 shell-pairs
 PRISM was handed    33268925 working-precision words and 12041 shell-pairs
 IPart= 16 NShTot=       13363 NBatch=         582 AvBLen=        23.0
 IPart=  1 NShTot=       14467 NBatch=         631 AvBLen=        22.9
 IPart= 18 NShTot=       13294 NBatch=         579 AvBLen=        23.0
 IPart= 12 NShTot=       13639 NBatch=         594 AvBLen=        23.0
 IPart=  8 NShTot=       13869 NBatch=         604 AvBLen=        23.0
 IPart= 10 NShTot=       13800 NBatch=         601 AvBLen=        23.0
 IPart= 13 NShTot=       13570 NBatch=         591 AvBLen=        23.0
 IPart= 19 NShTot=       13248 NBatch=         577 AvBLen=        23.0
 IPart= 15 NShTot=       13455 NBatch=         586 AvBLen=        23.0
 IPart= 14 NShTot=       13501 NBatch=         588 AvBLen=        23.0
 IPart=  0 NShTot=       14513 NBatch=         633 AvBLen=        22.9
 IPart=  9 NShTot=       13823 NBatch=         602 AvBLen=        23.0
 IPart= 17 NShTot=       13317 NBatch=         580 AvBLen=        23.0
 IPart=  4 NShTot=       14329 NBatch=         625 AvBLen=        22.9
 IPart=  5 NShTot=       14237 NBatch=         621 AvBLen=        22.9
 IPart=  6 NShTot=       14076 NBatch=         613 AvBLen=        23.0
 IPart=  2 NShTot=       14398 NBatch=         628 AvBLen=        22.9
 IPart=  7 NShTot=       13915 NBatch=         606 AvBLen=        23.0
 IPart=  3 NShTot=       14375 NBatch=         627 AvBLen=        22.9
 IPart= 11 NShTot=       13754 NBatch=         599 AvBLen=        23.0
 PrSmSu:  NxtVal=           2761.
 Polarizability after L701:
                1             2             3 
      1  0.000000D+00
      2  0.000000D+00  0.000000D+00
      3  0.000000D+00  0.000000D+00  0.000000D+00
 Dipole Derivatives after L701:
                 1             2             3             4             5 
      1  -0.505335D+00 -0.238916D+00 -0.816277D+00 -0.341323D+00 -0.745173D-02
      2  -0.431660D+00 -0.513450D+00 -0.248434D+00  0.189318D-01 -0.150523D+01
      3  -0.213207D+00  0.130960D+00 -0.820702D+00  0.402307D+00 -0.109975D-01
                 6             7             8             9            10 
      1   0.362848D+00 -0.744708D+00  0.604791D+00 -0.549852D+00  0.148062D+00
      2  -0.137781D+00  0.473758D+00 -0.347132D+00  0.267240D+00 -0.453930D+00
      3  -0.670036D+00  0.108732D-01  0.607301D-01 -0.966454D+00 -0.590770D-01
                11            12            13            14            15 
      1  -0.747569D+00  0.133208D+01  0.464444D+00 -0.772155D+00  0.147816D+00
      2  -0.484173D+00 -0.436242D-01  0.327501D+00 -0.809217D+00 -0.845939D-01
      3   0.418494D-01 -0.678194D+00 -0.182990D+00 -0.224071D+00 -0.661856D+00
                16            17            18            19            20 
      1  -0.229323D+01  0.968017D+00 -0.510915D+00 -0.230464D+01 -0.403064D-01
      2   0.246419D+00 -0.116410D+01  0.103973D+00 -0.378132D+00 -0.990951D+00
      3   0.942952D-01 -0.620152D-01 -0.923489D+00  0.608711D-01 -0.705973D-02
                21            22            23            24            25 
      1   0.212703D+00  0.494349D+00  0.576725D+00 -0.476028D+00 -0.698868D-01
      2   0.418382D-01  0.128433D+00  0.348460D+00 -0.165320D+00  0.139799D+00
      3  -0.101693D+01 -0.167801D+00 -0.269492D+00  0.330350D+00  0.238041D+00
                26            27            28            29            30 
      1  -0.224543D+00 -0.261175D+00  0.829098D-01 -0.153935D+00  0.136423D+00
      2   0.313463D+00  0.159793D+00  0.544043D-01  0.247405D+00 -0.662287D-01
      3   0.218169D+00  0.366231D+00 -0.192558D+00 -0.348912D+00  0.427850D+00
                31            32            33            34            35 
      1   0.502540D+00  0.379632D+00  0.334962D+00  0.190301D+00  0.925524D-01
      2   0.248022D+00  0.435275D+00  0.245296D+00  0.289019D+00  0.752372D+00
      3   0.249022D+00  0.285814D+00  0.394377D+00 -0.445129D-01 -0.144806D+00
                36            37            38            39            40 
      1  -0.451669D-01  0.276164D+00 -0.102804D+00 -0.175966D+00  0.756866D-01
      2  -0.454496D+00 -0.312880D+00  0.379149D+00  0.506982D+00  0.446607D-01
      3   0.251378D+00 -0.174720D+00  0.158574D+00  0.468193D+00 -0.299477D+00
                41            42            43            44            45 
      1   0.727023D-01  0.154151D+00  0.673232D+00 -0.440636D+00  0.141898D+00
      2   0.163430D+00 -0.746219D-01 -0.335678D+00  0.436101D+00 -0.924543D-01
      3   0.207287D+00  0.647528D+00  0.242886D+00 -0.208014D+00  0.198415D+00
                46            47            48            49            50 
      1   0.266915D-01  0.411243D+00  0.257240D+00 -0.285765D-01  0.105796D+00
      2  -0.964724D-01  0.578542D+00  0.329905D+00 -0.128483D+00  0.193052D+00
      3  -0.692984D-01  0.202598D+00  0.306791D+00  0.178914D+00 -0.570440D-01
                51            52            53            54            55 
      1  -0.312893D+00  0.265880D+00 -0.391551D-01  0.104877D+01 -0.199010D-01
      2  -0.244167D+00 -0.575049D-01  0.104577D+00 -0.264360D+00  0.120157D+00
      3   0.478276D+00  0.477686D-01  0.142461D-01  0.586882D+00  0.455193D-01
                56            57            58            59            60 
      1  -0.953183D+00 -0.238025D+00  0.136785D+01  0.478877D+00 -0.590264D+00
      2   0.831405D+00  0.216753D+00 -0.146630D+00  0.722393D-01  0.321902D-01
      3   0.112636D+00  0.130352D+00 -0.158493D+00 -0.902245D-01  0.184376D+00
                61            62            63            64            65 
      1   0.793527D+00 -0.342323D+00  0.102633D+01  0.408582D+00 -0.804694D+00
      2   0.613564D-01  0.726754D-01  0.836865D-01 -0.135358D-01  0.168487D+00
      3   0.150772D+00 -0.803736D-01  0.401872D+00 -0.809007D-01  0.290757D+00
                66            67            68            69 
      1  -0.811578D+00  0.537373D+00  0.117734D+01 -0.367084D+00
      2   0.847732D-01  0.202445D+00  0.717617D+00 -0.196349D+00
      3   0.401016D+00 -0.782312D-01 -0.220610D+00  0.163780D+00
 Hessian after L701:
                1             2             3             4             5 
      1  0.150379D+02
      2  0.105988D+01  0.173267D+02
      3 -0.920341D-01 -0.192558D+00  0.174704D+02
      4 -0.376016D+01 -0.162650D+01  0.113157D+01  0.150871D+02
      5 -0.165258D+01 -0.533973D+01 -0.772355D+00 -0.463520D-01  0.166303D+02
      6  0.117158D+01 -0.769869D+00 -0.584736D+01 -0.762633D+00 -0.196415D+00
      7  0.419022D+00  0.309714D-01  0.218634D+00 -0.424150D+01  0.133592D+01
      8  0.178844D-01 -0.696897D-01  0.222631D-01  0.134169D+01 -0.515668D+01
      9  0.206587D+00  0.302952D-01 -0.496905D-01  0.147723D+01  0.112015D+01
     10 -0.473277D+01 -0.108760D+01 -0.171135D+01  0.284253D+00 -0.108544D+00
     11 -0.104458D+01 -0.532389D+01  0.125758D+01 -0.198199D+00 -0.249817D-01
     12 -0.165316D+01  0.124558D+01 -0.439129D+01 -0.826996D-01  0.473805D-01
     13  0.187548D+00  0.182844D+00  0.431278D-01  0.988672D-01  0.233566D+00
     14  0.970344D-01 -0.115192D+00  0.224080D-01  0.240765D+00  0.237321D+00
     15  0.154325D+00  0.746790D-01 -0.152905D+00 -0.573606D-03 -0.394476D-01
     16  0.192988D+00 -0.253084D+00 -0.271573D-01  0.143553D+00 -0.194260D+00
     17 -0.262896D+00 -0.148543D-01  0.166755D-01 -0.206544D+00  0.245654D-02
     18 -0.139856D+00  0.939124D-01 -0.136139D+00 -0.838655D-02  0.622200D-02
     19  0.796868D-01  0.450759D-01 -0.723458D-03  0.165006D+00  0.181878D+00
     20  0.440734D-01 -0.562115D-01 -0.579268D-03  0.222449D+00 -0.350302D-01
     21  0.228628D-01  0.967757D-02 -0.759676D-01  0.228278D-01  0.862277D-02
     22  0.404972D-01  0.770664D-02  0.153172D+00  0.763385D-01 -0.121290D-01
     23  0.213681D-01  0.177797D+00 -0.247247D-01  0.716099D-02 -0.417300D-01
     24  0.115767D+00 -0.181305D-01 -0.659857D-01 -0.673917D-01  0.261339D-02
     25  0.129092D+00  0.576223D-01  0.736479D-01  0.341726D-03  0.230417D-01
     26  0.199355D-01  0.678495D-01 -0.887318D-01 -0.152486D-02 -0.135807D-01
     27  0.246903D-01 -0.679758D-01 -0.719418D-01  0.336323D-02 -0.162356D-01
     28 -0.431534D+01  0.617080D+00 -0.507777D+00  0.396791D-01  0.119208D+00
     29  0.683786D+00 -0.321743D+01 -0.118952D+01  0.727579D-01 -0.152584D-01
     30 -0.624574D+00 -0.130576D+01 -0.337213D+01 -0.483433D-01  0.498333D-01
     31 -0.358012D+01  0.817893D+00  0.831649D+00 -0.171417D-01  0.503264D-01
     32  0.837793D+00 -0.348963D+01  0.849808D+00  0.555462D-01  0.110816D+00
     33  0.852541D+00  0.849920D+00 -0.339817D+01 -0.585264D-01  0.477518D-01
     34  0.648213D-01  0.110585D+00 -0.927931D-01 -0.416353D+01  0.653256D+00
     35  0.103622D+00  0.296023D-01  0.938911D-01  0.727561D+00 -0.272251D+01
     36 -0.737250D-01  0.545374D-01  0.421569D-01 -0.451942D+00 -0.102518D+01
     37 -0.519560D-01  0.135968D+00  0.186560D-01 -0.383379D+01 -0.529658D+00
     38  0.167879D+00  0.211271D-01 -0.141879D-01 -0.601403D+00 -0.384581D+01
     39  0.247027D-01 -0.157354D-01  0.190170D+00 -0.987830D+00  0.868154D+00
     40 -0.657328D-02 -0.592914D-02 -0.261247D-01  0.727041D-01 -0.685745D-01
     41  0.124661D-04  0.434117D-02  0.125975D-02 -0.372833D-01  0.195764D-02
     42 -0.168953D-02  0.184302D-02 -0.208125D-01 -0.643623D-01 -0.999852D-01
     43  0.129349D+00 -0.393328D-01  0.832393D-01 -0.119791D-01 -0.517985D-01
     44 -0.573733D-01 -0.419187D-01 -0.234319D-01 -0.491949D-01  0.135800D+00
     45  0.913221D-01 -0.203540D-01 -0.634428D-02 -0.111734D+00 -0.216702D-01
     46  0.112437D-01  0.320834D-01  0.166764D-01 -0.241220D-01  0.392632D-01
     47  0.470662D-01  0.248379D-01  0.184873D-01  0.538354D-01  0.830423D-01
     48  0.293160D-01  0.314312D-01 -0.989764D-02  0.164062D-01  0.386119D-01
     49 -0.157530D-01  0.205116D-01 -0.242933D-01 -0.121207D-01  0.249980D-01
     50  0.327696D-01  0.117455D-02 -0.238644D-01  0.572570D-01  0.206211D-01
[...]
 29,0.00011166,-0.00015846,0.00000363,0.00001935,-0.00012849,-0.0007316
 2,0.00001078,0.00006815,0.00001070,0.00011901,0.00008566,-0.00017386,0
 .00041528,0.00059038,-0.00012973,0.00038726,0.00100090,0.00019318,0.04
 438884,0.18702333,0.00057024,-0.00051342,0.00007486,0.00384782,0.01390
 147,-0.01587803,0.03967367,0.12266383,-0.16880100,0.00039401,-0.000114
 11,-0.00044811,-0.00456871,-0.01171893,0.01037101,0.00005730,-0.000230
 35,0.00043913,0.00060018,-0.00032802,0.00119905,-0.00034994,-0.0000636
 7,-0.00011736,0.00123755,-0.00027620,0.00020838,0.00001540,-0.00002281
 ,0.00004386,-0.00006136,-0.00002218,0.00004927,0.00023276,-0.00040970,
 0.00029878,-0.00395394,0.00014671,-0.00156426,-0.04128599,-0.13270760,
 0.18660516,-0.00226524,-0.00041851,-0.00485922,-0.02115794,0.00889054,
 0.01394932,-0.19853455,0.06887576,0.10782587,0.00039182,0.00031440,-0.
 00044943,0.00626962,-0.00341626,-0.00601008,-0.00006531,-0.00011413,-0
 .00000481,0.00148321,-0.00063630,-0.00050945,0.00000274,-0.00008837,0.
 00001460,0.00007937,-0.00005238,-0.00011340,0.00011844,0.00012643,0.00
 000831,-0.00133288,0.00074847,0.00065751,0.00034588,-0.00069836,0.0002
 6606,0.00118034,0.00034663,-0.00000179,-0.00599095,0.00189251,0.004111
 62,0.21868445,0.00026361,0.00066282,0.00126457,0.00412846,-0.00232785,
 -0.00198916,0.06811140,-0.07858592,-0.04705364,-0.00009746,0.00023857,
 0.00034739,0.02177454,-0.01231643,-0.01852186,-0.00005213,0.00002466,-
 0.00023534,0.00133401,0.00104408,0.00091014,0.00013031,0.00002242,0.00
 001325,-0.00017905,-0.00013307,-0.00028007,-0.00031406,0.00015549,-0.0
 0005217,0.00035645,-0.00002309,-0.00020905,-0.00025362,0.00025456,0.00
 036392,0.00005396,-0.00007361,-0.00023612,-0.01770923,0.00797801,0.011
 91400,-0.07477481,0.08642389,-0.00278936,0.00011830,-0.00304377,-0.018
 84153,0.00845824,0.01096246,0.10847329,-0.04739589,-0.12184304,-0.0000
 9292,-0.00000783,-0.00068498,0.01103508,-0.00633265,-0.01023354,0.0000
 4813,-0.00010067,0.00034310,0.00122255,0.00028573,0.00041449,-0.000030
 28,-0.00002438,0.00003738,0.00012649,-0.00005176,0.00044754,0.00004735
 ,0.00012550,-0.00002038,-0.00103441,0.00047008,0.00040612,0.00083665,-
 0.00024287,0.00073115,0.00066894,0.00003143,0.00103087,0.01716833,-0.0
 0780711,-0.01272024,-0.11396860,0.05508948,0.13380555,-0.00137414,0.00
 050613,-0.00056587,0.00037762,0.00061095,0.00012961,0.00784588,-0.0025
 7721,-0.00623722,-0.00022611,-0.00003142,-0.00039303,-0.18336327,0.058
 93567,0.11611578,0.00000575,0.00001971,-0.00000563,-0.02258389,0.00853
 402,0.01612775,0.00009725,0.00004414,0.00001461,0.00038312,-0.00006110
 ,0.00021984,-0.00144249,-0.00061447,-0.00117718,0.00007779,-0.00024300
 ,-0.00003935,0.00011186,0.00004140,0.00025816,-0.00003310,-0.00003963,
 -0.00007282,0.00038696,0.00062059,0.00038753,0.00015898,-0.00195491,-0
 .00153385,0.20528923,-0.00012024,0.00034558,-0.00016622,0.00056376,0.0
 0042105,0.00070132,0.02126953,-0.01087464,-0.01880342,-0.00044896,0.00
 006463,-0.00040667,0.05875056,-0.07376819,-0.04795641,0.00002182,0.000
 07989,0.00022770,0.00323061,-0.00159525,-0.00239076,0.00020788,0.00005
 661,0.00017413,-0.00016808,-0.00042182,0.00041399,0.00008074,0.0003479
 9,0.00019003,-0.00000741,0.00012235,0.00021819,-0.00002756,0.00004580,
 0.00011488,-0.00006090,0.00000079,-0.00000347,0.00050796,0.00112439,0.
 00072647,-0.00186743,-0.00456693,-0.00294089,-0.06511397,0.08031401,-0
 .00012127,-0.00072776,-0.00030405,0.00100004,-0.00008516,0.00001345,0.
 01069358,-0.00514961,-0.01034566,-0.00005150,0.00014958,0.00039686,0.1
 1620311,-0.04853022,-0.14443237,-0.00003647,0.00001800,0.00002101,-0.0
 1554815,0.00623880,0.01143528,0.00014534,0.00013390,-0.00003653,-0.000
 15168,-0.00012739,0.00014615,-0.00097472,0.00060933,-0.00039368,0.0001
 1220,0.00043553,0.00019370,-0.00026595,0.00009184,0.00017060,-0.000027
 53,-0.00006039,0.00004832,-0.00042143,0.00026423,0.00084397,-0.0017504
 1,-0.00258549,-0.00035400,-0.12263087,0.05571191,0.15633981,0.00007067
 ,-0.00029675,0.00011190,0.00041847,-0.00053594,0.00098789,-0.00275014,
 -0.00723050,0.00610123,0.00012925,-0.00016897,0.00019708,-0.05429372,-
 0.02825258,0.02980629,-0.00000972,0.00001353,-0.00011111,0.00339157,0.
 02138904,-0.02138932,-0.00009985,0.00006541,-0.00010169,0.00010966,0.0
 0012851,-0.00022313,-0.00012367,0.00025988,0.00025993,0.00000253,0.000
 12955,-0.00003499,0.00008727,0.00021772,-0.00006323,0.00001418,0.00007
 885,-0.00043268,0.00012424,-0.00176017,-0.00145031,0.00027700,0.000411
 50,-0.00042781,-0.00401923,-0.01736124,0.01607767,0.05904058,-0.000302
 89,0.00015350,-0.00016713,0.00100360,0.00105632,0.00119890,-0.00645477
 ,-0.02305366,0.01936508,0.00012082,0.00006800,0.00007004,-0.02747062,-
 0.17709664,0.12454922,-0.00000973,0.00004111,-0.00008625,-0.00025207,-
 0.00258326,0.00243735,0.00010176,0.00004349,0.00002211,0.00004124,-0.0
 0008678,-0.00010771,-0.00031180,-0.00012592,0.00005365,-0.00008701,0.0
 0003074,0.00002275,0.00039291,0.00034578,-0.00022742,-0.00052284,0.000
 37097,-0.00096330,-0.00124145,-0.00427777,-0.00331660,0.00066469,0.000
 77805,0.00015286,0.00100014,0.00759698,-0.00700307,0.03232531,0.195480
 29,0.00007498,0.00024538,0.00002789,0.00013464,-0.00031267,0.00141708,
 -0.00344147,-0.01171493,0.01049393,-0.00012898,-0.00013286,-0.00014744
 ,0.02905558,0.12464071,-0.16778841,0.00002894,0.00005519,0.00003996,0.
 00209964,0.01221201,-0.01286118,0.00004735,0.00002249,0.00011832,-0.00
 003119,-0.00014035,0.00009444,0.00015411,0.00001744,-0.00012700,0.0000
 2626,-0.00000172,0.00002926,0.00026076,0.00000760,0.00013696,0.0004421
 1,0.00036157,-0.00008737,-0.00143017,-0.00325149,-0.00055709,0.0002712
 3,0.00074966,0.00063456,0.00308030,0.01401749,-0.01418835,-0.02732705,
 -0.13602577,0.18242461,0.00105592,0.00014763,-0.00208462,0.00023513,0.
 00017776,0.00032073,0.00000228,0.00016082,-0.00023769,-0.02222967,-0.0
 0100827,-0.02038061,0.00009283,-0.00003719,0.00001263,-0.17917846,-0.0
 0635759,-0.13257983,0.00000215,0.00002094,0.00002401,0.00127883,0.0000
 7946,0.00003814,-0.00415779,0.00242104,0.00304779,-0.00002645,0.000001
 61,0.00006143,0.00013362,-0.00040930,0.00115287,-0.00003474,0.00003568
 ,-0.00000018,-0.00001339,-0.00000716,0.00004490,0.00006033,-0.00021348
 ,0.00013924,0.00000262,-0.00009035,0.00014381,0.00001585,0.00010772,0.
 00001716,-0.00005478,-0.00002944,0.00003017,0.19788654,-0.00082310,-0.
 00008420,0.00007504,-0.00002534,-0.00006836,0.00015918,0.00004667,-0.0
 0010813,0.00003815,0.01013532,-0.00020042,0.00955742,0.00000495,-0.000
 01543,-0.00003557,-0.00662957,-0.04776945,-0.00567124,-0.00000411,-0.0
 0000205,0.00000167,-0.00038729,0.00020673,0.00067086,0.00250302,-0.000
 14370,-0.00116881,-0.00006364,-0.00000083,-0.00010659,-0.00022319,0.00
 029974,-0.00007806,0.00001566,-0.00005034,-0.00002182,-0.00003827,-0.0
 0000314,-0.00000750,0.00000020,0.00008176,-0.00003830,0.00003155,0.000
 04129,-0.00003295,0.00000826,-0.00004150,-0.00000835,0.00000727,0.0000
 1066,-0.00000314,0.00419376,0.04754999,0.00059100,-0.00023712,0.001605
 81,0.00003280,-0.00016401,0.00023856,0.00014557,-0.00002100,-0.0000688
 7,0.00955912,0.00114208,0.00874603,0.00001989,-0.00001371,-0.00004022,
 -0.13361997,-0.00549745,-0.18007814,0.00000178,0.00000082,-0.00000053,
 -0.00075520,0.00044320,0.00058667,0.00294329,-0.00058612,0.00004076,-0
 .00004304,0.00006441,-0.00006542,-0.00040973,-0.00019480,0.00003717,-0
 .00000942,0.00001328,-0.00000775,-0.00007767,0.00000522,0.00002274,-0.
 00003478,0.00004544,-0.00005260,0.00003042,0.00004370,-0.00002540,-0.0
 0000647,-0.00001319,0.00000521,0.00000731,0.00000506,0.00000227,0.1447
 2894,0.00685653,0.19332253,0.00152933,0.00100168,-0.00095582,-0.000113
 56,0.00003391,-0.00008396,0.00003466,0.00004427,-0.00005896,0.00305740
 ,0.02959748,0.00983203,-0.00010892,0.00005983,0.00012647,-0.05032535,-
 0.03130134,-0.01003833,0.00001765,-0.00002209,-0.00004699,-0.00505047,
 0.00213355,0.00266007,0.00132974,-0.00034218,-0.00073654,-0.00013006,-
 0.00070101,0.00003199,-0.00001380,-0.00018879,0.00004384,0.00003232,-0
 .00017798,-0.00012911,-0.00001268,-0.00009217,-0.00002966,0.00005579,-
 0.00001094,0.00005425,-0.00000057,-0.00003790,0.00000687,0.00003367,-0
 .00003469,-0.00007177,0.00001367,-0.00002232,-0.00002547,-0.00294164,-
 0.02237565,-0.00536357,0.05486869,-0.00070225,0.00076370,0.00067075,0.
 00015470,0.00039508,0.00014797,-0.00002519,-0.00007048,0.00003068,-0.0
 0075169,-0.01201498,-0.00357006,0.00005433,-0.00003257,-0.00008479,-0.
 03058466,-0.28577964,-0.07340040,-0.00001210,0.00002128,0.00002423,0.0
 0251694,0.00066566,-0.00036649,0.00017351,0.00026675,0.00038163,0.0003
 4136,0.00053687,-0.00065677,0.00013351,-0.00005148,-0.00008677,-0.0001
 8371,0.00003168,0.00017219,0.00009046,0.00000811,-0.00005625,-0.000046
 19,0.00004196,-0.00004531,0.00002704,0.00003002,-0.00000579,0.00003445
 ,-0.00002518,-0.00000861,0.00000821,0.00001857,0.00000735,-0.00033011,
 0.00011148,0.00020369,0.03114422,0.31087534,-0.00092029,-0.00099298,0.
 00048694,0.00013483,0.00018558,-0.00006178,-0.00002116,-0.00002435,0.0
 0008168,-0.00134083,-0.01116121,-0.00437195,-0.00000903,0.00001537,-0.
 00002693,-0.00978868,-0.07311861,-0.07036223,-0.00000123,0.00000497,0.
 00001166,0.00239469,-0.00055730,0.00000868,-0.00005141,0.00068150,0.00
 039486,0.00047266,0.00036518,-0.00007464,-0.00009494,-0.00006694,-0.00
 011000,-0.00008147,0.00014800,0.00008364,0.00004681,0.00003275,-0.0000
 1360,-0.00004119,0.00003464,-0.00003540,-0.00001733,0.00001694,-0.0000
 3070,0.00003381,-0.00003339,0.00002436,0.00003062,0.00001194,-0.000018
 97,-0.00199310,-0.02249132,-0.00684756,0.00846745,0.08201651,0.0721193
 1,-0.00499943,0.00394742,0.00077804,0.00004696,-0.00133986,0.00147344,
 0.00019346,-0.00010726,0.00011350,-0.00838082,-0.01736477,0.02243910,-
 0.00002314,0.00005908,-0.00002340,-0.07197443,-0.04451115,0.06391901,0
 .00000384,-0.00004542,0.00001125,0.00115525,0.00020910,-0.00039573,0.0
 0074469,-0.00065132,-0.00071531,0.00008389,0.00012431,-0.00029647,0.00
 022942,0.00009393,0.00021765,-0.00001373,0.00007171,0.00003367,-0.0005
 5777,0.00023171,0.00033421,0.00000570,0.00004537,-0.00008640,-0.000041
 10,0.00002627,-0.00004715,0.00002264,-0.00001142,0.00002936,0.00001600
 ,0.00001548,-0.00000231,0.00787377,0.01361915,-0.01773540,-0.00228617,
 -0.00205379,0.00279437,0.07794109,0.00187699,-0.00073669,-0.00049108,0
 .00047134,0.00068860,-0.00049806,-0.00005553,0.00002546,-0.00001213,0.
 00396840,0.00744268,-0.01191916,0.00001207,-0.00000888,-0.00001640,-0.
 04529678,-0.12601135,0.11470269,-0.00000026,0.00000194,0.00001560,-0.0
 0076845,0.00052764,0.00003842,-0.00073835,0.00028922,0.00034724,0.0003
 3525,0.00040097,-0.00011625,0.00002942,-0.00020558,0.00000302,-0.00011
 285,0.00003147,0.00005220,0.00020858,-0.00008981,-0.00012607,0.0000056
 9,-0.00001198,0.00002947,-0.00001065,-0.00001035,0.00000952,0.00001344
 ,-0.00000834,0.00002297,0.00000225,-0.00000502,-0.00001217,0.00115127,
 0.00017860,-0.00209418,-0.00870336,-0.01579776,0.02492303,0.04762334,0
 .13329214,0.00234802,-0.00205113,0.00003391,0.00004353,0.00093735,-0.0
 0011297,0.00002797,-0.00001401,-0.00017008,0.00168251,0.00563034,-0.00
 840296,0.00000944,-0.00004866,0.00001267,0.06472315,0.11405095,-0.2132
 4982,-0.00000376,0.00002846,-0.00000724,-0.00027154,-0.00025226,-0.000
 12916,0.00010827,-0.00016366,0.00068728,0.00001279,0.00019826,0.000035
 74,0.00001677,-0.00021442,0.00055545,-0.00003773,-0.00004567,-0.000001
 02,0.00025669,-0.00009703,-0.00015569,-0.00001575,0.00000003,0.0000402
 6,0.00008082,-0.00001382,0.00004573,-0.00000196,-0.00001105,-0.0000184
 4,-0.00000692,-0.00000542,-0.00000276,0.00750282,0.01230558,-0.0174239
 1,-0.00369579,-0.00537618,0.00875436,-0.07280624,-0.12485182,0.2294859
 5,0.00003050,0.00006232,0.00003029,-0.00010751,0.00008212,0.00004670,0
 .00142285,0.00128910,0.00045743,-0.00010042,-0.00000492,-0.00014332,0.
 00390292,0.02118371,-0.02148245,0.00001443,0.00000229,0.00005155,-0.05
 254110,-0.02876416,0.02853767,0.00001368,-0.00000659,0.00003410,0.0000
 3143,0.00000012,0.00008139,0.00005543,-0.00003038,-0.00003879,-0.00000
 140,-0.00003469,0.00001225,-0.00001175,-0.00006572,0.00006853,0.000015
 72,-0.00009353,0.00018692,-0.00010624,-0.00060608,0.00028681,-0.000017
 91,-0.00018828,0.00005563,0.00128011,0.00007835,0.00084010,-0.00468117
 ,0.00058410,-0.00359607,0.00002328,-0.00000674,0.00000034,-0.00000234,
 -0.00000004,-0.00000955,-0.00001072,-0.00000221,0.00000059,0.05693403,
 -0.00001348,-0.00004011,0.00003253,0.00008638,0.00016415,-0.00025864,-
 0.00014224,0.00085258,-0.00085600,0.00004681,-0.00000239,0.00007324,-0
 .00013777,-0.00407809,0.00326132,-0.00000881,0.00000721,-0.00002180,-0
 .02825998,-0.18097542,0.12929227,-0.00000559,0.00000255,-0.00001849,0.
 00001424,0.00000270,0.00002191,-0.00002228,0.00002917,0.00000960,0.000
 03269,0.00001255,-0.00001465,0.00005586,0.00001299,0.00004663,-0.00011
 914,-0.00009120,-0.00008743,0.00005661,0.00051880,0.00035318,0.0001600
 1,-0.00000144,0.00004021,0.00020310,-0.00013711,-0.00008163,0.00105676
 ,0.00092790,-0.00008361,-0.00000860,-0.00000150,-0.00000490,0.00000391
 ,-0.00001012,0.00000995,0.00002169,0.00000867,-0.00001114,0.03006772,0
 .19400217,0.00002792,0.00009195,0.00005547,-0.00020258,-0.00030003,0.0
 0016310,0.00118642,0.00090257,0.00050455,-0.00001910,-0.00002831,-0.00
 006561,0.00229001,0.01241522,-0.01315426,0.00000605,-0.00000251,0.0000
 2895,0.02799031,0.12897350,-0.17295066,-0.00002968,-0.00002404,-0.0000
 0295,-0.00004451,0.00004418,-0.00000128,0.00006327,-0.00006952,-0.0000
 2225,0.00000418,-0.00004138,-0.00001240,-0.00008213,-0.00005157,-0.000
 01940,0.00014692,-0.00006229,0.00022311,-0.00056964,-0.00072033,-0.000
 08038,0.00003089,0.00000009,-0.00015592,-0.00000122,-0.00040087,0.0008
 4832,-0.00353943,0.00008132,-0.00062286,0.00001092,-0.00000403,-0.0000
 0129,0.00000894,-0.00000872,-0.00000800,-0.00001099,-0.00000187,0.0000
 0614,-0.02741013,-0.14363335,0.18692700,-0.00000032,0.00025098,0.00014
 132,0.00025733,-0.00000284,-0.00036113,0.00096291,0.00104727,0.0017623
 3,0.00009374,-0.00003706,0.00001419,-0.02260585,0.00792937,0.01667609,
 0.00000384,0.00000758,-0.00003073,-0.19450424,0.05653330,0.11917729,-0
 .00005275,-0.00004035,-0.00001654,0.00001800,0.00008654,-0.00006330,0.
 00006296,-0.00024740,-0.00002042,0.00001165,-0.00014244,-0.00008518,-0
 .00001577,-0.00002754,-0.00003865,-0.00003450,0.00003162,-0.00001759,-
 0.00002642,-0.00002153,-0.00005384,0.00016665,-0.00089724,-0.00082353,
 -0.00373517,0.00066653,-0.00400421,0.00123216,0.00007531,-0.00005103,-
 0.00002213,0.00000130,-0.00000674,0.00002362,-0.00001252,-0.00000413,-
 0.00000418,-0.00000723,0.00000730,-0.00370574,0.00090833,0.00232928,0.
 21445371,-0.00002306,-0.00010365,-0.00001792,-0.00003196,-0.00000178,-
 0.00004183,-0.00102570,0.00034090,0.00054801,-0.00000430,-0.00000114,0
 .00001488,0.00451421,-0.00249940,-0.00312891,-0.00000434,-0.00000270,-
 0.00000120,0.05676076,-0.06967860,-0.04588263,0.00000223,0.00000758,0.
 00000006,0.00000956,-0.00002145,0.00002255,0.00001721,0.00004712,-0.00
 001446,0.00001336,0.00002094,0.00000756,0.00000055,0.00000291,0.000017
 14,0.00001612,-0.00003714,0.00003816,-0.00004107,0.00000184,0.00006827
 ,-0.00000700,0.00034302,-0.00009909,0.00075401,0.00063363,0.00086408,0
 .00003957,-0.00016682,-0.00027914,0.00000376,0.00000146,0.00000296,-0.
 00000596,0.00000194,0.00000181,0.00000823,0.00000381,-0.00000617,-0.01
 837133,0.00750649,0.01393363,-0.06405004,0.07106623,-0.00014729,0.0000
 5296,-0.00007074,-0.00001659,0.00028838,0.00014980,-0.00017113,0.00095
 224,0.00127367,-0.00001133,-0.00000924,-0.00005542,-0.01514821,0.00505
 279,0.01142088,0.00000051,0.00000077,-0.00000157,0.12022842,-0.0460551
 1,-0.14284295,-0.00001301,-0.00001054,0.00000333,0.00000336,0.00003273
 ,-0.00001699,0.00003698,-0.00011266,-0.00002059,-0.00003951,-0.0000774
 9,-0.00001408,0.00008466,0.00000451,0.00001906,0.00000032,0.00000413,-
 0.00002119,0.00007130,-0.00010016,-0.00006812,0.00047659,-0.00001490,-
 0.00003915,-0.00394102,0.00027626,-0.00115920,0.00086481,-0.00003628,0
 .00100694,0.00000366,0.00000054,0.00000785,0.00000439,0.00000243,-0.00
 000506,-0.00000601,-0.00000461,-0.00000031,0.01577657,-0.00751149,-0.0
 1347845,-0.12854956,0.05018902,0.15323913,0.00019802,-0.00014034,-0.00
 003114,0.00012124,-0.00180114,-0.00070219,-0.00472532,0.00296353,-0.00
 271337,-0.00002288,0.00005999,-0.00000681,-0.00719520,-0.02513355,-0.0
 1196921,0.00000363,-0.00004382,0.00001052,-0.06618463,-0.06067389,-0.0
 3285092,0.00001564,0.00001481,-0.00000371,0.00002410,-0.00002361,-0.00
 001844,0.00000072,0.00007856,0.00005355,-0.00003868,0.00004233,0.00002
 556,-0.00051678,0.00004329,-0.00042025,-0.00001448,0.00004562,-0.00006
 330,0.00007409,0.00026234,0.00020213,0.00024530,-0.00004147,-0.0002436
 9,0.00069069,-0.00026354,0.00093740,0.00110500,0.00037958,0.00032766,-
 0.00000409,0.00000977,0.00000153,-0.00001099,0.00002352,-0.00000090,-0
 .00002522,-0.00000236,0.00001901,-0.00243808,-0.00399623,-0.00218572,0
 .00742050,0.02142519,0.01049208,0.07127741,-0.00005505,-0.00000811,-0.
 00007724,0.00037958,0.00031912,0.00027608,0.00049580,0.00051551,0.0002
 6178,0.00000507,0.00002321,0.00001165,0.00231553,0.00633611,0.00408931
 ,0.00000237,-0.00001860,-0.00000975,-0.06170272,-0.23979535,-0.1061236
 6,0.00000482,0.00000292,0.00000959,0.00001476,-0.00001549,-0.00002405,
 0.00001258,-0.00001169,-0.00000040,-0.00004791,0.00000324,0.00001017,0
 .00005680,-0.00001108,0.00004967,-0.00007949,0.00002144,-0.00006961,0.
 00028908,0.00029766,0.00000380,0.00000616,0.00004184,0.00026054,-0.000
 69030,0.00028528,-0.00017248,-0.00052719,0.00047351,-0.00037903,-0.000
 00996,0.00000734,0.00000010,-0.00000246,0.00001376,-0.00000206,-0.0000
 1179,-0.00000546,0.00001148,-0.00517516,-0.01871053,-0.01109363,-0.002
 05193,-0.00746520,-0.00292429,0.06677141,0.25770058,0.00002098,-0.0000
 7950,-0.00014107,-0.00024569,-0.00128008,0.00018224,-0.00317670,0.0019
 5909,-0.00149240,-0.00001479,0.00004700,-0.00001968,-0.00310791,-0.014
 93569,-0.00848200,0.00000326,-0.00002538,0.00001352,-0.03321261,-0.105
 41700,-0.10525568,0.00000656,0.00000354,-0.00001035,-0.00000254,0.0000
 0805,-0.00001275,0.00000867,0.00003223,0.00004494,-0.00007140,0.000037
 36,0.00002972,-0.00034038,0.00002092,-0.00027541,0.00008362,0.00003764
 ,0.00000976,-0.00016509,-0.00031790,0.00014886,-0.00003870,0.00047849,
 0.00029217,0.00023909,0.00035396,0.00074524,0.00066294,-0.00003135,-0.
 00002479,-0.00000320,0.00000273,-0.00000394,-0.00000031,0.00000872,0.0
 0000133,-0.00001819,-0.00000035,0.00001689,0.00621343,0.01944229,0.011
 81907,-0.00598121,-0.01623680,-0.00932682,0.03914018,0.11589204,0.1117
 4117\\0.00000068,0.00000206,-0.00000104,0.00000002,0.00000040,0.000000
 31,-0.00000032,-0.00000120,0.00000034,-0.00000126,0.00000190,0.0000002
 0,0.00000042,-0.00000258,0.00000047,-0.00000006,0.00000358,-0.00000109
 ,0.00000067,-0.00000379,0.00000099,-0.00000216,0.00000233,-0.00000053,
 -0.00000098,0.00000106,-0.00000059,0.00000167,0.00000110,-0.00000026,0
 .00000080,0.00000263,-0.00000060,-0.00000100,0.00000030,-0.00000005,0.
 00000098,-0.00000042,0.00000010,-0.00000165,-0.00000128,0.00000046,-0.
 00000097,-0.00000249,0.00000060,0.00000114,-0.00000144,0.00000002,0.00
 000192,-0.00000225,0.00000039,0.,0.00000466,-0.00000116,0.00000074,0.0
 0000358,-0.00000076,-0.00000137,0.00000415,-0.00000108,-0.00000082,-0.
 00000349,0.00000090,0.00000014,-0.00000468,0.00000131,0.00000139,-0.00
 000413,0.00000107\\\@


 WE HAVE LEARNED THAT NOTHING IS SIMPLE AND
 RATIONAL EXCEPT WHAT WE OURSELVES HAVE INVENTED;
 THAT GOD THINKS IN TERMS NEITHER OF EUCLID OR RIEMANN; THAT SCIENCE HAS "EXPLAINED" NOTHING;
 THAT THE MORE WE KNOW THE MORE FANTASTIC THE WORLD BECOMES
 AND THE PROFOUNDER THE SURROUNDING DARKNESS.
   --  ALDOUS HUXLEY
 Job cpu time:       0 days  7 hours 13 minutes 47.3 seconds.
 Elapsed time:       0 days  3 hours 36 minutes 58.7 seconds.
 File lengths (MBytes):  RWF=   1488 Int=      0 D2E=      0 Chk=     32 Scr=     32
 Normal termination of Gaussian 16 at Sun Sep 29 05:59:42 2019.
