 Entering Gaussian System, Link 0=g16
 Input=tight/species/CCCCCCC/conformers/CCCCCCC_776.com
 Output=tight/species/CCCCCCC/conformers/CCCCCCC_776.log
 Initial command:
 /shared/centos7/gaussian/g16/l1.exe "/scratch/harms.n/gauss_scrdir/Gau-9577.inp" -scrdir="/scratch/harms.n/gauss_scrdir/"
 Entering Link 1 = /shared/centos7/gaussian/g16/l1.exe PID=      9578.
  
 Copyright (c) 1988,1990,1992,1993,1995,1998,2003,2009,2016,
            Gaussian, Inc.  All Rights Reserved.
  
 This is part of the Gaussian(R) 16 program.  It is based on
 the Gaussian(R) 09 system (copyright 2009, Gaussian, Inc.),
 the Gaussian(R) 03 system (copyright 2003, Gaussian, Inc.),
 the Gaussian(R) 98 system (copyright 1998, Gaussian, Inc.),
 the Gaussian(R) 94 system (copyright 1995, Gaussian, Inc.),
 the Gaussian 92(TM) system (copyright 1992, Gaussian, Inc.),
 the Gaussian 90(TM) system (copyright 1990, Gaussian, Inc.),
 the Gaussian 88(TM) system (copyright 1988, Gaussian, Inc.),
 the Gaussian 86(TM) system (copyright 1986, Carnegie Mellon
 University), and the Gaussian 82(TM) system (copyright 1983,
 Carnegie Mellon University). Gaussian is a federally registered
 trademark of Gaussian, Inc.
  
 This software contains proprietary and confidential information,
 including trade secrets, belonging to Gaussian, Inc.
  
 This software is provided under written license and may be
 used, copied, transmitted, or stored only in accord with that
 written license.
  
 The following legend is applicable only to US Government
 contracts under FAR:
  
                    RESTRICTED RIGHTS LEGEND
  
 Use, reproduction and disclosure by the US Government is
 subject to restrictions as set forth in subparagraphs (a)
 and (c) of the Commercial Computer Software - Restricted
 Rights clause in FAR 52.227-19.
  
 Gaussian, Inc.
 340 Quinnipiac St., Bldg. 40, Wallingford CT 06492
  
  
 ---------------------------------------------------------------
 Warning -- This program may not be used in any manner that
 competes with the business of Gaussian, Inc. or will provide
 assistance to any competitor of Gaussian, Inc.  The licensee
 of this program is prohibited from giving any competitor of
 Gaussian, Inc. access to this program.  By using this program,
 the user acknowledges that Gaussian, Inc. is engaged in the
 business of creating and licensing software in the field of
 computational chemistry and represents and warrants to the
 licensee that it is not a competitor of Gaussian, Inc. and that
 it will not use this program in any manner prohibited above.
 ---------------------------------------------------------------
  

 Cite this work as:
 Gaussian 16, Revision A.03,
 M. J. Frisch, G. W. Trucks, H. B. Schlegel, G. E. Scuseria, 
 M. A. Robb, J. R. Cheeseman, G. Scalmani, V. Barone, 
 G. A. Petersson, H. Nakatsuji, X. Li, M. Caricato, A. V. Marenich, 
 J. Bloino, B. G. Janesko, R. Gomperts, B. Mennucci, H. P. Hratchian, 
 J. V. Ortiz, A. F. Izmaylov, J. L. Sonnenberg, D. Williams-Young, 
 F. Ding, F. Lipparini, F. Egidi, J. Goings, B. Peng, A. Petrone, 
 T. Henderson, D. Ranasinghe, V. G. Zakrzewski, J. Gao, N. Rega, 
 G. Zheng, W. Liang, M. Hada, M. Ehara, K. Toyota, R. Fukuda, 
 J. Hasegawa, M. Ishida, T. Nakajima, Y. Honda, O. Kitao, H. Nakai, 
 T. Vreven, K. Throssell, J. A. Montgomery, Jr., J. E. Peralta, 
 F. Ogliaro, M. J. Bearpark, J. J. Heyd, E. N. Brothers, K. N. Kudin, 
 V. N. Staroverov, T. A. Keith, R. Kobayashi, J. Normand, 
 K. Raghavachari, A. P. Rendell, J. C. Burant, S. S. Iyengar, 
 J. Tomasi, M. Cossi, J. M. Millam, M. Klene, C. Adamo, R. Cammi, 
 J. W. Ochterski, R. L. Martin, K. Morokuma, O. Farkas, 
 J. B. Foresman, and D. J. Fox, Gaussian, Inc., Wallingford CT, 2016.
 
 ******************************************
 Gaussian 16:  EM64L-G16RevA.03 25-Dec-2016
                29-Sep-2019 
 ******************************************
 %nprocshared=20
 Will use up to   20 processors via shared memory.
 %mem=5GB
 ----------------------------------------------------------------------
 #p m062x/cc-pVTZ opt=(calcfc,maxcycles=900,Tight) freq IOP(7/33=1,2/16
 =3) scf=(maxcycle=900)
 ----------------------------------------------------------------------
 1/6=900,7=10,10=4,18=20,19=15,26=3,38=1/1,3;
 2/9=110,12=2,16=3,17=6,18=5,40=1/2;
 3/5=16,6=1,11=2,25=1,30=1,71=2,74=-55,140=1/1,2,3;
 4//1;
 5/5=2,7=900,38=5/2;
 8/6=4,10=90,11=11/1;
 11/6=1,8=1,9=11,15=111,16=1/1,2,10;
 10/6=1,13=1/2;
 6/7=2,8=2,9=2,10=2,28=1/1;
 7/10=1,18=20,25=1,33=1/1,2,3,16;
 1/6=900,7=10,10=4,18=20,19=15,26=3/3(2);
 2/9=110,16=3/2;
 99//99;
 2/9=110,16=3/2;
 3/5=16,6=1,11=2,25=1,30=1,71=1,74=-55/1,2,3;
 4/5=5,16=3,69=1/1;
 5/5=2,7=900,38=5/2;
 7/33=1/1,2,3,16;
 1/6=900,7=10,18=20,19=15,26=3/3(-5);
 2/9=110,16=3/2;
 6/7=2,8=2,9=2,10=2,19=2,28=1/1;
 99/9=1/99;
 Leave Link    1 at Sun Sep 29 05:16:18 2019, MaxMem=   671088640 cpu:               4.2 elap:               2.1
 (Enter /shared/centos7/gaussian/g16/l101.exe)
 ------------------------------
 Gaussian input prepared by ASE
 ------------------------------
 Symbolic Z-matrix:
 Charge =  0 Multiplicity = 1
 C                     1.40877  -1.15793   0.51443 
 C                     0.17582  -0.43133   0.93138 
 C                    -1.09812  -1.21935   0.75505 
 C                     2.15818  -0.51921  -0.60604 
 C                    -1.86863  -1.48208   2.02745 
 C                     2.6418    0.84317  -0.32384 
 C                    -2.26195  -0.23152   2.76997 
 H                     1.50596  -0.51167  -1.52455 
 H                     3.01928  -1.17665  -0.87441 
 H                     1.14999  -2.19674   0.21867 
 H                     2.09159  -1.2609    1.38265 
 H                     0.08842   0.50847   0.36409 
 H                     0.27742  -0.11487   1.99099 
 H                    -0.87623  -2.1872    0.27427 
 H                    -1.76649  -0.67912   0.05321 
 H                    -2.79153  -2.06168   1.76319 
 H                    -1.28162  -2.1347    2.69586 
 H                     2.31927   1.19903   0.67277 
 H                     3.77071   0.8934   -0.3477 
 H                     2.26974   1.57437  -1.07245 
 H                    -2.58754   0.55203   2.0847 
 H                    -1.39607   0.16641   3.3681 
 H                    -3.10443  -0.44641   3.48826 
 
 ITRead=  0  0  0  0  0  0  0  0  0  0  0  0  0  0  0  0  0  0  0  0
 ITRead=  0  0  0
 MicOpt= -1 -1 -1 -1 -1 -1 -1 -1 -1 -1 -1 -1 -1 -1 -1 -1 -1 -1 -1 -1
 MicOpt= -1 -1 -1
 NAtoms=     23 NQM=       23 NQMF=       0 NMMI=      0 NMMIF=      0
                NMic=       0 NMicF=      0.
                    Isotopes and Nuclear Properties:
 (Nuclear quadrupole moments (NQMom) in fm**2, nuclear magnetic moments (NMagM)
  in nuclear magnetons)

  Atom         1           2           3           4           5           6           7           8           9          10
 IAtWgt=          12          12          12          12          12          12          12           1           1           1
 AtmWgt=  12.0000000  12.0000000  12.0000000  12.0000000  12.0000000  12.0000000  12.0000000   1.0078250   1.0078250   1.0078250
 NucSpn=           0           0           0           0           0           0           0           1           1           1
 AtZEff=  -0.0000000  -0.0000000  -0.0000000  -0.0000000  -0.0000000  -0.0000000  -0.0000000  -0.0000000  -0.0000000  -0.0000000
 NQMom=    0.0000000   0.0000000   0.0000000   0.0000000   0.0000000   0.0000000   0.0000000   0.0000000   0.0000000   0.0000000
 NMagM=    0.0000000   0.0000000   0.0000000   0.0000000   0.0000000   0.0000000   0.0000000   2.7928460   2.7928460   2.7928460
 AtZNuc=   6.0000000   6.0000000   6.0000000   6.0000000   6.0000000   6.0000000   6.0000000   1.0000000   1.0000000   1.0000000

  Atom        11          12          13          14          15          16          17          18          19          20
 IAtWgt=           1           1           1           1           1           1           1           1           1           1
 AtmWgt=   1.0078250   1.0078250   1.0078250   1.0078250   1.0078250   1.0078250   1.0078250   1.0078250   1.0078250   1.0078250
 NucSpn=           1           1           1           1           1           1           1           1           1           1
 AtZEff=  -0.0000000  -0.0000000  -0.0000000  -0.0000000  -0.0000000  -0.0000000  -0.0000000  -0.0000000  -0.0000000  -0.0000000
 NQMom=    0.0000000   0.0000000   0.0000000   0.0000000   0.0000000   0.0000000   0.0000000   0.0000000   0.0000000   0.0000000
 NMagM=    2.7928460   2.7928460   2.7928460   2.7928460   2.7928460   2.7928460   2.7928460   2.7928460   2.7928460   2.7928460
 AtZNuc=   1.0000000   1.0000000   1.0000000   1.0000000   1.0000000   1.0000000   1.0000000   1.0000000   1.0000000   1.0000000

  Atom        21          22          23
 IAtWgt=           1           1           1
 AtmWgt=   1.0078250   1.0078250   1.0078250
 NucSpn=           1           1           1
 AtZEff=  -0.0000000  -0.0000000  -0.0000000
 NQMom=    0.0000000   0.0000000   0.0000000
 NMagM=    2.7928460   2.7928460   2.7928460
 AtZNuc=   1.0000000   1.0000000   1.0000000
 Leave Link  101 at Sun Sep 29 05:16:19 2019, MaxMem=   671088640 cpu:               2.8 elap:               1.4
 (Enter /shared/centos7/gaussian/g16/l103.exe)

 GradGradGradGradGradGradGradGradGradGradGradGradGradGradGradGradGradGrad
 Berny optimization.
 Initialization pass.
                           ----------------------------
                           !    Initial Parameters    !
                           ! (Angstroms and Degrees)  !
 --------------------------                            --------------------------
 ! Name  Definition              Value          Derivative Info.                !
 --------------------------------------------------------------------------------
 ! R1    R(1,2)                  1.4906         calculate D2E/DX2 analytically  !
 ! R2    R(1,4)                  1.4917         calculate D2E/DX2 analytically  !
 ! R3    R(1,10)                 1.1107         calculate D2E/DX2 analytically  !
 ! R4    R(1,11)                 1.1093         calculate D2E/DX2 analytically  !
 ! R5    R(2,3)                  1.5083         calculate D2E/DX2 analytically  !
 ! R6    R(2,12)                 1.1012         calculate D2E/DX2 analytically  !
 ! R7    R(2,13)                 1.1105         calculate D2E/DX2 analytically  !
 ! R8    R(3,5)                  1.5105         calculate D2E/DX2 analytically  !
 ! R9    R(3,14)                 1.1032         calculate D2E/DX2 analytically  !
 ! R10   R(3,15)                 1.1096         calculate D2E/DX2 analytically  !
 ! R11   R(4,6)                  1.473          calculate D2E/DX2 analytically  !
 ! R12   R(4,8)                  1.1266         calculate D2E/DX2 analytically  !
 ! R13   R(4,9)                  1.1161         calculate D2E/DX2 analytically  !
 ! R14   R(5,7)                  1.5066         calculate D2E/DX2 analytically  !
 ! R15   R(5,16)                 1.1214         calculate D2E/DX2 analytically  !
 ! R16   R(5,17)                 1.1033         calculate D2E/DX2 analytically  !
 ! R17   R(6,18)                 1.1063         calculate D2E/DX2 analytically  !
 ! R18   R(6,19)                 1.1303         calculate D2E/DX2 analytically  !
 ! R19   R(6,20)                 1.1106         calculate D2E/DX2 analytically  !
 ! R20   R(7,21)                 1.0907         calculate D2E/DX2 analytically  !
 ! R21   R(7,22)                 1.1251         calculate D2E/DX2 analytically  !
 ! R22   R(7,23)                 1.1278         calculate D2E/DX2 analytically  !
 ! A1    A(2,1,4)              114.6419         calculate D2E/DX2 analytically  !
 ! A2    A(2,1,10)             109.7355         calculate D2E/DX2 analytically  !
 ! A3    A(2,1,11)             109.5996         calculate D2E/DX2 analytically  !
 ! A4    A(4,1,10)             108.5132         calculate D2E/DX2 analytically  !
 ! A5    A(4,1,11)             108.566          calculate D2E/DX2 analytically  !
 ! A6    A(10,1,11)            105.3674         calculate D2E/DX2 analytically  !
 ! A7    A(1,2,3)              114.2834         calculate D2E/DX2 analytically  !
 ! A8    A(1,2,12)             109.7272         calculate D2E/DX2 analytically  !
 ! A9    A(1,2,13)             109.2761         calculate D2E/DX2 analytically  !
 ! A10   A(3,2,12)             108.5796         calculate D2E/DX2 analytically  !
 ! A11   A(3,2,13)             109.7366         calculate D2E/DX2 analytically  !
 ! A12   A(12,2,13)            104.8092         calculate D2E/DX2 analytically  !
 ! A13   A(2,3,5)              115.0384         calculate D2E/DX2 analytically  !
 ! A14   A(2,3,14)             109.8407         calculate D2E/DX2 analytically  !
 ! A15   A(2,3,15)             109.1678         calculate D2E/DX2 analytically  !
 ! A16   A(5,3,14)             108.4876         calculate D2E/DX2 analytically  !
 ! A17   A(5,3,15)             108.0741         calculate D2E/DX2 analytically  !
 ! A18   A(14,3,15)            105.8213         calculate D2E/DX2 analytically  !
 ! A19   A(1,4,6)              114.6512         calculate D2E/DX2 analytically  !
 ! A20   A(1,4,8)              108.9314         calculate D2E/DX2 analytically  !
 ! A21   A(1,4,9)              108.4213         calculate D2E/DX2 analytically  !
 ! A22   A(6,4,8)              109.8833         calculate D2E/DX2 analytically  !
 ! A23   A(6,4,9)              109.7295         calculate D2E/DX2 analytically  !
 ! A24   A(8,4,9)              104.7474         calculate D2E/DX2 analytically  !
 ! A25   A(3,5,7)              113.8246         calculate D2E/DX2 analytically  !
 ! A26   A(3,5,16)             108.1312         calculate D2E/DX2 analytically  !
 ! A27   A(3,5,17)             109.9873         calculate D2E/DX2 analytically  !
 ! A28   A(7,5,16)             109.2869         calculate D2E/DX2 analytically  !
 ! A29   A(7,5,17)             109.3481         calculate D2E/DX2 analytically  !
 ! A30   A(16,5,17)            105.9565         calculate D2E/DX2 analytically  !
 ! A31   A(4,6,18)             111.9869         calculate D2E/DX2 analytically  !
 ! A32   A(4,6,19)             111.4072         calculate D2E/DX2 analytically  !
 ! A33   A(4,6,20)             111.7042         calculate D2E/DX2 analytically  !
 ! A34   A(18,6,19)            107.212          calculate D2E/DX2 analytically  !
 ! A35   A(18,6,20)            107.324          calculate D2E/DX2 analytically  !
 ! A36   A(19,6,20)            106.9235         calculate D2E/DX2 analytically  !
 ! A37   A(5,7,21)             111.3823         calculate D2E/DX2 analytically  !
 ! A38   A(5,7,22)             110.7729         calculate D2E/DX2 analytically  !
 ! A39   A(5,7,23)             110.5332         calculate D2E/DX2 analytically  !
 ! A40   A(21,7,22)            108.0396         calculate D2E/DX2 analytically  !
 ! A41   A(21,7,23)            108.3035         calculate D2E/DX2 analytically  !
 ! A42   A(22,7,23)            107.6805         calculate D2E/DX2 analytically  !
 ! D1    D(4,1,2,3)            117.9849         calculate D2E/DX2 analytically  !
 ! D2    D(4,1,2,12)            -4.232          calculate D2E/DX2 analytically  !
 ! D3    D(4,1,2,13)          -118.6299         calculate D2E/DX2 analytically  !
 ! D4    D(10,1,2,3)            -4.4067         calculate D2E/DX2 analytically  !
 ! D5    D(10,1,2,12)         -126.6236         calculate D2E/DX2 analytically  !
 ! D6    D(10,1,2,13)          118.9785         calculate D2E/DX2 analytically  !
 ! D7    D(11,1,2,3)          -119.6589         calculate D2E/DX2 analytically  !
 ! D8    D(11,1,2,12)          118.1242         calculate D2E/DX2 analytically  !
 ! D9    D(11,1,2,13)            3.7263         calculate D2E/DX2 analytically  !
 ! D10   D(2,1,4,6)             60.5013         calculate D2E/DX2 analytically  !
 ! D11   D(2,1,4,8)            -63.0726         calculate D2E/DX2 analytically  !
 ! D12   D(2,1,4,9)           -176.5189         calculate D2E/DX2 analytically  !
 ! D13   D(10,1,4,6)          -176.4474         calculate D2E/DX2 analytically  !
 ! D14   D(10,1,4,8)            59.9786         calculate D2E/DX2 analytically  !
 ! D15   D(10,1,4,9)           -53.4676         calculate D2E/DX2 analytically  !
 ! D16   D(11,1,4,6)           -62.4133         calculate D2E/DX2 analytically  !
 ! D17   D(11,1,4,8)           174.0127         calculate D2E/DX2 analytically  !
 ! D18   D(11,1,4,9)            60.5665         calculate D2E/DX2 analytically  !
 ! D19   D(1,2,3,5)            118.8662         calculate D2E/DX2 analytically  !
 ! D20   D(1,2,3,14)            -3.86           calculate D2E/DX2 analytically  !
 ! D21   D(1,2,3,15)          -119.4724         calculate D2E/DX2 analytically  !
 ! D22   D(12,2,3,5)          -118.2919         calculate D2E/DX2 analytically  !
 ! D23   D(12,2,3,14)          118.9819         calculate D2E/DX2 analytically  !
 ! D24   D(12,2,3,15)            3.3696         calculate D2E/DX2 analytically  !
 ! D25   D(13,2,3,5)            -4.2702         calculate D2E/DX2 analytically  !
 ! D26   D(13,2,3,14)         -126.9964         calculate D2E/DX2 analytically  !
 ! D27   D(13,2,3,15)          117.3912         calculate D2E/DX2 analytically  !
 ! D28   D(2,3,5,7)             57.7941         calculate D2E/DX2 analytically  !
 ! D29   D(2,3,5,16)           179.4303         calculate D2E/DX2 analytically  !
 ! D30   D(2,3,5,17)           -65.298          calculate D2E/DX2 analytically  !
 ! D31   D(14,3,5,7)          -178.758          calculate D2E/DX2 analytically  !
 ! D32   D(14,3,5,16)          -57.1217         calculate D2E/DX2 analytically  !
 ! D33   D(14,3,5,17)           58.15           calculate D2E/DX2 analytically  !
 ! D34   D(15,3,5,7)           -64.4581         calculate D2E/DX2 analytically  !
 ! D35   D(15,3,5,16)           57.1781         calculate D2E/DX2 analytically  !
 ! D36   D(15,3,5,17)          172.4498         calculate D2E/DX2 analytically  !
 ! D37   D(1,4,6,18)            -3.0468         calculate D2E/DX2 analytically  !
 ! D38   D(1,4,6,19)           117.0231         calculate D2E/DX2 analytically  !
 ! D39   D(1,4,6,20)          -123.4674         calculate D2E/DX2 analytically  !
 ! D40   D(8,4,6,18)           120.0171         calculate D2E/DX2 analytically  !
 ! D41   D(8,4,6,19)          -119.9131         calculate D2E/DX2 analytically  !
 ! D42   D(8,4,6,20)            -0.4036         calculate D2E/DX2 analytically  !
 ! D43   D(9,4,6,18)          -125.3199         calculate D2E/DX2 analytically  !
 ! D44   D(9,4,6,19)            -5.25           calculate D2E/DX2 analytically  !
 ! D45   D(9,4,6,20)           114.2595         calculate D2E/DX2 analytically  !
 ! D46   D(3,5,7,21)            40.347          calculate D2E/DX2 analytically  !
 ! D47   D(3,5,7,22)           -79.9318         calculate D2E/DX2 analytically  !
 ! D48   D(3,5,7,23)           160.7976         calculate D2E/DX2 analytically  !
 ! D49   D(16,5,7,21)          -80.6458         calculate D2E/DX2 analytically  !
 ! D50   D(16,5,7,22)          159.0753         calculate D2E/DX2 analytically  !
 ! D51   D(16,5,7,23)           39.8047         calculate D2E/DX2 analytically  !
 ! D52   D(17,5,7,21)          163.7873         calculate D2E/DX2 analytically  !
 ! D53   D(17,5,7,22)           43.5085         calculate D2E/DX2 analytically  !
 ! D54   D(17,5,7,23)          -75.7621         calculate D2E/DX2 analytically  !
 --------------------------------------------------------------------------------
 Trust Radius=3.00D-01 FncErr=1.00D-07 GrdErr=1.00D-06 EigMax=2.50D+02 EigMin=1.00D-04
 Number of steps in this run=    138 maximum allowed number of steps=    138.
 GradGradGradGradGradGradGradGradGradGradGradGradGradGradGradGradGradGrad

 Leave Link  103 at Sun Sep 29 05:16:20 2019, MaxMem=   671088640 cpu:               1.5 elap:               0.7
 (Enter /shared/centos7/gaussian/g16/l202.exe)
                          Input orientation:                          
 ---------------------------------------------------------------------
 Center     Atomic      Atomic             Coordinates (Angstroms)
 Number     Number       Type             X           Y           Z
 ---------------------------------------------------------------------
      1          6           0        1.408771   -1.157928    0.514430
      2          6           0        0.175816   -0.431332    0.931376
      3          6           0       -1.098123   -1.219350    0.755050
      4          6           0        2.158185   -0.519208   -0.606035
      5          6           0       -1.868626   -1.482076    2.027450
      6          6           0        2.641797    0.843168   -0.323837
      7          6           0       -2.261946   -0.231521    2.769972
      8          1           0        1.505956   -0.511670   -1.524554
      9          1           0        3.019284   -1.176654   -0.874414
     10          1           0        1.149994   -2.196742    0.218665
     11          1           0        2.091586   -1.260898    1.382649
     12          1           0        0.088424    0.508471    0.364086
     13          1           0        0.277416   -0.114875    1.990993
     14          1           0       -0.876226   -2.187201    0.274271
     15          1           0       -1.766485   -0.679117    0.053206
     16          1           0       -2.791529   -2.061677    1.763190
     17          1           0       -1.281619   -2.134699    2.695856
     18          1           0        2.319275    1.199030    0.672767
     19          1           0        3.770709    0.893403   -0.347705
     20          1           0        2.269743    1.574366   -1.072449
     21          1           0       -2.587543    0.552035    2.084695
     22          1           0       -1.396067    0.166413    3.368105
     23          1           0       -3.104425   -0.446413    3.488258
 ---------------------------------------------------------------------
                    Distance matrix (angstroms):
                    1          2          3          4          5
     1  C    0.000000
     2  C    1.490625   0.000000
     3  C    2.519164   1.508304   0.000000
     4  C    1.491652   2.510207   3.598095   0.000000
     5  C    3.624312   2.546603   1.510531   4.906890   0.000000
     6  C    2.495482   3.046469   4.405108   1.472952   5.592784
     7  C    4.406797   3.059909   2.527884   5.569357   1.506627
     8  H    2.141156   2.794158   3.532511   1.126559   4.994620
     9  H    2.126733   3.449884   4.428320   1.116134   5.692607
    10  H    1.110665   2.138610   2.509389   2.123840   3.590894
    11  H    1.109344   2.135884   3.251130   2.123536   4.018453
    12  H    2.131386   1.101220   2.132161   2.506226   3.249478
    13  H    2.132642   1.110520   2.153956   3.231924   2.544811
    14  H    2.517596   2.149804   1.103233   3.572784   2.134408
    15  H    3.244108   2.145953   1.109570   3.982863   2.133733
    16  H    4.474224   3.486413   2.143242   5.700184   1.121392
    17  H    3.598736   2.852887   2.153663   5.034337   1.103295
    18  H    2.531667   2.705434   4.187354   2.147936   5.153835
    19  H    3.244994   4.039088   5.420823   2.159269   6.564021
    20  H    3.274887   3.524580   4.742058   2.147798   6.006439
    21  H    4.621713   3.151715   2.669107   5.559633   2.158176
    22  H    4.214790   2.960703   2.972737   5.375553   2.176736
    23  H    5.451499   4.159069   3.477514   6.668103   2.175720
                    6          7          8          9         10
     6  C    0.000000
     7  C    5.896890   0.000000
     8  H    2.137158   5.720011   0.000000
     9  H    2.127279   6.485848   1.776246   0.000000
    10  H    3.429408   4.691758   2.450508   2.393668   0.000000
    11  H    2.764403   4.683751   3.058780   2.441733   1.765575
    12  H    2.665516   3.443852   2.572362   3.600482   2.909683
    13  H    3.444791   2.658716   3.745107   4.105579   2.869967
    14  H    4.681598   3.460264   3.423151   4.185174   2.027006
    15  H    4.678939   2.797614   3.636789   4.900164   3.291871
    16  H    6.504986   2.154887   5.628513   6.442497   4.235493
    17  H    5.777494   2.142106   5.311935   5.671195   3.471753
    18  H    1.106291   5.237588   2.901070   2.920216   3.620040
    19  H    1.130281   6.883189   2.913471   2.264332   4.091200
    20  H    1.110627   6.209801   2.267006   2.858171   4.140298
    21  H    5.764702   1.090678   5.560115   6.571241   5.000702
    22  H    5.512965   1.125104   5.728843   6.268822   4.688912
    23  H    7.015281   1.127778   6.810885   7.554203   5.643932
                   11         12         13         14         15
    11  H    0.000000
    12  H    2.860209   0.000000
    13  H    2.230396   1.752456   0.000000
    14  H    3.300674   2.864484   2.927893   0.000000
    15  H    4.121965   2.224343   2.872441   1.765148   0.000000
    16  H    4.962949   4.105763   3.641477   2.429202   2.426156
    17  H    3.723782   3.781602   2.647095   2.455845   3.055718
    18  H    2.570413   2.355599   2.762834   4.672963   4.539243
    19  H    3.233357   3.770151   4.323104   5.609901   5.770101
    20  H    3.754726   2.820977   4.025863   5.085288   4.757774
    21  H    5.066936   3.181696   2.943049   3.702655   2.513328
    22  H    4.259457   3.368211   2.185430   3.921931   3.441030
    23  H    5.665289   4.567991   3.713296   4.280762   3.693754
                   16         17         18         19         20
    16  H    0.000000
    17  H    1.776239   0.000000
    18  H    6.159671   5.307831   0.000000
    19  H    7.500090   6.630135   1.800398   0.000000
    20  H    6.846760   6.369415   1.785808   1.800518   0.000000
    21  H    2.641300   3.049179   5.146747   6.816192   5.882681
    22  H    3.080170   2.400027   4.704775   6.405571   5.927817
    23  H    2.383871   2.607840   6.328585   7.986062   7.332480
                   21         22         23
    21  H    0.000000
    22  H    1.793170   0.000000
    23  H    1.798347   1.818922   0.000000
 Stoichiometry    C7H16
 Framework group  C1[X(C7H16)]
 Deg. of freedom    63
 Full point group                 C1      NOp   1
 Largest Abelian subgroup         C1      NOp   1
 Largest concise Abelian subgroup C1      NOp   1
                         Standard orientation:                         
 ---------------------------------------------------------------------
 Center     Atomic      Atomic             Coordinates (Angstroms)
 Number     Number       Type             X           Y           Z
 ---------------------------------------------------------------------
      1          6           0       -1.132400   -0.646286   -0.568045
      2          6           0       -0.006506    0.148716   -0.000332
      3          6           0        1.125991   -0.683325    0.547521
      4          6           0       -2.439817   -0.455137    0.124161
      5          6           0        2.460625   -0.469700   -0.126882
      6          6           0       -2.950255    0.926373    0.102463
      7          6           0        2.943664    0.956696   -0.082237
      8          1           0       -2.345492   -0.812079    1.188506
      9          1           0       -3.188274   -1.140692   -0.340146
     10          1           0       -0.876703   -1.726905   -0.546643
     11          1           0       -1.260900   -0.395785   -1.641069
     12          1           0       -0.381158    0.803210    0.802138
     13          1           0        0.379587    0.843271   -0.776078
     14          1           0        0.868975   -1.754274    0.483216
     15          1           0        1.247917   -0.465875    1.628721
     16          1           0        3.214544   -1.131907    0.373725
     17          1           0        2.410929   -0.806108   -1.176463
     18          1           0       -2.242584    1.621760   -0.386944
     19          1           0       -3.929130    0.995744   -0.458364
     20          1           0       -3.136852    1.311438    1.127353
     21          1           0        2.739961    1.415387    0.886105
     22          1           0        2.436671    1.574649   -0.874039
     23          1           0        4.054704    1.004141   -0.269914
 ---------------------------------------------------------------------
 Rotational constants (GHZ):           6.1967548           1.0058629           0.9344789
 Leave Link  202 at Sun Sep 29 05:16:22 2019, MaxMem=   671088640 cpu:               3.5 elap:               1.8
 (Enter /shared/centos7/gaussian/g16/l301.exe)
 Standard basis: CC-pVTZ (5D, 7F)
 Ernie: Thresh=  0.10000D-02 Tol=  0.10000D-05 Strict=F.
 Ernie:  21 primitive shells out of 310 were deleted.
 There are   485 symmetry adapted cartesian basis functions of A   symmetry.
 There are   434 symmetry adapted basis functions of A   symmetry.
   434 basis functions,   636 primitive gaussians,   485 cartesian basis functions
    29 alpha electrons       29 beta electrons
       nuclear repulsion energy       320.7586528895 Hartrees.
 IExCor= 4336 DFT=T Ex+Corr=M062X ExCW=0 ScaHFX=  0.540000
 ScaDFX=  1.000000  1.000000  1.000000  1.000000 ScalE2=  1.000000  1.000000
 IRadAn=      5 IRanWt=     -1 IRanGd=            0 ICorTp=0 IEmpDi=  4
 NAtoms=   23 NActive=   23 NUniq=   23 SFac= 1.00D+00 NAtFMM=   60 NAOKFM=F Big=F
 Integral buffers will be    131072 words long.
 Raffenetti 2 integral format.
 Two-electron integral symmetry is turned on.
 Leave Link  301 at Sun Sep 29 05:16:23 2019, MaxMem=   671088640 cpu:               1.9 elap:               0.9
 (Enter /shared/centos7/gaussian/g16/l302.exe)
 NPDir=0 NMtPBC=     1 NCelOv=     1 NCel=       1 NClECP=     1 NCelD=      1
         NCelK=      1 NCelE2=     1 NClLst=     1 CellRange=     0.0.
 One-electron integrals computed using PRISM.
 One-electron integral symmetry used in STVInt
 NBasis=   434 RedAO= T EigKep=  3.46D-04  NBF=   434
 NBsUse=   434 1.00D-06 EigRej= -1.00D+00 NBFU=   434
 Precomputing XC quadrature grid using
 IXCGrd= 4 IRadAn=           5 IRanWt=          -1 IRanGd=           0 AccXCQ= 0.00D+00.
 Generated NRdTot=       0 NPtTot=           0 NUsed=           0 NTot=          32
 NSgBfM=   485   485   485   485   485 MxSgAt=    23 MxSgA2=    23.
 Leave Link  302 at Sun Sep 29 05:17:38 2019, MaxMem=   671088640 cpu:             149.8 elap:              75.0
 (Enter /shared/centos7/gaussian/g16/l303.exe)
 DipDrv:  MaxL=1.
 Leave Link  303 at Sun Sep 29 05:17:42 2019, MaxMem=   671088640 cpu:               7.9 elap:               4.0
 (Enter /shared/centos7/gaussian/g16/l401.exe)
 ExpMin= 1.03D-01 ExpMax= 8.24D+03 ExpMxC= 2.81D+02 IAcc=3 IRadAn=         5 AccDes= 0.00D+00
 Harris functional with IExCor= 1009 and IRadAn=       5 diagonalized for initial guess.
 HarFok:  IExCor= 1009 AccDes= 0.00D+00 IRadAn=         5 IDoV= 1 UseB2=F ITyADJ=14
 ICtDFT=  3500011 ScaDFX=  1.000000  1.000000  1.000000  1.000000
 FoFCou: FMM=F IPFlag=           0 FMFlag=      100000 FMFlg1=           0
         NFxFlg=           0 DoJE=T BraDBF=F KetDBF=T FulRan=T
         wScrn=  0.000000 ICntrl=       500 IOpCl=  0 I1Cent=   200000004 NGrid=           0
         NMat0=    1 NMatS0=      1 NMatT0=    0 NMatD0=    1 NMtDS0=    0 NMtDT0=    0
 Petite list used in FoFCou.
 Harris En= -276.322449000067    
 JPrj=0 DoOrth=F DoCkMO=F.
 Leave Link  401 at Sun Sep 29 05:18:40 2019, MaxMem=   671088640 cpu:             117.3 elap:              58.7
 (Enter /shared/centos7/gaussian/g16/l502.exe)
 Integral symmetry usage will be decided dynamically.
 Closed shell SCF:
 Using DIIS extrapolation, IDIIS=  1040.
 NGot=   671088640 LenX=   670604095 LenY=   670368385
 Requested convergence on RMS density matrix=1.00D-08 within 900 cycles.
 Requested convergence on MAX density matrix=1.00D-06.
 Requested convergence on             energy=1.00D-06.
 No special actions if energy rises.
 Fock matrices will be formed incrementally for  20 cycles.
 Integral accuracy reduced to 1.0D-05 until final iterations.

 Cycle   1  Pass 0  IDiag  1:
 FoFJK:  IHMeth= 1 ICntrl=       0 DoSepK=F KAlg= 0 I1Cent=           0 FoldK=F
 IRaf= 910000000 NMat=       1 IRICut=       1 DoRegI=T DoRafI=F ISym2E= 0 IDoP0=0 IntGTp=1.
 FoFCou: FMM=F IPFlag=           0 FMFlag=      100000 FMFlg1=           0
         NFxFlg=           0 DoJE=F BraDBF=F KetDBF=F FulRan=T
         wScrn=  0.000000 ICntrl=         0 IOpCl=  0 I1Cent=           0 NGrid=           0
         NMat0=    1 NMatS0=      1 NMatT0=    0 NMatD0=    1 NMtDS0=    0 NMtDT0=    0
 Symmetry not used in FoFCou.
 E= -275.946704368677    
 DIIS: error= 3.39D-02 at cycle   1 NSaved=   1.
 NSaved= 1 IEnMin= 1 EnMin= -275.946704368677     IErMin= 1 ErrMin= 3.39D-02
 ErrMax= 3.39D-02  0.00D+00 EMaxC= 1.00D-01 BMatC= 3.77D-01 BMatP= 3.77D-01
 IDIUse=3 WtCom= 6.61D-01 WtEn= 3.39D-01
 Coeff-Com:  0.100D+01
 Coeff-En:   0.100D+01
 Coeff:      0.100D+01
 Gap=     0.358 Goal=   None    Shift=    0.000
 GapD=    0.358 DampG=1.000 DampE=0.500 DampFc=0.5000 IDamp=-1.
 Damping current iteration by 5.00D-01
 RMSDP=1.89D-03 MaxDP=6.62D-02              OVMax= 1.67D-01

 Cycle   2  Pass 0  IDiag  1:
 RMSU=  9.42D-04    CP:  9.90D-01
 E= -276.128007557485     Delta-E=       -0.181303188808 Rises=F Damp=T
 DIIS: error= 5.85D-03 at cycle   2 NSaved=   2.
 NSaved= 2 IEnMin= 2 EnMin= -276.128007557485     IErMin= 2 ErrMin= 5.85D-03
 ErrMax= 5.85D-03  0.00D+00 EMaxC= 1.00D-01 BMatC= 1.81D-02 BMatP= 3.77D-01
 IDIUse=3 WtCom= 9.42D-01 WtEn= 5.85D-02
 Coeff-Com: -0.531D-01 0.105D+01
 Coeff-En:   0.000D+00 0.100D+01
 Coeff:     -0.500D-01 0.105D+01
 Gap=     0.443 Goal=   None    Shift=    0.000
 RMSDP=5.09D-04 MaxDP=2.10D-02 DE=-1.81D-01 OVMax= 9.16D-02

 Cycle   3  Pass 0  IDiag  1:
 RMSU=  5.00D-04    CP:  9.98D-01  9.19D-01
 E= -276.309371419119     Delta-E=       -0.181363861633 Rises=F Damp=F
 DIIS: error= 2.23D-03 at cycle   3 NSaved=   3.
 NSaved= 3 IEnMin= 3 EnMin= -276.309371419119     IErMin= 3 ErrMin= 2.23D-03
 ErrMax= 2.23D-03  0.00D+00 EMaxC= 1.00D-01 BMatC= 1.98D-03 BMatP= 1.81D-02
 IDIUse=3 WtCom= 9.78D-01 WtEn= 2.23D-02
 Coeff-Com: -0.476D-01 0.207D+00 0.840D+00
 Coeff-En:   0.000D+00 0.000D+00 0.100D+01
 Coeff:     -0.465D-01 0.203D+00 0.844D+00
 Gap=     0.414 Goal=   None    Shift=    0.000
 RMSDP=8.12D-05 MaxDP=2.13D-03 DE=-1.81D-01 OVMax= 8.63D-03

 Cycle   4  Pass 0  IDiag  1:
 RMSU=  6.28D-05    CP:  9.97D-01  9.65D-01  9.47D-01
 E= -276.311158057943     Delta-E=       -0.001786638825 Rises=F Damp=F
 DIIS: error= 5.79D-04 at cycle   4 NSaved=   4.
 NSaved= 4 IEnMin= 4 EnMin= -276.311158057943     IErMin= 4 ErrMin= 5.79D-04
 ErrMax= 5.79D-04  0.00D+00 EMaxC= 1.00D-01 BMatC= 1.62D-04 BMatP= 1.98D-03
 IDIUse=3 WtCom= 9.94D-01 WtEn= 5.79D-03
 Coeff-Com: -0.110D-01 0.292D-01 0.257D+00 0.725D+00
 Coeff-En:   0.000D+00 0.000D+00 0.000D+00 0.100D+01
 Coeff:     -0.109D-01 0.291D-01 0.256D+00 0.726D+00
 Gap=     0.415 Goal=   None    Shift=    0.000
 RMSDP=2.77D-05 MaxDP=9.59D-04 DE=-1.79D-03 OVMax= 2.60D-03

 Cycle   5  Pass 0  IDiag  1:
 RMSU=  1.69D-05    CP:  9.97D-01  9.58D-01  9.78D-01  7.81D-01
 E= -276.311305817024     Delta-E=       -0.000147759081 Rises=F Damp=F
 DIIS: error= 1.38D-04 at cycle   5 NSaved=   5.
 NSaved= 5 IEnMin= 5 EnMin= -276.311305817024     IErMin= 5 ErrMin= 1.38D-04
 ErrMax= 1.38D-04  0.00D+00 EMaxC= 1.00D-01 BMatC= 1.49D-05 BMatP= 1.62D-04
 IDIUse=3 WtCom= 9.99D-01 WtEn= 1.38D-03
 Coeff-Com: -0.894D-03-0.748D-03 0.458D-01 0.271D+00 0.685D+00
 Coeff-En:   0.000D+00 0.000D+00 0.000D+00 0.000D+00 0.100D+01
 Coeff:     -0.893D-03-0.747D-03 0.458D-01 0.271D+00 0.685D+00
 Gap=     0.415 Goal=   None    Shift=    0.000
 RMSDP=5.95D-06 MaxDP=2.94D-04 DE=-1.48D-04 OVMax= 6.71D-04

 Initial convergence to 1.0D-05 achieved.  Increase integral accuracy.
 Cycle   6  Pass 1  IDiag  1:
 E= -276.311291640107     Delta-E=        0.000014176917 Rises=F Damp=F
 DIIS: error= 3.81D-05 at cycle   1 NSaved=   1.
 NSaved= 1 IEnMin= 1 EnMin= -276.311291640107     IErMin= 1 ErrMin= 3.81D-05
 ErrMax= 3.81D-05  0.00D+00 EMaxC= 1.00D-01 BMatC= 1.68D-06 BMatP= 1.68D-06
 IDIUse=1 WtCom= 1.00D+00 WtEn= 0.00D+00
 Coeff-Com:  0.100D+01
 Coeff:      0.100D+01
 Gap=     0.415 Goal=   None    Shift=    0.000
 RMSDP=5.95D-06 MaxDP=2.94D-04 DE= 1.42D-05 OVMax= 3.01D-04

 Cycle   7  Pass 1  IDiag  1:
 RMSU=  1.17D-05    CP:  1.00D+00
 E= -276.311292375393     Delta-E=       -0.000000735286 Rises=F Damp=F
 DIIS: error= 2.58D-05 at cycle   2 NSaved=   2.
 NSaved= 2 IEnMin= 2 EnMin= -276.311292375393     IErMin= 2 ErrMin= 2.58D-05
 ErrMax= 2.58D-05  0.00D+00 EMaxC= 1.00D-01 BMatC= 4.62D-07 BMatP= 1.68D-06
 IDIUse=1 WtCom= 1.00D+00 WtEn= 0.00D+00
 Coeff-Com:  0.298D+00 0.702D+00
 Coeff:      0.298D+00 0.702D+00
 Gap=     0.415 Goal=   None    Shift=    0.000
 RMSDP=1.34D-06 MaxDP=5.90D-05 DE=-7.35D-07 OVMax= 1.52D-04

 Cycle   8  Pass 1  IDiag  1:
 RMSU=  1.33D-06    CP:  1.00D+00  1.01D+00
 E= -276.311292751428     Delta-E=       -0.000000376035 Rises=F Damp=F
 DIIS: error= 1.08D-05 at cycle   3 NSaved=   3.
 NSaved= 3 IEnMin= 3 EnMin= -276.311292751428     IErMin= 3 ErrMin= 1.08D-05
 ErrMax= 1.08D-05  0.00D+00 EMaxC= 1.00D-01 BMatC= 7.88D-08 BMatP= 4.62D-07
 IDIUse=1 WtCom= 1.00D+00 WtEn= 0.00D+00
 Coeff-Com: -0.779D-02 0.284D+00 0.724D+00
 Coeff:     -0.779D-02 0.284D+00 0.724D+00
 Gap=     0.415 Goal=   None    Shift=    0.000
 RMSDP=4.66D-07 MaxDP=1.76D-05 DE=-3.76D-07 OVMax= 5.02D-05

 Cycle   9  Pass 1  IDiag  1:
 RMSU=  2.83D-07    CP:  1.00D+00  1.02D+00  7.62D-01
 E= -276.311292827623     Delta-E=       -0.000000076195 Rises=F Damp=F
 DIIS: error= 1.88D-06 at cycle   4 NSaved=   4.
 NSaved= 4 IEnMin= 4 EnMin= -276.311292827623     IErMin= 4 ErrMin= 1.88D-06
 ErrMax= 1.88D-06  0.00D+00 EMaxC= 1.00D-01 BMatC= 1.26D-09 BMatP= 7.88D-08
 IDIUse=1 WtCom= 1.00D+00 WtEn= 0.00D+00
 Coeff-Com: -0.968D-02 0.692D-01 0.219D+00 0.721D+00
 Coeff:     -0.968D-02 0.692D-01 0.219D+00 0.721D+00
 Gap=     0.415 Goal=   None    Shift=    0.000
 RMSDP=7.85D-08 MaxDP=1.97D-06 DE=-7.62D-08 OVMax= 7.41D-06

 Cycle  10  Pass 1  IDiag  1:
 RMSU=  7.31D-08    CP:  1.00D+00  1.03D+00  7.64D-01  9.26D-01
 E= -276.311292828974     Delta-E=       -0.000000001352 Rises=F Damp=F
 DIIS: error= 3.94D-07 at cycle   5 NSaved=   5.
 NSaved= 5 IEnMin= 5 EnMin= -276.311292828974     IErMin= 5 ErrMin= 3.94D-07
 ErrMax= 3.94D-07  0.00D+00 EMaxC= 1.00D-01 BMatC= 4.94D-11 BMatP= 1.26D-09
 IDIUse=1 WtCom= 1.00D+00 WtEn= 0.00D+00
 Coeff-Com:  0.386D-04-0.208D-01-0.504D-01 0.442D-01 0.103D+01
 Coeff:      0.386D-04-0.208D-01-0.504D-01 0.442D-01 0.103D+01
 Gap=     0.415 Goal=   None    Shift=    0.000
 RMSDP=2.92D-08 MaxDP=7.88D-07 DE=-1.35D-09 OVMax= 2.45D-06

 Cycle  11  Pass 1  IDiag  1:
 RMSU=  1.39D-08    CP:  1.00D+00  1.03D+00  7.66D-01  1.01D+00  1.08D+00
 E= -276.311292829051     Delta-E=       -0.000000000077 Rises=F Damp=F
 DIIS: error= 1.25D-07 at cycle   6 NSaved=   6.
 NSaved= 6 IEnMin= 6 EnMin= -276.311292829051     IErMin= 6 ErrMin= 1.25D-07
 ErrMax= 1.25D-07  0.00D+00 EMaxC= 1.00D-01 BMatC= 1.07D-11 BMatP= 4.94D-11
 IDIUse=1 WtCom= 1.00D+00 WtEn= 0.00D+00
 Coeff-Com:  0.414D-03-0.120D-01-0.313D-01-0.101D-01 0.458D+00 0.595D+00
 Coeff:      0.414D-03-0.120D-01-0.313D-01-0.101D-01 0.458D+00 0.595D+00
 Gap=     0.415 Goal=   None    Shift=    0.000
 RMSDP=4.88D-09 MaxDP=2.50D-07 DE=-7.71D-11 OVMax= 5.67D-07

 SCF Done:  E(RM062X) =  -276.311292829     A.U. after   11 cycles
            NFock= 11  Conv=0.49D-08     -V/T= 2.0066
 KE= 2.744980495723D+02 PE=-1.279956094527D+03 EE= 4.083880992362D+02
 Leave Link  502 at Sun Sep 29 05:34:43 2019, MaxMem=   671088640 cpu:            1925.2 elap:             962.7
 (Enter /shared/centos7/gaussian/g16/l801.exe)
 DoSCS=F DFT=T ScalE2(SS,OS)=  1.000000  1.000000
 Range of M.O.s used for correlation:     1   434
 NBasis=   434 NAE=    29 NBE=    29 NFC=     0 NFV=     0
 NROrb=    434 NOA=    29 NOB=    29 NVA=   405 NVB=   405

 **** Warning!!: The largest alpha MO coefficient is  0.10854088D+02

 Leave Link  801 at Sun Sep 29 05:34:44 2019, MaxMem=   671088640 cpu:               1.6 elap:               0.8
 (Enter /shared/centos7/gaussian/g16/l1101.exe)
 Using compressed storage, NAtomX=    23.
 Will process     24 centers per pass.
 Leave Link 1101 at Sun Sep 29 05:35:23 2019, MaxMem=   671088640 cpu:              77.8 elap:              38.9
 (Enter /shared/centos7/gaussian/g16/l1102.exe)
 Symmetrizing basis deriv contribution to polar:
 IMax=3 JMax=2 DiffMx= 0.00D+00
 Leave Link 1102 at Sun Sep 29 05:35:25 2019, MaxMem=   671088640 cpu:               4.9 elap:               2.4
 (Enter /shared/centos7/gaussian/g16/l1110.exe)
 Forming Gx(P) for the SCF density, NAtomX=    23.
 Integral derivatives from FoFJK, PRISM(SPDF).
 Do as many integral derivatives as possible in FoFJK.
 G2DrvN: MDV=     671086848.
 G2DrvN: will do    24 centers at a time, making    1 passes.
 Calling FoFCou, ICntrl=  3107 FMM=F I1Cent=   0 AccDes= 0.00D+00.
 FoFJK:  IHMeth= 1 ICntrl=    3107 DoSepK=F KAlg= 0 I1Cent=           0 FoldK=F
 IRaf=         0 NMat=       1 IRICut=       1 DoRegI=T DoRafI=F ISym2E= 0 IDoP0=0 IntGTp=1.
 FoFCou: FMM=F IPFlag=           0 FMFlag=      100000 FMFlg1=           0
         NFxFlg=           0 DoJE=F BraDBF=F KetDBF=F FulRan=T
         wScrn=  0.000000 ICntrl=      3107 IOpCl=  0 I1Cent=           0 NGrid=           0
         NMat0=    1 NMatS0=      1 NMatT0=    0 NMatD0=    1 NMtDS0=    0 NMtDT0=    0
 Symmetry not used in FoFCou.
 End of G2Drv F.D. properties file   721 does not exist.
 End of G2Drv F.D. properties file   722 does not exist.
 End of G2Drv F.D. properties file   788 does not exist.
 Leave Link 1110 at Sun Sep 29 06:16:08 2019, MaxMem=   671088640 cpu:            4886.1 elap:            2443.3
 (Enter /shared/centos7/gaussian/g16/l1002.exe)
 Minotr:  Closed shell wavefunction.
          IDoAtm=11111111111111111111111
          Direct CPHF calculation.
          Differentiating once with respect to nuclear coordinates.
          Requested convergence is 1.0D-08 RMS, and 1.0D-07 maximum.
          Secondary convergence is 1.0D-12 RMS, and 1.0D-12 maximum.
          NewPWx=T KeepS1=F KeepF1=F KeepIn=T MapXYZ=F SortEE=F KeepMc=T.
         6946 words used for storage of precomputed grid.
 Two-electron integrals replicated using symmetry.
          MDV=     671088640 using IRadAn=       1.
          Solving linear equations simultaneously, MaxMat=     380.
 FoF2E skips out because all densities are zero.
 CalDSu exits because no D1Ps are significant.
 FoFJK:  IHMeth= 1 ICntrl=       0 DoSepK=F KAlg= 0 I1Cent=           0 FoldK=F
 IRaf= 900000000 NMat=      69 IRICut=     172 DoRegI=T DoRafI=T ISym2E= 2 IDoP0=3 IntGTp=3.
 FoFCou: FMM=F IPFlag=           0 FMFlag=      100000 FMFlg1=           0
         NFxFlg=           0 DoJE=F BraDBF=F KetDBF=F FulRan=T
         wScrn=  0.000000 ICntrl=         0 IOpCl=  0 I1Cent=           0 NGrid=           0
         NMat0=   69 NMatS0=     69 NMatT0=    0 NMatD0=   69 NMtDS0=    0 NMtDT0=    0
 Integrals replicated using symmetry in FoFCou.
 Raff kept on since  85.35% of shell-pairs survive, threshold=   0.20 IRatSp=85.
          There are    72 degrees of freedom in the 1st order CPHF.  IDoFFX=6 NUNeed=     0.
     66 vectors produced by pass  0 Test12= 1.63D-14 1.39D-09 XBig12= 5.49D-02 4.63D-02.
 AX will form    66 AO Fock derivatives at one time.
     66 vectors produced by pass  1 Test12= 1.63D-14 1.39D-09 XBig12= 3.70D-03 7.01D-03.
     66 vectors produced by pass  2 Test12= 1.63D-14 1.39D-09 XBig12= 5.43D-05 1.27D-03.
     66 vectors produced by pass  3 Test12= 1.63D-14 1.39D-09 XBig12= 4.20D-07 7.03D-05.
     66 vectors produced by pass  4 Test12= 1.63D-14 1.39D-09 XBig12= 1.99D-09 5.23D-06.
     66 vectors produced by pass  5 Test12= 1.63D-14 1.39D-09 XBig12= 8.68D-12 3.46D-07.
     23 vectors produced by pass  6 Test12= 1.63D-14 1.39D-09 XBig12= 3.19D-14 1.87D-08.
 InvSVY:  IOpt=1 It=  1 EMax= 3.05D-16
 Solved reduced A of dimension   419 with    72 vectors.
 End of Minotr F.D. properties file   721 does not exist.
 End of Minotr F.D. properties file   722 does not exist.
 End of Minotr F.D. properties file   788 does not exist.
 Leave Link 1002 at Sun Sep 29 07:25:22 2019, MaxMem=   671088640 cpu:            8306.1 elap:            4153.5
 (Enter /shared/centos7/gaussian/g16/l601.exe)
 Copying SCF densities to generalized density rwf, IOpCl= 0 IROHF=0.

 **********************************************************************

            Population analysis using the SCF density.

 **********************************************************************

 Orbital symmetries:
       Occupied  (A) (A) (A) (A) (A) (A) (A) (A) (A) (A) (A) (A)
                 (A) (A) (A) (A) (A) (A) (A) (A) (A) (A) (A) (A)
                 (A) (A) (A) (A) (A)
       Virtual   (A) (A) (A) (A) (A) (A) (A) (A) (A) (A) (A) (A)
                 (A) (A) (A) (A) (A) (A) (A) (A) (A) (A) (A) (A)
                 (A) (A) (A) (A) (A) (A) (A) (A) (A) (A) (A) (A)
                 (A) (A) (A) (A) (A) (A) (A) (A) (A) (A) (A) (A)
                 (A) (A) (A) (A) (A) (A) (A) (A) (A) (A) (A) (A)
                 (A) (A) (A) (A) (A) (A) (A) (A) (A) (A) (A) (A)
                 (A) (A) (A) (A) (A) (A) (A) (A) (A) (A) (A) (A)
                 (A) (A) (A) (A) (A) (A) (A) (A) (A) (A) (A) (A)
                 (A) (A) (A) (A) (A) (A) (A) (A) (A) (A) (A) (A)
                 (A) (A) (A) (A) (A) (A) (A) (A) (A) (A) (A) (A)
                 (A) (A) (A) (A) (A) (A) (A) (A) (A) (A) (A) (A)
                 (A) (A) (A) (A) (A) (A) (A) (A) (A) (A) (A) (A)
                 (A) (A) (A) (A) (A) (A) (A) (A) (A) (A) (A) (A)
                 (A) (A) (A) (A) (A) (A) (A) (A) (A) (A) (A) (A)
                 (A) (A) (A) (A) (A) (A) (A) (A) (A) (A) (A) (A)
                 (A) (A) (A) (A) (A) (A) (A) (A) (A) (A) (A) (A)
                 (A) (A) (A) (A) (A) (A) (A) (A) (A) (A) (A) (A)
                 (A) (A) (A) (A) (A) (A) (A) (A) (A) (A) (A) (A)
                 (A) (A) (A) (A) (A) (A) (A) (A) (A) (A) (A) (A)
                 (A) (A) (A) (A) (A) (A) (A) (A) (A) (A) (A) (A)
                 (A) (A) (A) (A) (A) (A) (A) (A) (A) (A) (A) (A)
                 (A) (A) (A) (A) (A) (A) (A) (A) (A) (A) (A) (A)
                 (A) (A) (A) (A) (A) (A) (A) (A) (A) (A) (A) (A)
                 (A) (A) (A) (A) (A) (A) (A) (A) (A) (A) (A) (A)
                 (A) (A) (A) (A) (A) (A) (A) (A) (A) (A) (A) (A)
                 (A) (A) (A) (A) (A) (A) (A) (A) (A) (A) (A) (A)
                 (A) (A) (A) (A) (A) (A) (A) (A) (A) (A) (A) (A)
                 (A) (A) (A) (A) (A) (A) (A) (A) (A) (A) (A) (A)
                 (A) (A) (A) (A) (A) (A) (A) (A) (A) (A) (A) (A)
                 (A) (A) (A) (A) (A) (A) (A) (A) (A) (A) (A) (A)
                 (A) (A) (A) (A) (A) (A) (A) (A) (A) (A) (A) (A)
                 (A) (A) (A) (A) (A) (A) (A) (A) (A) (A) (A) (A)
                 (A) (A) (A) (A) (A) (A) (A) (A) (A) (A) (A) (A)
                 (A) (A) (A) (A) (A) (A) (A) (A) (A)
 The electronic state is 1-A.
 Alpha  occ. eigenvalues --  -10.52833 -10.52574 -10.52515 -10.52377 -10.52261
 Alpha  occ. eigenvalues --  -10.52169 -10.52093  -0.92180  -0.88460  -0.82422
 Alpha  occ. eigenvalues --   -0.76197  -0.71308  -0.65533  -0.62528  -0.54585
 Alpha  occ. eigenvalues --   -0.54104  -0.50246  -0.49937  -0.48785  -0.45710
 Alpha  occ. eigenvalues --   -0.44741  -0.43567  -0.41572  -0.39814  -0.38990
 Alpha  occ. eigenvalues --   -0.38215  -0.36996  -0.35995  -0.35073
 Alpha virt. eigenvalues --    0.06398   0.08122   0.08328   0.08758   0.10829
 Alpha virt. eigenvalues --    0.11380   0.11589   0.12763   0.12942   0.15111
 Alpha virt. eigenvalues --    0.15801   0.16330   0.17742   0.18198   0.19654
 Alpha virt. eigenvalues --    0.21347   0.22414   0.23536   0.25255   0.26535
 Alpha virt. eigenvalues --    0.27975   0.28462   0.28992   0.29344   0.30259
 Alpha virt. eigenvalues --    0.31559   0.33037   0.34427   0.36146   0.36363
 Alpha virt. eigenvalues --    0.38087   0.39874   0.40303   0.42500   0.43194
 Alpha virt. eigenvalues --    0.44787   0.45076   0.46208   0.46517   0.47581
 Alpha virt. eigenvalues --    0.48875   0.49186   0.49921   0.51061   0.51164
 Alpha virt. eigenvalues --    0.51376   0.51960   0.52748   0.53079   0.53633
 Alpha virt. eigenvalues --    0.54173   0.54640   0.55441   0.56142   0.57080
 Alpha virt. eigenvalues --    0.57647   0.58512   0.59415   0.59855   0.62485
 Alpha virt. eigenvalues --    0.64505   0.67538   0.68654   0.71422   0.77658
 Alpha virt. eigenvalues --    0.78234   0.80042   0.81485   0.85057   0.85197
 Alpha virt. eigenvalues --    0.86252   0.87818   0.88532   0.89601   0.90259
 Alpha virt. eigenvalues --    0.93824   0.95246   0.95874   0.97645   0.98903
 Alpha virt. eigenvalues --    1.00234   1.01880   1.02854   1.03476   1.04494
 Alpha virt. eigenvalues --    1.04884   1.06104   1.07025   1.09823   1.10119
 Alpha virt. eigenvalues --    1.10565   1.11054   1.11783   1.13905   1.14282
 Alpha virt. eigenvalues --    1.15046   1.16822   1.18419   1.18929   1.19455
 Alpha virt. eigenvalues --    1.20803   1.21225   1.21489   1.22617   1.23028
 Alpha virt. eigenvalues --    1.24413   1.25528   1.26447   1.28163   1.28219
 Alpha virt. eigenvalues --    1.29359   1.30666   1.31244   1.31780   1.33225
 Alpha virt. eigenvalues --    1.33552   1.34048   1.36180   1.36324   1.37733
 Alpha virt. eigenvalues --    1.39534   1.40227   1.41395   1.43450   1.44336
 Alpha virt. eigenvalues --    1.45125   1.45256   1.46836   1.47823   1.49211
 Alpha virt. eigenvalues --    1.50034   1.51757   1.51882   1.53361   1.54920
 Alpha virt. eigenvalues --    1.55736   1.57527   1.59829   1.60302   1.61431
 Alpha virt. eigenvalues --    1.62513   1.65163   1.67808   1.69567   1.70746
 Alpha virt. eigenvalues --    1.71692   1.76597   1.77844   1.84974   2.17796
 Alpha virt. eigenvalues --    2.25783   2.27671   2.29350   2.33143   2.34730
 Alpha virt. eigenvalues --    2.36507   2.37946   2.41154   2.41273   2.42828
 Alpha virt. eigenvalues --    2.46081   2.46884   2.49692   2.50839   2.53832
 Alpha virt. eigenvalues --    2.53916   2.55853   2.57231   2.57964   2.60036
 Alpha virt. eigenvalues --    2.60626   2.62394   2.63182   2.65814   2.66452
 Alpha virt. eigenvalues --    2.67340   2.68255   2.69569   2.70334   2.73881
 Alpha virt. eigenvalues --    2.74218   2.74713   2.77052   2.78525   2.79607
 Alpha virt. eigenvalues --    2.81068   2.81501   2.82456   2.84107   2.84838
 Alpha virt. eigenvalues --    2.86401   2.87867   2.89448   2.90693   2.92273
 Alpha virt. eigenvalues --    2.92470   2.94960   2.96699   2.97742   2.98262
 Alpha virt. eigenvalues --    2.98681   2.98987   3.01934   3.03345   3.03840
 Alpha virt. eigenvalues --    3.04158   3.05739   3.06437   3.07530   3.08486
 Alpha virt. eigenvalues --    3.09165   3.09967   3.10660   3.11688   3.12482
 Alpha virt. eigenvalues --    3.12697   3.13681   3.15574   3.15834   3.16879
 Alpha virt. eigenvalues --    3.18116   3.18562   3.19041   3.21229   3.23831
 Alpha virt. eigenvalues --    3.24392   3.25537   3.26350   3.27586   3.29032
 Alpha virt. eigenvalues --    3.30005   3.31834   3.32208   3.34447   3.34736
 Alpha virt. eigenvalues --    3.36303   3.37662   3.38932   3.40385   3.40765
 Alpha virt. eigenvalues --    3.41911   3.44118   3.46023   3.46825   3.47270
 Alpha virt. eigenvalues --    3.48982   3.49815   3.50622   3.52997   3.53458
 Alpha virt. eigenvalues --    3.54645   3.55077   3.57513   3.57689   3.58346
 Alpha virt. eigenvalues --    3.60619   3.62486   3.63488   3.64186   3.65258
 Alpha virt. eigenvalues --    3.66718   3.68122   3.71195   3.71763   3.72084
 Alpha virt. eigenvalues --    3.72399   3.73388   3.75326   3.76065   3.77036
 Alpha virt. eigenvalues --    3.79269   3.80459   3.81570   3.82826   3.84022
 Alpha virt. eigenvalues --    3.84184   3.86903   3.87072   3.89841   3.90390
 Alpha virt. eigenvalues --    3.91384   3.93213   3.93799   3.94279   3.95626
 Alpha virt. eigenvalues --    3.97099   3.97900   3.99280   4.00361   4.01146
 Alpha virt. eigenvalues --    4.01838   4.03752   4.04311   4.05338   4.06007
 Alpha virt. eigenvalues --    4.06777   4.08286   4.09129   4.09284   4.11249
 Alpha virt. eigenvalues --    4.11633   4.13077   4.14345   4.15824   4.16588
 Alpha virt. eigenvalues --    4.19205   4.19716   4.20828   4.21242   4.21794
 Alpha virt. eigenvalues --    4.24244   4.25613   4.26198   4.27118   4.28698
 Alpha virt. eigenvalues --    4.30427   4.31534   4.33299   4.34971   4.36116
 Alpha virt. eigenvalues --    4.38855   4.41078   4.41909   4.42584   4.44177
 Alpha virt. eigenvalues --    4.47988   4.49011   4.50615   4.51676   4.55205
 Alpha virt. eigenvalues --    4.56603   4.58971   4.61332   4.63535   4.65291
 Alpha virt. eigenvalues --    4.67648   4.69055   4.71464   4.72326   4.75455
 Alpha virt. eigenvalues --    4.76321   4.78223   4.78694   4.79169   4.81317
 Alpha virt. eigenvalues --    4.84044   4.86280   4.87788   4.89145   4.89716
 Alpha virt. eigenvalues --    4.93827   4.96421   4.97979   4.99112   4.99833
 Alpha virt. eigenvalues --    5.03008   5.05232   5.05522   5.06442   5.08356
 Alpha virt. eigenvalues --    5.09744   5.10730   5.14731   5.15324   5.17105
 Alpha virt. eigenvalues --    5.19030   5.22839   5.23973   5.24682   5.25779
 Alpha virt. eigenvalues --    5.26558   5.27264   5.28456   5.31089   5.33232
 Alpha virt. eigenvalues --    5.33774   5.35020   5.39701   5.40682   5.42916
 Alpha virt. eigenvalues --    5.45334   5.47076   5.48589   5.50396   5.54635
 Alpha virt. eigenvalues --    5.55557   5.64009   5.69233   5.75443   5.78463
 Alpha virt. eigenvalues --    5.79185   5.82154   5.84296   5.91270   5.92425
 Alpha virt. eigenvalues --    5.95473   5.97405   6.01411  11.61744  11.83620
 Alpha virt. eigenvalues --   12.16305  12.94680  13.30981  13.52172  13.92642
          Condensed to atoms (all electrons):
               1          2          3          4          5          6
     1  C    5.087648   0.286526  -0.049659   0.317473   0.003249  -0.043698
     2  C    0.286526   5.204544   0.291037  -0.047476  -0.046177  -0.010509
     3  C   -0.049659   0.291037   5.084075   0.002325   0.320313   0.000403
     4  C    0.317473  -0.047476   0.002325   5.050909  -0.000018   0.281528
     5  C    0.003249  -0.046177   0.320313  -0.000018   5.033529  -0.000043
     6  C   -0.043698  -0.010509   0.000403   0.281528  -0.000043   5.007209
     7  C   -0.000446  -0.009253  -0.045598  -0.000055   0.302472  -0.000011
     8  H   -0.043755  -0.005831   0.001498   0.410954  -0.000025  -0.050999
     9  H   -0.047212   0.011129  -0.000532   0.419314   0.000023  -0.044494
    10  H    0.422643  -0.054619  -0.016181  -0.045349   0.000618   0.009276
    11  H    0.411995  -0.057721   0.008520  -0.041127  -0.000486  -0.006446
    12  H   -0.051476   0.411425  -0.039078  -0.007417   0.005316   0.000089
    13  H   -0.042768   0.408585  -0.044517   0.006587  -0.007700  -0.000603
    14  H   -0.016160  -0.051612   0.420238   0.000647  -0.044160  -0.000102
    15  H    0.008715  -0.056612   0.413039  -0.000406  -0.038419   0.000089
    16  H   -0.000563   0.010874  -0.050806   0.000022   0.419257   0.000000
    17  H    0.001321  -0.005194  -0.038359  -0.000018   0.405500   0.000003
    18  H   -0.002223   0.000241   0.000256  -0.061580   0.000003   0.410434
    19  H    0.004237   0.000014  -0.000003  -0.041545   0.000001   0.400461
    20  H    0.005995  -0.000440   0.000018  -0.044227  -0.000002   0.406572
    21  H    0.000063  -0.003737   0.003393   0.000004  -0.054416  -0.000005
    22  H    0.000178  -0.000256  -0.004861  -0.000019  -0.039413   0.000007
    23  H    0.000009   0.000098   0.007642   0.000001  -0.038343  -0.000000
               7          8          9         10         11         12
     1  C   -0.000446  -0.043755  -0.047212   0.422643   0.411995  -0.051476
     2  C   -0.009253  -0.005831   0.011129  -0.054619  -0.057721   0.411425
     3  C   -0.045598   0.001498  -0.000532  -0.016181   0.008520  -0.039078
     4  C   -0.000055   0.410954   0.419314  -0.045349  -0.041127  -0.007417
     5  C    0.302472  -0.000025   0.000023   0.000618  -0.000486   0.005316
     6  C   -0.000011  -0.050999  -0.044494   0.009276  -0.006446   0.000089
     7  C    4.987877   0.000009  -0.000000  -0.000092   0.000191   0.000757
     8  H    0.000009   0.615835  -0.036175  -0.007539   0.009381   0.000405
     9  H   -0.000000  -0.036175   0.604466  -0.006377  -0.007907   0.000639
    10  H   -0.000092  -0.007539  -0.006377   0.596402  -0.035036   0.005442
    11  H    0.000191   0.009381  -0.007907  -0.035036   0.599630   0.006912
    12  H    0.000757   0.000405   0.000639   0.005442   0.006912   0.582982
    13  H   -0.000693  -0.000067  -0.000584   0.005916  -0.018696  -0.043174
    14  H    0.008885   0.000608  -0.000234   0.003615   0.001304   0.005726
    15  H   -0.008974  -0.000149   0.000017   0.001387  -0.000701  -0.019081
    16  H   -0.041328   0.000002  -0.000002  -0.000211   0.000022  -0.000463
    17  H   -0.046073   0.000002   0.000000   0.000527  -0.000118  -0.000170
    18  H   -0.000001   0.005949   0.005980   0.000434  -0.000216  -0.002015
    19  H    0.000000   0.007427  -0.020156  -0.000499   0.002012   0.000183
    20  H    0.000001  -0.018832   0.006154  -0.000560  -0.000264  -0.001182
    21  H    0.404369   0.000001  -0.000000  -0.000009   0.000002  -0.000300
    22  H    0.402841  -0.000002   0.000001  -0.000034  -0.000025  -0.000279
    23  H    0.402210  -0.000000   0.000000   0.000009  -0.000007   0.000029
              13         14         15         16         17         18
     1  C   -0.042768  -0.016160   0.008715  -0.000563   0.001321  -0.002223
     2  C    0.408585  -0.051612  -0.056612   0.010874  -0.005194   0.000241
     3  C   -0.044517   0.420238   0.413039  -0.050806  -0.038359   0.000256
     4  C    0.006587   0.000647  -0.000406   0.000022  -0.000018  -0.061580
     5  C   -0.007700  -0.044160  -0.038419   0.419257   0.405500   0.000003
     6  C   -0.000603  -0.000102   0.000089   0.000000   0.000003   0.410434
     7  C   -0.000693   0.008885  -0.008974  -0.041328  -0.046073  -0.000001
     8  H   -0.000067   0.000608  -0.000149   0.000002   0.000002   0.005949
     9  H   -0.000584  -0.000234   0.000017  -0.000002   0.000000   0.005980
    10  H    0.005916   0.003615   0.001387  -0.000211   0.000527   0.000434
    11  H   -0.018696   0.001304  -0.000701   0.000022  -0.000118  -0.000216
    12  H   -0.043174   0.005726  -0.019081  -0.000463  -0.000170  -0.002015
    13  H    0.586854   0.005619   0.006471   0.000609   0.000533  -0.001145
    14  H    0.005619   0.591073  -0.035037  -0.005865  -0.006963  -0.000058
    15  H    0.006471  -0.035037   0.597286  -0.007795   0.008426   0.000066
    16  H    0.000609  -0.005865  -0.007795   0.601676  -0.034315   0.000000
    17  H    0.000533  -0.006963   0.008426  -0.034315   0.591316   0.000005
    18  H   -0.001145  -0.000058   0.000066   0.000000   0.000005   0.597640
    19  H    0.000046   0.000012  -0.000007  -0.000000  -0.000000  -0.032932
    20  H    0.000023  -0.000002  -0.000017   0.000000  -0.000000  -0.038274
    21  H    0.000171   0.000317   0.003213  -0.001270   0.008052  -0.000000
    22  H   -0.000887  -0.000528  -0.000006   0.007639  -0.010441   0.000015
    23  H   -0.000062  -0.000438   0.000253  -0.011779  -0.000364  -0.000001
              19         20         21         22         23
     1  C    0.004237   0.005995   0.000063   0.000178   0.000009
     2  C    0.000014  -0.000440  -0.003737  -0.000256   0.000098
     3  C   -0.000003   0.000018   0.003393  -0.004861   0.007642
     4  C   -0.041545  -0.044227   0.000004  -0.000019   0.000001
     5  C    0.000001  -0.000002  -0.054416  -0.039413  -0.038343
     6  C    0.400461   0.406572  -0.000005   0.000007  -0.000000
     7  C    0.000000   0.000001   0.404369   0.402841   0.402210
     8  H    0.007427  -0.018832   0.000001  -0.000002  -0.000000
     9  H   -0.020156   0.006154  -0.000000   0.000001   0.000000
    10  H   -0.000499  -0.000560  -0.000009  -0.000034   0.000009
    11  H    0.002012  -0.000264   0.000002  -0.000025  -0.000007
    12  H    0.000183  -0.001182  -0.000300  -0.000279   0.000029
    13  H    0.000046   0.000023   0.000171  -0.000887  -0.000062
    14  H    0.000012  -0.000002   0.000317  -0.000528  -0.000438
    15  H   -0.000007  -0.000017   0.003213  -0.000006   0.000253
    16  H   -0.000000   0.000000  -0.001270   0.007639  -0.011779
    17  H   -0.000000  -0.000000   0.008052  -0.010441  -0.000364
    18  H   -0.032932  -0.038274  -0.000000   0.000015  -0.000001
    19  H    0.605928  -0.029537  -0.000000  -0.000000   0.000000
    20  H   -0.029537   0.599821   0.000001  -0.000000  -0.000000
    21  H   -0.000000   0.000001   0.582405  -0.038846  -0.028302
    22  H   -0.000000  -0.000000  -0.038846   0.608190  -0.030374
    23  H    0.000000  -0.000000  -0.028302  -0.030374   0.592261
 Mulliken charges:
               1
     1  C   -0.252091
     2  C   -0.275037
     3  C   -0.263165
     4  C   -0.200528
     5  C   -0.221081
     6  C   -0.359162
     7  C   -0.357088
     8  H    0.111303
     9  H    0.115950
    10  H    0.120235
    11  H    0.128780
    12  H    0.144729
    13  H    0.139485
    14  H    0.123114
    15  H    0.128243
    16  H    0.114294
    17  H    0.126332
    18  H    0.117421
    19  H    0.104357
    20  H    0.114752
    21  H    0.124895
    22  H    0.107103
    23  H    0.107158
 Sum of Mulliken charges =  -0.00000
 Mulliken charges with hydrogens summed into heavy atoms:
               1
     1  C   -0.003076
     2  C    0.009178
     3  C   -0.011807
     4  C    0.026725
     5  C    0.019544
     6  C   -0.022632
     7  C   -0.017932
 APT charges:
               1
     1  C   -0.646101
     2  C   -0.413421
     3  C   -0.667507
     4  C   -0.761266
     5  C   -0.813449
     6  C   -1.209481
     7  C   -1.157329
     8  H    0.294815
     9  H    0.511099
    10  H    0.314599
    11  H    0.339996
    12  H    0.310633
    13  H    0.306340
    14  H    0.320370
    15  H    0.341376
    16  H    0.510816
    17  H    0.308362
    18  H    0.124093
    19  H    0.572004
    20  H    0.363929
    21  H    0.245378
    22  H    0.169530
    23  H    0.635213
 Sum of APT charges =  -0.00000
 APT charges with hydrogens summed into heavy atoms:
               1
     1  C    0.008494
     2  C    0.203552
     3  C   -0.005761
     4  C    0.044647
     5  C    0.005729
     6  C   -0.149454
     7  C   -0.107207
 Electronic spatial extent (au):  <R**2>=           1349.5338
 Charge=             -0.0000 electrons
 Dipole moment (field-independent basis, Debye):
    X=              0.0110    Y=             -0.0850    Z=              0.0068  Tot=              0.0859
 Quadrupole moment (field-independent basis, Debye-Ang):
   XX=            -49.4381   YY=            -49.8407   ZZ=            -48.4909
   XY=             -0.0169   XZ=              0.1836   YZ=              0.0487
 Traceless Quadrupole moment (field-independent basis, Debye-Ang):
   XX=             -0.1815   YY=             -0.5841   ZZ=              0.7657
   XY=             -0.0169   XZ=              0.1836   YZ=              0.0487
 Octapole moment (field-independent basis, Debye-Ang**2):
  XXX=              0.6286  YYY=             -2.8164  ZZZ=              0.9603  XYY=              0.1272
  XXY=             -2.6613  XXZ=             -0.7476  XZZ=             -0.5218  YZZ=              1.2944
  YYZ=             -0.1592  XYZ=             -0.5633
 Hexadecapole moment (field-independent basis, Debye-Ang**3):
 XXXX=          -1506.5270 YYYY=           -265.6035 ZZZZ=           -135.9775 XXXY=              0.3504
 XXXZ=              9.9114 YYYX=             -0.2349 YYYZ=             -0.1569 ZZZX=             -1.9357
 ZZZY=              1.4262 XXYY=           -308.1593 XXZZ=           -275.2957 YYZZ=            -66.8438
 XXYZ=              1.1610 YYXZ=              0.7699 ZZXY=             -0.5186
 N-N= 3.207586528895D+02 E-N=-1.279956053628D+03  KE= 2.744980495723D+02
  Exact polarizability:   0.000   0.000   0.000   0.000   0.000   0.000
 Approx polarizability:  98.416   0.020  97.351   0.479  -0.551  98.652
 No NMR shielding tensors so no spin-rotation constants.
 Leave Link  601 at Sun Sep 29 07:25:49 2019, MaxMem=   671088640 cpu:              54.8 elap:              27.4
 (Enter /shared/centos7/gaussian/g16/l701.exe)
 SCFChk:  SCF convergence  4.88D-09 required  1.00D-08
 ... and contract with generalized density number  0.
 Compute integral second derivatives.
 Entering OneElI...
 Calculate overlap and kinetic energy integrals
    NBasis = 485  MinDer = 2  MaxDer = 2
 Requested accuracy = 0.1000D-12
 PrmmSu-InSpLW:  IPartL=    0 NPrtUS=   20 NPrtUL=    1 DoSpLW=F IThBeg=    0 IThEnd=   19 NThAct=   20.
 PrsmSu:  NPrtUS=  20 ThrOK=T IAlg=1 NPAlg=1 LenDen=           0 ISkipM=0 DoSpLW=F IThBeg=    0 IThEnd=   19.
 Prism:   IPart=     0 DynPar=F LinDyn=F Incr=           6.
 PRISM was handed    33208011 working-precision words and 13476 shell-pairs
 PRISM was handed    33208011 working-precision words and 13476 shell-pairs
 PRISM was handed    33208011 working-precision words and 13476 shell-pairs
 PRISM was handed    33208011 working-precision words and 13476 shell-pairs
 PRISM was handed    33208011 working-precision words and 13476 shell-pairs
 PRISM was handed    33208011 working-precision words and 13476 shell-pairs
 PRISM was handed    33208011 working-precision words and 13476 shell-pairs
 PRISM was handed    33208011 working-precision words and 13476 shell-pairs
 PRISM was handed    33208011 working-precision words and 13476 shell-pairs
 PRISM was handed    33208011 working-precision words and 13476 shell-pairs
 PRISM was handed    33208011 working-precision words and 13476 shell-pairs
 PRISM was handed    33208011 working-precision words and 13476 shell-pairs
 PRISM was handed    33208011 working-precision words and 13476 shell-pairs
 PRISM was handed    33208011 working-precision words and 13476 shell-pairs
 PRISM was handed    33208011 working-precision words and 13476 shell-pairs
 PRISM was handed    33208011 working-precision words and 13476 shell-pairs
 IPart=  0 NShTot=         708 NBatch=          81 AvBLen=         8.7
 PRISM was handed    33208011 working-precision words and 13476 shell-pairs
 IPart= 15 NShTot=         653 NBatch=          52 AvBLen=        12.6
 PRISM was handed    33208011 working-precision words and 13476 shell-pairs
 IPart= 14 NShTot=         658 NBatch=          52 AvBLen=        12.7
 PRISM was handed    33208011 working-precision words and 13476 shell-pairs
 IPart= 18 NShTot=         645 NBatch=          48 AvBLen=        13.4
 PRISM was handed    33208011 working-precision words and 13476 shell-pairs
 IPart= 10 NShTot=         670 NBatch=          57 AvBLen=        11.8
 IPart= 13 NShTot=         660 NBatch=          52 AvBLen=        12.7
 IPart=  8 NShTot=         677 NBatch=          60 AvBLen=        11.3
 IPart= 11 NShTot=         669 NBatch=          57 AvBLen=        11.7
 IPart=  6 NShTot=         689 NBatch=          68 AvBLen=        10.1
 IPart= 19 NShTot=         645 NBatch=          48 AvBLen=        13.4
 IPart= 16 NShTot=         650 NBatch=          50 AvBLen=        13.0
 IPart=  7 NShTot=         683 NBatch=          63 AvBLen=        10.8
 IPart=  4 NShTot=         693 NBatch=          72 AvBLen=         9.6
 IPart=  1 NShTot=         706 NBatch=          79 AvBLen=         8.9
 IPart=  9 NShTot=         671 NBatch=          58 AvBLen=        11.6
 IPart=  5 NShTot=         690 NBatch=          69 AvBLen=        10.0
 IPart= 17 NShTot=         650 NBatch=          50 AvBLen=        13.0
 IPart= 12 NShTot=         662 NBatch=          53 AvBLen=        12.5
 IPart=  3 NShTot=         695 NBatch=          74 AvBLen=         9.4
 IPart=  2 NShTot=         702 NBatch=          77 AvBLen=         9.1
 PrSmSu:  NxtVal=            121.
 Entering OneElI...
 Calculate potential energy integrals
    NBasis = 485  MinDer = 2  MaxDer = 2
 Requested accuracy = 0.1000D-12
 PrmmSu-InSpLW:  IPartL=    0 NPrtUS=   20 NPrtUL=    1 DoSpLW=F IThBeg=    0 IThEnd=   19 NThAct=   20.
 PrsmSu:  NPrtUS=  20 ThrOK=T IAlg=1 NPAlg=1 LenDen=           0 ISkipM=0 DoSpLW=F IThBeg=    0 IThEnd=   19.
 Prism:   IPart=     0 DynPar=F LinDyn=F Incr=         136.
 PRISM was handed    33273392 working-precision words and 11846 shell-pairs
 PRISM was handed    33273392 working-precision words and 11846 shell-pairs
 PRISM was handed    33273392 working-precision words and 11846 shell-pairs
 PRISM was handed    33273392 working-precision words and 11846 shell-pairs
 PRISM was handed    33273392 working-precision words and 11846 shell-pairs
 PRISM was handed    33273392 working-precision words and 11846 shell-pairs
 PRISM was handed    33273392 working-precision words and 11846 shell-pairs
 PRISM was handed    33273392 working-precision words and 11846 shell-pairs
 PRISM was handed    33273392 working-precision words and 11846 shell-pairs
 PRISM was handed    33273392 working-precision words and 11846 shell-pairs
 PRISM was handed    33273392 working-precision words and 11846 shell-pairs
 PRISM was handed    33273392 working-precision words and 11846 shell-pairs
 PRISM was handed    33273392 working-precision words and 11846 shell-pairs
 PRISM was handed    33273392 working-precision words and 11846 shell-pairs
 PRISM was handed    33273392 working-precision words and 11846 shell-pairs
 PRISM was handed    33273392 working-precision words and 11846 shell-pairs
 PRISM was handed    33273392 working-precision words and 11846 shell-pairs
 PRISM was handed    33273392 working-precision words and 11846 shell-pairs
 PRISM was handed    33273392 working-precision words and 11846 shell-pairs
 PRISM was handed    33273392 working-precision words and 11846 shell-pairs
 IPart= 16 NShTot=       13179 NBatch=         574 AvBLen=        23.0
 IPart=  8 NShTot=       13593 NBatch=         592 AvBLen=        23.0
 IPart= 19 NShTot=       13064 NBatch=         569 AvBLen=        23.0
 IPart= 10 NShTot=       13524 NBatch=         589 AvBLen=        23.0
 IPart= 11 NShTot=       13478 NBatch=         587 AvBLen=        23.0
 IPart=  1 NShTot=       14306 NBatch=         624 AvBLen=        22.9
 IPart=  7 NShTot=       13639 NBatch=         594 AvBLen=        23.0
 IPart=  6 NShTot=       13823 NBatch=         602 AvBLen=        23.0
 IPart= 15 NShTot=       13225 NBatch=         576 AvBLen=        23.0
 IPart= 17 NShTot=       13064 NBatch=         569 AvBLen=        23.0
 IPart= 18 NShTot=       13064 NBatch=         569 AvBLen=        23.0
 IPart=  9 NShTot=       13547 NBatch=         590 AvBLen=        23.0
 IPart=  4 NShTot=       14099 NBatch=         615 AvBLen=        22.9
 IPart=  5 NShTot=       13961 NBatch=         608 AvBLen=        23.0
 IPart= 14 NShTot=       13294 NBatch=         579 AvBLen=        23.0
 IPart=  0 NShTot=       14375 NBatch=         627 AvBLen=        22.9
 IPart= 12 NShTot=       13409 NBatch=         584 AvBLen=        23.0
 IPart= 13 NShTot=       13386 NBatch=         583 AvBLen=        23.0
 IPart=  2 NShTot=       14237 NBatch=         621 AvBLen=        22.9
 IPart=  3 NShTot=       14191 NBatch=         619 AvBLen=        22.9
 PrSmSu:  NxtVal=           2721.
 Polarizability after L701:
                1             2             3 
      1  0.000000D+00
      2  0.000000D+00  0.000000D+00
      3  0.000000D+00  0.000000D+00  0.000000D+00
 Dipole Derivatives after L701:
                 1             2             3             4             5 
      1  -0.533879D-01 -0.247183D+00 -0.685405D+00 -0.131414D+00  0.551102D-02
      2   0.257803D+00 -0.936571D+00 -0.209443D+00 -0.796963D-02 -0.537899D+00
      3  -0.766976D-01 -0.116501D+00 -0.948344D+00  0.388061D+00  0.129029D-01
                 6             7             8             9            10 
      1   0.381057D+00 -0.985837D-01  0.266530D+00 -0.649630D+00 -0.116483D+01
      2   0.134933D-02 -0.224532D+00 -0.947359D+00  0.186462D+00 -0.469011D+00
      3  -0.570949D+00 -0.920473D-01  0.821836D-01 -0.956578D+00 -0.195138D+00
                11            12            13            14            15 
      1  -0.180525D+01  0.508600D+00 -0.124009D+01  0.153053D+01  0.463647D+00
      2  -0.402197D+00  0.170198D+00  0.469956D+00 -0.448817D+00 -0.123435D+00
      3   0.120060D+00 -0.716769D+00 -0.163128D+00 -0.629649D-01 -0.751440D+00
                16            17            18            19            20 
      1  -0.157510D+01  0.178534D+01 -0.336824D-01 -0.146287D+01 -0.152862D+01
      2   0.588697D-01 -0.108914D+01 -0.138387D-01 -0.392353D-01 -0.103409D+01
      3   0.297598D-01 -0.106355D+00 -0.964201D+00  0.512487D-02  0.644280D-01
                21            22            23            24            25 
      1  -0.152695D-01  0.905880D-01  0.215263D+00 -0.775634D+00  0.964110D+00
      2   0.255072D-01 -0.367980D-01  0.226178D+00 -0.254412D+00  0.273298D+00
      3  -0.975025D+00  0.215529D-01 -0.107290D+00  0.567679D+00  0.111630D+00
                26            27            28            29            30 
      1   0.638954D+00  0.509522D+00  0.810683D-01  0.290350D+00 -0.629827D-02
      2   0.381363D+00  0.184940D+00 -0.155695D+00  0.754808D+00 -0.443084D-01
      3   0.819144D-01  0.187823D+00 -0.355859D-01  0.178985D+00  0.107920D+00
                31            32            33            34            35 
      1   0.194845D+00 -0.773224D-01  0.421922D+00  0.227664D+00 -0.990290D-01
      2   0.375461D-01  0.116883D+00  0.100190D+00 -0.104246D+00  0.300220D+00
      3   0.482118D-01 -0.165874D+00  0.708260D+00 -0.929114D-01  0.181315D+00
                36            37            38            39            40 
      1  -0.102941D+00  0.221065D+00  0.103108D+00 -0.105005D+00  0.840372D-01
      2   0.212524D+00  0.101835D+00  0.316309D+00 -0.217891D+00  0.153749D+00
      3   0.404015D+00 -0.919923D-01 -0.191780D+00  0.381647D+00 -0.273478D-01
                41            42            43            44            45 
      1  -0.288912D+00 -0.919776D-02  0.198589D+00  0.667975D-01  0.422906D+00
      2   0.769301D+00  0.611015D-01 -0.386876D-01  0.108600D+00 -0.125503D+00
      3  -0.153303D+00  0.107772D+00  0.493934D-01  0.151080D+00  0.716940D+00
                46            47            48            49            50 
      1   0.962496D+00 -0.656330D+00  0.515140D+00  0.111824D+00 -0.236800D+00
      2  -0.276274D+00  0.370690D+00 -0.201788D+00  0.210234D-01  0.231975D+00
      3   0.108140D+00 -0.102293D+00  0.199262D+00  0.211570D-01  0.122878D+00
                51            52            53            54            55 
      1  -0.788160D+00 -0.303620D+00 -0.476804D+00  0.255033D+00  0.138374D+01
      2   0.268844D+00  0.378409D+00  0.494774D+00 -0.247007D+00 -0.299053D+00
      3   0.581286D+00 -0.132167D+00 -0.111262D+00  0.181126D+00  0.186738D+00
                56            57            58            59            60 
      1  -0.617199D-02  0.763829D+00  0.227990D+00 -0.384721D+00 -0.104369D+01
      2   0.143117D+00 -0.165101D+00 -0.693142D-01  0.281143D+00  0.427136D+00
      3   0.150665D-01  0.189158D+00 -0.602966D-01  0.127594D+00  0.582655D+00
                61            62            63            64            65 
      1  -0.936920D-01  0.455975D+00  0.774967D+00 -0.293668D+00  0.444120D+00
      2  -0.106646D+00  0.352788D+00  0.434728D+00 -0.284017D+00  0.420727D+00
      3  -0.844605D-01  0.168143D+00  0.477039D+00  0.195985D+00 -0.183113D+00
                66            67            68            69 
      1  -0.546088D+00  0.166925D+01  0.467588D-02 -0.255619D+00
      2  -0.405287D+00  0.358990D+00  0.127203D+00 -0.649671D-01
      3   0.381531D+00 -0.113981D+00 -0.581638D-02  0.109190D+00
 Hessian after L701:
                1             2             3             4             5 
      1  0.144585D+02
      2  0.248523D+00  0.173953D+02
      3  0.990410D-01 -0.539187D+00  0.173151D+02
      4 -0.369913D+01  0.154544D+01  0.105721D+01  0.141734D+02
      5  0.151595D+01 -0.520105D+01  0.626969D+00  0.483197D-01  0.172546D+02
      6  0.106468D+01  0.637065D+00 -0.560041D+01 -0.514859D+00  0.985972D-01
      7  0.278285D+00 -0.850967D-01  0.201061D+00 -0.356273D+01 -0.161597D+01
      8  0.609793D-01 -0.765765D-01  0.201338D-01 -0.164986D+01 -0.497912D+01
      9  0.208586D+00 -0.341365D-01 -0.148796D-02  0.103283D+01 -0.653337D+00
     10 -0.295244D+01 -0.506372D+00 -0.157932D+01  0.492548D+00  0.160620D+00
     11 -0.541160D+00 -0.608199D+01  0.221188D+00  0.178376D+00 -0.486066D-01
     12 -0.156995D+01  0.214841D+00 -0.533069D+01  0.843829D-01  0.305898D-01
     13  0.243059D+00  0.478880D-03  0.193617D-01  0.452032D+00 -0.149974D+00
     14  0.482634D-01 -0.145715D+00 -0.653221D-02 -0.181725D+00 -0.418370D-01
     15  0.755529D-01 -0.386079D-02 -0.140944D+00  0.708200D-01 -0.222815D-01
     16  0.149952D+00 -0.307036D+00 -0.481996D-01  0.209231D+00 -0.166658D+00
     17 -0.270780D+00  0.132375D+00  0.582762D-01 -0.191662D-01 -0.160898D+00
     18 -0.119646D+00  0.109792D+00 -0.163285D+00 -0.427316D-02  0.100155D-01
     19  0.832916D-01  0.462477D-01 -0.203356D-02  0.211589D+00  0.180414D+00
     20  0.422791D-01 -0.526256D-01  0.913040D-02  0.515620D-01 -0.143961D+00
     21  0.216956D-01  0.941201D-02 -0.755675D-01 -0.158342D-01 -0.929262D-02
     22  0.634472D-02  0.793842D-02  0.156419D+00  0.157986D-01 -0.122342D-01
     23  0.105824D-03  0.106843D+00 -0.237448D-01  0.111377D-01 -0.198046D-01
     24  0.104126D+00 -0.471792D-01  0.220804D-02 -0.220729D-01  0.128930D-01
     25 -0.862401D-01 -0.262900D-01  0.360086D-01  0.170361D+00  0.831654D-01
     26 -0.268853D-01  0.110019D+00  0.307393D-01  0.107019D+00 -0.206539D-01
     27  0.444531D-01  0.319450D-01  0.111293D+00  0.370451D-01  0.845949D-02
     28 -0.439097D+01 -0.517563D+00 -0.114759D-01  0.611456D-01 -0.193944D+00
     29 -0.648929D+00 -0.186389D+01  0.441170D-01 -0.170193D+00 -0.341429D-02
     30 -0.309532D-01  0.114056D+00 -0.444392D+01 -0.657783D-01 -0.120997D+00
     31 -0.438399D+01 -0.452258D-01  0.289602D+00  0.103745D-01 -0.970143D-01
     32 -0.381410D-01 -0.427035D+01 -0.387032D+00 -0.969618D-01  0.124775D+00
     33  0.275812D+00 -0.447353D+00 -0.189238D+01 -0.162363D+00 -0.132613D+00
     34  0.679928D-01 -0.161334D+00 -0.146765D+00 -0.449095D+01 -0.500702D+00
     35 -0.146368D+00  0.411056D-02 -0.997120D-01 -0.564901D+00 -0.353836D+01
     36 -0.132222D+00 -0.976280D-01  0.848492D-01 -0.641664D+00  0.117992D+01
     37  0.696263D-02 -0.117971D+00 -0.464899D-01 -0.438696D+01  0.564002D+00
     38 -0.103305D+00 -0.488242D-03 -0.601571D-01  0.638595D+00 -0.332315D+01
     39 -0.464758D-01 -0.449861D-01  0.167294D+00 -0.653422D+00 -0.121138D+01
     40 -0.325169D-01  0.459263D-01 -0.446943D-01  0.577096D-01  0.177436D+00
     41  0.199169D-01  0.158511D-01  0.292569D-01  0.148197D+00 -0.109670D-02
     42 -0.387370D-01  0.267250D-01 -0.770872D-02 -0.505248D-01  0.103422D+00
     43  0.540003D-01  0.723080D-02  0.985977D-01  0.886519D-02  0.959301D-01
     44  0.117111D-01 -0.555466D-01  0.136340D-01  0.968671D-01  0.114256D+00
     45  0.127298D+00  0.537697D-02  0.582456D-01 -0.155082D+00  0.125598D+00
     46  0.154085D-01 -0.850884D-02 -0.104609D-02  0.171298D+00 -0.788514D-01
     47 -0.868012D-02 -0.297883D-02  0.104135D-02 -0.102221D+00 -0.229613D-01
     48  0.920089D-02 -0.499262D-02 -0.817500D-02  0.382131D-01 -0.810043D-02
     49  0.472177D-01 -0.443347D-02 -0.180743D-01  0.173146D-01  0.483163D-02
     50 -0.929849D-02 -0.193815D-01  0.460555D-02 -0.159857D-01 -0.160186D-01
[...]
 8,0.00011974,0.00003481,0.00005488,0.00000591,0.00001762,-0.00003504,-
 0.00011305,0.00033933,0.00011513,-0.00008882,-0.00247141,0.00002301,-0
 .00087864,-0.00379522,0.05662657,0.00060011,-0.00036063,-0.00027153,0.
 00229836,-0.00289253,-0.01655762,0.05287552,-0.02610272,-0.29134269,0.
 00006083,-0.00060081,-0.00037198,0.00247898,-0.00134549,-0.01094571,0.
 00016614,-0.00003628,0.00032293,0.00115764,0.00283291,0.00107661,0.000
 53335,0.00037961,0.00040481,0.00029914,0.00019790,0.00030303,0.0000019
 0,-0.00003344,0.00007989,-0.00013315,0.00010884,0.00015544,-0.00003235
 ,-0.00014200,0.00065052,-0.00299723,-0.00093923,-0.00023638,-0.0581345
 8,0.02995293,0.31840933,-0.00306115,-0.00402124,-0.00280525,-0.0207133
 3,0.01942867,0.00208150,-0.17401241,0.12933829,0.01437831,0.00038609,-
 0.00035898,-0.00048931,0.00857056,-0.01019427,-0.00036239,-0.00001296,
 0.00009309,-0.00003163,0.00070541,-0.00024093,-0.00084719,0.00014080,-
 0.00014765,0.00005451,-0.00005418,0.00002723,0.00005633,0.00013886,0.0
 0008357,-0.00012823,-0.00137196,0.00121458,-0.00021223,0.00039402,-0.0
 0023344,0.00075269,0.00124898,0.00013493,-0.00023415,-0.00528558,0.004
 50174,0.00101946,0.19206455,-0.00176019,-0.00023270,-0.00113060,-0.008
 83518,0.00791726,0.00066281,0.12937441,-0.17523987,-0.01343975,-0.0001
 8100,-0.00012652,-0.00019693,0.01999015,-0.02428979,-0.00221012,0.0000
 4986,0.00002921,0.00005528,0.00063640,0.00113388,-0.00122647,-0.000025
 84,0.00006165,0.00020461,0.00004889,0.00003163,0.00005964,-0.00016926,
 0.00008428,-0.00018184,-0.00041216,0.00031088,-0.00014489,0.00052114,0
 .00055420,0.00045812,0.00052244,0.00043297,0.00032767,0.00198930,-0.00
 269016,-0.00084914,-0.13777158,0.19479540,-0.00238770,-0.00238383,-0.0
 0142882,-0.01408785,0.01266421,-0.00004616,0.01524366,-0.01412745,-0.0
 4971804,-0.00007445,-0.00048418,-0.00028847,-0.00806718,0.00897994,0.0
 0005479,0.00000384,0.00007510,0.00011313,-0.00143847,0.00056072,0.0009
 2707,0.00017437,0.00033150,0.00021993,0.00016236,0.00012658,0.00019470
 ,0.00027624,-0.00002245,0.00003552,-0.00091212,0.00068574,-0.00001968,
 0.00072866,-0.00016019,0.00041626,0.00049034,0.00063463,0.00048651,0.0
 2233558,-0.02261451,-0.00224470,-0.01377182,0.01496795,0.05126073,0.00
 044040,0.00003243,-0.00009762,0.00047952,-0.00197553,0.00191354,-0.010
 20770,-0.00208843,-0.00583388,0.00002107,-0.00010223,-0.00006717,-0.22
 458132,-0.04605710,-0.11445942,-0.00006075,0.00002633,0.00002003,0.008
 12068,0.00205338,0.00593008,-0.00003611,-0.00003625,-0.00012375,-0.000
 04158,0.00002211,0.00003471,0.00014327,-0.00013092,0.00025387,-0.00007
 242,-0.00012133,0.00005811,-0.00061927,-0.00033316,-0.00050263,0.00004
 270,-0.00004279,-0.00006660,-0.00016194,0.00019806,0.00037592,0.000845
 22,-0.00014681,0.00003922,0.24209516,0.00051719,-0.00044110,0.00043298
 ,-0.00059377,-0.00477626,0.00384377,-0.02627674,-0.00867729,-0.0157661
 8,-0.00007280,0.00005533,-0.00010908,-0.04504417,-0.05975034,-0.031353
 19,0.00005169,-0.00000465,0.00005765,-0.00082463,-0.00061917,-0.000405
 77,0.00004321,0.00001864,0.00013322,-0.00002730,0.00003935,0.00006245,
 0.00001872,0.00033596,-0.00021117,-0.00003017,0.00024217,-0.00010183,-
 0.00154806,-0.00070207,-0.00089139,0.00025735,0.00010227,-0.00008222,0
 .00044894,0.00119905,0.00014902,0.00057577,0.00082981,-0.00074546,0.05
 289210,0.06566367,-0.00007095,0.00021378,-0.00002900,0.00073725,0.0020
 7022,-0.00044204,0.01077960,0.00308971,0.00613287,-0.00001136,-0.00004
 532,0.00002160,-0.11379348,-0.03154408,-0.11984470,0.00000611,0.000013
 80,0.00002677,-0.02713020,-0.00616926,-0.02042315,-0.00001496,-0.00000
 668,0.00002378,0.00000679,-0.00000129,-0.00001510,0.00009226,-0.000103
 68,-0.00007490,0.00001579,-0.00002378,0.00000240,0.00040825,0.00034046
 ,0.00031721,0.00013917,0.00027988,0.00011890,0.00005698,-0.00064480,0.
 00057265,-0.00030898,-0.00055199,0.00022949,0.12254140,0.03158646,0.13
 468967,-0.00098980,0.00004591,-0.00063567,0.00058356,0.00022177,-0.000
 42271,0.00951410,-0.00939480,-0.00227861,-0.00028728,-0.00014232,-0.00
 004415,-0.16088772,0.12603106,0.02496169,0.00002977,-0.00009312,0.0000
 1286,-0.00505560,0.00502549,0.00163586,-0.00020958,-0.00010694,0.00045
 005,-0.00002717,-0.00000609,-0.00003363,-0.00146990,-0.00086840,-0.000
 45126,0.00015166,-0.00008199,0.00010222,0.00009760,0.00025548,0.000131
 02,-0.00005880,-0.00011899,-0.00000005,0.00046976,0.00087676,-0.000349
 60,0.00003265,-0.00299565,0.00066491,-0.01825575,0.01965104,0.00396693
 ,0.17502978,-0.00023558,-0.00034297,-0.00004118,0.00120728,0.00060833,
 0.00002434,0.01950308,-0.02313991,-0.00317085,-0.00030355,0.00005406,-
 0.00019180,0.12460874,-0.18790491,-0.02920547,0.00028298,-0.00000596,0
 .00017560,0.00022382,-0.00031170,-0.00051583,-0.00019705,0.00018921,0.
 00056788,0.00013612,0.00006961,0.00007621,-0.00056209,0.00033321,-0.00
 061142,0.00008056,0.00042275,-0.00011106,-0.00014563,0.00021436,0.0000
 2864,-0.00006856,-0.00000845,0.00003619,0.00002419,0.00107595,0.000098
 19,-0.00288751,-0.00439368,0.00221041,-0.00449060,0.00552043,0.0018213
 9,-0.13701688,0.20591603,-0.00009072,-0.00042640,0.00053413,0.00018688
 ,-0.00082233,-0.00018753,-0.00824393,0.00939207,0.00085235,0.00035379,
 0.00042034,0.00022853,0.02382866,-0.02844151,-0.05249337,-0.00007055,-
 0.00006999,-0.00017897,0.02306359,-0.02534237,-0.00725097,0.00037238,0
 .00009469,-0.00043987,-0.00005878,-0.00005366,-0.00003612,-0.00066488,
 -0.00020264,-0.00039616,0.00013509,0.00002235,-0.00015205,-0.00012536,
 0.00005018,-0.00003047,0.00001109,0.00000017,0.00004545,-0.00044003,-0
 .00033752,0.00025080,0.00133965,0.00242546,-0.00023108,-0.01110185,0.0
 1329356,0.00231961,-0.02926409,0.02963272,0.06096217,0.00013114,0.0006
 1341,-0.00034339,-0.00030029,0.00101275,0.00056726,0.00003822,0.000038
 26,0.00064994,0.00966142,-0.00702717,0.00199179,-0.00002514,-0.0001128
 4,-0.00010844,-0.20348995,0.12345868,-0.04687509,0.00000597,0.00002393
 ,-0.00000772,0.00078127,0.00053253,-0.00060597,0.00048737,-0.00223033,
 0.00193749,0.00007252,-0.00002514,-0.00022105,-0.00001357,0.00001142,0
 .00008190,-0.00046809,-0.00027590,0.00099005,-0.00005097,-0.00025698,0
 .00000208,-0.00014027,-0.00027105,-0.00029207,0.00003011,0.00000964,-0
 .00001715,0.00000774,-0.00002457,0.00000545,-0.00002038,-0.00002253,0.
 00000533,0.21974321,0.00008925,0.00025764,-0.00082365,0.00029757,0.000
 02365,-0.00006951,-0.00008255,0.00010243,0.00037279,0.01938057,-0.0165
 1882,0.00545459,0.00003777,-0.00020255,-0.00022032,0.12303655,-0.14397
 310,0.03616057,0.00005228,0.00014744,0.00000542,0.00019291,0.00071348,
 -0.00078342,-0.00233354,-0.00302440,0.00352835,-0.00005382,0.00005281,
 -0.00000515,-0.00005244,0.00002634,0.00002370,0.00034863,0.00034774,-0
 .00081064,-0.00011171,0.00021423,-0.00015582,-0.00054292,-0.00018042,-
 0.00008000,0.00004177,-0.00001572,-0.00015968,-0.00002883,0.00001414,0
 .00001110,0.00001919,0.00005622,0.00000935,-0.13525620,0.15800313,-0.0
 0098373,0.00004275,0.00055885,0.00032514,0.00021071,-0.00062642,0.0001
 7851,-0.00017441,0.00006089,-0.01630797,0.01189552,-0.00463910,-0.0001
 2716,0.00017671,0.00003218,-0.04583454,0.03587542,-0.06053420,-0.00001
 586,-0.00011508,0.00001053,0.00023120,-0.00081025,0.00082527,0.0016509
 3,0.00302996,-0.00203804,0.00024123,-0.00020366,0.00016717,0.00007054,
 0.00004208,-0.00004473,0.00070786,-0.00084326,-0.00133744,-0.00012589,
 -0.00020527,0.00022024,0.00023014,0.00013827,0.00018599,-0.00002564,0.
 00000261,0.00003836,-0.00003953,-0.00006918,0.00000996,0.00002597,-0.0
 0006664,0.00001748,0.04878686,-0.04164907,0.06374727,0.00029908,0.0000
 5140,-0.00078083,-0.00015459,-0.00022397,0.00005496,0.00001647,-0.0000
 5306,-0.00035380,-0.00758175,-0.00545547,-0.00360509,0.00009369,0.0000
 1580,0.00019727,-0.18261631,-0.10151399,-0.08357596,-0.00006382,-0.000
 02764,-0.00001796,0.00081121,-0.00151103,0.00149623,0.00053270,0.00007
 991,0.00036693,0.00024610,0.00021335,0.00007401,-0.00004608,0.00006635
 ,0.00071844,-0.00029122,0.00024538,-0.00012027,0.00002242,0.00009940,0
 .00003621,0.00025159,0.00004737,0.00015857,-0.00002346,0.00002115,0.00
 008692,0.00001416,0.00003187,-0.00000780,-0.00000673,0.00005481,-0.000
 02748,-0.01740207,-0.01401135,-0.01091976,0.19622923,0.00076003,0.0010
 0319,-0.00136756,-0.00005385,0.00031405,0.00024883,0.00010181,0.000022
 88,0.00003628,-0.01922972,-0.01477957,-0.01091704,0.00009507,-0.000139
 81,-0.00005283,-0.10141163,-0.12378979,-0.06355920,-0.00002826,0.00007
 460,-0.00001897,-0.00086358,-0.00314419,0.00372017,0.00050586,0.000353
 84,-0.00060628,0.00041308,0.00005244,-0.00007269,0.00009948,0.00043448
 ,0.00084343,-0.00020938,-0.00012690,0.00016040,-0.00009141,0.00001995,
 0.00000346,-0.00004963,-0.00011578,0.00000004,0.00000514,0.00003579,0.
 00002646,-0.00002008,0.00001615,0.00000740,0.00002251,0.00010279,-0.00
 005098,0.01412578,0.01180343,0.00938543,0.11453468,0.13507724,0.000863
 73,0.00039590,0.00197606,-0.00003370,-0.00008157,0.00004389,-0.0000044
 1,0.00016035,-0.00003813,0.01625782,0.01140646,0.00880564,0.00000873,0
 .00010225,-0.00001354,-0.08385801,-0.06389872,-0.09861912,0.00003965,-
 0.00004859,0.00002102,0.00178670,0.00357566,-0.00219631,-0.00045703,-0
 .00081759,0.00064782,-0.00027105,-0.00005420,0.00021933,-0.00067888,-0
 .00026007,-0.00008598,-0.00007068,-0.00011500,0.00005213,-0.00002878,-
 0.00004647,0.00002653,0.00000080,0.00005681,-0.00001269,-0.00004162,-0
 .00002655,-0.00001189,0.00002330,-0.00002030,-0.00001117,0.00002155,-0
 .00008917,0.00003299,-0.00389051,-0.00358651,-0.00405645,0.09101334,0.
 06703484,0.10499389,-0.00004602,-0.00171485,0.00025775,0.00024039,0.00
 011483,-0.00003857,0.00009595,-0.00001423,0.00004019,-0.00423650,0.004
 16604,0.00715831,0.00000221,0.00006062,0.00003548,-0.08325811,0.037056
 30,0.08365774,-0.00000724,-0.00005603,0.00001841,-0.00022493,0.0003010
 9,-0.00012647,0.00056575,-0.00011733,-0.00049257,0.00015372,0.00024122
 ,0.00054585,0.00013072,0.00009351,0.00035030,-0.00014489,-0.00030044,-
 0.00004735,-0.00004857,-0.00011633,0.00008571,0.00008851,0.00007682,0.
 00007348,-0.00003116,-0.00000201,0.00000883,-0.00003761,-0.00002127,0.
 00000041,0.00002883,-0.00001612,0.00002584,-0.00904893,0.00896670,0.02
 195385,0.00967088,-0.00869606,-0.02066997,0.08613685,-0.00145253,-0.00
 452628,0.00224983,0.00021022,-0.00077511,-0.00002860,-0.00004688,0.000
 12080,-0.00004255,-0.00952136,0.01057707,0.02372606,0.00005980,-0.0000
 4422,0.00002219,0.03741912,-0.08498948,-0.08823421,0.00001351,0.000051
 12,0.00002278,0.00009114,0.00081004,-0.00090070,0.00052428,0.00123342,
 -0.00059182,-0.00042849,0.00039606,0.00150496,0.00016136,-0.00006039,0
 .00007247,0.00003650,0.00053959,-0.00016138,0.00001729,0.00025557,-0.0
 0012034,-0.00003957,-0.00005808,-0.00006148,-0.00003202,-0.00001115,-0
 .00002973,0.00000166,0.00003389,-0.00001090,0.00001062,0.00003706,0.00
 002251,0.00567016,-0.00784081,-0.01667451,0.00733671,-0.00721599,-0.01
 368726,-0.04002275,0.09148328,0.00120375,0.00459809,-0.00088203,-0.000
 42703,0.00051145,0.00025491,-0.00002259,-0.00005312,-0.00010065,0.0059
 2787,-0.00822209,-0.01631317,-0.00000809,0.00002590,0.00002804,0.08351
 474,-0.08710717,-0.24226144,-0.00002163,-0.00001497,-0.00002034,0.0002
 4157,0.00010057,0.00065046,-0.00070141,-0.00019362,0.00037829,0.000624
 22,-0.00042414,-0.00125088,-0.00006404,0.00004176,0.00043495,-0.000168
 67,-0.00011541,0.00013006,0.00003783,-0.00010878,0.00001516,0.00001090
 ,0.00003885,0.00001885,0.00007917,-0.00000082,0.00002820,0.00005489,0.
 00000380,0.00000288,-0.00002836,-0.00005246,-0.00003466,-0.00262092,0.
 00284127,0.00739820,0.00513917,-0.00485041,-0.01173321,-0.09280833,0.0
 9297090,0.26319192,0.00003221,0.00031017,-0.00017726,-0.00011328,0.000
 16294,0.00021761,0.00020525,0.00059134,-0.00039836,0.00006506,-0.00018
 191,0.00010487,-0.00535898,0.00553097,0.00184155,-0.00005640,0.0000416
 8,0.00001865,-0.14825296,0.12482197,0.02740686,-0.00001498,-0.00001082
 ,-0.00004991,0.00001171,-0.00001520,-0.00002953,0.00023685,-0.00018853
 ,0.00004241,-0.00002830,-0.00007273,0.00004101,0.00002070,-0.00009268,
 -0.00005573,-0.00028083,-0.00002767,-0.00027899,0.00017750,-0.00021044
 ,-0.00012642,-0.00005728,-0.00048439,0.00037379,0.00045455,-0.00041894
 ,0.00016557,0.00089466,-0.00014748,0.00170152,0.00001037,-0.00001328,0
 .00001772,-0.00001232,-0.00001202,0.00000308,-0.00000123,-0.00002338,0
 .00002229,0.15785656,-0.00004932,0.00005247,0.00013526,0.00010267,0.00
 021040,-0.00004810,-0.00102012,0.00116223,0.00043573,-0.00007969,-0.00
 001070,0.00001074,0.00045710,-0.00136495,-0.00063319,-0.00000369,0.000
 00621,0.00000414,0.12495251,-0.20297011,-0.03463362,-0.00002979,-0.000
 00205,0.00001106,-0.00000724,-0.00000374,0.00000241,-0.00000237,-0.000
 00774,-0.00002458,0.00003281,0.00001324,-0.00000977,0.00007661,0.00000
 434,-0.00002991,0.00021043,-0.00001776,-0.00019968,-0.00007363,0.00012
 161,-0.00006550,0.00049982,0.00042158,-0.00031873,-0.00007418,-0.00012
 345,-0.00039823,-0.00079336,0.00112236,-0.00006759,-0.00000108,-0.0000
 0675,0.00000810,0.00000780,0.00000700,0.00000204,0.00000775,-0.0000053
 2,-0.00000780,-0.13843032,0.21800512,-0.00008988,-0.00002152,-0.000083
 46,0.00007184,0.00029986,0.00010622,-0.00011583,-0.00147209,0.00191084
 ,-0.00009398,-0.00011530,-0.00011402,0.02220949,-0.02597103,-0.0068317
 3,0.00005918,0.00002640,0.00008199,0.02719170,-0.03425687,-0.05380212,
 0.00001049,0.00004106,0.00014608,0.00003327,0.00002307,0.00001117,0.00
 000987,-0.00006709,-0.00010599,-0.00002156,0.00005756,0.00001549,0.000
 05520,0.00001657,0.00004385,0.00013385,0.00004107,-0.00006741,-0.00049
 969,-0.00003017,0.00021877,-0.00040038,0.00094747,-0.00006189,-0.00065
 554,-0.00006366,0.00120328,0.00140775,0.00007717,-0.00654629,-0.000003
 85,0.00001160,-0.00001210,0.00001480,0.00003456,-0.00002507,-0.0000072
 6,-0.00000552,0.00000429,-0.03251663,0.03890832,0.06043864,-0.00000103
 ,-0.00048195,0.00035249,-0.00050503,-0.00104595,-0.00034666,0.00011917
 ,-0.00017675,-0.00062316,-0.00000544,0.00012714,0.00002275,0.00866025,
 0.00135952,0.00484403,-0.00000056,-0.00000100,-0.00001513,-0.22623412,
 -0.02477821,-0.12360602,-0.00002089,0.00001660,0.00002281,0.00001585,0
 .00000968,0.00001837,-0.00003727,0.00039341,0.00001327,0.00002455,-0.0
 0001063,-0.00000994,0.00000308,0.00016731,0.00021294,-0.00057557,-0.00
 064859,0.00097827,0.00007950,0.00017892,-0.00013493,-0.00001630,-0.000
 06405,0.00004815,0.00082186,-0.00003628,0.00253135,0.00070259,0.000023
 99,-0.00076873,-0.00000349,0.00000077,-0.00001208,0.00001113,0.0000025
 9,-0.00000299,-0.00000609,0.00001400,-0.00000773,-0.01605352,-0.003341
 65,-0.01037818,0.24496688,-0.00007525,0.00024722,-0.00027601,-0.000385
 80,-0.00010828,0.00054348,0.00069900,-0.00001562,0.00025508,0.00006758
 ,-0.00011153,0.00007259,-0.00122073,-0.00116810,-0.00172836,-0.0000198
 7,0.00001588,0.00000073,-0.02531951,-0.05080876,-0.01737846,-0.0000303
 1,0.00000736,-0.00002500,0.00004221,-0.00002382,-0.00004847,0.00018098
 ,-0.00000607,-0.00007821,-0.00001545,-0.00005941,0.00004276,0.00016914
 ,-0.00000102,-0.00009541,-0.00083537,-0.00128582,0.00059718,-0.0001676
 2,0.00001476,-0.00014941,-0.00001332,0.00002708,0.00004542,0.00022056,
 0.00076043,-0.00049210,-0.00039990,0.00002998,-0.00009587,0.00000901,-
 0.00001325,0.00002385,-0.00000628,0.00000009,0.00000327,0.00000590,-0.
 00001634,0.00000307,0.02083291,0.00351775,0.01516526,0.02909478,0.0516
 9315,0.00021370,0.00031693,-0.00004468,0.00001291,0.00025447,-0.000289
 78,-0.00073328,-0.00055510,0.00084407,-0.00015285,-0.00030988,-0.00007
 853,-0.02771613,-0.00435856,-0.01898845,-0.00002722,0.00012274,0.00014
 862,-0.12259017,-0.01724738,-0.13095479,0.00001325,0.00005016,0.000066
 84,0.00000299,0.00003634,0.00003982,0.00052482,-0.00037395,-0.00009143
 ,-0.00005974,-0.00011516,0.00008761,0.00002694,-0.00002243,0.00038145,
 0.00032614,0.00069985,0.00040366,0.00020369,-0.00001092,0.00019824,0.0
 0008755,0.00002495,-0.00004274,0.00248999,0.00003084,-0.00615734,0.000
 02385,-0.00019116,0.00158742,-0.00001149,-0.00001978,-0.00001439,0.000
 02041,0.00000341,-0.00001970,-0.00003534,-0.00002942,0.00005986,0.0051
 0894,0.00155942,0.00288069,0.13413529,0.01998587,0.14483390,0.00010142
 ,-0.00003500,0.00004649,0.00021567,-0.00010465,-0.00018235,0.00023309,
 0.00086001,0.00109378,-0.00001422,-0.00006348,-0.00002889,-0.00403995,
 -0.00559834,0.00095427,-0.00000102,0.00002674,0.00005769,-0.10355422,-
 0.10399128,0.03443697,0.00002935,-0.00001146,0.00002766,-0.00003722,0.
 00001985,0.00002279,0.00007662,-0.00012308,-0.00001636,-0.00003175,-0.
 00000401,0.00000916,-0.00004043,0.00001960,0.00017368,-0.00009142,0.00
 026927,0.00025881,0.00011656,-0.00048428,0.00010092,0.00008252,-0.0003
 1526,0.00011986,0.00058810,0.00043080,-0.00011558,-0.00026625,-0.00005
 197,-0.00016742,-0.00000618,0.00002270,-0.00002781,-0.00000032,-0.0000
 0042,-0.00001107,-0.00002251,0.00000061,0.00002238,0.01026465,0.017558
 94,-0.00641466,-0.01194556,-0.02283265,0.00813576,0.10834309,0.0000333
 6,-0.00005847,0.00008753,0.00016219,0.00005779,-0.00018493,0.00010271,
 0.00087695,-0.00016112,-0.00002943,0.00003388,-0.00002430,0.00229516,0
 .00293600,-0.00160362,0.00001058,0.00000863,0.00000951,-0.10405016,-0.
 24038381,0.06397214,0.00000854,-0.00002016,-0.00000908,-0.00003569,0.0
 0001490,0.00002181,0.00000521,-0.00001105,0.00001142,-0.00003690,0.000
 00239,-0.00000644,-0.00002886,0.00000344,0.00008574,0.00014848,0.00011
 526,0.00016372,-0.00022501,0.00004688,-0.00006081,-0.00004366,0.000333
 98,-0.00026245,0.00020163,0.00026303,0.00055789,-0.00014137,0.00035525
 ,0.00054745,-0.00000176,0.00001315,-0.00002010,-0.00000318,-0.00000588
 ,-0.00000558,-0.00001336,0.00000526,0.00001517,-0.01196220,-0.02013175
 ,0.00635332,-0.00080366,-0.00269568,0.00014876,0.11440738,0.25824002,0
 .00003306,0.00010381,0.00007316,-0.00056707,-0.00066704,-0.00055326,0.
 00120425,-0.00258856,-0.00656435,-0.00005627,-0.00002269,-0.00003364,0
 .01455235,0.02941782,-0.00886869,-0.00001620,0.00005580,0.00001593,0.0
 3393116,0.06289371,-0.06657112,-0.00001790,0.00007337,0.00002205,0.000
 03792,0.00000189,0.00002148,0.00002080,-0.00008701,-0.00001629,0.00007
 307,-0.00004541,0.00001525,0.00003979,0.00008781,0.00025914,-0.0000812
 4,0.00015232,0.00050093,0.00089866,0.00180264,-0.00086455,-0.00019036,
 -0.00017745,0.00008878,-0.00078710,0.00022566,0.00132633,0.00010348,-0
 .00050169,0.00114659,-0.00002052,-0.00005520,0.00003046,0.00003170,-0.
 00000873,0.00000396,0.00001371,-0.00001327,0.00000032,-0.00343306,-0.0
 0464050,0.00058876,-0.00727414,-0.01637127,0.00514966,-0.03849609,-0.0
 6963603,0.07422910\\-0.00000055,-0.00000084,0.00000181,0.00000004,0.00
 000011,0.00000004,0.00000031,0.00000088,-0.00000167,0.00000102,-0.0000
 0114,0.00000246,-0.00000079,0.00000132,-0.00000237,0.00000283,-0.00000
 152,0.00000288,-0.00000275,0.00000145,-0.00000271,0.00000087,-0.000000
 75,0.00000118,0.00000022,-0.00000163,0.00000341,-0.00000198,-0.0000004
 2,0.00000130,-0.00000108,-0.00000118,0.00000273,0.00000125,-0.00000019
 ,0.00000041,-0.00000110,0.00000026,-0.00000050,0.00000200,0.00000037,-
 0.00000138,0.00000116,0.00000116,-0.00000279,-0.00000021,0.00000163,-0
 .00000345,-0.00000101,0.00000055,-0.00000130,0.00000344,-0.00000096,0.
 00000165,0.00000255,-0.00000198,0.00000378,0.00000385,-0.00000191,0.00
 000331,-0.00000259,0.00000193,-0.00000378,-0.00000368,0.00000101,-0.00
 000164,-0.00000381,0.00000187,-0.00000337\\\@


 The best way to pay for a lovely moment is to enjoy it.
 -- Richard Bach
 Job cpu time:       0 days  5 hours 45 minutes 42.4 seconds.
 Elapsed time:       0 days  2 hours 52 minutes 52.6 seconds.
 File lengths (MBytes):  RWF=   1488 Int=      0 D2E=      0 Chk=     32 Scr=     32
 Normal termination of Gaussian 16 at Sun Sep 29 19:50:56 2019.
 0 days  5 hours 47 minutes 53.4 seconds.
 Elapsed time:       0 days  2 hours 53 minutes 58.2 seconds.
 File lengths (MBytes):  RWF=   1488 Int=      0 D2E=      0 Chk=     32 Scr=     32
 Normal termination of Gaussian 16 at Sun Sep 29 09:34:26 2019.
