 Entering Gaussian System, Link 0=g16
 Input=tight/species/CCCCCCC/conformers/CCCCCCC_424.com
 Output=tight/species/CCCCCCC/conformers/CCCCCCC_424.log
 Initial command:
 /shared/centos7/gaussian/g16/l1.exe "/scratch/harms.n/gauss_scrdir/Gau-22989.inp" -scrdir="/scratch/harms.n/gauss_scrdir/"
 Entering Link 1 = /shared/centos7/gaussian/g16/l1.exe PID=     22990.
  
 Copyright (c) 1988,1990,1992,1993,1995,1998,2003,2009,2016,
            Gaussian, Inc.  All Rights Reserved.
  
 This is part of the Gaussian(R) 16 program.  It is based on
 the Gaussian(R) 09 system (copyright 2009, Gaussian, Inc.),
 the Gaussian(R) 03 system (copyright 2003, Gaussian, Inc.),
 the Gaussian(R) 98 system (copyright 1998, Gaussian, Inc.),
 the Gaussian(R) 94 system (copyright 1995, Gaussian, Inc.),
 the Gaussian 92(TM) system (copyright 1992, Gaussian, Inc.),
 the Gaussian 90(TM) system (copyright 1990, Gaussian, Inc.),
 the Gaussian 88(TM) system (copyright 1988, Gaussian, Inc.),
 the Gaussian 86(TM) system (copyright 1986, Carnegie Mellon
 University), and the Gaussian 82(TM) system (copyright 1983,
 Carnegie Mellon University). Gaussian is a federally registered
 trademark of Gaussian, Inc.
  
 This software contains proprietary and confidential information,
 including trade secrets, belonging to Gaussian, Inc.
  
 This software is provided under written license and may be
 used, copied, transmitted, or stored only in accord with that
 written license.
  
 The following legend is applicable only to US Government
 contracts under FAR:
  
                    RESTRICTED RIGHTS LEGEND
  
 Use, reproduction and disclosure by the US Government is
 subject to restrictions as set forth in subparagraphs (a)
 and (c) of the Commercial Computer Software - Restricted
 Rights clause in FAR 52.227-19.
  
 Gaussian, Inc.
 340 Quinnipiac St., Bldg. 40, Wallingford CT 06492
  
  
 ---------------------------------------------------------------
 Warning -- This program may not be used in any manner that
 competes with the business of Gaussian, Inc. or will provide
 assistance to any competitor of Gaussian, Inc.  The licensee
 of this program is prohibited from giving any competitor of
 Gaussian, Inc. access to this program.  By using this program,
 the user acknowledges that Gaussian, Inc. is engaged in the
 business of creating and licensing software in the field of
 computational chemistry and represents and warrants to the
 licensee that it is not a competitor of Gaussian, Inc. and that
 it will not use this program in any manner prohibited above.
 ---------------------------------------------------------------
  

 Cite this work as:
 Gaussian 16, Revision A.03,
 M. J. Frisch, G. W. Trucks, H. B. Schlegel, G. E. Scuseria, 
 M. A. Robb, J. R. Cheeseman, G. Scalmani, V. Barone, 
 G. A. Petersson, H. Nakatsuji, X. Li, M. Caricato, A. V. Marenich, 
 J. Bloino, B. G. Janesko, R. Gomperts, B. Mennucci, H. P. Hratchian, 
 J. V. Ortiz, A. F. Izmaylov, J. L. Sonnenberg, D. Williams-Young, 
 F. Ding, F. Lipparini, F. Egidi, J. Goings, B. Peng, A. Petrone, 
 T. Henderson, D. Ranasinghe, V. G. Zakrzewski, J. Gao, N. Rega, 
 G. Zheng, W. Liang, M. Hada, M. Ehara, K. Toyota, R. Fukuda, 
 J. Hasegawa, M. Ishida, T. Nakajima, Y. Honda, O. Kitao, H. Nakai, 
 T. Vreven, K. Throssell, J. A. Montgomery, Jr., J. E. Peralta, 
 F. Ogliaro, M. J. Bearpark, J. J. Heyd, E. N. Brothers, K. N. Kudin, 
 V. N. Staroverov, T. A. Keith, R. Kobayashi, J. Normand, 
 K. Raghavachari, A. P. Rendell, J. C. Burant, S. S. Iyengar, 
 J. Tomasi, M. Cossi, J. M. Millam, M. Klene, C. Adamo, R. Cammi, 
 J. W. Ochterski, R. L. Martin, K. Morokuma, O. Farkas, 
 J. B. Foresman, and D. J. Fox, Gaussian, Inc., Wallingford CT, 2016.
 
 ******************************************
 Gaussian 16:  EM64L-G16RevA.03 25-Dec-2016
                29-Sep-2019 
 ******************************************
 %nprocshared=20
 Will use up to   20 processors via shared memory.
 %mem=5GB
 ----------------------------------------------------------------------
 #p m062x/cc-pVTZ opt=(calcfc,maxcycles=900,Tight) freq IOP(7/33=1,2/16
 =3) scf=(maxcycle=900)
 ----------------------------------------------------------------------
 1/6=900,7=10,10=4,18=20,19=15,26=3,38=1/1,3;
 2/9=110,12=2,16=3,17=6,18=5,40=1/2;
 3/5=16,6=1,11=2,25=1,30=1,71=2,74=-55,140=1/1,2,3;
 4//1;
 5/5=2,7=900,38=5/2;
 8/6=4,10=90,11=11/1;
 11/6=1,8=1,9=11,15=111,16=1/1,2,10;
 10/6=1,13=1/2;
 6/7=2,8=2,9=2,10=2,28=1/1;
 7/10=1,18=20,25=1,33=1/1,2,3,16;
 1/6=900,7=10,10=4,18=20,19=15,26=3/3(2);
 2/9=110,16=3/2;
 99//99;
 2/9=110,16=3/2;
 3/5=16,6=1,11=2,25=1,30=1,71=1,74=-55/1,2,3;
 4/5=5,16=3,69=1/1;
 5/5=2,7=900,38=5/2;
 7/33=1/1,2,3,16;
 1/6=900,7=10,18=20,19=15,26=3/3(-5);
 2/9=110,16=3/2;
 6/7=2,8=2,9=2,10=2,19=2,28=1/1;
 99/9=1/99;
 Leave Link    1 at Sun Sep 29 05:53:08 2019, MaxMem=   671088640 cpu:               2.8 elap:               1.4
 (Enter /shared/centos7/gaussian/g16/l101.exe)
 ------------------------------
 Gaussian input prepared by ASE
 ------------------------------
 Symbolic Z-matrix:
 Charge =  0 Multiplicity = 1
 C                     1.34206  -1.16651   0.42968 
 C                     0.16237  -0.3813    0.89201 
 C                    -0.94218  -0.22467  -0.12308 
 C                     2.20704  -0.47885  -0.57229 
 C                    -2.20844  -0.98215   0.2002 
 C                     1.61867  -0.3266   -1.91402 
 C                    -2.0343   -2.47452   0.3117 
 H                     3.17692  -1.04698  -0.64782 
 H                     2.49195   0.52386  -0.17334 
 H                     1.00763  -2.14252   0.01842 
 H                     1.96381  -1.41114   1.31525 
 H                     0.50181   0.61573   1.21354 
 H                    -0.2393   -0.86146   1.80927 
 H                    -0.57996  -0.53524  -1.11779 
 H                    -1.20272   0.85007  -0.21365 
 H                    -2.63247  -0.58944   1.16119 
 H                    -2.96226  -0.7664   -0.57599 
 H                     0.70433  -0.93676  -2.03885 
 H                     1.32249   0.7453   -2.11611 
 H                     2.33235  -0.62418  -2.71126 
 H                    -1.13887  -2.73173   0.87884 
 H                    -1.95049  -2.94375  -0.70744 
 H                    -2.92292  -2.93713   0.82959 
 
 ITRead=  0  0  0  0  0  0  0  0  0  0  0  0  0  0  0  0  0  0  0  0
 ITRead=  0  0  0
 MicOpt= -1 -1 -1 -1 -1 -1 -1 -1 -1 -1 -1 -1 -1 -1 -1 -1 -1 -1 -1 -1
 MicOpt= -1 -1 -1
 NAtoms=     23 NQM=       23 NQMF=       0 NMMI=      0 NMMIF=      0
                NMic=       0 NMicF=      0.
                    Isotopes and Nuclear Properties:
 (Nuclear quadrupole moments (NQMom) in fm**2, nuclear magnetic moments (NMagM)
  in nuclear magnetons)

  Atom         1           2           3           4           5           6           7           8           9          10
 IAtWgt=          12          12          12          12          12          12          12           1           1           1
 AtmWgt=  12.0000000  12.0000000  12.0000000  12.0000000  12.0000000  12.0000000  12.0000000   1.0078250   1.0078250   1.0078250
 NucSpn=           0           0           0           0           0           0           0           1           1           1
 AtZEff=  -0.0000000  -0.0000000  -0.0000000  -0.0000000  -0.0000000  -0.0000000  -0.0000000  -0.0000000  -0.0000000  -0.0000000
 NQMom=    0.0000000   0.0000000   0.0000000   0.0000000   0.0000000   0.0000000   0.0000000   0.0000000   0.0000000   0.0000000
 NMagM=    0.0000000   0.0000000   0.0000000   0.0000000   0.0000000   0.0000000   0.0000000   2.7928460   2.7928460   2.7928460
 AtZNuc=   6.0000000   6.0000000   6.0000000   6.0000000   6.0000000   6.0000000   6.0000000   1.0000000   1.0000000   1.0000000

  Atom        11          12          13          14          15          16          17          18          19          20
 IAtWgt=           1           1           1           1           1           1           1           1           1           1
 AtmWgt=   1.0078250   1.0078250   1.0078250   1.0078250   1.0078250   1.0078250   1.0078250   1.0078250   1.0078250   1.0078250
 NucSpn=           1           1           1           1           1           1           1           1           1           1
 AtZEff=  -0.0000000  -0.0000000  -0.0000000  -0.0000000  -0.0000000  -0.0000000  -0.0000000  -0.0000000  -0.0000000  -0.0000000
 NQMom=    0.0000000   0.0000000   0.0000000   0.0000000   0.0000000   0.0000000   0.0000000   0.0000000   0.0000000   0.0000000
 NMagM=    2.7928460   2.7928460   2.7928460   2.7928460   2.7928460   2.7928460   2.7928460   2.7928460   2.7928460   2.7928460
 AtZNuc=   1.0000000   1.0000000   1.0000000   1.0000000   1.0000000   1.0000000   1.0000000   1.0000000   1.0000000   1.0000000

  Atom        21          22          23
 IAtWgt=           1           1           1
 AtmWgt=   1.0078250   1.0078250   1.0078250
 NucSpn=           1           1           1
 AtZEff=  -0.0000000  -0.0000000  -0.0000000
 NQMom=    0.0000000   0.0000000   0.0000000
 NMagM=    2.7928460   2.7928460   2.7928460
 AtZNuc=   1.0000000   1.0000000   1.0000000
 Leave Link  101 at Sun Sep 29 05:53:10 2019, MaxMem=   671088640 cpu:               4.8 elap:               2.4
 (Enter /shared/centos7/gaussian/g16/l103.exe)

 GradGradGradGradGradGradGradGradGradGradGradGradGradGradGradGradGradGrad
 Berny optimization.
 Initialization pass.
                           ----------------------------
                           !    Initial Parameters    !
                           ! (Angstroms and Degrees)  !
 --------------------------                            --------------------------
 ! Name  Definition              Value          Derivative Info.                !
 --------------------------------------------------------------------------------
 ! R1    R(1,2)                  1.4906         calculate D2E/DX2 analytically  !
 ! R2    R(1,4)                  1.4917         calculate D2E/DX2 analytically  !
 ! R3    R(1,10)                 1.1107         calculate D2E/DX2 analytically  !
 ! R4    R(1,11)                 1.1093         calculate D2E/DX2 analytically  !
 ! R5    R(2,3)                  1.5083         calculate D2E/DX2 analytically  !
 ! R6    R(2,12)                 1.1012         calculate D2E/DX2 analytically  !
 ! R7    R(2,13)                 1.1105         calculate D2E/DX2 analytically  !
 ! R8    R(3,5)                  1.5105         calculate D2E/DX2 analytically  !
 ! R9    R(3,14)                 1.1032         calculate D2E/DX2 analytically  !
 ! R10   R(3,15)                 1.1096         calculate D2E/DX2 analytically  !
 ! R11   R(4,6)                  1.473          calculate D2E/DX2 analytically  !
 ! R12   R(4,8)                  1.1266         calculate D2E/DX2 analytically  !
 ! R13   R(4,9)                  1.1161         calculate D2E/DX2 analytically  !
 ! R14   R(5,7)                  1.5066         calculate D2E/DX2 analytically  !
 ! R15   R(5,16)                 1.1214         calculate D2E/DX2 analytically  !
 ! R16   R(5,17)                 1.1033         calculate D2E/DX2 analytically  !
 ! R17   R(6,18)                 1.1063         calculate D2E/DX2 analytically  !
 ! R18   R(6,19)                 1.1303         calculate D2E/DX2 analytically  !
 ! R19   R(6,20)                 1.1106         calculate D2E/DX2 analytically  !
 ! R20   R(7,21)                 1.0907         calculate D2E/DX2 analytically  !
 ! R21   R(7,22)                 1.1251         calculate D2E/DX2 analytically  !
 ! R22   R(7,23)                 1.1278         calculate D2E/DX2 analytically  !
 ! A1    A(2,1,4)              115.1138         calculate D2E/DX2 analytically  !
 ! A2    A(2,1,10)             109.8432         calculate D2E/DX2 analytically  !
 ! A3    A(2,1,11)             108.187          calculate D2E/DX2 analytically  !
 ! A4    A(4,1,10)             109.3293         calculate D2E/DX2 analytically  !
 ! A5    A(4,1,11)             108.2328         calculate D2E/DX2 analytically  !
 ! A6    A(10,1,11)            105.6983         calculate D2E/DX2 analytically  !
 ! A7    A(1,2,3)              115.184          calculate D2E/DX2 analytically  !
 ! A8    A(1,2,12)             108.8774         calculate D2E/DX2 analytically  !
 ! A9    A(1,2,13)             108.341          calculate D2E/DX2 analytically  !
 ! A10   A(3,2,12)             109.1598         calculate D2E/DX2 analytically  !
 ! A11   A(3,2,13)             109.6275         calculate D2E/DX2 analytically  !
 ! A12   A(12,2,13)            105.1766         calculate D2E/DX2 analytically  !
 ! A13   A(2,3,5)              114.6946         calculate D2E/DX2 analytically  !
 ! A14   A(2,3,14)             109.7021         calculate D2E/DX2 analytically  !
 ! A15   A(2,3,15)             109.116          calculate D2E/DX2 analytically  !
 ! A16   A(5,3,14)             109.0886         calculate D2E/DX2 analytically  !
 ! A17   A(5,3,15)             107.8397         calculate D2E/DX2 analytically  !
 ! A18   A(14,3,15)            106.0317         calculate D2E/DX2 analytically  !
 ! A19   A(1,4,6)              115.3338         calculate D2E/DX2 analytically  !
 ! A20   A(1,4,8)              108.1659         calculate D2E/DX2 analytically  !
 ! A21   A(1,4,9)              108.7889         calculate D2E/DX2 analytically  !
 ! A22   A(6,4,8)              109.5697         calculate D2E/DX2 analytically  !
 ! A23   A(6,4,9)              109.5544         calculate D2E/DX2 analytically  !
 ! A24   A(8,4,9)              104.9078         calculate D2E/DX2 analytically  !
 ! A25   A(3,5,7)              114.5612         calculate D2E/DX2 analytically  !
 ! A26   A(3,5,16)             108.9519         calculate D2E/DX2 analytically  !
 ! A27   A(3,5,17)             108.9125         calculate D2E/DX2 analytically  !
 ! A28   A(7,5,16)             109.0971         calculate D2E/DX2 analytically  !
 ! A29   A(7,5,17)             108.9499         calculate D2E/DX2 analytically  !
 ! A30   A(16,5,17)            106.0246         calculate D2E/DX2 analytically  !
 ! A31   A(4,6,18)             112.0817         calculate D2E/DX2 analytically  !
 ! A32   A(4,6,19)             111.4422         calculate D2E/DX2 analytically  !
 ! A33   A(4,6,20)             111.6845         calculate D2E/DX2 analytically  !
 ! A34   A(18,6,19)            106.6364         calculate D2E/DX2 analytically  !
 ! A35   A(18,6,20)            107.5969         calculate D2E/DX2 analytically  !
 ! A36   A(19,6,20)            107.1057         calculate D2E/DX2 analytically  !
 ! A37   A(5,7,21)             111.529          calculate D2E/DX2 analytically  !
 ! A38   A(5,7,22)             110.774          calculate D2E/DX2 analytically  !
 ! A39   A(5,7,23)             110.4401         calculate D2E/DX2 analytically  !
 ! A40   A(21,7,22)            108.15           calculate D2E/DX2 analytically  !
 ! A41   A(21,7,23)            108.1415         calculate D2E/DX2 analytically  !
 ! A42   A(22,7,23)            107.6728         calculate D2E/DX2 analytically  !
 ! D1    D(4,1,2,3)             71.8028         calculate D2E/DX2 analytically  !
 ! D2    D(4,1,2,12)           -51.159          calculate D2E/DX2 analytically  !
 ! D3    D(4,1,2,13)          -165.0401         calculate D2E/DX2 analytically  !
 ! D4    D(10,1,2,3)           -52.0996         calculate D2E/DX2 analytically  !
 ! D5    D(10,1,2,12)         -175.0614         calculate D2E/DX2 analytically  !
 ! D6    D(10,1,2,13)           71.0574         calculate D2E/DX2 analytically  !
 ! D7    D(11,1,2,3)          -167.0186         calculate D2E/DX2 analytically  !
 ! D8    D(11,1,2,12)           70.0196         calculate D2E/DX2 analytically  !
 ! D9    D(11,1,2,13)          -43.8616         calculate D2E/DX2 analytically  !
 ! D10   D(2,1,4,6)            -70.762          calculate D2E/DX2 analytically  !
 ! D11   D(2,1,4,8)            166.1878         calculate D2E/DX2 analytically  !
 ! D12   D(2,1,4,9)             52.7575         calculate D2E/DX2 analytically  !
 ! D13   D(10,1,4,6)            53.4112         calculate D2E/DX2 analytically  !
 ! D14   D(10,1,4,8)           -69.6391         calculate D2E/DX2 analytically  !
 ! D15   D(10,1,4,9)           176.9307         calculate D2E/DX2 analytically  !
 ! D16   D(11,1,4,6)           168.0844         calculate D2E/DX2 analytically  !
 ! D17   D(11,1,4,8)            45.0341         calculate D2E/DX2 analytically  !
 ! D18   D(11,1,4,9)           -68.3961         calculate D2E/DX2 analytically  !
 ! D19   D(1,2,3,5)            110.4953         calculate D2E/DX2 analytically  !
 ! D20   D(1,2,3,14)           -12.6657         calculate D2E/DX2 analytically  !
 ! D21   D(1,2,3,15)          -128.4239         calculate D2E/DX2 analytically  !
 ! D22   D(12,2,3,5)          -126.6934         calculate D2E/DX2 analytically  !
 ! D23   D(12,2,3,14)          110.1456         calculate D2E/DX2 analytically  !
 ! D24   D(12,2,3,15)           -5.6126         calculate D2E/DX2 analytically  !
 ! D25   D(13,2,3,5)           -11.9754         calculate D2E/DX2 analytically  !
 ! D26   D(13,2,3,14)         -135.1364         calculate D2E/DX2 analytically  !
 ! D27   D(13,2,3,15)          109.1054         calculate D2E/DX2 analytically  !
 ! D28   D(2,3,5,7)            -60.1754         calculate D2E/DX2 analytically  !
 ! D29   D(2,3,5,16)            62.3226         calculate D2E/DX2 analytically  !
 ! D30   D(2,3,5,17)           177.548          calculate D2E/DX2 analytically  !
 ! D31   D(14,3,5,7)            63.3141         calculate D2E/DX2 analytically  !
 ! D32   D(14,3,5,16)         -174.1879         calculate D2E/DX2 analytically  !
 ! D33   D(14,3,5,17)          -58.9626         calculate D2E/DX2 analytically  !
 ! D34   D(15,3,5,7)           178.0459         calculate D2E/DX2 analytically  !
 ! D35   D(15,3,5,16)          -59.4561         calculate D2E/DX2 analytically  !
 ! D36   D(15,3,5,17)           55.7693         calculate D2E/DX2 analytically  !
 ! D37   D(1,4,6,18)           -12.2126         calculate D2E/DX2 analytically  !
 ! D38   D(1,4,6,19)           107.2112         calculate D2E/DX2 analytically  !
 ! D39   D(1,4,6,20)          -133.037          calculate D2E/DX2 analytically  !
 ! D40   D(8,4,6,18)           110.0897         calculate D2E/DX2 analytically  !
 ! D41   D(8,4,6,19)          -130.4866         calculate D2E/DX2 analytically  !
 ! D42   D(8,4,6,20)           -10.7348         calculate D2E/DX2 analytically  !
 ! D43   D(9,4,6,18)          -135.3272         calculate D2E/DX2 analytically  !
 ! D44   D(9,4,6,19)           -15.9034         calculate D2E/DX2 analytically  !
 ! D45   D(9,4,6,20)           103.8483         calculate D2E/DX2 analytically  !
 ! D46   D(3,5,7,21)            43.7459         calculate D2E/DX2 analytically  !
 ! D47   D(3,5,7,22)           -76.7719         calculate D2E/DX2 analytically  !
 ! D48   D(3,5,7,23)           164.0264         calculate D2E/DX2 analytically  !
 ! D49   D(16,5,7,21)          -78.6734         calculate D2E/DX2 analytically  !
 ! D50   D(16,5,7,22)          160.8088         calculate D2E/DX2 analytically  !
 ! D51   D(16,5,7,23)           41.6071         calculate D2E/DX2 analytically  !
 ! D52   D(17,5,7,21)          166.0022         calculate D2E/DX2 analytically  !
 ! D53   D(17,5,7,22)           45.4844         calculate D2E/DX2 analytically  !
 ! D54   D(17,5,7,23)          -73.7173         calculate D2E/DX2 analytically  !
 --------------------------------------------------------------------------------
 Trust Radius=3.00D-01 FncErr=1.00D-07 GrdErr=1.00D-06 EigMax=2.50D+02 EigMin=1.00D-04
 Number of steps in this run=    138 maximum allowed number of steps=    138.
 GradGradGradGradGradGradGradGradGradGradGradGradGradGradGradGradGradGrad

 Leave Link  103 at Sun Sep 29 05:53:11 2019, MaxMem=   671088640 cpu:               2.0 elap:               1.0
 (Enter /shared/centos7/gaussian/g16/l202.exe)
                          Input orientation:                          
 ---------------------------------------------------------------------
 Center     Atomic      Atomic             Coordinates (Angstroms)
 Number     Number       Type             X           Y           Z
 ---------------------------------------------------------------------
      1          6           0        1.342061   -1.166512    0.429683
      2          6           0        0.162374   -0.381304    0.892013
      3          6           0       -0.942181   -0.224666   -0.123075
      4          6           0        2.207042   -0.478847   -0.572291
      5          6           0       -2.208441   -0.982149    0.200204
      6          6           0        1.618666   -0.326604   -1.914015
      7          6           0       -2.034295   -2.474518    0.311704
      8          1           0        3.176916   -1.046981   -0.647816
      9          1           0        2.491946    0.523863   -0.173344
     10          1           0        1.007630   -2.142522    0.018420
     11          1           0        1.963809   -1.411139    1.315251
     12          1           0        0.501815    0.615733    1.213542
     13          1           0       -0.239299   -0.861464    1.809270
     14          1           0       -0.579961   -0.535238   -1.117794
     15          1           0       -1.202720    0.850071   -0.213646
     16          1           0       -2.632475   -0.589440    1.161190
     17          1           0       -2.962258   -0.766395   -0.575986
     18          1           0        0.704334   -0.936759   -2.038855
     19          1           0        1.322488    0.745298   -2.116108
     20          1           0        2.332352   -0.624180   -2.711256
     21          1           0       -1.138875   -2.731730    0.878839
     22          1           0       -1.950488   -2.943751   -0.707441
     23          1           0       -2.922924   -2.937134    0.829594
 ---------------------------------------------------------------------
                    Distance matrix (angstroms):
                    1          2          3          4          5
     1  C    0.000000
     2  C    1.490625   0.000000
     3  C    2.531873   1.508304   0.000000
     4  C    1.491652   2.516817   3.191239   0.000000
     5  C    3.562685   2.541728   1.510531   4.510715   0.000000
     6  C    2.504970   3.161894   3.126627   1.472952   4.421133
     7  C    3.622787   3.089281   2.538420   4.770020   1.506627
     8  H    2.131192   3.449878   4.233027   1.126559   5.452101
     9  H    2.131488   2.716840   3.515118   1.116134   4.949874
    10  H    1.110665   2.139979   2.738605   2.134325   3.423832
    11  H    1.109344   2.117748   3.452721   2.119233   4.339935
    12  H    2.120578   1.101220   2.139613   2.700945   3.305385
    13  H    2.120617   1.110520   2.152560   3.435522   2.545817
    14  H    2.547030   2.148041   1.103233   2.840447   2.142147
    15  H    3.310045   2.145286   1.109570   3.677109   2.130675
    16  H    4.082286   2.815485   2.153948   5.141800   1.121392
    17  H    4.438314   3.473707   2.139932   5.177293   1.103295
    18  H    2.559914   3.031870   2.624557   2.149099   3.674194
    19  H    3.183780   3.415244   3.168870   2.159708   4.562547
    20  H    3.337708   4.213234   4.192954   2.147556   5.405880
    21  H    2.967607   2.686619   2.707007   4.286772   2.159990
    22  H    3.910564   3.686268   2.958308   4.835191   2.176750
    23  H    4.635205   4.006897   3.491188   5.858754   2.174531
                    6          7          8          9         10
     6  C    0.000000
     7  C    4.786595   0.000000
     8  H    2.133154   5.487737   0.000000
     9  H    2.125052   5.450910   1.778161   0.000000
    10  H    2.721256   3.074011   2.519897   3.057707   0.000000
    11  H    3.423960   4.257079   2.336209   2.497814   1.769455
    12  H    3.452097   4.098148   3.658611   2.427451   3.048301
    13  H    4.195351   2.840186   4.212150   3.648231   2.530432
    14  H    2.347650   2.814135   3.820587   3.383828   2.528792
    15  H    3.498005   3.467045   4.792549   3.709258   3.727616
    16  H    5.253396   2.152433   6.101710   5.411110   4.119266
    17  H    4.792558   2.137005   6.146002   5.619184   4.243472
    18  H    1.106291   3.922998   2.839155   2.968014   2.403796
    19  H    1.130281   5.246854   2.967667   2.278377   3.604837
    20  H    1.110627   5.624024   2.269325   2.790067   3.392843
    21  H    4.603118   1.090678   4.878022   4.988871   2.386413
    22  H    4.587390   1.125104   5.467317   5.660815   3.149493
    23  H    5.913400   1.127778   6.554651   6.504244   4.091291
                   11         12         13         14         15
    11  H    0.000000
    12  H    2.501196   0.000000
    13  H    2.323764   1.756774   0.000000
    14  H    3.627351   2.816044   2.964824   0.000000
    15  H    4.180611   2.235446   2.819526   1.767596   0.000000
    16  H    4.671696   3.358415   2.494253   3.067494   2.450829
    17  H    5.315883   4.136725   3.621187   2.454043   2.416656
    18  H    3.614048   3.609617   3.962850   1.630639   3.187633
    19  H    4.103138   3.431744   4.519896   2.501143   3.163387
    20  H    4.119210   4.504697   5.206232   3.320934   4.572550
    21  H    3.400156   3.742914   2.274387   3.020514   3.745251
    22  H    4.664966   4.730105   3.687536   2.801369   3.898214
    23  H    5.142439   4.949658   3.531290   3.879548   4.288399
                   16         17         18         19         20
    16  H    0.000000
    17  H    1.777035   0.000000
    18  H    4.636293   3.951317   0.000000
    19  H    5.306971   4.797524   1.793711   0.000000
    20  H    6.296551   5.710736   1.788931   1.802636   0.000000
    21  H    2.626780   3.050211   3.890022   5.207469   5.420328
    22  H    3.082154   2.404545   3.584516   5.128917   5.266726
    23  H    2.388720   2.586370   5.038501   6.345154   6.745761
                   21         22         23
    21  H    0.000000
    22  H    1.794423   0.000000
    23  H    1.796510   1.818832   0.000000
 Stoichiometry    C7H16
 Framework group  C1[X(C7H16)]
 Deg. of freedom    63
 Full point group                 C1      NOp   1
 Largest Abelian subgroup         C1      NOp   1
 Largest concise Abelian subgroup C1      NOp   1
                         Standard orientation:                         
 ---------------------------------------------------------------------
 Center     Atomic      Atomic             Coordinates (Angstroms)
 Number     Number       Type             X           Y           Z
 ---------------------------------------------------------------------
      1          6           0       -0.986006   -1.042865    0.326395
      2          6           0        0.027871   -0.868785   -0.752361
      3          6           0        0.710640    0.475839   -0.780542
      4          6           0       -2.252176   -0.277978    0.134600
      5          6           0        2.168568    0.451694   -0.386122
      6          6           0       -2.137884    1.181380    0.298308
      7          6           0        2.431732   -0.053781    1.008570
      8          1           0       -3.018054   -0.679834    0.856457
      9          1           0       -2.662190   -0.509396   -0.877373
     10          1           0       -0.540946   -0.776774    1.308583
     11          1           0       -1.238560   -2.120992    0.393496
     12          1           0       -0.453233   -1.050321   -1.726152
     13          1           0        0.788563   -1.671333   -0.649797
     14          1           0        0.171235    1.180678   -0.125282
     15          1           0        0.642574    0.896525   -1.805011
     16          1           0        2.733609   -0.181973   -1.118730
     17          1           0        2.581892    1.470135   -0.482042
     18          1           0       -1.172066    1.474704    0.751117
     19          1           0       -2.204603    1.715155   -0.695758
     20          1           0       -2.947276    1.586782    0.941757
     21          1           0        1.838511   -0.941552    1.231124
     22          1           0        2.183228    0.734278    1.772158
     23          1           0        3.520844   -0.319099    1.132368
 ---------------------------------------------------------------------
 Rotational constants (GHZ):           4.2602737           1.3282140           1.2675150
 Leave Link  202 at Sun Sep 29 05:53:14 2019, MaxMem=   671088640 cpu:               4.4 elap:               2.5
 (Enter /shared/centos7/gaussian/g16/l301.exe)
 Standard basis: CC-pVTZ (5D, 7F)
 Ernie: Thresh=  0.10000D-02 Tol=  0.10000D-05 Strict=F.
 Ernie:  21 primitive shells out of 310 were deleted.
 There are   485 symmetry adapted cartesian basis functions of A   symmetry.
 There are   434 symmetry adapted basis functions of A   symmetry.
   434 basis functions,   636 primitive gaussians,   485 cartesian basis functions
    29 alpha electrons       29 beta electrons
       nuclear repulsion energy       331.0764553634 Hartrees.
 IExCor= 4336 DFT=T Ex+Corr=M062X ExCW=0 ScaHFX=  0.540000
 ScaDFX=  1.000000  1.000000  1.000000  1.000000 ScalE2=  1.000000  1.000000
 IRadAn=      5 IRanWt=     -1 IRanGd=            0 ICorTp=0 IEmpDi=  4
 NAtoms=   23 NActive=   23 NUniq=   23 SFac= 1.00D+00 NAtFMM=   60 NAOKFM=F Big=F
 Integral buffers will be    131072 words long.
 Raffenetti 2 integral format.
 Two-electron integral symmetry is turned on.
 Leave Link  301 at Sun Sep 29 05:53:15 2019, MaxMem=   671088640 cpu:               2.4 elap:               1.2
 (Enter /shared/centos7/gaussian/g16/l302.exe)
 NPDir=0 NMtPBC=     1 NCelOv=     1 NCel=       1 NClECP=     1 NCelD=      1
         NCelK=      1 NCelE2=     1 NClLst=     1 CellRange=     0.0.
 One-electron integrals computed using PRISM.
 One-electron integral symmetry used in STVInt
 NBasis=   434 RedAO= T EigKep=  2.96D-04  NBF=   434
 NBsUse=   434 1.00D-06 EigRej= -1.00D+00 NBFU=   434
 Precomputing XC quadrature grid using
 IXCGrd= 4 IRadAn=           5 IRanWt=          -1 IRanGd=           0 AccXCQ= 0.00D+00.
 Generated NRdTot=       0 NPtTot=           0 NUsed=           0 NTot=          32
 NSgBfM=   485   485   485   485   485 MxSgAt=    23 MxSgA2=    23.
 Leave Link  302 at Sun Sep 29 05:55:34 2019, MaxMem=   671088640 cpu:             276.6 elap:             138.9
 (Enter /shared/centos7/gaussian/g16/l303.exe)
 DipDrv:  MaxL=1.
 Leave Link  303 at Sun Sep 29 05:55:39 2019, MaxMem=   671088640 cpu:               9.4 elap:               4.7
 (Enter /shared/centos7/gaussian/g16/l401.exe)
 ExpMin= 1.03D-01 ExpMax= 8.24D+03 ExpMxC= 2.81D+02 IAcc=3 IRadAn=         5 AccDes= 0.00D+00
 Harris functional with IExCor= 1009 and IRadAn=       5 diagonalized for initial guess.
 HarFok:  IExCor= 1009 AccDes= 0.00D+00 IRadAn=         5 IDoV= 1 UseB2=F ITyADJ=14
 ICtDFT=  3500011 ScaDFX=  1.000000  1.000000  1.000000  1.000000
 FoFCou: FMM=F IPFlag=           0 FMFlag=      100000 FMFlg1=           0
         NFxFlg=           0 DoJE=T BraDBF=F KetDBF=T FulRan=T
         wScrn=  0.000000 ICntrl=       500 IOpCl=  0 I1Cent=   200000004 NGrid=           0
         NMat0=    1 NMatS0=      1 NMatT0=    0 NMatD0=    1 NMtDS0=    0 NMtDT0=    0
 Petite list used in FoFCou.
 Harris En= -276.319245378531    
 JPrj=0 DoOrth=F DoCkMO=F.
 Leave Link  401 at Sun Sep 29 05:56:30 2019, MaxMem=   671088640 cpu:             103.1 elap:              51.6
 (Enter /shared/centos7/gaussian/g16/l502.exe)
 Integral symmetry usage will be decided dynamically.
 Closed shell SCF:
 Using DIIS extrapolation, IDIIS=  1040.
 NGot=   671088640 LenX=   670604095 LenY=   670368385
 Requested convergence on RMS density matrix=1.00D-08 within 900 cycles.
 Requested convergence on MAX density matrix=1.00D-06.
 Requested convergence on             energy=1.00D-06.
 No special actions if energy rises.
 Fock matrices will be formed incrementally for  20 cycles.
 Integral accuracy reduced to 1.0D-05 until final iterations.

 Cycle   1  Pass 0  IDiag  1:
 FoFJK:  IHMeth= 1 ICntrl=       0 DoSepK=F KAlg= 0 I1Cent=           0 FoldK=F
 IRaf= 950000000 NMat=       1 IRICut=       1 DoRegI=T DoRafI=F ISym2E= 0 IDoP0=0 IntGTp=1.
 FoFCou: FMM=F IPFlag=           0 FMFlag=      100000 FMFlg1=           0
         NFxFlg=           0 DoJE=F BraDBF=F KetDBF=F FulRan=T
         wScrn=  0.000000 ICntrl=         0 IOpCl=  0 I1Cent=           0 NGrid=           0
         NMat0=    1 NMatS0=      1 NMatT0=    0 NMatD0=    1 NMtDS0=    0 NMtDT0=    0
 Symmetry not used in FoFCou.
 E= -275.950177083402    
 DIIS: error= 2.78D-02 at cycle   1 NSaved=   1.
 NSaved= 1 IEnMin= 1 EnMin= -275.950177083402     IErMin= 1 ErrMin= 2.78D-02
 ErrMax= 2.78D-02  0.00D+00 EMaxC= 1.00D-01 BMatC= 3.77D-01 BMatP= 3.77D-01
 IDIUse=3 WtCom= 7.22D-01 WtEn= 2.78D-01
 Coeff-Com:  0.100D+01
 Coeff-En:   0.100D+01
 Coeff:      0.100D+01
 Gap=     0.349 Goal=   None    Shift=    0.000
 GapD=    0.349 DampG=1.000 DampE=0.500 DampFc=0.5000 IDamp=-1.
 Damping current iteration by 5.00D-01
 RMSDP=1.92D-03 MaxDP=6.84D-02              OVMax= 1.65D-01

 Cycle   2  Pass 0  IDiag  1:
 RMSU=  9.60D-04    CP:  9.90D-01
 E= -276.128008951827     Delta-E=       -0.177831868426 Rises=F Damp=T
 DIIS: error= 4.19D-03 at cycle   2 NSaved=   2.
 NSaved= 2 IEnMin= 2 EnMin= -276.128008951827     IErMin= 2 ErrMin= 4.19D-03
 ErrMax= 4.19D-03  0.00D+00 EMaxC= 1.00D-01 BMatC= 1.92D-02 BMatP= 3.77D-01
 IDIUse=3 WtCom= 9.58D-01 WtEn= 4.19D-02
 Coeff-Com: -0.433D-01 0.104D+01
 Coeff-En:   0.000D+00 0.100D+01
 Coeff:     -0.415D-01 0.104D+01
 Gap=     0.436 Goal=   None    Shift=    0.000
 RMSDP=5.57D-04 MaxDP=2.42D-02 DE=-1.78D-01 OVMax= 9.42D-02

 Cycle   3  Pass 0  IDiag  1:
 RMSU=  5.50D-04    CP:  9.98D-01  9.28D-01
 E= -276.309057553035     Delta-E=       -0.181048601207 Rises=F Damp=F
 DIIS: error= 2.70D-03 at cycle   3 NSaved=   3.
 NSaved= 3 IEnMin= 3 EnMin= -276.309057553035     IErMin= 3 ErrMin= 2.70D-03
 ErrMax= 2.70D-03  0.00D+00 EMaxC= 1.00D-01 BMatC= 3.21D-03 BMatP= 1.92D-02
 IDIUse=3 WtCom= 9.73D-01 WtEn= 2.70D-02
 Coeff-Com: -0.519D-01 0.260D+00 0.792D+00
 Coeff-En:   0.000D+00 0.000D+00 0.100D+01
 Coeff:     -0.505D-01 0.253D+00 0.797D+00
 Gap=     0.411 Goal=   None    Shift=    0.000
 RMSDP=1.08D-04 MaxDP=3.38D-03 DE=-1.81D-01 OVMax= 1.14D-02

 Cycle   4  Pass 0  IDiag  1:
 RMSU=  8.37D-05    CP:  9.97D-01  9.74D-01  9.07D-01
 E= -276.311887244328     Delta-E=       -0.002829691293 Rises=F Damp=F
 DIIS: error= 7.53D-04 at cycle   4 NSaved=   4.
 NSaved= 4 IEnMin= 4 EnMin= -276.311887244328     IErMin= 4 ErrMin= 7.53D-04
 ErrMax= 7.53D-04  0.00D+00 EMaxC= 1.00D-01 BMatC= 2.61D-04 BMatP= 3.21D-03
 IDIUse=3 WtCom= 9.92D-01 WtEn= 7.53D-03
 Coeff-Com: -0.128D-01 0.346D-01 0.256D+00 0.722D+00
 Coeff-En:   0.000D+00 0.000D+00 0.000D+00 0.100D+01
 Coeff:     -0.127D-01 0.343D-01 0.254D+00 0.724D+00
 Gap=     0.413 Goal=   None    Shift=    0.000
 RMSDP=3.33D-05 MaxDP=1.07D-03 DE=-2.83D-03 OVMax= 2.94D-03

 Cycle   5  Pass 0  IDiag  1:
 RMSU=  1.90D-05    CP:  9.97D-01  9.69D-01  9.42D-01  7.75D-01
 E= -276.312130133176     Delta-E=       -0.000242888849 Rises=F Damp=F
 DIIS: error= 1.59D-04 at cycle   5 NSaved=   5.
 NSaved= 5 IEnMin= 5 EnMin= -276.312130133176     IErMin= 5 ErrMin= 1.59D-04
 ErrMax= 1.59D-04  0.00D+00 EMaxC= 1.00D-01 BMatC= 1.81D-05 BMatP= 2.61D-04
 IDIUse=3 WtCom= 9.98D-01 WtEn= 1.59D-03
 Coeff-Com: -0.185D-02 0.134D-02 0.554D-01 0.268D+00 0.677D+00
 Coeff-En:   0.000D+00 0.000D+00 0.000D+00 0.000D+00 0.100D+01
 Coeff:     -0.185D-02 0.134D-02 0.553D-01 0.267D+00 0.678D+00
 Gap=     0.412 Goal=   None    Shift=    0.000
 RMSDP=6.94D-06 MaxDP=2.99D-04 DE=-2.43D-04 OVMax= 7.73D-04

 Initial convergence to 1.0D-05 achieved.  Increase integral accuracy.
 Cycle   6  Pass 1  IDiag  1:
 E= -276.312091039855     Delta-E=        0.000039093321 Rises=F Damp=F
 DIIS: error= 3.47D-05 at cycle   1 NSaved=   1.
 NSaved= 1 IEnMin= 1 EnMin= -276.312091039855     IErMin= 1 ErrMin= 3.47D-05
 ErrMax= 3.47D-05  0.00D+00 EMaxC= 1.00D-01 BMatC= 1.65D-06 BMatP= 1.65D-06
 IDIUse=1 WtCom= 1.00D+00 WtEn= 0.00D+00
 Coeff-Com:  0.100D+01
 Coeff:      0.100D+01
 Gap=     0.412 Goal=   None    Shift=    0.000
 RMSDP=6.94D-06 MaxDP=2.99D-04 DE= 3.91D-05 OVMax= 2.83D-04

 Cycle   7  Pass 1  IDiag  1:
 RMSU=  8.78D-06    CP:  1.00D+00
 E= -276.312091734419     Delta-E=       -0.000000694564 Rises=F Damp=F
 DIIS: error= 3.26D-05 at cycle   2 NSaved=   2.
 NSaved= 2 IEnMin= 2 EnMin= -276.312091734419     IErMin= 2 ErrMin= 3.26D-05
 ErrMax= 3.26D-05  0.00D+00 EMaxC= 1.00D-01 BMatC= 6.34D-07 BMatP= 1.65D-06
 IDIUse=1 WtCom= 1.00D+00 WtEn= 0.00D+00
 Coeff-Com:  0.356D+00 0.644D+00
 Coeff:      0.356D+00 0.644D+00
 Gap=     0.412 Goal=   None    Shift=    0.000
 RMSDP=1.49D-06 MaxDP=6.44D-05 DE=-6.95D-07 OVMax= 1.55D-04

 Cycle   8  Pass 1  IDiag  1:
 RMSU=  1.48D-06    CP:  1.00D+00  9.81D-01
 E= -276.312092303246     Delta-E=       -0.000000568827 Rises=F Damp=F
 DIIS: error= 8.11D-06 at cycle   3 NSaved=   3.
 NSaved= 3 IEnMin= 3 EnMin= -276.312092303246     IErMin= 3 ErrMin= 8.11D-06
 ErrMax= 8.11D-06  0.00D+00 EMaxC= 1.00D-01 BMatC= 5.14D-08 BMatP= 6.34D-07
 IDIUse=1 WtCom= 1.00D+00 WtEn= 0.00D+00
 Coeff-Com: -0.285D-02 0.211D+00 0.792D+00
 Coeff:     -0.285D-02 0.211D+00 0.792D+00
 Gap=     0.412 Goal=   None    Shift=    0.000
 RMSDP=4.11D-07 MaxDP=1.44D-05 DE=-5.69D-07 OVMax= 4.08D-05

 Cycle   9  Pass 1  IDiag  1:
 RMSU=  3.10D-07    CP:  1.00D+00  1.00D+00  8.64D-01
 E= -276.312092353111     Delta-E=       -0.000000049865 Rises=F Damp=F
 DIIS: error= 2.46D-06 at cycle   4 NSaved=   4.
 NSaved= 4 IEnMin= 4 EnMin= -276.312092353111     IErMin= 4 ErrMin= 2.46D-06
 ErrMax= 2.46D-06  0.00D+00 EMaxC= 1.00D-01 BMatC= 1.95D-09 BMatP= 5.14D-08
 IDIUse=1 WtCom= 1.00D+00 WtEn= 0.00D+00
 Coeff-Com: -0.127D-01 0.514D-01 0.272D+00 0.690D+00
 Coeff:     -0.127D-01 0.514D-01 0.272D+00 0.690D+00
 Gap=     0.412 Goal=   None    Shift=    0.000
 RMSDP=9.12D-08 MaxDP=3.13D-06 DE=-4.99D-08 OVMax= 8.66D-06

 Cycle  10  Pass 1  IDiag  1:
 RMSU=  8.14D-08    CP:  1.00D+00  1.00D+00  8.68D-01  9.03D-01
 E= -276.312092355102     Delta-E=       -0.000000001991 Rises=F Damp=F
 DIIS: error= 4.30D-07 at cycle   5 NSaved=   5.
 NSaved= 5 IEnMin= 5 EnMin= -276.312092355102     IErMin= 5 ErrMin= 4.30D-07
 ErrMax= 4.30D-07  0.00D+00 EMaxC= 1.00D-01 BMatC= 7.24D-11 BMatP= 1.95D-09
 IDIUse=1 WtCom= 1.00D+00 WtEn= 0.00D+00
 Coeff-Com: -0.123D-02-0.100D-01-0.282D-01 0.811D-01 0.958D+00
 Coeff:     -0.123D-02-0.100D-01-0.282D-01 0.811D-01 0.958D+00
 Gap=     0.412 Goal=   None    Shift=    0.000
 RMSDP=3.30D-08 MaxDP=7.75D-07 DE=-1.99D-09 OVMax= 2.77D-06

 Cycle  11  Pass 1  IDiag  1:
 RMSU=  1.90D-08    CP:  1.00D+00  1.00D+00  8.71D-01  9.83D-01  1.10D+00
 E= -276.312092355170     Delta-E=       -0.000000000068 Rises=F Damp=F
 DIIS: error= 1.96D-07 at cycle   6 NSaved=   6.
 NSaved= 6 IEnMin= 6 EnMin= -276.312092355170     IErMin= 6 ErrMin= 1.96D-07
 ErrMax= 1.96D-07  0.00D+00 EMaxC= 1.00D-01 BMatC= 2.19D-11 BMatP= 7.24D-11
 IDIUse=1 WtCom= 1.00D+00 WtEn= 0.00D+00
 Coeff-Com:  0.427D-03-0.881D-02-0.351D-01-0.200D-01 0.438D+00 0.625D+00
 Coeff:      0.427D-03-0.881D-02-0.351D-01-0.200D-01 0.438D+00 0.625D+00
 Gap=     0.412 Goal=   None    Shift=    0.000
 RMSDP=7.72D-09 MaxDP=2.84D-07 DE=-6.78D-11 OVMax= 8.23D-07

 SCF Done:  E(RM062X) =  -276.312092355     A.U. after   11 cycles
            NFock= 11  Conv=0.77D-08     -V/T= 2.0066
 KE= 2.745109820212D+02 PE=-1.300581627886D+03 EE= 4.186820981467D+02
 Leave Link  502 at Sun Sep 29 06:15:20 2019, MaxMem=   671088640 cpu:            2256.7 elap:            1129.6
 (Enter /shared/centos7/gaussian/g16/l801.exe)
 DoSCS=F DFT=T ScalE2(SS,OS)=  1.000000  1.000000
 Range of M.O.s used for correlation:     1   434
 NBasis=   434 NAE=    29 NBE=    29 NFC=     0 NFV=     0
 NROrb=    434 NOA=    29 NOB=    29 NVA=   405 NVB=   405

 **** Warning!!: The largest alpha MO coefficient is  0.10191554D+02

 Leave Link  801 at Sun Sep 29 06:15:21 2019, MaxMem=   671088640 cpu:               1.7 elap:               0.8
 (Enter /shared/centos7/gaussian/g16/l1101.exe)
 Using compressed storage, NAtomX=    23.
 Will process     24 centers per pass.
 Leave Link 1101 at Sun Sep 29 06:15:57 2019, MaxMem=   671088640 cpu:              72.2 elap:              36.2
 (Enter /shared/centos7/gaussian/g16/l1102.exe)
 Symmetrizing basis deriv contribution to polar:
 IMax=3 JMax=2 DiffMx= 0.00D+00
 Leave Link 1102 at Sun Sep 29 06:15:59 2019, MaxMem=   671088640 cpu:               4.9 elap:               2.5
 (Enter /shared/centos7/gaussian/g16/l1110.exe)
 Forming Gx(P) for the SCF density, NAtomX=    23.
 Integral derivatives from FoFJK, PRISM(SPDF).
 Do as many integral derivatives as possible in FoFJK.
 G2DrvN: MDV=     671086848.
 G2DrvN: will do    24 centers at a time, making    1 passes.
 Calling FoFCou, ICntrl=  3107 FMM=F I1Cent=   0 AccDes= 0.00D+00.
 FoFJK:  IHMeth= 1 ICntrl=    3107 DoSepK=F KAlg= 0 I1Cent=           0 FoldK=F
 IRaf=         0 NMat=       1 IRICut=       1 DoRegI=T DoRafI=F ISym2E= 0 IDoP0=0 IntGTp=1.
 FoFCou: FMM=F IPFlag=           0 FMFlag=      100000 FMFlg1=           0
         NFxFlg=           0 DoJE=F BraDBF=F KetDBF=F FulRan=T
         wScrn=  0.000000 ICntrl=      3107 IOpCl=  0 I1Cent=           0 NGrid=           0
         NMat0=    1 NMatS0=      1 NMatT0=    0 NMatD0=    1 NMtDS0=    0 NMtDT0=    0
 Symmetry not used in FoFCou.
 End of G2Drv F.D. properties file   721 does not exist.
 End of G2Drv F.D. properties file   722 does not exist.
 End of G2Drv F.D. properties file   788 does not exist.
 Leave Link 1110 at Sun Sep 29 07:04:30 2019, MaxMem=   671088640 cpu:            5814.5 elap:            2910.6
 (Enter /shared/centos7/gaussian/g16/l1002.exe)
 Minotr:  Closed shell wavefunction.
          IDoAtm=11111111111111111111111
          Direct CPHF calculation.
          Differentiating once with respect to nuclear coordinates.
          Requested convergence is 1.0D-08 RMS, and 1.0D-07 maximum.
          Secondary convergence is 1.0D-12 RMS, and 1.0D-12 maximum.
          NewPWx=T KeepS1=F KeepF1=F KeepIn=T MapXYZ=F SortEE=F KeepMc=T.
         6897 words used for storage of precomputed grid.
 Two-electron integrals replicated using symmetry.
          MDV=     671088640 using IRadAn=       1.
          Solving linear equations simultaneously, MaxMat=     380.
 FoF2E skips out because all densities are zero.
 CalDSu exits because no D1Ps are significant.
 FoFJK:  IHMeth= 1 ICntrl=       0 DoSepK=F KAlg= 0 I1Cent=           0 FoldK=F
 IRaf= 930000000 NMat=      69 IRICut=     172 DoRegI=T DoRafI=T ISym2E= 2 IDoP0=3 IntGTp=3.
 FoFCou: FMM=F IPFlag=           0 FMFlag=      100000 FMFlg1=           0
         NFxFlg=           0 DoJE=F BraDBF=F KetDBF=F FulRan=T
         wScrn=  0.000000 ICntrl=         0 IOpCl=  0 I1Cent=           0 NGrid=           0
         NMat0=   69 NMatS0=     69 NMatT0=    0 NMatD0=   69 NMtDS0=    0 NMtDT0=    0
 Integrals replicated using symmetry in FoFCou.
 Raff kept on since  89.76% of shell-pairs survive, threshold=   0.20 IRatSp=90.
          There are    72 degrees of freedom in the 1st order CPHF.  IDoFFX=6 NUNeed=     0.
     66 vectors produced by pass  0 Test12= 1.63D-14 1.39D-09 XBig12= 5.70D-02 3.70D-02.
 AX will form    66 AO Fock derivatives at one time.
     66 vectors produced by pass  1 Test12= 1.63D-14 1.39D-09 XBig12= 2.99D-03 6.29D-03.
     66 vectors produced by pass  2 Test12= 1.63D-14 1.39D-09 XBig12= 4.29D-05 9.51D-04.
     66 vectors produced by pass  3 Test12= 1.63D-14 1.39D-09 XBig12= 3.53D-07 7.48D-05.
     66 vectors produced by pass  4 Test12= 1.63D-14 1.39D-09 XBig12= 1.90D-09 4.35D-06.
     66 vectors produced by pass  5 Test12= 1.63D-14 1.39D-09 XBig12= 9.56D-12 2.87D-07.
     23 vectors produced by pass  6 Test12= 1.63D-14 1.39D-09 XBig12= 3.53D-14 2.00D-08.
 InvSVY:  IOpt=1 It=  1 EMax= 5.27D-16
 Solved reduced A of dimension   419 with    72 vectors.
 End of Minotr F.D. properties file   721 does not exist.
 End of Minotr F.D. properties file   722 does not exist.
 End of Minotr F.D. properties file   788 does not exist.
 Leave Link 1002 at Sun Sep 29 08:24:15 2019, MaxMem=   671088640 cpu:            9565.3 elap:            4785.3
 (Enter /shared/centos7/gaussian/g16/l601.exe)
 Copying SCF densities to generalized density rwf, IOpCl= 0 IROHF=0.

 **********************************************************************

            Population analysis using the SCF density.

 **********************************************************************

 Orbital symmetries:
       Occupied  (A) (A) (A) (A) (A) (A) (A) (A) (A) (A) (A) (A)
                 (A) (A) (A) (A) (A) (A) (A) (A) (A) (A) (A) (A)
                 (A) (A) (A) (A) (A)
       Virtual   (A) (A) (A) (A) (A) (A) (A) (A) (A) (A) (A) (A)
                 (A) (A) (A) (A) (A) (A) (A) (A) (A) (A) (A) (A)
                 (A) (A) (A) (A) (A) (A) (A) (A) (A) (A) (A) (A)
                 (A) (A) (A) (A) (A) (A) (A) (A) (A) (A) (A) (A)
                 (A) (A) (A) (A) (A) (A) (A) (A) (A) (A) (A) (A)
                 (A) (A) (A) (A) (A) (A) (A) (A) (A) (A) (A) (A)
                 (A) (A) (A) (A) (A) (A) (A) (A) (A) (A) (A) (A)
                 (A) (A) (A) (A) (A) (A) (A) (A) (A) (A) (A) (A)
                 (A) (A) (A) (A) (A) (A) (A) (A) (A) (A) (A) (A)
                 (A) (A) (A) (A) (A) (A) (A) (A) (A) (A) (A) (A)
                 (A) (A) (A) (A) (A) (A) (A) (A) (A) (A) (A) (A)
                 (A) (A) (A) (A) (A) (A) (A) (A) (A) (A) (A) (A)
                 (A) (A) (A) (A) (A) (A) (A) (A) (A) (A) (A) (A)
                 (A) (A) (A) (A) (A) (A) (A) (A) (A) (A) (A) (A)
                 (A) (A) (A) (A) (A) (A) (A) (A) (A) (A) (A) (A)
                 (A) (A) (A) (A) (A) (A) (A) (A) (A) (A) (A) (A)
                 (A) (A) (A) (A) (A) (A) (A) (A) (A) (A) (A) (A)
                 (A) (A) (A) (A) (A) (A) (A) (A) (A) (A) (A) (A)
                 (A) (A) (A) (A) (A) (A) (A) (A) (A) (A) (A) (A)
                 (A) (A) (A) (A) (A) (A) (A) (A) (A) (A) (A) (A)
                 (A) (A) (A) (A) (A) (A) (A) (A) (A) (A) (A) (A)
                 (A) (A) (A) (A) (A) (A) (A) (A) (A) (A) (A) (A)
                 (A) (A) (A) (A) (A) (A) (A) (A) (A) (A) (A) (A)
                 (A) (A) (A) (A) (A) (A) (A) (A) (A) (A) (A) (A)
                 (A) (A) (A) (A) (A) (A) (A) (A) (A) (A) (A) (A)
                 (A) (A) (A) (A) (A) (A) (A) (A) (A) (A) (A) (A)
                 (A) (A) (A) (A) (A) (A) (A) (A) (A) (A) (A) (A)
                 (A) (A) (A) (A) (A) (A) (A) (A) (A) (A) (A) (A)
                 (A) (A) (A) (A) (A) (A) (A) (A) (A) (A) (A) (A)
                 (A) (A) (A) (A) (A) (A) (A) (A) (A) (A) (A) (A)
                 (A) (A) (A) (A) (A) (A) (A) (A) (A) (A) (A) (A)
                 (A) (A) (A) (A) (A) (A) (A) (A) (A) (A) (A) (A)
                 (A) (A) (A) (A) (A) (A) (A) (A) (A) (A) (A) (A)
                 (A) (A) (A) (A) (A) (A) (A) (A) (A)
 The electronic state is 1-A.
 Alpha  occ. eigenvalues --  -10.52736 -10.52628 -10.52538 -10.52386 -10.52266
 Alpha  occ. eigenvalues --  -10.52228 -10.52043  -0.92410  -0.88101  -0.82365
 Alpha  occ. eigenvalues --   -0.77175  -0.70671  -0.64893  -0.63638  -0.54914
 Alpha  occ. eigenvalues --   -0.52746  -0.51529  -0.50465  -0.47262  -0.46272
 Alpha  occ. eigenvalues --   -0.44750  -0.43958  -0.41846  -0.40947  -0.39012
 Alpha  occ. eigenvalues --   -0.37608  -0.36460  -0.36012  -0.34874
 Alpha virt. eigenvalues --    0.06369   0.07582   0.08561   0.09052   0.10925
 Alpha virt. eigenvalues --    0.12150   0.12658   0.12948   0.13435   0.14545
 Alpha virt. eigenvalues --    0.15444   0.16323   0.17988   0.19044   0.19433
 Alpha virt. eigenvalues --    0.20844   0.22431   0.23304   0.26147   0.27292
 Alpha virt. eigenvalues --    0.28130   0.29244   0.29367   0.30405   0.30764
 Alpha virt. eigenvalues --    0.31749   0.32712   0.33098   0.36143   0.36772
 Alpha virt. eigenvalues --    0.37716   0.40194   0.41814   0.42884   0.44417
 Alpha virt. eigenvalues --    0.45378   0.45706   0.46815   0.47037   0.48126
 Alpha virt. eigenvalues --    0.48662   0.49599   0.49864   0.51353   0.51740
 Alpha virt. eigenvalues --    0.52396   0.52639   0.53022   0.53298   0.53697
 Alpha virt. eigenvalues --    0.54608   0.54777   0.56459   0.56679   0.57383
 Alpha virt. eigenvalues --    0.58467   0.59932   0.60813   0.61139   0.63149
 Alpha virt. eigenvalues --    0.64654   0.68701   0.68830   0.73645   0.75330
 Alpha virt. eigenvalues --    0.77207   0.81099   0.82414   0.83768   0.85175
 Alpha virt. eigenvalues --    0.86060   0.87962   0.90116   0.90697   0.92326
 Alpha virt. eigenvalues --    0.94749   0.96903   0.97885   0.98337   1.00280
 Alpha virt. eigenvalues --    1.01517   1.01713   1.02938   1.04429   1.05214
 Alpha virt. eigenvalues --    1.05752   1.06008   1.08170   1.08630   1.10805
 Alpha virt. eigenvalues --    1.11081   1.11962   1.12957   1.14273   1.16192
 Alpha virt. eigenvalues --    1.16816   1.17532   1.18587   1.19087   1.19322
 Alpha virt. eigenvalues --    1.19992   1.21571   1.21830   1.23499   1.24669
 Alpha virt. eigenvalues --    1.25761   1.26861   1.27958   1.28523   1.29189
 Alpha virt. eigenvalues --    1.30175   1.30355   1.31701   1.32526   1.33037
 Alpha virt. eigenvalues --    1.33573   1.35076   1.37497   1.38881   1.39447
 Alpha virt. eigenvalues --    1.39928   1.41302   1.43116   1.43573   1.44982
 Alpha virt. eigenvalues --    1.46223   1.46663   1.49156   1.49815   1.51607
 Alpha virt. eigenvalues --    1.52100   1.52820   1.53565   1.54268   1.55468
 Alpha virt. eigenvalues --    1.56263   1.57904   1.58525   1.60639   1.62383
 Alpha virt. eigenvalues --    1.66139   1.68483   1.69968   1.72551   1.75986
 Alpha virt. eigenvalues --    1.79053   1.80963   1.87969   1.96547   2.23717
 Alpha virt. eigenvalues --    2.25298   2.28479   2.31227   2.33623   2.34832
 Alpha virt. eigenvalues --    2.36925   2.39607   2.42466   2.43359   2.45710
 Alpha virt. eigenvalues --    2.48106   2.50512   2.50977   2.53050   2.53905
 Alpha virt. eigenvalues --    2.54576   2.56363   2.57906   2.58467   2.59001
 Alpha virt. eigenvalues --    2.61985   2.63267   2.64230   2.66247   2.67548
 Alpha virt. eigenvalues --    2.69245   2.69949   2.70716   2.72794   2.73654
 Alpha virt. eigenvalues --    2.74134   2.76664   2.77290   2.78890   2.80010
 Alpha virt. eigenvalues --    2.80424   2.83059   2.83522   2.84637   2.86108
 Alpha virt. eigenvalues --    2.86546   2.88497   2.90658   2.91653   2.92408
 Alpha virt. eigenvalues --    2.93313   2.94390   2.96450   2.98781   2.99440
 Alpha virt. eigenvalues --    3.00617   3.01670   3.02373   3.03744   3.04669
 Alpha virt. eigenvalues --    3.05232   3.06811   3.08102   3.08775   3.09570
 Alpha virt. eigenvalues --    3.10223   3.10704   3.11381   3.13255   3.13572
 Alpha virt. eigenvalues --    3.13880   3.15185   3.16927   3.17529   3.18152
 Alpha virt. eigenvalues --    3.19453   3.20093   3.21242   3.22482   3.22976
 Alpha virt. eigenvalues --    3.24437   3.26124   3.27516   3.28648   3.29524
 Alpha virt. eigenvalues --    3.32517   3.33372   3.33584   3.34505   3.38358
 Alpha virt. eigenvalues --    3.39216   3.39337   3.40374   3.42170   3.42483
 Alpha virt. eigenvalues --    3.43748   3.46378   3.46706   3.47089   3.49749
 Alpha virt. eigenvalues --    3.50862   3.51740   3.53275   3.53483   3.54396
 Alpha virt. eigenvalues --    3.55123   3.57092   3.58414   3.59550   3.60011
 Alpha virt. eigenvalues --    3.61524   3.63072   3.63536   3.64804   3.65883
 Alpha virt. eigenvalues --    3.69282   3.69297   3.70345   3.71846   3.73333
 Alpha virt. eigenvalues --    3.74639   3.75760   3.77563   3.77924   3.80238
 Alpha virt. eigenvalues --    3.80644   3.82696   3.83105   3.84470   3.85252
 Alpha virt. eigenvalues --    3.86100   3.88441   3.89098   3.90128   3.91323
 Alpha virt. eigenvalues --    3.92615   3.93845   3.94987   3.96105   3.96253
 Alpha virt. eigenvalues --    3.97382   3.98618   3.99779   4.01428   4.01966
 Alpha virt. eigenvalues --    4.03865   4.04165   4.04816   4.05157   4.05287
 Alpha virt. eigenvalues --    4.08229   4.08957   4.09535   4.10641   4.11420
 Alpha virt. eigenvalues --    4.13501   4.14364   4.16301   4.17352   4.18302
 Alpha virt. eigenvalues --    4.19425   4.20207   4.21510   4.22047   4.24338
 Alpha virt. eigenvalues --    4.25342   4.26178   4.26964   4.27812   4.29764
 Alpha virt. eigenvalues --    4.30863   4.33918   4.35937   4.36962   4.37336
 Alpha virt. eigenvalues --    4.37983   4.41053   4.43077   4.43224   4.46055
 Alpha virt. eigenvalues --    4.47972   4.49784   4.52754   4.54482   4.56055
 Alpha virt. eigenvalues --    4.57340   4.61739   4.63844   4.64826   4.65147
 Alpha virt. eigenvalues --    4.66019   4.69249   4.73062   4.73313   4.75196
 Alpha virt. eigenvalues --    4.78423   4.78620   4.81033   4.82054   4.82892
 Alpha virt. eigenvalues --    4.83327   4.86106   4.87175   4.88057   4.90337
 Alpha virt. eigenvalues --    4.93340   4.94041   4.96554   4.99865   5.00830
 Alpha virt. eigenvalues --    5.03190   5.05194   5.06479   5.07716   5.08334
 Alpha virt. eigenvalues --    5.09503   5.12044   5.13069   5.15806   5.17442
 Alpha virt. eigenvalues --    5.18464   5.20410   5.25183   5.25786   5.27214
 Alpha virt. eigenvalues --    5.27414   5.30068   5.32248   5.33426   5.35495
 Alpha virt. eigenvalues --    5.37954   5.39360   5.40537   5.42484   5.44408
 Alpha virt. eigenvalues --    5.46117   5.46738   5.52680   5.55472   5.56008
 Alpha virt. eigenvalues --    5.58743   5.64943   5.69746   5.76863   5.79571
 Alpha virt. eigenvalues --    5.80252   5.86125   5.92860   5.94004   5.95724
 Alpha virt. eigenvalues --    5.99779   6.03632   6.06255  11.54150  12.17020
 Alpha virt. eigenvalues --   12.40153  12.93826  13.25232  13.61970  13.82274
          Condensed to atoms (all electrons):
               1          2          3          4          5          6
     1  C    5.090523   0.288916  -0.037250   0.308073   0.003420  -0.046905
     2  C    0.288916   5.193773   0.269503  -0.041440  -0.045595   0.005506
     3  C   -0.037250   0.269503   5.177960  -0.003987   0.323398  -0.014059
     4  C    0.308073  -0.041440  -0.003987   5.043079  -0.000089   0.286766
     5  C    0.003420  -0.045595   0.323398  -0.000089   5.010952   0.000639
     6  C   -0.046905   0.005506  -0.014059   0.286766   0.000639   5.030998
     7  C   -0.002726  -0.000299  -0.053156   0.000043   0.307445  -0.000022
     8  H   -0.048260   0.009614  -0.000634   0.420297   0.000031  -0.045233
     9  H   -0.043668  -0.009518  -0.000598   0.409366  -0.000050  -0.046858
    10  H    0.413140  -0.055233  -0.000275  -0.040106  -0.000452  -0.010328
    11  H    0.421318  -0.049752   0.009653  -0.047381  -0.000676   0.009283
    12  H   -0.038663   0.404409  -0.044906  -0.008490   0.005551  -0.000772
    13  H   -0.048361   0.413543  -0.058684   0.009329  -0.001412  -0.000956
    14  H    0.000301  -0.064967   0.416204  -0.000041  -0.040684  -0.016363
    15  H    0.006061  -0.044399   0.412026  -0.000203  -0.035802   0.000704
    16  H    0.000620  -0.010602  -0.045215  -0.000013   0.414197  -0.000100
    17  H   -0.000898   0.010792  -0.045929   0.000057   0.416099   0.000081
    18  H    0.000571  -0.001629  -0.017801  -0.060243   0.001183   0.413526
    19  H    0.001817   0.002113  -0.001804  -0.046117   0.000242   0.405528
    20  H    0.007530  -0.001041   0.001167  -0.042222  -0.000047   0.403317
    21  H   -0.006835   0.012948  -0.010879   0.000236  -0.045105   0.000082
    22  H    0.000361  -0.002053   0.002104  -0.000018  -0.047302  -0.000131
    23  H    0.000211  -0.000634   0.008256  -0.000006  -0.037655  -0.000001
               7          8          9         10         11         12
     1  C   -0.002726  -0.048260  -0.043668   0.413140   0.421318  -0.038663
     2  C   -0.000299   0.009614  -0.009518  -0.055233  -0.049752   0.404409
     3  C   -0.053156  -0.000634  -0.000598  -0.000275   0.009653  -0.044906
     4  C    0.000043   0.420297   0.409366  -0.040106  -0.047381  -0.008490
     5  C    0.307445   0.000031  -0.000050  -0.000452  -0.000676   0.005551
     6  C   -0.000022  -0.045233  -0.046858  -0.010328   0.009283  -0.000772
     7  C    4.996342   0.000010  -0.000016  -0.000326   0.000160   0.000212
     8  H    0.000010   0.612276  -0.035690  -0.004205  -0.010653   0.000164
     9  H   -0.000016  -0.035690   0.606960   0.008335  -0.003039   0.005185
    10  H   -0.000326  -0.004205   0.008335   0.575971  -0.029803   0.008350
    11  H    0.000160  -0.010653  -0.003039  -0.029803   0.587568  -0.003228
    12  H    0.000212   0.000164   0.005185   0.008350  -0.003228   0.569386
    13  H   -0.005158  -0.000586   0.000120  -0.004303  -0.011103  -0.027738
    14  H   -0.005819  -0.000433   0.000223  -0.000358   0.000130   0.003870
    15  H    0.008445   0.000052   0.000102  -0.000090  -0.000569  -0.016832
    16  H   -0.046416  -0.000001  -0.000003   0.000113   0.000015   0.000509
    17  H   -0.041477  -0.000002  -0.000000  -0.000119   0.000036  -0.000355
    18  H    0.000051   0.004201   0.007698   0.002288   0.000554   0.000430
    19  H    0.000003   0.007957  -0.017939   0.000190  -0.000702   0.000032
    20  H    0.000005  -0.019959   0.004938   0.000790  -0.000460  -0.000017
    21  H    0.405002  -0.000010  -0.000020  -0.001589   0.000684   0.000261
    22  H    0.401061  -0.000002   0.000002   0.000058  -0.000009  -0.000054
    23  H    0.404919   0.000000   0.000001   0.000242  -0.000015   0.000053
              13         14         15         16         17         18
     1  C   -0.048361   0.000301   0.006061   0.000620  -0.000898   0.000571
     2  C    0.413543  -0.064967  -0.044399  -0.010602   0.010792  -0.001629
     3  C   -0.058684   0.416204   0.412026  -0.045215  -0.045929  -0.017801
     4  C    0.009329  -0.000041  -0.000203  -0.000013   0.000057  -0.060243
     5  C   -0.001412  -0.040684  -0.035802   0.414197   0.416099   0.001183
     6  C   -0.000956  -0.016363   0.000704  -0.000100   0.000081   0.413526
     7  C   -0.005158  -0.005819   0.008445  -0.046416  -0.041477   0.000051
     8  H   -0.000586  -0.000433   0.000052  -0.000001  -0.000002   0.004201
     9  H    0.000120   0.000223   0.000102  -0.000003  -0.000000   0.007698
    10  H   -0.004303  -0.000358  -0.000090   0.000113  -0.000119   0.002288
    11  H   -0.011103   0.000130  -0.000569   0.000015   0.000036   0.000554
    12  H   -0.027738   0.003870  -0.016832   0.000509  -0.000355   0.000430
    13  H    0.583808   0.007679   0.004731   0.003021   0.000337  -0.000536
    14  H    0.007679   0.584258  -0.031982   0.009342  -0.007340  -0.015238
    15  H    0.004731  -0.031982   0.580747  -0.006905  -0.006722   0.001120
    16  H    0.003021   0.009342  -0.006905   0.604917  -0.034524  -0.000144
    17  H    0.000337  -0.007340  -0.006722  -0.034524   0.590209   0.000036
    18  H   -0.000536  -0.015238   0.001120  -0.000144   0.000036   0.621806
    19  H    0.000026  -0.002733   0.000176  -0.000004  -0.000020  -0.039952
    20  H    0.000067   0.002183  -0.000036   0.000003   0.000002  -0.034122
    21  H   -0.001886  -0.000467  -0.000106  -0.002394   0.007953  -0.000028
    22  H    0.000594   0.002925  -0.000096   0.008621  -0.011099   0.000138
    23  H   -0.000433   0.000057  -0.000471  -0.010406  -0.002317   0.000004
              19         20         21         22         23
     1  C    0.001817   0.007530  -0.006835   0.000361   0.000211
     2  C    0.002113  -0.001041   0.012948  -0.002053  -0.000634
     3  C   -0.001804   0.001167  -0.010879   0.002104   0.008256
     4  C   -0.046117  -0.042222   0.000236  -0.000018  -0.000006
     5  C    0.000242  -0.000047  -0.045105  -0.047302  -0.037655
     6  C    0.405528   0.403317   0.000082  -0.000131  -0.000001
     7  C    0.000003   0.000005   0.405002   0.401061   0.404919
     8  H    0.007957  -0.019959  -0.000010  -0.000002   0.000000
     9  H   -0.017939   0.004938  -0.000020   0.000002   0.000001
    10  H    0.000190   0.000790  -0.001589   0.000058   0.000242
    11  H   -0.000702  -0.000460   0.000684  -0.000009  -0.000015
    12  H    0.000032  -0.000017   0.000261  -0.000054   0.000053
    13  H    0.000026   0.000067  -0.001886   0.000594  -0.000433
    14  H   -0.002733   0.002183  -0.000467   0.002925   0.000057
    15  H    0.000176  -0.000036  -0.000106  -0.000096  -0.000471
    16  H   -0.000004   0.000003  -0.002394   0.008621  -0.010406
    17  H   -0.000020   0.000002   0.007953  -0.011099  -0.002317
    18  H   -0.039952  -0.034122  -0.000028   0.000138   0.000004
    19  H    0.602344  -0.026787  -0.000006  -0.000006   0.000000
    20  H   -0.026787   0.590408   0.000001   0.000007  -0.000000
    21  H   -0.000006   0.000001   0.589306  -0.041541  -0.030991
    22  H   -0.000006   0.000007  -0.041541   0.601956  -0.026314
    23  H    0.000000  -0.000000  -0.030991  -0.026314   0.582811
 Mulliken charges:
               1
     1  C   -0.269295
     2  C   -0.283953
     3  C   -0.285095
     4  C   -0.186894
     5  C   -0.228289
     6  C   -0.374700
     7  C   -0.368285
     8  H    0.111064
     9  H    0.114470
    10  H    0.137708
    11  H    0.127990
    12  H    0.142642
    13  H    0.137900
    14  H    0.159253
    15  H    0.130048
    16  H    0.115367
    17  H    0.125199
    18  H    0.116087
    19  H    0.115641
    20  H    0.114273
    21  H    0.125384
    22  H    0.110797
    23  H    0.112689
 Sum of Mulliken charges =  -0.00000
 Mulliken charges with hydrogens summed into heavy atoms:
               1
     1  C   -0.003597
     2  C   -0.003411
     3  C    0.004206
     4  C    0.038641
     5  C    0.012277
     6  C   -0.028700
     7  C   -0.019415
 APT charges:
               1
     1  C   -0.637083
     2  C   -0.708867
     3  C   -0.499864
     4  C   -0.874289
     5  C   -0.908768
     6  C   -1.015976
     7  C   -1.081136
     8  H    0.491647
     9  H    0.365530
    10  H    0.250803
    11  H    0.436215
    12  H    0.380002
    13  H    0.345390
    14  H    0.262663
    15  H    0.391588
    16  H    0.417116
    17  H    0.436983
    18  H    0.087754
    19  H    0.314783
    20  H    0.527610
    21  H    0.154008
    22  H    0.279422
    23  H    0.584471
 Sum of APT charges =  -0.00000
 APT charges with hydrogens summed into heavy atoms:
               1
     1  C    0.049935
     2  C    0.016525
     3  C    0.154386
     4  C   -0.017112
     5  C   -0.054669
     6  C   -0.085829
     7  C   -0.063236
 Electronic spatial extent (au):  <R**2>=           1109.0184
 Charge=              0.0000 electrons
 Dipole moment (field-independent basis, Debye):
    X=             -0.1170    Y=             -0.0050    Z=             -0.0751  Tot=              0.1391
 Quadrupole moment (field-independent basis, Debye-Ang):
   XX=            -49.2617   YY=            -49.3375   ZZ=            -49.0532
   XY=              0.1754   XZ=             -0.1469   YZ=              0.1870
 Traceless Quadrupole moment (field-independent basis, Debye-Ang):
   XX=             -0.0442   YY=             -0.1200   ZZ=              0.1642
   XY=              0.1754   XZ=             -0.1469   YZ=              0.1870
 Octapole moment (field-independent basis, Debye-Ang**2):
  XXX=              0.1205  YYY=             -1.2607  ZZZ=             -2.6199  XYY=              1.1311
  XXY=             -0.6589  XXZ=              0.3287  XZZ=             -2.5629  YZZ=              0.9166
  YYZ=              0.2450  XYZ=              0.4861
 Hexadecapole moment (field-independent basis, Debye-Ang**3):
 XXXX=          -1061.7449 YYYY=           -285.6023 ZZZZ=           -228.0003 XXXY=             -3.5678
 XXXZ=             -6.9931 YYYX=              5.8181 YYYZ=             -0.7541 ZZZX=             -1.7083
 ZZZY=              0.5815 XXYY=           -226.1640 XXZZ=           -215.3800 YYZZ=            -85.7751
 XXYZ=              1.4486 YYXZ=              0.0032 ZZXY=              0.3523
 N-N= 3.310764553634D+02 E-N=-1.300581549982D+03  KE= 2.745109820212D+02
  Exact polarizability:   0.000   0.000   0.000   0.000   0.000   0.000
 Approx polarizability:  99.579  -0.388  97.312  -0.086   0.520  99.276
 No NMR shielding tensors so no spin-rotation constants.
 Leave Link  601 at Sun Sep 29 08:24:41 2019, MaxMem=   671088640 cpu:              51.5 elap:              25.8
 (Enter /shared/centos7/gaussian/g16/l701.exe)
 SCFChk:  SCF convergence  7.72D-09 required  1.00D-08
 ... and contract with generalized density number  0.
 Compute integral second derivatives.
 Entering OneElI...
 Calculate overlap and kinetic energy integrals
    NBasis = 485  MinDer = 2  MaxDer = 2
 Requested accuracy = 0.1000D-12
 PrmmSu-InSpLW:  IPartL=    0 NPrtUS=   20 NPrtUL=    1 DoSpLW=F IThBeg=    0 IThEnd=   19 NThAct=   20.
 PrsmSu:  NPrtUS=  20 ThrOK=T IAlg=1 NPAlg=1 LenDen=           0 ISkipM=0 DoSpLW=F IThBeg=    0 IThEnd=   19.
 Prism:   IPart=     0 DynPar=F LinDyn=F Incr=           6.
 PRISM was handed    33198958 working-precision words and 13722 shell-pairs
 PRISM was handed    33198958 working-precision words and 13722 shell-pairs
 PRISM was handed    33198958 working-precision words and 13722 shell-pairs
 PRISM was handed    33198958 working-precision words and 13722 shell-pairs
 PRISM was handed    33198958 working-precision words and 13722 shell-pairs
 PRISM was handed    33198958 working-precision words and 13722 shell-pairs
 PRISM was handed    33198958 working-precision words and 13722 shell-pairs
 PRISM was handed    33198958 working-precision words and 13722 shell-pairs
 PRISM was handed    33198958 working-precision words and 13722 shell-pairs
 PRISM was handed    33198958 working-precision words and 13722 shell-pairs
 PRISM was handed    33198958 working-precision words and 13722 shell-pairs
 PRISM was handed    33198958 working-precision words and 13722 shell-pairs
 PRISM was handed    33198958 working-precision words and 13722 shell-pairs
 PRISM was handed    33198958 working-precision words and 13722 shell-pairs
 PRISM was handed    33198958 working-precision words and 13722 shell-pairs
 PRISM was handed    33198958 working-precision words and 13722 shell-pairs
 PRISM was handed    33198958 working-precision words and 13722 shell-pairs
 PRISM was handed    33198958 working-precision words and 13722 shell-pairs
 PRISM was handed    33198958 working-precision words and 13722 shell-pairs
 IPart=  0 NShTot=         721 NBatch=          79 AvBLen=         9.1
 PRISM was handed    33198958 working-precision words and 13722 shell-pairs
 IPart=  3 NShTot=         713 NBatch=          74 AvBLen=         9.6
 IPart= 18 NShTot=         659 NBatch=          48 AvBLen=        13.7
 IPart=  1 NShTot=         721 NBatch=          79 AvBLen=         9.1
 IPart=  4 NShTot=         711 NBatch=          73 AvBLen=         9.7
 IPart= 16 NShTot=         663 NBatch=          50 AvBLen=        13.3
 IPart= 10 NShTot=         678 NBatch=          56 AvBLen=        12.1
 IPart=  2 NShTot=         717 NBatch=          77 AvBLen=         9.3
 IPart= 17 NShTot=         663 NBatch=          50 AvBLen=        13.3
 IPart=  5 NShTot=         705 NBatch=          70 AvBLen=        10.1
 IPart=  9 NShTot=         682 NBatch=          58 AvBLen=        11.8
 IPart=  6 NShTot=         699 NBatch=          67 AvBLen=        10.4
 IPart= 11 NShTot=         676 NBatch=          56 AvBLen=        12.1
 IPart= 12 NShTot=         672 NBatch=          53 AvBLen=        12.7
 IPart=  8 NShTot=         687 NBatch=          59 AvBLen=        11.6
 IPart= 13 NShTot=         671 NBatch=          52 AvBLen=        12.9
 IPart= 19 NShTot=         657 NBatch=          48 AvBLen=        13.7
 IPart= 15 NShTot=         668 NBatch=          52 AvBLen=        12.8
 IPart=  7 NShTot=         689 NBatch=          60 AvBLen=        11.5
 IPart= 14 NShTot=         670 NBatch=          52 AvBLen=        12.9
 PrSmSu:  NxtVal=            121.
 Entering OneElI...
 Calculate potential energy integrals
    NBasis = 485  MinDer = 2  MaxDer = 2
 Requested accuracy = 0.1000D-12
 PrmmSu-InSpLW:  IPartL=    0 NPrtUS=   20 NPrtUL=    1 DoSpLW=F IThBeg=    0 IThEnd=   19 NThAct=   20.
 PrsmSu:  NPrtUS=  20 ThrOK=T IAlg=1 NPAlg=1 LenDen=           0 ISkipM=0 DoSpLW=F IThBeg=    0 IThEnd=   19.
 Prism:   IPart=     0 DynPar=F LinDyn=F Incr=         142.
 PRISM was handed    33262476 working-precision words and 12415 shell-pairs
 PRISM was handed    33262476 working-precision words and 12415 shell-pairs
 PRISM was handed    33262476 working-precision words and 12415 shell-pairs
 PRISM was handed    33262476 working-precision words and 12415 shell-pairs
 PRISM was handed    33262476 working-precision words and 12415 shell-pairs
 PRISM was handed    33262476 working-precision words and 12415 shell-pairs
 PRISM was handed    33262476 working-precision words and 12415 shell-pairs
 PRISM was handed    33262476 working-precision words and 12415 shell-pairs
 PRISM was handed    33262476 working-precision words and 12415 shell-pairs
 PRISM was handed    33262476 working-precision words and 12415 shell-pairs
 PRISM was handed    33262476 working-precision words and 12415 shell-pairs
 PRISM was handed    33262476 working-precision words and 12415 shell-pairs
 PRISM was handed    33262476 working-precision words and 12415 shell-pairs
 PRISM was handed    33262476 working-precision words and 12415 shell-pairs
 PRISM was handed    33262476 working-precision words and 12415 shell-pairs
 PRISM was handed    33262476 working-precision words and 12415 shell-pairs
 PRISM was handed    33262476 working-precision words and 12415 shell-pairs
 PRISM was handed    33262476 working-precision words and 12415 shell-pairs
 PRISM was handed    33262476 working-precision words and 12415 shell-pairs
 PRISM was handed    33262476 working-precision words and 12415 shell-pairs
 IPart= 10 NShTot=       14191 NBatch=         618 AvBLen=        23.0
 IPart=  2 NShTot=       14812 NBatch=         646 AvBLen=        22.9
 IPart=  5 NShTot=       14674 NBatch=         640 AvBLen=        22.9
 IPart=  3 NShTot=       14812 NBatch=         646 AvBLen=        22.9
 IPart=  1 NShTot=       14858 NBatch=         648 AvBLen=        22.9
 IPart= 18 NShTot=       13708 NBatch=         597 AvBLen=        23.0
 IPart= 17 NShTot=       13800 NBatch=         601 AvBLen=        23.0
 IPart= 12 NShTot=       14030 NBatch=         611 AvBLen=        23.0
 IPart= 11 NShTot=       14076 NBatch=         613 AvBLen=        23.0
 IPart= 16 NShTot=       13869 NBatch=         604 AvBLen=        23.0
 IPart=  0 NShTot=       14950 NBatch=         652 AvBLen=        22.9
 IPart=  6 NShTot=       14536 NBatch=         634 AvBLen=        22.9
 IPart=  9 NShTot=       14260 NBatch=         621 AvBLen=        23.0
 IPart=  8 NShTot=       14306 NBatch=         623 AvBLen=        23.0
 IPart= 13 NShTot=       14007 NBatch=         610 AvBLen=        23.0
 IPart= 14 NShTot=       13984 NBatch=         609 AvBLen=        23.0
 IPart= 15 NShTot=       13961 NBatch=         608 AvBLen=        23.0
 IPart=  4 NShTot=       14720 NBatch=         642 AvBLen=        22.9
 IPart=  7 NShTot=       14375 NBatch=         627 AvBLen=        22.9
 IPart= 19 NShTot=       13616 NBatch=         593 AvBLen=        23.0
 PrSmSu:  NxtVal=           2841.
 Polarizability after L701:
                1             2             3 
      1  0.000000D+00
      2  0.000000D+00  0.000000D+00
      3  0.000000D+00  0.000000D+00  0.000000D+00
 Dipole Derivatives after L701:
                 1             2             3             4             5 
      1   0.117204D-01 -0.579268D+00  0.314159D+00 -0.552587D+00  0.310082D+00
      2  -0.177570D+00 -0.118559D+01  0.466488D+00  0.446273D+00 -0.759311D+00
      3  -0.210552D+00  0.555222D-01 -0.737375D+00 -0.189222D+00 -0.478308D+00
                 6             7             8             9            10 
      1  -0.285848D+00  0.493577D-01 -0.251431D+00  0.189134D+00 -0.184488D+01
      2  -0.438244D+00  0.272404D+00 -0.600211D+00  0.112568D+00 -0.324613D+00
      3  -0.814703D+00 -0.591165D-01  0.492937D+00 -0.948739D+00  0.159012D+00
                11            12            13            14            15 
      1  -0.105355D+01 -0.231612D+00 -0.142166D+01 -0.434152D+00  0.118095D+01
      2  -0.331512D-01  0.331956D-02 -0.302337D+00 -0.875130D+00 -0.300767D-01
      3   0.939736D-01 -0.744833D+00  0.396607D+00 -0.154720D+00 -0.429520D+00
                16            17            18            19            20 
      1  -0.808297D+00  0.151223D+01  0.111846D+00 -0.122042D+01  0.408773D+00
      2   0.280200D-01 -0.125818D+01 -0.782175D-02 -0.906670D-02 -0.945514D+00
      3  -0.264317D-01 -0.140899D+00 -0.981450D+00 -0.505467D-01  0.168695D-01
                21            22            23            24            25 
      1  -0.129703D+01  0.888893D+00  0.347560D+00 -0.714436D+00  0.463141D+00
      2  -0.120232D+00  0.147848D+00  0.243464D+00 -0.152827D+00  0.681849D-01
      3  -0.107748D+01 -0.246614D+00 -0.105097D+00  0.342584D+00  0.131005D+00
                26            27            28            29            30 
      1   0.135058D+00  0.858679D+00  0.854037D-01 -0.377891D-01 -0.160704D+00
      2   0.180027D+00  0.156066D+00 -0.109541D+00  0.878031D-01 -0.215585D+00
      3   0.400481D-01  0.453420D+00  0.199630D+00  0.131504D+00  0.579202D+00
                31            32            33            34            35 
      1   0.272210D+00  0.427405D+00 -0.409662D-01  0.214797D+00  0.416280D-01
      2   0.178454D+00  0.907011D+00 -0.241912D-01  0.177169D+00  0.195555D+00
      3  -0.540117D-01 -0.124477D+00  0.129425D+00  0.263923D+00  0.464209D-01
                36            37            38            39            40 
      1   0.159858D+00  0.365951D+00 -0.208497D+00  0.595259D-01  0.173188D+00
      2   0.319060D+00 -0.405757D+00  0.579838D+00 -0.127954D+00 -0.273958D+00
      3   0.729654D+00 -0.150740D+00  0.156188D+00  0.903818D-01 -0.102039D-01
                41            42            43            44            45 
      1   0.363522D-01 -0.283294D-03  0.136661D+00  0.102287D+00 -0.208909D+00
      2   0.455449D+00  0.297030D+00  0.127271D-01  0.243691D+00 -0.313656D+00
      3  -0.236724D-02  0.159351D+00  0.440754D-01 -0.215651D+00  0.794411D+00
                46            47            48            49            50 
      1   0.661439D+00 -0.556328D+00 -0.596896D+00  0.485693D+00  0.851669D+00
      2  -0.599508D-01  0.183566D+00  0.597844D-01  0.205926D+00  0.666825D+00
      3  -0.201510D+00  0.237238D+00  0.406342D+00 -0.534336D-01 -0.155332D+00
                51            52            53            54            55 
      1  -0.431438D-01 -0.196151D+00 -0.131334D+00 -0.479161D-01  0.130965D+00
      2  -0.288933D-01  0.512386D+00  0.259959D+00  0.119779D+00 -0.197175D-01
      3   0.158432D+00  0.296385D+00  0.865020D-01  0.199455D+00  0.346691D-01
                56            57            58            59            60 
      1  -0.322263D+00  0.723308D+00  0.933630D+00 -0.328661D+00 -0.724941D+00
      2   0.394770D+00 -0.554101D+00 -0.418222D+00  0.318412D+00  0.364376D+00
      3  -0.113214D+00  0.418613D+00 -0.292777D+00  0.103976D+00  0.330788D+00
                61            62            63            64            65 
      1  -0.218163D+00 -0.417251D+00  0.180039D+00 -0.847308D-01  0.514060D+00
      2   0.248864D+00  0.445781D+00 -0.790790D-01 -0.713939D-01  0.365444D+00
      3  -0.243842D+00 -0.315871D+00  0.234405D+00 -0.153108D+00  0.462925D+00
                66            67            68            69 
      1   0.499650D+00  0.147383D+01 -0.366578D+00  0.755331D-01
      2   0.204094D+00 -0.126129D+00  0.129496D+00 -0.990382D-02
      3   0.557551D+00  0.416801D+00 -0.118167D+00  0.150083D+00
 Hessian after L701:
                1             2             3             4             5 
      1  0.156840D+02
      2  0.265617D+00  0.168556D+02
      3  0.716800D+00  0.395732D+00  0.174578D+02
      4 -0.427234D+01  0.338494D+00 -0.194066D+01  0.152091D+02
      5  0.341345D+00 -0.622921D+01 -0.285064D+00 -0.704223D+00  0.171299D+02
      6 -0.196600D+01 -0.301289D+00 -0.433367D+01  0.626380D+00 -0.179600D+00
      7  0.124552D+00  0.299488D+00 -0.134742D+00 -0.499713D+01  0.171627D+01
      8  0.245589D+00  0.153209D+00 -0.126178D+00  0.169321D+01 -0.326456D+01
      9 -0.168070D+00 -0.172776D+00 -0.964204D-01 -0.608205D-01 -0.167223D+00
     10 -0.333708D+01 -0.179819D+01  0.346611D+00  0.383204D+00 -0.881580D-01
     11 -0.178321D+01 -0.507149D+01 -0.180442D+00 -0.170674D+00 -0.946393D-01
     12  0.343810D+00 -0.192968D+00 -0.617639D+01 -0.254911D+00  0.233805D-01
     13  0.188370D+00  0.135133D+00 -0.541426D-01  0.190964D+00  0.246621D+00
     14  0.138041D+00 -0.908028D-01 -0.280466D-01  0.356597D+00  0.128804D+00
     15 -0.703126D-01 -0.377430D-01 -0.123415D+00  0.162773D+00  0.756502D-01
     16 -0.502128D-01 -0.210164D+00 -0.703876D-01  0.688745D-01 -0.238675D+00
     17 -0.156068D+00  0.312514D+00  0.967225D-01 -0.227635D+00  0.258012D-01
     18 -0.251152D-01  0.354943D-01 -0.158236D+00 -0.130174D+00  0.102770D+00
     19  0.181990D+00  0.798046D-01  0.103489D+00  0.184709D+00  0.462830D-01
     20  0.115033D+00 -0.103234D+00  0.393676D-01  0.138733D+00 -0.194576D+00
     21  0.372962D-02  0.689797D-02 -0.125910D+00  0.208621D+00  0.173315D-01
     22 -0.736859D-01  0.674172D-01  0.263254D-01  0.139698D+00 -0.431135D-02
     23  0.617435D-01  0.102096D+00 -0.389325D-01  0.538001D-02 -0.505235D-01
     24  0.187249D-01 -0.364776D-01  0.125216D+00 -0.108318D+00  0.183803D-02
     25 -0.198540D-01  0.747763D-01 -0.101004D+00 -0.236518D-01  0.111841D-01
     26  0.537201D-01  0.735470D-01  0.608550D-01  0.735672D-02 -0.760937D-03
     27 -0.491021D-01  0.635277D-01  0.780337D-01  0.127692D-01  0.501235D-02
     28 -0.421344D+01  0.222366D+00  0.939321D+00  0.136923D+00  0.204595D-01
     29  0.183098D+00 -0.448376D+01  0.399976D+00  0.527605D-02  0.168860D+00
     30  0.106345D+01  0.554610D+00 -0.226384D+01  0.148915D+00 -0.246283D-01
     31 -0.424373D+01  0.563824D+00 -0.370495D-01 -0.353651D-02 -0.767967D-01
     32  0.535660D+00 -0.193149D+01 -0.241687D+00 -0.851403D-01  0.132867D+00
     33 -0.363244D-01 -0.259058D+00 -0.430765D+01  0.100005D+00  0.746951D-01
     34  0.700809D-01 -0.129202D-02  0.144268D+00 -0.407643D+01  0.174618D+00
     35  0.733975D-02  0.911659D-01  0.133188D-01  0.210204D+00 -0.435147D+01
     36  0.117105D+00  0.459352D-01 -0.444192D-01  0.965353D+00  0.441174D+00
     37 -0.487064D-01  0.191155D-01  0.123462D+00 -0.333675D+01 -0.129671D+01
     38  0.452486D-01  0.157172D+00 -0.563751D-01 -0.143105D+01 -0.306124D+01
     39  0.152815D+00 -0.484328D-01  0.665058D-01  0.941026D-01 -0.886964D-01
     40 -0.734435D-02  0.143397D-01 -0.154632D-01  0.238464D+00 -0.107335D+00
     41  0.679067D-01  0.112639D-01 -0.857016D-02 -0.674998D-01 -0.293344D+00
     42 -0.385139D-03  0.132736D-01 -0.348462D-01 -0.350126D-01 -0.554184D-01
     43 -0.101044D-01  0.431065D-01 -0.490846D-01  0.772805D-01 -0.934925D-01
     44  0.515641D-01  0.155360D-01 -0.694448D-01 -0.798874D-01 -0.676246D-01
     45 -0.681250D-01 -0.817090D-01  0.446062D-01  0.301834D-01  0.511401D-01
     46  0.383577D-01  0.803080D-02 -0.117427D-01 -0.304774D-01 -0.273772D-01
     47 -0.171062D-02 -0.128333D-01 -0.211201D-02 -0.252226D-01  0.311382D-02
     48 -0.286548D-01 -0.330552D-02 -0.893265D-02  0.501038D-02  0.127160D-01
     49  0.271859D-02  0.304364D-02  0.266017D-02  0.853630D-01  0.131258D+00
     50  0.129011D-01  0.444153D-03  0.467810D-02  0.147604D+00  0.710694D-01
[...]
 .00018425,-0.00030583,-0.00553610,0.00554453,0.01797183,0.00015074,0.0
 0045280,-0.00001501,0.00020381,0.00189339,0.00094006,-0.00003271,-0.00
 009885,0.00015817,0.00000747,-0.00005311,0.00005154,-0.00011747,0.0000
 1563,0.00034642,-0.00002042,0.00002813,0.00003051,-0.00022883,-0.00003
 082,-0.00029315,0.00027231,-0.00016854,0.00114993,-0.02246623,0.080772
 75,0.00118463,-0.00165952,0.00105716,0.00267314,-0.00501925,-0.0188719
 1,0.05753962,-0.07831067,-0.26141245,-0.00062147,0.00032040,-0.0000341
 8,0.00421575,-0.00370584,-0.01123412,0.00119336,0.00084930,-0.00080459
 ,-0.00063160,-0.00051805,0.00039443,-0.00009875,-0.00008365,0.00016320
 ,0.00014355,0.00006736,-0.00004515,-0.00030100,0.00108433,0.00038573,0
 .00052165,0.00013003,0.00031833,-0.00056145,-0.00000093,-0.00066987,-0
 .00307409,-0.00065288,-0.00143817,-0.06459625,0.08464938,0.28702378,-0
 .00283077,0.00036801,-0.00457250,-0.01097939,0.02321324,-0.00122813,-0
 .07069459,0.07876055,-0.00765193,0.00021803,0.00026944,-0.00026142,0.0
 0725599,-0.02697338,0.00248407,-0.00019268,0.00032163,0.00002259,-0.00
 440179,-0.00202328,0.00209834,-0.00008477,-0.00009600,0.00016768,-0.00
 007309,-0.00004187,0.00001056,0.00016083,-0.00045759,-0.00010715,-0.00
 146350,0.00082458,0.00026244,0.00056649,0.00031018,0.00048992,-0.00041
 593,0.00014017,-0.00062130,-0.00296828,0.00773406,-0.00089277,0.083582
 29,-0.00038171,0.00055125,0.00031921,-0.00186110,0.00067390,-0.0008970
 7,0.07876464,-0.28145270,0.02406556,0.00001455,-0.00001403,0.00013758,
 0.00541294,-0.01786971,0.00101533,0.00007343,-0.00002497,-0.00017251,-
 0.00444070,-0.00022366,0.00151036,0.00002876,0.00002670,-0.00004635,0.
 00006380,0.00002639,-0.00002581,-0.00012930,0.00035639,0.00012821,0.00
 015483,0.00015186,-0.00010996,-0.00009863,0.00179536,-0.00007314,0.000
 42347,-0.00015512,0.00001150,0.00297109,-0.01037810,0.00061519,-0.0816
 9495,0.30603703,-0.00127428,-0.00060279,-0.00212650,-0.00759390,0.0174
 3716,-0.00150950,-0.00745204,0.02310787,-0.05204104,-0.00013571,0.0002
 9548,-0.00000801,-0.00354334,0.01334966,-0.00210978,-0.00007319,-0.000
 38830,-0.00026252,0.00247771,0.00064575,-0.00022154,-0.00008982,-0.000
 06220,0.00004322,0.00000800,-0.00002429,-0.00000555,0.00007730,0.00026
 321,0.00008573,-0.00044324,0.00066042,0.00038465,0.00031780,0.00003404
 ,0.00147435,-0.00010952,0.00002731,-0.00077768,0.00872238,-0.02867107,
 0.00370607,0.01020334,-0.02660196,0.05205296,0.00009396,0.00028798,-0.
 00012624,0.00155786,0.00059570,0.00212954,-0.01004826,0.00813104,0.023
 91973,0.00010479,-0.00014830,0.00003282,-0.06887614,0.02783035,0.06140
 744,-0.00009079,-0.00012468,0.00010523,-0.00255873,0.00363182,0.006674
 91,0.00003486,0.00002042,-0.00005810,-0.00003796,-0.00001285,-0.000016
 27,0.00007143,-0.00014547,-0.00005249,-0.00007646,0.00001280,-0.000051
 36,0.00019165,0.00001005,-0.00015806,-0.00020669,0.00018907,-0.0011261
 1,-0.00349324,-0.00303022,0.00175586,0.00104001,0.00019953,-0.00072470
 ,0.07396772,-0.00002397,-0.00007398,-0.00008810,0.00099745,0.00026338,
 0.00056275,-0.00700714,0.00579912,0.01735879,0.00004780,0.00002723,0.0
 0010490,0.02802955,-0.08247377,-0.08607098,-0.00009643,-0.00009732,0.0
 0006034,0.00963089,-0.01518062,-0.02963849,-0.00002486,0.00000578,-0.0
 0001266,0.00001531,0.00001654,-0.00002963,-0.00009078,-0.00004000,0.00
 006903,-0.00001258,0.00000827,-0.00001928,0.00007953,-0.00005111,0.000
 11945,0.00045344,0.00008980,-0.00034928,-0.00346822,-0.00137355,0.0013
 3797,0.00078321,0.00082646,-0.00005266,-0.02874659,0.09549919,-0.00023
 908,-0.00020337,0.00015572,-0.00112353,0.00026393,0.00081955,0.0041618
 1,-0.00361608,-0.01247646,-0.00010115,0.00012915,0.00000996,0.06295580
 ,-0.08630669,-0.24897922,0.00001647,0.00006109,-0.00008898,-0.00160606
 ,0.00209315,0.00463063,-0.00001489,-0.00002880,0.00003378,0.00002719,0
 .00001337,0.00001213,-0.00004842,0.00009453,-0.00000963,0.00004977,-0.
 00003672,0.00001593,0.00001975,0.00002484,0.00019155,0.00054928,-0.000
 04467,0.00065496,0.00169556,0.00209923,0.00057655,-0.00014261,0.000477
 33,0.00019682,-0.07129121,0.09220822,0.27018945,0.00011398,-0.00043133
 ,-0.00022519,-0.00217326,-0.00372793,0.00281171,-0.02061781,0.00184460
 ,-0.01629153,0.00000529,0.00012791,-0.00006072,-0.20329228,0.01917061,
 -0.12559927,-0.00002072,-0.00005257,-0.00001505,-0.00513011,0.00109902
 ,-0.00425155,-0.00005635,0.00001741,0.00009001,0.00004636,0.00000458,0
 .00001817,0.00006770,0.00009192,0.00006096,-0.00008554,0.00010460,0.00
 000470,-0.00133655,0.00002656,-0.00070046,0.00025565,0.00013241,0.0002
 8962,0.00051280,0.00081113,0.00022405,0.00096597,-0.00024742,-0.000126
 59,0.00762925,-0.00136462,0.00552613,0.22173469,-0.00025395,-0.0005774
 3,-0.00038237,-0.00280770,-0.00128985,0.00178759,-0.01426229,0.0008828
 1,-0.01221188,-0.00009128,0.00021514,0.00002829,0.01876334,-0.04879684
 ,0.01383154,0.00001707,0.00000179,-0.00000658,0.02665451,-0.00583580,0
 .02256786,-0.00006111,0.00000009,0.00008482,0.00005865,0.00003214,-0.0
 0001816,-0.00003008,0.00012747,0.00021429,-0.00016677,0.00007745,-0.00
 000539,-0.00080086,-0.00006651,-0.00032638,0.00023131,-0.00010204,0.00
 036632,0.00061481,0.00055186,0.00017644,0.00042659,0.00028920,-0.00063
 786,-0.00986973,0.00052659,-0.00727043,-0.01900022,0.05793333,-0.00018
 027,-0.00004650,0.00034124,0.00150623,0.00159746,-0.00089158,0.0117075
 6,-0.00073775,0.00760487,-0.00003522,0.00006517,0.00000659,-0.12671380
 ,0.01368900,-0.15277793,-0.00003222,-0.00000123,0.00001311,-0.00187632
 ,0.00063282,-0.00204308,-0.00002665,-0.00001040,0.00000910,-0.00001721
 ,-0.00001992,-0.00000408,-0.00002174,-0.00004404,-0.00007738,0.0000606
 1,-0.00007855,-0.00000677,0.00033426,0.00006167,0.00054301,0.00011749,
 0.00000951,0.00055882,-0.00041962,-0.00052273,0.00065020,-0.00065569,-
 0.00059273,0.00036458,-0.02225190,0.00265893,-0.01831286,0.13777241,-0
 .01802342,0.16224844,0.00087727,0.00053867,0.00087143,-0.00004523,0.00
 018937,0.00020458,0.00002735,0.00038530,0.00009141,-0.00655004,-0.0081
 5430,-0.00593364,-0.00000594,-0.00007701,-0.00007428,-0.11124824,-0.09
 153358,-0.06629733,0.00000831,0.00001894,-0.00001480,-0.00020469,-0.00
 015404,0.00029837,0.00021644,0.00143888,-0.00189884,0.00045755,0.00015
 334,-0.00037722,-0.00004795,0.00012661,0.00009687,-0.00008974,-0.00003
 854,-0.00008357,-0.00004737,-0.00011864,-0.00001491,-0.00043716,0.0001
 1859,0.00026560,0.00004619,-0.00003510,0.00003801,0.00003808,0.0000294
 7,-0.00001890,-0.00000162,0.00000336,0.00000955,0.11853306,0.00046552,
 0.00119986,-0.00026373,-0.00024907,-0.00033619,-0.00020138,-0.00024716
 ,-0.00037281,-0.00068597,0.00668149,0.00987888,0.00724206,0.00003360,0
 .00018780,0.00023068,-0.09131645,-0.17840900,-0.09599106,-0.00000891,0
 .00001609,-0.00004609,-0.00017197,0.00072069,-0.00076993,0.00097905,0.
 00012381,0.00313353,0.00002070,-0.00016031,-0.00061199,0.00019525,0.00
 005652,-0.00018815,0.00012208,0.00012203,0.00008152,0.00012282,0.00012
 506,0.00005230,0.00002225,0.00026711,0.00034848,-0.00008231,0.00007063
 ,0.00011325,-0.00008824,-0.00006719,0.00007591,0.00004799,0.00000480,-
 0.00001240,0.10032472,0.19110287,-0.00040814,-0.00160411,0.00146669,-0
 .00007085,-0.00009087,-0.00025947,-0.00002696,-0.00015166,-0.00049019,
 -0.01463090,-0.02138348,-0.01658997,0.00005618,0.00010924,0.00018433,-
 0.06589962,-0.09552362,-0.11571676,-0.00001062,-0.00002929,-0.00008204
 ,0.00027583,0.00021816,0.00114987,-0.00207062,0.00307066,-0.00475396,0
 .00070893,0.00072266,-0.00010025,0.00003741,0.00027020,0.00049881,-0.0
 0011028,0.00023807,0.00011159,0.00011633,0.00005619,0.00002387,0.00047
 844,-0.00007721,0.00010036,-0.00004636,0.00007451,0.00012080,-0.000077
 00,-0.00003502,0.00005984,0.00001778,0.00000561,-0.00001315,0.07548791
 ,0.10372941,0.12744065,0.00021385,-0.00055443,0.00012452,0.00036106,0.
 00028438,0.00026325,-0.00072818,-0.00103512,0.00041799,-0.00761041,0.0
 0843170,0.00112081,-0.00017334,0.00010962,0.00008232,-0.14750925,0.127
 23919,0.02519356,0.00005384,0.00000989,-0.00002739,0.00035746,0.000407
 77,-0.00229196,-0.00004992,-0.00014142,0.00020460,0.00001384,-0.000034
 38,-0.00004990,-0.00000801,0.00000886,-0.00004661,0.00004666,-0.000147
 31,-0.00001872,-0.00003736,-0.00020575,-0.00010323,-0.00090479,-0.0007
 9780,0.00056268,0.00007467,0.00030995,-0.00007366,-0.00001706,-0.00001
 024,-0.00002057,-0.00000322,-0.00000033,0.00000899,0.01047450,-0.01329
 904,-0.00207056,0.16051925,0.00074420,-0.00016067,-0.00065518,-0.00012
 545,-0.00003862,0.00011322,0.00004437,0.00097269,0.00050971,0.00683711
 ,-0.00959204,-0.00141946,-0.00008934,-0.00027690,-0.00040218,0.1258175
 9,-0.20665637,-0.03152499,0.00007814,-0.00004459,-0.00001730,0.0005560
 1,0.00061177,0.00240844,-0.00032359,0.00074861,0.00024765,-0.00000032,
 -0.00000195,0.00007754,-0.00014574,0.00016853,0.00005263,0.00001151,0.
 00010612,0.00006556,-0.00009422,0.00021824,-0.00011064,-0.00038790,-0.
 00076888,-0.00041719,-0.00018456,-0.00013716,0.00013631,0.00015575,0.0
 0012644,-0.00010658,-0.00000071,0.00000606,0.00002015,0.01416448,-0.01
 728894,-0.00310161,-0.14016500,0.22279108,0.00011442,-0.00030967,0.001
 27757,0.00070653,0.00071758,-0.00032733,0.00060263,0.00038105,0.000092
 97,-0.01946759,0.02418615,0.00570435,0.00003979,-0.00008451,-0.0001696
 7,0.02535268,-0.03239877,-0.05299648,-0.00003221,0.00000317,0.00000056
 ,-0.00199225,0.00264694,-0.00542652,0.00036438,-0.00077485,0.00138122,
 0.00006293,-0.00001899,-0.00010576,-0.00006981,-0.00033375,0.00017623,
 -0.00000979,-0.00042556,-0.00083742,-0.00017468,-0.00019187,0.00011073
 ,0.00036662,0.00000072,-0.00031797,0.00006531,-0.00013966,0.00006811,0
 .00004157,0.00002592,-0.00000328,-0.00006351,-0.00003102,0.00000458,0.
 01095285,-0.01180598,-0.00329534,-0.02669924,0.03300951,0.05811569,-0.
 00053273,0.00090109,-0.00208592,-0.00005226,0.00004707,-0.00025777,-0.
 00025003,-0.00054515,-0.00055355,0.01070990,0.00472557,-0.00806707,0.0
 0009085,0.00022561,0.00026677,-0.20869630,-0.06621126,0.11581617,-0.00
 005057,0.00000779,-0.00002977,0.00071557,-0.00033263,0.00064928,0.0004
 6258,-0.00028746,0.00075174,0.00004358,0.00017819,-0.00006579,0.000363
 53,0.00034366,-0.00043806,-0.00000822,-0.00009417,-0.00005921,0.000053
 19,-0.00008687,0.00009505,-0.00001390,0.00027082,0.00059884,0.00003181
 ,0.00004642,0.00002965,-0.00011378,-0.00008485,0.00007900,-0.00001307,
 -0.00001082,-0.00001781,-0.01202606,-0.00357853,0.00821604,-0.01506735
 ,-0.00687147,0.00983480,0.22433352,0.00226116,-0.00046867,0.00222508,0
 .00007216,-0.00006511,0.00003953,0.00015279,0.00030311,-0.00021879,-0.
 01001852,-0.00520159,0.00625715,-0.00001801,-0.00004147,-0.00008675,-0
 .06572487,-0.07385685,0.04585399,0.00003225,-0.00002711,-0.00002389,-0
 .00031490,-0.00007397,-0.00041409,0.00033704,0.00047380,-0.00028943,0.
 00032244,0.00030363,-0.00026905,-0.00062348,-0.00003328,0.00076545,0.0
 0001091,0.00016964,0.00017986,-0.00005486,0.00017224,-0.00002157,0.000
 06795,-0.00015039,-0.00011100,-0.00014210,0.00003492,0.00011194,0.0000
 3793,0.00002970,-0.00000788,-0.00000091,0.00000093,-0.00000354,-0.0173
 5504,-0.00722963,0.01346352,0.01957617,0.00914042,-0.01445648,0.071379
 27,0.07645638,-0.00427428,0.00168639,-0.00438171,-0.00045959,0.0002220
 4,0.00028118,-0.00022302,-0.00011774,-0.00028695,0.02367250,0.00865822
 ,-0.01574416,-0.00002070,0.00004103,0.00012303,0.11465513,0.04585179,-
 0.12815709,-0.00000311,0.00002205,-0.00008340,-0.00008585,0.00000795,0
 .00134529,0.00024018,-0.00090751,0.00063260,-0.00003844,0.00010698,0.0
 0018674,0.00139353,0.00083618,-0.00112086,-0.00001601,-0.00008765,0.00
 014664,0.00005492,-0.00002524,0.00000355,-0.00001753,0.00007827,0.0001
 8849,0.00003740,0.00001295,0.00008914,-0.00003855,-0.00002049,0.000017
 03,0.00004851,0.00000928,0.00000451,-0.01358376,-0.00445420,0.01007736
 ,0.00343252,0.00111289,-0.00344885,-0.12479462,-0.05300901,0.14005718,
 -0.00068875,-0.00048383,0.00123922,0.00016480,-0.00028312,-0.00025734,
 0.00014928,-0.00011139,0.00043307,-0.00021078,-0.00009829,-0.00016075,
 -0.00560804,0.00168321,-0.00428523,0.00004823,0.00002053,-0.00001776,-
 0.19023748,0.02429196,-0.13130058,0.00000642,-0.00000505,-0.00000665,-
 0.00003914,0.00000310,0.00003986,-0.00089273,-0.00067314,0.00065923,0.
 00005474,0.00016951,-0.00032537,0.00005299,0.00005226,0.00021055,0.000
 03500,-0.00014145,0.00004653,0.00001374,0.00003171,0.00003705,0.000032
 71,0.00008750,-0.00002852,-0.00003761,0.00005874,0.00013016,0.00091040
 ,0.00142861,0.00038397,0.00000059,0.00000986,0.00000689,-0.00001219,-0
 .00001397,0.00000513,0.00000894,0.00001365,-0.00001171,0.20729895,-0.0
 0045236,0.00009178,0.00007678,-0.00069077,-0.00036458,0.00077726,0.000
 23751,0.00142220,-0.00002905,-0.00004428,-0.00004810,-0.00000511,0.025
 62214,-0.00364050,0.02318490,0.00004339,-0.00000865,0.00000729,0.02368
 071,-0.05061980,0.02154397,0.00005553,-0.00000023,-0.00004068,0.000002
 29,0.00002046,-0.00000235,-0.00032342,-0.00009561,0.00010018,-0.000118
 56,0.00005189,-0.00003046,0.00013055,0.00015665,-0.00025591,-0.0002023
 0,-0.00068230,-0.00061445,-0.00008635,-0.00010807,-0.00003796,0.000008
 75,0.00022603,-0.00031938,-0.00031351,0.00153020,-0.00055480,0.0012143
 1,-0.00673684,0.00069547,-0.00000681,-0.00001836,-0.00000705,-0.000001
 98,0.00000502,0.00002250,-0.00000265,0.00001372,-0.00003073,-0.0274781
 7,0.05657112,0.00017564,0.00036622,0.00093445,-0.00005394,0.00005468,0
 .00019502,-0.00086021,-0.00013616,-0.00024073,-0.00000356,-0.00034376,
 -0.00036103,-0.00137404,0.00081219,-0.00224967,-0.00008502,0.,-0.00002
 977,-0.12985148,0.02212356,-0.16630537,0.00001822,0.00001921,0.0000012
 4,-0.00015295,-0.00011096,0.00012478,0.00025434,-0.00020782,-0.0010033
 0,0.00015476,0.00013228,-0.00010102,0.00013184,-0.00014720,0.00008194,
 -0.00003988,-0.00010914,-0.00003731,-0.00000932,0.00004641,0.00000046,
 0.00017929,0.00003324,0.00007801,0.00040901,0.00038746,0.00058737,0.00
 013651,0.00044740,0.00136913,0.00000450,0.00003453,0.00001039,0.000009
 82,-0.00003472,-0.00000040,0.00001566,-0.00002164,0.00005882,0.1435939
 0,-0.02479654,0.17755662,-0.00004657,-0.00016024,-0.00050576,-0.000079
 42,-0.00020337,-0.00029662,0.00064068,-0.00056990,-0.00090115,0.000020
 97,0.00010545,0.00014856,-0.00316662,0.00304705,0.00700865,0.00000683,
 -0.00000258,-0.00002387,-0.06994998,0.02999520,0.06717156,-0.00001366,
 -0.00001084,-0.00000242,0.00006210,0.00003980,-0.00004506,-0.00054678,
 -0.00009175,-0.00003955,0.00007090,-0.00002275,0.00004351,-0.00005712,
 0.00000234,0.00015756,-0.00004974,0.00009669,0.00013162,0.00035071,0.0
 0022099,-0.00004213,-0.00009364,-0.00000411,-0.00005830,0.00056492,0.0
 0153570,-0.00057829,-0.00021263,-0.00022618,0.00027472,0.00000886,0.00
 000754,0.00003544,-0.00000117,0.00000175,0.00000357,0.00001825,0.00001
 386,-0.00000585,0.00751016,-0.01009715,-0.02104419,0.07223832,-0.00008
 823,-0.00027638,-0.00005905,-0.00001335,-0.00017252,-0.00002067,0.0004
 0835,0.00189885,-0.00141078,-0.00001752,0.00010153,0.00007909,0.009554
 81,-0.01431111,-0.02998542,-0.00000962,-0.00006100,-0.00004441,0.02974
 175,-0.08665726,-0.09016322,-0.00000602,-0.00000839,0.00000367,0.00005
 088,0.00003183,-0.00001340,-0.00039173,0.00013173,-0.00003718,0.000041
 37,0.00007599,0.00006478,-0.00007129,0.00001672,0.00002229,0.00018431,
 0.00000597,0.00017685,-0.00061648,-0.00007994,0.00085413,0.00014829,0.
 00045110,0.00036557,0.00159111,-0.00641800,0.00141531,-0.00003472,0.00
 131370,0.00034896,-0.00002273,0.00002018,0.00004845,-0.00000428,0.0000
 0363,-0.00000192,0.00001930,0.00002442,0.00000462,-0.00194458,0.000759
 00,0.00373538,-0.03488046,0.09659104,0.00005600,-0.00067447,-0.0005126
 7,0.00017534,-0.00016712,-0.00038891,-0.00033758,0.00006063,0.00100431
 ,0.00002787,0.00019874,0.00024368,-0.00117957,0.00172833,0.00421663,-0
 .00000046,-0.00006625,-0.00000347,0.06680250,-0.09063582,-0.24876655,-
 0.00004978,-0.00000719,0.00001208,0.00009738,0.00008210,-0.00006321,0.
 00006111,0.00033116,0.00034538,0.00011449,0.00010598,0.00009073,-0.000
 10646,0.00004269,0.00014196,-0.00003805,0.00005622,0.00018765,-0.00036
 079,-0.00062090,-0.00007376,-0.00017372,-0.00006078,0.00014996,-0.0000
 8653,0.00141964,0.00143934,0.00015998,-0.00061403,0.00056473,-0.000016
 43,-0.00002595,0.00002274,-0.00000724,0.00004119,-0.00000985,-0.000005
 99,0.00002399,-0.00000691,0.00725684,-0.00776324,-0.01837905,-0.074302
 11,0.09969539,0.26824713,-0.00006255,0.00033946,0.00066908,0.00007088,
 0.00029519,0.00004688,0.00010601,0.00167726,-0.00026994,0.00001790,-0.
 00020137,-0.00028021,0.00799450,0.00557819,-0.00372644,-0.00005097,0.0
 0001980,0.00000453,-0.22295744,-0.10910217,0.06988060,-0.00001579,0.00
 001695,0.00001932,-0.00010823,-0.00007691,0.00008308,-0.00015654,-0.00
 047594,-0.00037832,0.00003816,0.00000523,-0.00004388,0.00004634,-0.000
 12320,0.00007095,0.00002642,0.00008117,0.00012047,-0.00000092,0.000083
 61,-0.00009624,0.00022343,0.00034212,-0.00014739,0.00026219,-0.0007308
 1,-0.00002622,0.00070107,-0.00061693,0.00007268,0.00001583,0.00000880,
 -0.00001529,0.00000712,-0.00000864,-0.00000413,-0.00000746,-0.00002488
 ,0.00003836,-0.01856023,-0.01117683,0.00839110,-0.00727535,-0.00363917
 ,0.00191318,0.23968560,0.00018930,-0.00026537,-0.00036593,0.00052653,0
 .00009473,0.00019257,0.00397684,-0.00593869,-0.00012437,0.00004504,0.0
 0014942,0.00011482,-0.02765707,-0.01580267,0.01069679,0.00000750,-0.00
 008483,0.00000768,-0.10788288,-0.11254163,0.04222282,-0.00004239,0.000
 00713,0.00001540,0.00006015,0.00002874,-0.00004171,0.00010602,0.000238
 96,0.00019932,-0.00006003,0.00006828,0.00003668,-0.00007842,0.00004977
 ,-0.00005704,0.00001520,0.00011645,-0.00011676,0.00015435,0.00019744,0
 .00008391,-0.00161265,-0.00126177,0.00081253,-0.00021396,0.00102686,-0
 .00078005,0.00016737,0.00144193,0.00031408,0.00000410,-0.00001390,-0.0
 0000275,0.00001956,0.00006750,-0.00002052,-0.00003893,0.00002518,0.000
 00193,0.00338235,0.00147496,-0.00228462,0.01120296,0.00655891,-0.00315
 034,0.11772907,0.12436262,-0.00009483,-0.00038771,0.00009406,0.0000458
 3,0.00004719,-0.00000179,-0.00097681,0.00094387,0.00044952,0.00000505,
 -0.00001256,0.00000508,0.00249191,0.00135345,-0.00242734,-0.00003175,-
 0.00003650,-0.00002529,0.06969213,0.04247181,-0.07521160,-0.00000789,-
 0.00000457,0.00000103,-0.00000494,0.00000850,0.00001244,-0.00006186,0.
 00006490,-0.00005824,0.00014915,0.00009895,0.00004942,0.00005035,-0.00
 004225,0.00013288,0.00004635,0.00015640,0.00016519,-0.00029368,-0.0002
 6099,0.00033744,0.00033264,0.00031902,0.00024774,-0.00041761,0.0000031
 9,0.00027985,0.00017332,0.00000808,-0.00015608,-0.00000741,0.00001515,
 0.00003384,-0.00001196,-0.00000499,0.00000686,0.00002254,0.00001259,0.
 00001837,-0.01764850,-0.01192064,0.00770940,0.02287012,0.01492155,-0.0
 0846194,-0.07632215,-0.04775444,0.07679917\\0.,0.,0.00000012,0.0000001
 6,0.00000001,-0.00000016,-0.00000024,-0.00000038,0.00000029,-0.0000004
 6,0.00000122,-0.00000135,0.00000013,-0.00000036,0.00000045,-0.00000046
 ,0.00000019,0.00000032,0.00000053,-0.00000081,0.00000038,0.00000006,0.
 00000081,-0.00000095,-0.00000014,0.00000052,-0.00000050,0.00000053,0.0
 0000028,-0.00000017,0.00000037,0.00000042,-0.00000018,-0.00000033,0.00
 000015,-0.00000010,0.00000041,-0.00000011,0.00000003,-0.00000043,-0.00
 000005,0.00000028,-0.00000047,-0.00000036,0.00000027,0.00000018,-0.000
 00062,0.00000050,0.,-0.00000068,0.00000063,-0.00000022,0.00000041,-0.0
 0000011,-0.00000080,0.00000055,-0.00000034,-0.00000057,0.00000064,-0.0
 0000032,0.00000055,-0.00000054,0.00000011,0.00000042,-0.00000044,0.000
 00033,0.00000080,-0.00000083,0.00000049\\\@


 SUCCESS-- IF YOU HAVE TRIED TO DO SOMETHING AND FAILED
           YOU ARE BETTER OFF THAN IF YOU HAD TRIED TO DO
           NOTHING AND SUCCEEDED.

                   -- FROM THE BACK OF A SUGAR PACKET
 Job cpu time:       0 days  5 hours 44 minutes 54.3 seconds.
 Elapsed time:       0 days  2 hours 52 minutes 28.0 seconds.
 File lengths (MBytes):  RWF=   1488 Int=      0 D2E=      0 Chk=     32 Scr=     32
 Normal termination of Gaussian 16 at Sun Sep 29 09:36:20 2019.
