 Entering Gaussian System, Link 0=g16
 Input=tight/species/CCCCCCC/conformers/CCCCCCC_993.com
 Output=tight/species/CCCCCCC/conformers/CCCCCCC_993.log
 Initial command:
 /shared/centos7/gaussian/g16/l1.exe "/scratch/harms.n/gauss_scrdir/Gau-10202.inp" -scrdir="/scratch/harms.n/gauss_scrdir/"
 Entering Link 1 = /shared/centos7/gaussian/g16/l1.exe PID=     10204.
  
 Copyright (c) 1988,1990,1992,1993,1995,1998,2003,2009,2016,
            Gaussian, Inc.  All Rights Reserved.
  
 This is part of the Gaussian(R) 16 program.  It is based on
 the Gaussian(R) 09 system (copyright 2009, Gaussian, Inc.),
 the Gaussian(R) 03 system (copyright 2003, Gaussian, Inc.),
 the Gaussian(R) 98 system (copyright 1998, Gaussian, Inc.),
 the Gaussian(R) 94 system (copyright 1995, Gaussian, Inc.),
 the Gaussian 92(TM) system (copyright 1992, Gaussian, Inc.),
 the Gaussian 90(TM) system (copyright 1990, Gaussian, Inc.),
 the Gaussian 88(TM) system (copyright 1988, Gaussian, Inc.),
 the Gaussian 86(TM) system (copyright 1986, Carnegie Mellon
 University), and the Gaussian 82(TM) system (copyright 1983,
 Carnegie Mellon University). Gaussian is a federally registered
 trademark of Gaussian, Inc.
  
 This software contains proprietary and confidential information,
 including trade secrets, belonging to Gaussian, Inc.
  
 This software is provided under written license and may be
 used, copied, transmitted, or stored only in accord with that
 written license.
  
 The following legend is applicable only to US Government
 contracts under FAR:
  
                    RESTRICTED RIGHTS LEGEND
  
 Use, reproduction and disclosure by the US Government is
 subject to restrictions as set forth in subparagraphs (a)
 and (c) of the Commercial Computer Software - Restricted
 Rights clause in FAR 52.227-19.
  
 Gaussian, Inc.
 340 Quinnipiac St., Bldg. 40, Wallingford CT 06492
  
  
 ---------------------------------------------------------------
 Warning -- This program may not be used in any manner that
 competes with the business of Gaussian, Inc. or will provide
 assistance to any competitor of Gaussian, Inc.  The licensee
 of this program is prohibited from giving any competitor of
 Gaussian, Inc. access to this program.  By using this program,
 the user acknowledges that Gaussian, Inc. is engaged in the
 business of creating and licensing software in the field of
 computational chemistry and represents and warrants to the
 licensee that it is not a competitor of Gaussian, Inc. and that
 it will not use this program in any manner prohibited above.
 ---------------------------------------------------------------
  

 Cite this work as:
 Gaussian 16, Revision A.03,
 M. J. Frisch, G. W. Trucks, H. B. Schlegel, G. E. Scuseria, 
 M. A. Robb, J. R. Cheeseman, G. Scalmani, V. Barone, 
 G. A. Petersson, H. Nakatsuji, X. Li, M. Caricato, A. V. Marenich, 
 J. Bloino, B. G. Janesko, R. Gomperts, B. Mennucci, H. P. Hratchian, 
 J. V. Ortiz, A. F. Izmaylov, J. L. Sonnenberg, D. Williams-Young, 
 F. Ding, F. Lipparini, F. Egidi, J. Goings, B. Peng, A. Petrone, 
 T. Henderson, D. Ranasinghe, V. G. Zakrzewski, J. Gao, N. Rega, 
 G. Zheng, W. Liang, M. Hada, M. Ehara, K. Toyota, R. Fukuda, 
 J. Hasegawa, M. Ishida, T. Nakajima, Y. Honda, O. Kitao, H. Nakai, 
 T. Vreven, K. Throssell, J. A. Montgomery, Jr., J. E. Peralta, 
 F. Ogliaro, M. J. Bearpark, J. J. Heyd, E. N. Brothers, K. N. Kudin, 
 V. N. Staroverov, T. A. Keith, R. Kobayashi, J. Normand, 
 K. Raghavachari, A. P. Rendell, J. C. Burant, S. S. Iyengar, 
 J. Tomasi, M. Cossi, J. M. Millam, M. Klene, C. Adamo, R. Cammi, 
 J. W. Ochterski, R. L. Martin, K. Morokuma, O. Farkas, 
 J. B. Foresman, and D. J. Fox, Gaussian, Inc., Wallingford CT, 2016.
 
 ******************************************
 Gaussian 16:  EM64L-G16RevA.03 25-Dec-2016
                28-Sep-2019 
 ******************************************
 %nprocshared=20
 Will use up to   20 processors via shared memory.
 %mem=5GB
 ----------------------------------------------------------------------
 #p m062x/cc-pVTZ opt=(calcfc,maxcycles=900,Tight) freq IOP(7/33=1,2/16
 =3) scf=(maxcycle=900)
 ----------------------------------------------------------------------
 1/6=900,7=10,10=4,18=20,19=15,26=3,38=1/1,3;
 2/9=110,12=2,16=3,17=6,18=5,40=1/2;
 3/5=16,6=1,11=2,25=1,30=1,71=2,74=-55,140=1/1,2,3;
 4//1;
 5/5=2,7=900,38=5/2;
 8/6=4,10=90,11=11/1;
 11/6=1,8=1,9=11,15=111,16=1/1,2,10;
 10/6=1,13=1/2;
 6/7=2,8=2,9=2,10=2,28=1/1;
 7/10=1,18=20,25=1,33=1/1,2,3,16;
 1/6=900,7=10,10=4,18=20,19=15,26=3/3(2);
 2/9=110,16=3/2;
 99//99;
 2/9=110,16=3/2;
 3/5=16,6=1,11=2,25=1,30=1,71=1,74=-55/1,2,3;
 4/5=5,16=3,69=1/1;
 5/5=2,7=900,38=5/2;
 7/33=1/1,2,3,16;
 1/6=900,7=10,18=20,19=15,26=3/3(-5);
 2/9=110,16=3/2;
 6/7=2,8=2,9=2,10=2,19=2,28=1/1;
 99/9=1/99;
 Leave Link    1 at Sat Sep 28 18:58:23 2019, MaxMem=   671088640 cpu:               4.7 elap:               2.4
 (Enter /shared/centos7/gaussian/g16/l101.exe)
 ------------------------------
 Gaussian input prepared by ASE
 ------------------------------
 Symbolic Z-matrix:
 Charge =  0 Multiplicity = 1
 C                     1.37669  -1.18418   0.39294 
 C                     0.22009  -0.39426   0.90311 
 C                     0.19966  -0.07278   2.37661 
 C                     2.08103  -0.56143  -0.76512 
 C                     1.38884  -0.50069   3.20393 
 C                     3.48378  -0.19808  -0.50079 
 C                     2.70908   0.13125   2.84679 
 H                     1.51487   0.35575  -1.0928 
 H                     2.03445  -1.25014  -1.6422 
 H                     1.02488  -2.19784   0.10605 
 H                     2.10924  -1.34788   1.20977 
 H                    -0.7111   -0.92679   0.65415 
 H                     0.15626   0.56131   0.34092 
 H                    -0.69421  -0.53884   2.82482 
 H                     0.05555   1.02015   2.50263 
 H                     1.15779  -0.26402   4.27543 
 H                     1.4869   -1.59849   3.15424 
 H                     3.80343  -0.52922   0.50522 
 H                     4.18411  -0.66467  -1.25535 
 H                     3.64039   0.90044  -0.54776 
 H                     2.59443   1.16542   2.51978 
 H                     3.21211  -0.43623   2.01566 
 H                     3.40092   0.11808   3.73733 
 
 ITRead=  0  0  0  0  0  0  0  0  0  0  0  0  0  0  0  0  0  0  0  0
 ITRead=  0  0  0
 MicOpt= -1 -1 -1 -1 -1 -1 -1 -1 -1 -1 -1 -1 -1 -1 -1 -1 -1 -1 -1 -1
 MicOpt= -1 -1 -1
 NAtoms=     23 NQM=       23 NQMF=       0 NMMI=      0 NMMIF=      0
                NMic=       0 NMicF=      0.
                    Isotopes and Nuclear Properties:
 (Nuclear quadrupole moments (NQMom) in fm**2, nuclear magnetic moments (NMagM)
  in nuclear magnetons)

  Atom         1           2           3           4           5           6           7           8           9          10
 IAtWgt=          12          12          12          12          12          12          12           1           1           1
 AtmWgt=  12.0000000  12.0000000  12.0000000  12.0000000  12.0000000  12.0000000  12.0000000   1.0078250   1.0078250   1.0078250
 NucSpn=           0           0           0           0           0           0           0           1           1           1
 AtZEff=  -0.0000000  -0.0000000  -0.0000000  -0.0000000  -0.0000000  -0.0000000  -0.0000000  -0.0000000  -0.0000000  -0.0000000
 NQMom=    0.0000000   0.0000000   0.0000000   0.0000000   0.0000000   0.0000000   0.0000000   0.0000000   0.0000000   0.0000000
 NMagM=    0.0000000   0.0000000   0.0000000   0.0000000   0.0000000   0.0000000   0.0000000   2.7928460   2.7928460   2.7928460
 AtZNuc=   6.0000000   6.0000000   6.0000000   6.0000000   6.0000000   6.0000000   6.0000000   1.0000000   1.0000000   1.0000000

  Atom        11          12          13          14          15          16          17          18          19          20
 IAtWgt=           1           1           1           1           1           1           1           1           1           1
 AtmWgt=   1.0078250   1.0078250   1.0078250   1.0078250   1.0078250   1.0078250   1.0078250   1.0078250   1.0078250   1.0078250
 NucSpn=           1           1           1           1           1           1           1           1           1           1
 AtZEff=  -0.0000000  -0.0000000  -0.0000000  -0.0000000  -0.0000000  -0.0000000  -0.0000000  -0.0000000  -0.0000000  -0.0000000
 NQMom=    0.0000000   0.0000000   0.0000000   0.0000000   0.0000000   0.0000000   0.0000000   0.0000000   0.0000000   0.0000000
 NMagM=    2.7928460   2.7928460   2.7928460   2.7928460   2.7928460   2.7928460   2.7928460   2.7928460   2.7928460   2.7928460
 AtZNuc=   1.0000000   1.0000000   1.0000000   1.0000000   1.0000000   1.0000000   1.0000000   1.0000000   1.0000000   1.0000000

  Atom        21          22          23
 IAtWgt=           1           1           1
 AtmWgt=   1.0078250   1.0078250   1.0078250
 NucSpn=           1           1           1
 AtZEff=  -0.0000000  -0.0000000  -0.0000000
 NQMom=    0.0000000   0.0000000   0.0000000
 NMagM=    2.7928460   2.7928460   2.7928460
 AtZNuc=   1.0000000   1.0000000   1.0000000
 Leave Link  101 at Sat Sep 28 18:58:26 2019, MaxMem=   671088640 cpu:               6.7 elap:               3.4
 (Enter /shared/centos7/gaussian/g16/l103.exe)

 GradGradGradGradGradGradGradGradGradGradGradGradGradGradGradGradGradGrad
 Berny optimization.
 Initialization pass.
                           ----------------------------
                           !    Initial Parameters    !
                           ! (Angstroms and Degrees)  !
 --------------------------                            --------------------------
 ! Name  Definition              Value          Derivative Info.                !
 --------------------------------------------------------------------------------
 ! R1    R(1,2)                  1.4906         calculate D2E/DX2 analytically  !
 ! R2    R(1,4)                  1.4917         calculate D2E/DX2 analytically  !
 ! R3    R(1,10)                 1.1107         calculate D2E/DX2 analytically  !
 ! R4    R(1,11)                 1.1093         calculate D2E/DX2 analytically  !
 ! R5    R(2,3)                  1.5083         calculate D2E/DX2 analytically  !
 ! R6    R(2,12)                 1.1012         calculate D2E/DX2 analytically  !
 ! R7    R(2,13)                 1.1105         calculate D2E/DX2 analytically  !
 ! R8    R(3,5)                  1.5105         calculate D2E/DX2 analytically  !
 ! R9    R(3,14)                 1.1032         calculate D2E/DX2 analytically  !
 ! R10   R(3,15)                 1.1096         calculate D2E/DX2 analytically  !
 ! R11   R(4,6)                  1.473          calculate D2E/DX2 analytically  !
 ! R12   R(4,8)                  1.1266         calculate D2E/DX2 analytically  !
 ! R13   R(4,9)                  1.1161         calculate D2E/DX2 analytically  !
 ! R14   R(5,7)                  1.5066         calculate D2E/DX2 analytically  !
 ! R15   R(5,16)                 1.1214         calculate D2E/DX2 analytically  !
 ! R16   R(5,17)                 1.1033         calculate D2E/DX2 analytically  !
 ! R17   R(6,18)                 1.1063         calculate D2E/DX2 analytically  !
 ! R18   R(6,19)                 1.1303         calculate D2E/DX2 analytically  !
 ! R19   R(6,20)                 1.1106         calculate D2E/DX2 analytically  !
 ! R20   R(7,21)                 1.0907         calculate D2E/DX2 analytically  !
 ! R21   R(7,22)                 1.1251         calculate D2E/DX2 analytically  !
 ! R22   R(7,23)                 1.1278         calculate D2E/DX2 analytically  !
 ! A1    A(2,1,4)              114.2583         calculate D2E/DX2 analytically  !
 ! A2    A(2,1,10)             109.0427         calculate D2E/DX2 analytically  !
 ! A3    A(2,1,11)             109.7896         calculate D2E/DX2 analytically  !
 ! A4    A(4,1,10)             109.2721         calculate D2E/DX2 analytically  !
 ! A5    A(4,1,11)             108.7502         calculate D2E/DX2 analytically  !
 ! A6    A(10,1,11)            105.3485         calculate D2E/DX2 analytically  !
 ! A7    A(1,2,3)              117.2457         calculate D2E/DX2 analytically  !
 ! A8    A(1,2,12)             108.8128         calculate D2E/DX2 analytically  !
 ! A9    A(1,2,13)             109.1066         calculate D2E/DX2 analytically  !
 ! A10   A(3,2,12)             108.2087         calculate D2E/DX2 analytically  !
 ! A11   A(3,2,13)             108.0819         calculate D2E/DX2 analytically  !
 ! A12   A(12,2,13)            104.6587         calculate D2E/DX2 analytically  !
 ! A13   A(2,3,5)              117.647          calculate D2E/DX2 analytically  !
 ! A14   A(2,3,14)             108.5317         calculate D2E/DX2 analytically  !
 ! A15   A(2,3,15)             108.8238         calculate D2E/DX2 analytically  !
 ! A16   A(5,3,14)             107.1979         calculate D2E/DX2 analytically  !
 ! A17   A(5,3,15)             108.6074         calculate D2E/DX2 analytically  !
 ! A18   A(14,3,15)            105.3514         calculate D2E/DX2 analytically  !
 ! A19   A(1,4,6)              114.4152         calculate D2E/DX2 analytically  !
 ! A20   A(1,4,8)              109.1726         calculate D2E/DX2 analytically  !
 ! A21   A(1,4,9)              109.4363         calculate D2E/DX2 analytically  !
 ! A22   A(6,4,8)              109.2666         calculate D2E/DX2 analytically  !
 ! A23   A(6,4,9)              109.4499         calculate D2E/DX2 analytically  !
 ! A24   A(8,4,9)              104.6449         calculate D2E/DX2 analytically  !
 ! A25   A(3,5,7)              116.1813         calculate D2E/DX2 analytically  !
 ! A26   A(3,5,16)             107.5385         calculate D2E/DX2 analytically  !
 ! A27   A(3,5,17)             109.0979         calculate D2E/DX2 analytically  !
 ! A28   A(7,5,16)             108.5738         calculate D2E/DX2 analytically  !
 ! A29   A(7,5,17)             109.1955         calculate D2E/DX2 analytically  !
 ! A30   A(16,5,17)            105.7438         calculate D2E/DX2 analytically  !
 ! A31   A(4,6,18)             111.3782         calculate D2E/DX2 analytically  !
 ! A32   A(4,6,19)             111.6191         calculate D2E/DX2 analytically  !
 ! A33   A(4,6,20)             111.7588         calculate D2E/DX2 analytically  !
 ! A34   A(18,6,19)            107.7266         calculate D2E/DX2 analytically  !
 ! A35   A(18,6,20)            107.0845         calculate D2E/DX2 analytically  !
 ! A36   A(19,6,20)            107.0197         calculate D2E/DX2 analytically  !
 ! A37   A(5,7,21)             112.1277         calculate D2E/DX2 analytically  !
 ! A38   A(5,7,22)             110.8141         calculate D2E/DX2 analytically  !
 ! A39   A(5,7,23)             110.2111         calculate D2E/DX2 analytically  !
 ! A40   A(21,7,22)            107.6842         calculate D2E/DX2 analytically  !
 ! A41   A(21,7,23)            108.1982         calculate D2E/DX2 analytically  !
 ! A42   A(22,7,23)            107.6469         calculate D2E/DX2 analytically  !
 ! D1    D(4,1,2,3)           -126.9971         calculate D2E/DX2 analytically  !
 ! D2    D(4,1,2,12)           109.8593         calculate D2E/DX2 analytically  !
 ! D3    D(4,1,2,13)            -3.7779         calculate D2E/DX2 analytically  !
 ! D4    D(10,1,2,3)           110.4197         calculate D2E/DX2 analytically  !
 ! D5    D(10,1,2,12)          -12.7239         calculate D2E/DX2 analytically  !
 ! D6    D(10,1,2,13)         -126.3611         calculate D2E/DX2 analytically  !
 ! D7    D(11,1,2,3)            -4.5275         calculate D2E/DX2 analytically  !
 ! D8    D(11,1,2,12)         -127.6711         calculate D2E/DX2 analytically  !
 ! D9    D(11,1,2,13)          118.6917         calculate D2E/DX2 analytically  !
 ! D10   D(2,1,4,6)            117.0058         calculate D2E/DX2 analytically  !
 ! D11   D(2,1,4,8)             -5.779          calculate D2E/DX2 analytically  !
 ! D12   D(2,1,4,9)           -119.7668         calculate D2E/DX2 analytically  !
 ! D13   D(10,1,4,6)          -120.536          calculate D2E/DX2 analytically  !
 ! D14   D(10,1,4,8)           116.6793         calculate D2E/DX2 analytically  !
 ! D15   D(10,1,4,9)             2.6914         calculate D2E/DX2 analytically  !
 ! D16   D(11,1,4,6)            -6.0287         calculate D2E/DX2 analytically  !
 ! D17   D(11,1,4,8)          -128.8135         calculate D2E/DX2 analytically  !
 ! D18   D(11,1,4,9)           117.1987         calculate D2E/DX2 analytically  !
 ! D19   D(1,2,3,5)              3.6449         calculate D2E/DX2 analytically  !
 ! D20   D(1,2,3,14)          -118.2006         calculate D2E/DX2 analytically  !
 ! D21   D(1,2,3,15)           127.6408         calculate D2E/DX2 analytically  !
 ! D22   D(12,2,3,5)           127.0965         calculate D2E/DX2 analytically  !
 ! D23   D(12,2,3,14)            5.2509         calculate D2E/DX2 analytically  !
 ! D24   D(12,2,3,15)         -108.9076         calculate D2E/DX2 analytically  !
 ! D25   D(13,2,3,5)          -120.0955         calculate D2E/DX2 analytically  !
 ! D26   D(13,2,3,14)          118.0589         calculate D2E/DX2 analytically  !
 ! D27   D(13,2,3,15)            3.9003         calculate D2E/DX2 analytically  !
 ! D28   D(2,3,5,7)             63.1713         calculate D2E/DX2 analytically  !
 ! D29   D(2,3,5,16)          -174.9834         calculate D2E/DX2 analytically  !
 ! D30   D(2,3,5,17)           -60.7431         calculate D2E/DX2 analytically  !
 ! D31   D(14,3,5,7)          -174.3001         calculate D2E/DX2 analytically  !
 ! D32   D(14,3,5,16)          -52.4548         calculate D2E/DX2 analytically  !
 ! D33   D(14,3,5,17)           61.7855         calculate D2E/DX2 analytically  !
 ! D34   D(15,3,5,7)           -60.933          calculate D2E/DX2 analytically  !
 ! D35   D(15,3,5,16)           60.9122         calculate D2E/DX2 analytically  !
 ! D36   D(15,3,5,17)          175.1525         calculate D2E/DX2 analytically  !
 ! D37   D(1,4,6,18)             4.6021         calculate D2E/DX2 analytically  !
 ! D38   D(1,4,6,19)           125.0566         calculate D2E/DX2 analytically  !
 ! D39   D(1,4,6,20)          -115.1293         calculate D2E/DX2 analytically  !
 ! D40   D(8,4,6,18)           127.336          calculate D2E/DX2 analytically  !
 ! D41   D(8,4,6,19)          -112.2096         calculate D2E/DX2 analytically  !
 ! D42   D(8,4,6,20)             7.6045         calculate D2E/DX2 analytically  !
 ! D43   D(9,4,6,18)          -118.618          calculate D2E/DX2 analytically  !
 ! D44   D(9,4,6,19)             1.8365         calculate D2E/DX2 analytically  !
 ! D45   D(9,4,6,20)           121.6505         calculate D2E/DX2 analytically  !
 ! D46   D(3,5,7,21)            34.9045         calculate D2E/DX2 analytically  !
 ! D47   D(3,5,7,22)           -85.453          calculate D2E/DX2 analytically  !
 ! D48   D(3,5,7,23)           155.4988         calculate D2E/DX2 analytically  !
 ! D49   D(16,5,7,21)          -86.3915         calculate D2E/DX2 analytically  !
 ! D50   D(16,5,7,22)          153.251          calculate D2E/DX2 analytically  !
 ! D51   D(16,5,7,23)           34.2028         calculate D2E/DX2 analytically  !
 ! D52   D(17,5,7,21)          158.7685         calculate D2E/DX2 analytically  !
 ! D53   D(17,5,7,22)           38.411          calculate D2E/DX2 analytically  !
 ! D54   D(17,5,7,23)          -80.6372         calculate D2E/DX2 analytically  !
 --------------------------------------------------------------------------------
 Trust Radius=3.00D-01 FncErr=1.00D-07 GrdErr=1.00D-06 EigMax=2.50D+02 EigMin=1.00D-04
 Number of steps in this run=    138 maximum allowed number of steps=    138.
 GradGradGradGradGradGradGradGradGradGradGradGradGradGradGradGradGradGrad

 Leave Link  103 at Sat Sep 28 18:58:27 2019, MaxMem=   671088640 cpu:               1.4 elap:               0.7
 (Enter /shared/centos7/gaussian/g16/l202.exe)
                          Input orientation:                          
 ---------------------------------------------------------------------
 Center     Atomic      Atomic             Coordinates (Angstroms)
 Number     Number       Type             X           Y           Z
 ---------------------------------------------------------------------
      1          6           0        1.376687   -1.184181    0.392941
      2          6           0        0.220087   -0.394262    0.903105
      3          6           0        0.199662   -0.072781    2.376609
      4          6           0        2.081032   -0.561432   -0.765120
      5          6           0        1.388840   -0.500689    3.203927
      6          6           0        3.483776   -0.198080   -0.500785
      7          6           0        2.709077    0.131254    2.846787
      8          1           0        1.514874    0.355752   -1.092801
      9          1           0        2.034452   -1.250143   -1.642196
     10          1           0        1.024883   -2.197840    0.106051
     11          1           0        2.109241   -1.347876    1.209771
     12          1           0       -0.711104   -0.926793    0.654148
     13          1           0        0.156256    0.561315    0.340918
     14          1           0       -0.694213   -0.538844    2.824824
     15          1           0        0.055547    1.020148    2.502630
     16          1           0        1.157793   -0.264024    4.275434
     17          1           0        1.486904   -1.598493    3.154244
     18          1           0        3.803430   -0.529224    0.505219
     19          1           0        4.184105   -0.664673   -1.255349
     20          1           0        3.640394    0.900444   -0.547759
     21          1           0        2.594434    1.165421    2.519781
     22          1           0        3.212114   -0.436234    2.015661
     23          1           0        3.400917    0.118082    3.737331
 ---------------------------------------------------------------------
                    Distance matrix (angstroms):
                    1          2          3          4          5
     1  C    0.000000
     2  C    1.490625   0.000000
     3  C    2.560378   1.508304   0.000000
     4  C    1.491652   2.504803   3.694428   0.000000
     5  C    2.892914   2.582846   1.510531   4.029411   0.000000
     6  C    2.492181   3.558239   4.368123   1.472952   4.266757
     7  C    3.086583   3.201428   2.561222   3.730969   1.506627
     8  H    2.144276   2.494521   3.735001   1.126559   4.383063
     9  H    2.139811   3.240835   4.572027   1.116134   4.946049
    10  H    1.110665   2.129762   3.217499   2.133594   3.551003
    11  H    1.109344   2.138300   2.575630   2.125909   2.283278
    12  H    2.119752   1.101220   2.127371   3.153385   3.330571
    13  H    2.130473   1.110520   2.132604   2.487698   3.293013
    14  H    3.258702   2.133038   1.103233   4.537642   2.117613
    15  H    3.324946   2.141521   1.109570   4.157184   2.140662
    16  H    3.996042   3.502693   2.135445   5.133031   1.121392
    17  H    2.794386   2.850022   2.142313   4.097548   1.103295
    18  H    2.516080   3.607891   4.086268   2.140433   3.621337
    19  H    3.296718   4.521669   5.423766   2.161920   5.265504
    20  H    3.217911   3.934435   4.619279   2.148473   4.594325
    21  H    3.395142   3.268605   2.699736   3.746489   2.167356
    22  H    2.561531   3.192456   3.055691   3.004625   2.177259
    23  H    4.120478   4.291039   3.483679   4.740876   2.171601
                    6          7          8          9         10
     6  C    0.000000
     7  C    3.451791   0.000000
     8  H    2.129269   4.122727   0.000000
     9  H    2.123722   4.744929   1.775020   0.000000
    10  H    3.226987   3.971502   2.863245   2.230186   0.000000
    11  H    2.477373   2.286361   2.925314   2.854621   1.765353
    12  H    4.411566   4.198187   3.106724   3.593860   2.220275
    13  H    3.515328   3.602947   1.985862   3.277459   2.902173
    14  H    5.350830   3.468702   4.585646   5.282596   3.619293
    15  H    4.717768   2.819538   3.936773   5.123463   4.127790
    16  H    5.312891   2.145636   5.415678   6.062945   4.597941
    17  H    4.394074   2.140154   4.675174   4.840144   3.140726
    18  H    1.106291   2.667730   2.928197   2.874091   3.265569
    19  H    1.130281   4.431335   2.862251   2.261291   3.766258
    20  H    1.110627   3.603048   2.260884   2.898598   4.107035
    21  H    3.431310   1.090678   3.856393   4.844645   4.427315
    22  H    2.542247   1.125104   3.629105   3.928010   3.396152
    23  H    4.250700   1.127778   5.190744   5.716518   4.918865
                   11         12         13         14         15
    11  H    0.000000
    12  H    2.905233   0.000000
    13  H    2.866019   1.750683   0.000000
    14  H    3.335008   2.205136   2.846653   0.000000
    15  H    3.390675   2.791993   2.212165   1.759661   0.000000
    16  H    3.387960   4.128650   4.143028   2.368485   2.450893
    17  H    2.056960   3.396013   3.788166   2.447171   3.054614
    18  H    2.009194   4.534452   3.810269   5.060578   4.520711
    19  H    3.293728   5.260984   4.502741   6.360945   5.831468
    20  H    3.238562   4.870207   3.611645   5.677560   4.708538
    21  H    2.875448   4.334112   3.325222   3.716553   2.543097
    22  H    1.642217   4.181628   3.624658   3.990572   3.510286
    23  H    3.194686   5.244664   4.718040   4.246682   3.678275
                   16         17         18         19         20
    16  H    0.000000
    17  H    1.773750   0.000000
    18  H    4.613485   3.677902   0.000000
    19  H    6.317328   5.252754   1.806338   0.000000
    20  H    5.548196   4.958532   1.783058   1.801637   0.000000
    21  H    2.681336   3.044403   2.896888   4.486414   3.251777
    22  H    3.058833   2.371406   1.624727   3.420009   2.922543
    23  H    2.338196   2.636298   3.320779   5.113995   4.362504
                   21         22         23
    21  H    0.000000
    22  H    1.789125   0.000000
    23  H    1.797154   1.818532   0.000000
 Stoichiometry    C7H16
 Framework group  C1[X(C7H16)]
 Deg. of freedom    63
 Full point group                 C1      NOp   1
 Largest Abelian subgroup         C1      NOp   1
 Largest concise Abelian subgroup C1      NOp   1
                         Standard orientation:                         
 ---------------------------------------------------------------------
 Center     Atomic      Atomic             Coordinates (Angstroms)
 Number     Number       Type             X           Y           Z
 ---------------------------------------------------------------------
      1          6           0       -0.665793   -0.750706   -0.625539
      2          6           0        0.334682   -1.438536    0.239276
      3          6           0        1.700797   -0.808869    0.349862
      4          6           0       -1.965234   -0.464806    0.048806
      5          6           0        1.923927    0.509452   -0.352951
      6          6           0       -2.285711    0.967684    0.170679
      7          6           0        1.093701    1.669735    0.131193
      8          1           0       -1.961356   -0.933325    1.073310
      9          1           0       -2.788819   -0.984841   -0.496195
     10          1           0       -0.850101   -1.369613   -1.529177
     11          1           0       -0.243007    0.202611   -1.003800
     12          1           0        0.460380   -2.472991   -0.116797
     13          1           0       -0.080876   -1.542537    1.263850
     14          1           0        2.447232   -1.519153   -0.044416
     15          1           0        1.951921   -0.684675    1.423480
     16          1           0        3.007784    0.773772   -0.239337
     17          1           0        1.760844    0.373481   -1.435621
     18          1           0       -1.530957    1.594671   -0.340313
     19          1           0       -3.294449    1.208445   -0.278785
     20          1           0       -2.316453    1.293860    1.231885
     21          1           0        0.917950    1.628614    1.206832
     22          1           0        0.090857    1.684038   -0.378669
     23          1           0        1.610842    2.643920   -0.104205
 ---------------------------------------------------------------------
 Rotational constants (GHZ):           3.4413154           1.7482846           1.2951622
 Leave Link  202 at Sat Sep 28 18:58:29 2019, MaxMem=   671088640 cpu:               3.6 elap:               1.8
 (Enter /shared/centos7/gaussian/g16/l301.exe)
 Standard basis: CC-pVTZ (5D, 7F)
 Ernie: Thresh=  0.10000D-02 Tol=  0.10000D-05 Strict=F.
 Ernie:  21 primitive shells out of 310 were deleted.
 There are   485 symmetry adapted cartesian basis functions of A   symmetry.
 There are   434 symmetry adapted basis functions of A   symmetry.
   434 basis functions,   636 primitive gaussians,   485 cartesian basis functions
    29 alpha electrons       29 beta electrons
       nuclear repulsion energy       335.0916118497 Hartrees.
 IExCor= 4336 DFT=T Ex+Corr=M062X ExCW=0 ScaHFX=  0.540000
 ScaDFX=  1.000000  1.000000  1.000000  1.000000 ScalE2=  1.000000  1.000000
 IRadAn=      5 IRanWt=     -1 IRanGd=            0 ICorTp=0 IEmpDi=  4
 NAtoms=   23 NActive=   23 NUniq=   23 SFac= 1.00D+00 NAtFMM=   60 NAOKFM=F Big=F
 Integral buffers will be    131072 words long.
 Raffenetti 2 integral format.
 Two-electron integral symmetry is turned on.
 Leave Link  301 at Sat Sep 28 18:58:30 2019, MaxMem=   671088640 cpu:               1.5 elap:               0.8
 (Enter /shared/centos7/gaussian/g16/l302.exe)
 NPDir=0 NMtPBC=     1 NCelOv=     1 NCel=       1 NClECP=     1 NCelD=      1
         NCelK=      1 NCelE2=     1 NClLst=     1 CellRange=     0.0.
 One-electron integrals computed using PRISM.
 One-electron integral symmetry used in STVInt
 NBasis=   434 RedAO= T EigKep=  2.09D-04  NBF=   434
 NBsUse=   434 1.00D-06 EigRej= -1.00D+00 NBFU=   434
 Precomputing XC quadrature grid using
 IXCGrd= 4 IRadAn=           5 IRanWt=          -1 IRanGd=           0 AccXCQ= 0.00D+00.
 Generated NRdTot=       0 NPtTot=           0 NUsed=           0 NTot=          32
 NSgBfM=   485   485   485   485   485 MxSgAt=    23 MxSgA2=    23.
 Leave Link  302 at Sat Sep 28 18:59:38 2019, MaxMem=   671088640 cpu:             135.7 elap:              67.9
 (Enter /shared/centos7/gaussian/g16/l303.exe)
 DipDrv:  MaxL=1.
 Leave Link  303 at Sat Sep 28 18:59:42 2019, MaxMem=   671088640 cpu:               8.3 elap:               4.1
 (Enter /shared/centos7/gaussian/g16/l401.exe)
 ExpMin= 1.03D-01 ExpMax= 8.24D+03 ExpMxC= 2.81D+02 IAcc=3 IRadAn=         5 AccDes= 0.00D+00
 Harris functional with IExCor= 1009 and IRadAn=       5 diagonalized for initial guess.
 HarFok:  IExCor= 1009 AccDes= 0.00D+00 IRadAn=         5 IDoV= 1 UseB2=F ITyADJ=14
 ICtDFT=  3500011 ScaDFX=  1.000000  1.000000  1.000000  1.000000
 FoFCou: FMM=F IPFlag=           0 FMFlag=      100000 FMFlg1=           0
         NFxFlg=           0 DoJE=T BraDBF=F KetDBF=T FulRan=T
         wScrn=  0.000000 ICntrl=       500 IOpCl=  0 I1Cent=   200000004 NGrid=           0
         NMat0=    1 NMatS0=      1 NMatT0=    0 NMatD0=    1 NMtDS0=    0 NMtDT0=    0
 Petite list used in FoFCou.
 Harris En= -276.297490612691    
 JPrj=0 DoOrth=F DoCkMO=F.
 Leave Link  401 at Sat Sep 28 19:00:25 2019, MaxMem=   671088640 cpu:              86.6 elap:              43.3
 (Enter /shared/centos7/gaussian/g16/l502.exe)
 Integral symmetry usage will be decided dynamically.
 Closed shell SCF:
 Using DIIS extrapolation, IDIIS=  1040.
 NGot=   671088640 LenX=   670604095 LenY=   670368385
 Requested convergence on RMS density matrix=1.00D-08 within 900 cycles.
 Requested convergence on MAX density matrix=1.00D-06.
 Requested convergence on             energy=1.00D-06.
 No special actions if energy rises.
 Fock matrices will be formed incrementally for  20 cycles.
 Integral accuracy reduced to 1.0D-05 until final iterations.

 Cycle   1  Pass 0  IDiag  1:
 FoFJK:  IHMeth= 1 ICntrl=       0 DoSepK=F KAlg= 0 I1Cent=           0 FoldK=F
 IRaf= 960000000 NMat=       1 IRICut=       1 DoRegI=T DoRafI=F ISym2E= 0 IDoP0=0 IntGTp=1.
 FoFCou: FMM=F IPFlag=           0 FMFlag=      100000 FMFlg1=           0
         NFxFlg=           0 DoJE=F BraDBF=F KetDBF=F FulRan=T
         wScrn=  0.000000 ICntrl=         0 IOpCl=  0 I1Cent=           0 NGrid=           0
         NMat0=    1 NMatS0=      1 NMatT0=    0 NMatD0=    1 NMtDS0=    0 NMtDT0=    0
 Symmetry not used in FoFCou.
 E= -275.932012432633    
 DIIS: error= 2.30D-02 at cycle   1 NSaved=   1.
 NSaved= 1 IEnMin= 1 EnMin= -275.932012432633     IErMin= 1 ErrMin= 2.30D-02
 ErrMax= 2.30D-02  0.00D+00 EMaxC= 1.00D-01 BMatC= 3.73D-01 BMatP= 3.73D-01
 IDIUse=3 WtCom= 7.70D-01 WtEn= 2.30D-01
 Coeff-Com:  0.100D+01
 Coeff-En:   0.100D+01
 Coeff:      0.100D+01
 Gap=     0.382 Goal=   None    Shift=    0.000
 GapD=    0.382 DampG=1.000 DampE=0.500 DampFc=0.5000 IDamp=-1.
 Damping current iteration by 5.00D-01
 RMSDP=1.99D-03 MaxDP=7.23D-02              OVMax= 1.63D-01

 Cycle   2  Pass 0  IDiag  1:
 RMSU=  9.91D-04    CP:  9.91D-01
 E= -276.106834467051     Delta-E=       -0.174822034418 Rises=F Damp=T
 DIIS: error= 3.65D-03 at cycle   2 NSaved=   2.
 NSaved= 2 IEnMin= 2 EnMin= -276.106834467051     IErMin= 2 ErrMin= 3.65D-03
 ErrMax= 3.65D-03  0.00D+00 EMaxC= 1.00D-01 BMatC= 1.95D-02 BMatP= 3.73D-01
 IDIUse=3 WtCom= 9.63D-01 WtEn= 3.65D-02
 Coeff-Com: -0.456D-01 0.105D+01
 Coeff-En:   0.000D+00 0.100D+01
 Coeff:     -0.439D-01 0.104D+01
 Gap=     0.435 Goal=   None    Shift=    0.000
 RMSDP=5.74D-04 MaxDP=2.12D-02 DE=-1.75D-01 OVMax= 9.12D-02

 Cycle   3  Pass 0  IDiag  1:
 RMSU=  5.64D-04    CP:  9.99D-01  9.05D-01
 E= -276.284567963630     Delta-E=       -0.177733496579 Rises=F Damp=F
 DIIS: error= 4.54D-03 at cycle   3 NSaved=   3.
 NSaved= 3 IEnMin= 3 EnMin= -276.284567963630     IErMin= 2 ErrMin= 3.65D-03
 ErrMax= 4.54D-03  0.00D+00 EMaxC= 1.00D-01 BMatC= 3.64D-03 BMatP= 1.95D-02
 IDIUse=3 WtCom= 9.55D-01 WtEn= 4.54D-02
 Coeff-Com: -0.548D-01 0.277D+00 0.778D+00
 Coeff-En:   0.000D+00 0.000D+00 0.100D+01
 Coeff:     -0.524D-01 0.265D+00 0.788D+00
 Gap=     0.405 Goal=   None    Shift=    0.000
 RMSDP=1.19D-04 MaxDP=2.99D-03 DE=-1.78D-01 OVMax= 1.30D-02

 Cycle   4  Pass 0  IDiag  1:
 RMSU=  9.17D-05    CP:  9.98D-01  9.57D-01  9.02D-01
 E= -276.287759936814     Delta-E=       -0.003191973185 Rises=F Damp=F
 DIIS: error= 9.89D-04 at cycle   4 NSaved=   4.
 NSaved= 4 IEnMin= 4 EnMin= -276.287759936814     IErMin= 4 ErrMin= 9.89D-04
 ErrMax= 9.89D-04  0.00D+00 EMaxC= 1.00D-01 BMatC= 3.07D-04 BMatP= 3.64D-03
 IDIUse=3 WtCom= 9.90D-01 WtEn= 9.89D-03
 Coeff-Com: -0.131D-01 0.354D-01 0.260D+00 0.718D+00
 Coeff-En:   0.000D+00 0.000D+00 0.000D+00 0.100D+01
 Coeff:     -0.130D-01 0.351D-01 0.257D+00 0.720D+00
 Gap=     0.405 Goal=   None    Shift=    0.000
 RMSDP=3.65D-05 MaxDP=1.17D-03 DE=-3.19D-03 OVMax= 2.91D-03

 Cycle   5  Pass 0  IDiag  1:
 RMSU=  1.86D-05    CP:  9.98D-01  9.50D-01  9.41D-01  7.70D-01
 E= -276.288049157960     Delta-E=       -0.000289221146 Rises=F Damp=F
 DIIS: error= 1.42D-04 at cycle   5 NSaved=   5.
 NSaved= 5 IEnMin= 5 EnMin= -276.288049157960     IErMin= 5 ErrMin= 1.42D-04
 ErrMax= 1.42D-04  0.00D+00 EMaxC= 1.00D-01 BMatC= 1.43D-05 BMatP= 3.07D-04
 IDIUse=3 WtCom= 9.99D-01 WtEn= 1.42D-03
 Coeff-Com: -0.163D-02 0.110D-02 0.511D-01 0.240D+00 0.710D+00
 Coeff-En:   0.000D+00 0.000D+00 0.000D+00 0.000D+00 0.100D+01
 Coeff:     -0.163D-02 0.110D-02 0.511D-01 0.239D+00 0.710D+00
 Gap=     0.405 Goal=   None    Shift=    0.000
 RMSDP=6.43D-06 MaxDP=3.37D-04 DE=-2.89D-04 OVMax= 6.68D-04

 Initial convergence to 1.0D-05 achieved.  Increase integral accuracy.
 Cycle   6  Pass 1  IDiag  1:
 E= -276.288037531618     Delta-E=        0.000011626342 Rises=F Damp=F
 DIIS: error= 4.38D-05 at cycle   1 NSaved=   1.
 NSaved= 1 IEnMin= 1 EnMin= -276.288037531618     IErMin= 1 ErrMin= 4.38D-05
 ErrMax= 4.38D-05  0.00D+00 EMaxC= 1.00D-01 BMatC= 1.94D-06 BMatP= 1.94D-06
 IDIUse=1 WtCom= 1.00D+00 WtEn= 0.00D+00
 Coeff-Com:  0.100D+01
 Coeff:      0.100D+01
 Gap=     0.405 Goal=   None    Shift=    0.000
 RMSDP=6.43D-06 MaxDP=3.37D-04 DE= 1.16D-05 OVMax= 3.02D-04

 Cycle   7  Pass 1  IDiag  1:
 RMSU=  9.70D-06    CP:  1.00D+00
 E= -276.288038147707     Delta-E=       -0.000000616089 Rises=F Damp=F
 DIIS: error= 2.82D-05 at cycle   2 NSaved=   2.
 NSaved= 2 IEnMin= 2 EnMin= -276.288038147707     IErMin= 2 ErrMin= 2.82D-05
 ErrMax= 2.82D-05  0.00D+00 EMaxC= 1.00D-01 BMatC= 7.76D-07 BMatP= 1.94D-06
 IDIUse=1 WtCom= 1.00D+00 WtEn= 0.00D+00
 Coeff-Com:  0.363D+00 0.637D+00
 Coeff:      0.363D+00 0.637D+00
 Gap=     0.405 Goal=   None    Shift=    0.000
 RMSDP=1.62D-06 MaxDP=7.02D-05 DE=-6.16D-07 OVMax= 1.64D-04

 Cycle   8  Pass 1  IDiag  1:
 RMSU=  1.59D-06    CP:  1.00D+00  9.69D-01
 E= -276.288038846657     Delta-E=       -0.000000698951 Rises=F Damp=F
 DIIS: error= 7.92D-06 at cycle   3 NSaved=   3.
 NSaved= 3 IEnMin= 3 EnMin= -276.288038846657     IErMin= 3 ErrMin= 7.92D-06
 ErrMax= 7.92D-06  0.00D+00 EMaxC= 1.00D-01 BMatC= 5.76D-08 BMatP= 7.76D-07
 IDIUse=1 WtCom= 1.00D+00 WtEn= 0.00D+00
 Coeff-Com: -0.249D-02 0.205D+00 0.797D+00
 Coeff:     -0.249D-02 0.205D+00 0.797D+00
 Gap=     0.405 Goal=   None    Shift=    0.000
 RMSDP=4.36D-07 MaxDP=1.63D-05 DE=-6.99D-07 OVMax= 3.98D-05

 Cycle   9  Pass 1  IDiag  1:
 RMSU=  3.08D-07    CP:  1.00D+00  9.92D-01  8.70D-01
 E= -276.288038901568     Delta-E=       -0.000000054911 Rises=F Damp=F
 DIIS: error= 2.48D-06 at cycle   4 NSaved=   4.
 NSaved= 4 IEnMin= 4 EnMin= -276.288038901568     IErMin= 4 ErrMin= 2.48D-06
 ErrMax= 2.48D-06  0.00D+00 EMaxC= 1.00D-01 BMatC= 1.96D-09 BMatP= 5.76D-08
 IDIUse=1 WtCom= 1.00D+00 WtEn= 0.00D+00
 Coeff-Com: -0.989D-02 0.592D-01 0.288D+00 0.662D+00
 Coeff:     -0.989D-02 0.592D-01 0.288D+00 0.662D+00
 Gap=     0.405 Goal=   None    Shift=    0.000
 RMSDP=8.68D-08 MaxDP=3.19D-06 DE=-5.49D-08 OVMax= 8.41D-06

 Cycle  10  Pass 1  IDiag  1:
 RMSU=  8.16D-08    CP:  1.00D+00  9.94D-01  8.69D-01  9.21D-01
 E= -276.288038903518     Delta-E=       -0.000000001950 Rises=F Damp=F
 DIIS: error= 4.57D-07 at cycle   5 NSaved=   5.
 NSaved= 5 IEnMin= 5 EnMin= -276.288038903518     IErMin= 5 ErrMin= 4.57D-07
 ErrMax= 4.57D-07  0.00D+00 EMaxC= 1.00D-01 BMatC= 7.51D-11 BMatP= 1.96D-09
 IDIUse=1 WtCom= 1.00D+00 WtEn= 0.00D+00
 Coeff-Com: -0.968D-03-0.107D-01-0.343D-01 0.793D-01 0.967D+00
 Coeff:     -0.968D-03-0.107D-01-0.343D-01 0.793D-01 0.967D+00
 Gap=     0.405 Goal=   None    Shift=    0.000
 RMSDP=3.52D-08 MaxDP=8.85D-07 DE=-1.95D-09 OVMax= 2.49D-06

 Cycle  11  Pass 1  IDiag  1:
 RMSU=  1.77D-08    CP:  1.00D+00  9.94D-01  8.72D-01  1.01D+00  1.09D+00
 E= -276.288038903602     Delta-E=       -0.000000000084 Rises=F Damp=F
 DIIS: error= 1.95D-07 at cycle   6 NSaved=   6.
 NSaved= 6 IEnMin= 6 EnMin= -276.288038903602     IErMin= 6 ErrMin= 1.95D-07
 ErrMax= 1.95D-07  0.00D+00 EMaxC= 1.00D-01 BMatC= 2.05D-11 BMatP= 7.51D-11
 IDIUse=1 WtCom= 1.00D+00 WtEn= 0.00D+00
 Coeff-Com:  0.364D-03-0.964D-02-0.388D-01-0.193D-01 0.437D+00 0.630D+00
 Coeff:      0.364D-03-0.964D-02-0.388D-01-0.193D-01 0.437D+00 0.630D+00
 Gap=     0.405 Goal=   None    Shift=    0.000
 RMSDP=7.72D-09 MaxDP=2.84D-07 DE=-8.39D-11 OVMax= 7.55D-07

 SCF Done:  E(RM062X) =  -276.288038904     A.U. after   11 cycles
            NFock= 11  Conv=0.77D-08     -V/T= 2.0061
 KE= 2.746054418556D+02 PE=-1.308701642077D+03 EE= 4.227165494683D+02
 Leave Link  502 at Sat Sep 28 19:16:30 2019, MaxMem=   671088640 cpu:            1928.3 elap:             964.4
 (Enter /shared/centos7/gaussian/g16/l801.exe)
 DoSCS=F DFT=T ScalE2(SS,OS)=  1.000000  1.000000
 Range of M.O.s used for correlation:     1   434
 NBasis=   434 NAE=    29 NBE=    29 NFC=     0 NFV=     0
 NROrb=    434 NOA=    29 NOB=    29 NVA=   405 NVB=   405

 **** Warning!!: The largest alpha MO coefficient is  0.11375399D+02

 Leave Link  801 at Sat Sep 28 19:16:30 2019, MaxMem=   671088640 cpu:               1.5 elap:               0.8
 (Enter /shared/centos7/gaussian/g16/l1101.exe)
 Using compressed storage, NAtomX=    23.
 Will process     24 centers per pass.
 Leave Link 1101 at Sat Sep 28 19:17:06 2019, MaxMem=   671088640 cpu:              70.4 elap:              35.2
 (Enter /shared/centos7/gaussian/g16/l1102.exe)
 Symmetrizing basis deriv contribution to polar:
 IMax=3 JMax=2 DiffMx= 0.00D+00
 Leave Link 1102 at Sat Sep 28 19:17:08 2019, MaxMem=   671088640 cpu:               4.7 elap:               2.4
 (Enter /shared/centos7/gaussian/g16/l1110.exe)
 Forming Gx(P) for the SCF density, NAtomX=    23.
 Integral derivatives from FoFJK, PRISM(SPDF).
 Do as many integral derivatives as possible in FoFJK.
 G2DrvN: MDV=     671086848.
 G2DrvN: will do    24 centers at a time, making    1 passes.
 Calling FoFCou, ICntrl=  3107 FMM=F I1Cent=   0 AccDes= 0.00D+00.
 FoFJK:  IHMeth= 1 ICntrl=    3107 DoSepK=F KAlg= 0 I1Cent=           0 FoldK=F
 IRaf=         0 NMat=       1 IRICut=       1 DoRegI=T DoRafI=F ISym2E= 0 IDoP0=0 IntGTp=1.
 FoFCou: FMM=F IPFlag=           0 FMFlag=      100000 FMFlg1=           0
         NFxFlg=           0 DoJE=F BraDBF=F KetDBF=F FulRan=T
         wScrn=  0.000000 ICntrl=      3107 IOpCl=  0 I1Cent=           0 NGrid=           0
         NMat0=    1 NMatS0=      1 NMatT0=    0 NMatD0=    1 NMtDS0=    0 NMtDT0=    0
 Symmetry not used in FoFCou.
 End of G2Drv F.D. properties file   721 does not exist.
 End of G2Drv F.D. properties file   722 does not exist.
 End of G2Drv F.D. properties file   788 does not exist.
 Leave Link 1110 at Sat Sep 28 20:00:55 2019, MaxMem=   671088640 cpu:            5252.5 elap:            2626.9
 (Enter /shared/centos7/gaussian/g16/l1002.exe)
 Minotr:  Closed shell wavefunction.
          IDoAtm=11111111111111111111111
          Direct CPHF calculation.
          Differentiating once with respect to nuclear coordinates.
          Requested convergence is 1.0D-08 RMS, and 1.0D-07 maximum.
          Secondary convergence is 1.0D-12 RMS, and 1.0D-12 maximum.
          NewPWx=T KeepS1=F KeepF1=F KeepIn=T MapXYZ=F SortEE=F KeepMc=T.
         6897 words used for storage of precomputed grid.
 Two-electron integrals replicated using symmetry.
          MDV=     671088640 using IRadAn=       1.
          Solving linear equations simultaneously, MaxMat=     380.
 FoF2E skips out because all densities are zero.
 CalDSu exits because no D1Ps are significant.
 FoFJK:  IHMeth= 1 ICntrl=       0 DoSepK=F KAlg= 0 I1Cent=           0 FoldK=F
 IRaf= 940000000 NMat=      69 IRICut=     172 DoRegI=T DoRafI=T ISym2E= 2 IDoP0=3 IntGTp=3.
 FoFCou: FMM=F IPFlag=           0 FMFlag=      100000 FMFlg1=           0
         NFxFlg=           0 DoJE=F BraDBF=F KetDBF=F FulRan=T
         wScrn=  0.000000 ICntrl=         0 IOpCl=  0 I1Cent=           0 NGrid=           0
         NMat0=   69 NMatS0=     69 NMatT0=    0 NMatD0=   69 NMtDS0=    0 NMtDT0=    0
 Integrals replicated using symmetry in FoFCou.
 Raff kept on since  91.34% of shell-pairs survive, threshold=   0.20 IRatSp=91.
          There are    72 degrees of freedom in the 1st order CPHF.  IDoFFX=6 NUNeed=     0.
     66 vectors produced by pass  0 Test12= 1.63D-14 1.39D-09 XBig12= 5.53D-02 3.84D-02.
 AX will form    66 AO Fock derivatives at one time.
     66 vectors produced by pass  1 Test12= 1.63D-14 1.39D-09 XBig12= 3.52D-03 7.02D-03.
     66 vectors produced by pass  2 Test12= 1.63D-14 1.39D-09 XBig12= 5.65D-05 1.12D-03.
     66 vectors produced by pass  3 Test12= 1.63D-14 1.39D-09 XBig12= 4.32D-07 7.47D-05.
     66 vectors produced by pass  4 Test12= 1.63D-14 1.39D-09 XBig12= 1.92D-09 4.69D-06.
     66 vectors produced by pass  5 Test12= 1.63D-14 1.39D-09 XBig12= 8.99D-12 3.39D-07.
     25 vectors produced by pass  6 Test12= 1.63D-14 1.39D-09 XBig12= 3.39D-14 1.43D-08.
 InvSVY:  IOpt=1 It=  1 EMax= 3.33D-16
 Solved reduced A of dimension   421 with    72 vectors.
 End of Minotr F.D. properties file   721 does not exist.
 End of Minotr F.D. properties file   722 does not exist.
 End of Minotr F.D. properties file   788 does not exist.
 Leave Link 1002 at Sat Sep 28 21:19:35 2019, MaxMem=   671088640 cpu:            9439.0 elap:            4720.5
 (Enter /shared/centos7/gaussian/g16/l601.exe)
 Copying SCF densities to generalized density rwf, IOpCl= 0 IROHF=0.

 **********************************************************************

            Population analysis using the SCF density.

 **********************************************************************

 Orbital symmetries:
       Occupied  (A) (A) (A) (A) (A) (A) (A) (A) (A) (A) (A) (A)
                 (A) (A) (A) (A) (A) (A) (A) (A) (A) (A) (A) (A)
                 (A) (A) (A) (A) (A)
       Virtual   (A) (A) (A) (A) (A) (A) (A) (A) (A) (A) (A) (A)
                 (A) (A) (A) (A) (A) (A) (A) (A) (A) (A) (A) (A)
                 (A) (A) (A) (A) (A) (A) (A) (A) (A) (A) (A) (A)
                 (A) (A) (A) (A) (A) (A) (A) (A) (A) (A) (A) (A)
                 (A) (A) (A) (A) (A) (A) (A) (A) (A) (A) (A) (A)
                 (A) (A) (A) (A) (A) (A) (A) (A) (A) (A) (A) (A)
                 (A) (A) (A) (A) (A) (A) (A) (A) (A) (A) (A) (A)
                 (A) (A) (A) (A) (A) (A) (A) (A) (A) (A) (A) (A)
                 (A) (A) (A) (A) (A) (A) (A) (A) (A) (A) (A) (A)
                 (A) (A) (A) (A) (A) (A) (A) (A) (A) (A) (A) (A)
                 (A) (A) (A) (A) (A) (A) (A) (A) (A) (A) (A) (A)
                 (A) (A) (A) (A) (A) (A) (A) (A) (A) (A) (A) (A)
                 (A) (A) (A) (A) (A) (A) (A) (A) (A) (A) (A) (A)
                 (A) (A) (A) (A) (A) (A) (A) (A) (A) (A) (A) (A)
                 (A) (A) (A) (A) (A) (A) (A) (A) (A) (A) (A) (A)
                 (A) (A) (A) (A) (A) (A) (A) (A) (A) (A) (A) (A)
                 (A) (A) (A) (A) (A) (A) (A) (A) (A) (A) (A) (A)
                 (A) (A) (A) (A) (A) (A) (A) (A) (A) (A) (A) (A)
                 (A) (A) (A) (A) (A) (A) (A) (A) (A) (A) (A) (A)
                 (A) (A) (A) (A) (A) (A) (A) (A) (A) (A) (A) (A)
                 (A) (A) (A) (A) (A) (A) (A) (A) (A) (A) (A) (A)
                 (A) (A) (A) (A) (A) (A) (A) (A) (A) (A) (A) (A)
                 (A) (A) (A) (A) (A) (A) (A) (A) (A) (A) (A) (A)
                 (A) (A) (A) (A) (A) (A) (A) (A) (A) (A) (A) (A)
                 (A) (A) (A) (A) (A) (A) (A) (A) (A) (A) (A) (A)
                 (A) (A) (A) (A) (A) (A) (A) (A) (A) (A) (A) (A)
                 (A) (A) (A) (A) (A) (A) (A) (A) (A) (A) (A) (A)
                 (A) (A) (A) (A) (A) (A) (A) (A) (A) (A) (A) (A)
                 (A) (A) (A) (A) (A) (A) (A) (A) (A) (A) (A) (A)
                 (A) (A) (A) (A) (A) (A) (A) (A) (A) (A) (A) (A)
                 (A) (A) (A) (A) (A) (A) (A) (A) (A) (A) (A) (A)
                 (A) (A) (A) (A) (A) (A) (A) (A) (A) (A) (A) (A)
                 (A) (A) (A) (A) (A) (A) (A) (A) (A) (A) (A) (A)
                 (A) (A) (A) (A) (A) (A) (A) (A) (A)
 The electronic state is 1-A.
 Alpha  occ. eigenvalues --  -10.52900 -10.52429 -10.52362 -10.52233 -10.52069
 Alpha  occ. eigenvalues --  -10.51978 -10.51662  -0.92320  -0.87944  -0.82877
 Alpha  occ. eigenvalues --   -0.76773  -0.70689  -0.65922  -0.62660  -0.55076
 Alpha  occ. eigenvalues --   -0.53703  -0.51062  -0.50460  -0.47015  -0.46859
 Alpha  occ. eigenvalues --   -0.45173  -0.42338  -0.41831  -0.40525  -0.39499
 Alpha  occ. eigenvalues --   -0.37651  -0.36420  -0.34870  -0.34597
 Alpha virt. eigenvalues --    0.05864   0.08085   0.08360   0.08806   0.10903
 Alpha virt. eigenvalues --    0.11953   0.12202   0.12615   0.14288   0.14781
 Alpha virt. eigenvalues --    0.16039   0.17081   0.19695   0.19777   0.20213
 Alpha virt. eigenvalues --    0.21825   0.22542   0.24243   0.25447   0.26863
 Alpha virt. eigenvalues --    0.27422   0.28880   0.29384   0.30581   0.31644
 Alpha virt. eigenvalues --    0.33598   0.34596   0.36389   0.37068   0.38179
 Alpha virt. eigenvalues --    0.39521   0.40564   0.40801   0.42144   0.43276
 Alpha virt. eigenvalues --    0.43926   0.44882   0.45986   0.47511   0.48143
 Alpha virt. eigenvalues --    0.48880   0.49201   0.50297   0.50985   0.51906
 Alpha virt. eigenvalues --    0.52316   0.52855   0.53354   0.54056   0.54217
 Alpha virt. eigenvalues --    0.54936   0.55521   0.55802   0.56904   0.58074
 Alpha virt. eigenvalues --    0.58779   0.59630   0.60724   0.62184   0.63303
 Alpha virt. eigenvalues --    0.64335   0.69072   0.72408   0.74325   0.79241
 Alpha virt. eigenvalues --    0.80138   0.81650   0.83483   0.84635   0.85534
 Alpha virt. eigenvalues --    0.86842   0.89855   0.90582   0.92299   0.92677
 Alpha virt. eigenvalues --    0.93569   0.95076   0.97071   0.99266   0.99889
 Alpha virt. eigenvalues --    1.02967   1.03647   1.04101   1.04446   1.06240
 Alpha virt. eigenvalues --    1.06990   1.07697   1.08573   1.10062   1.10655
 Alpha virt. eigenvalues --    1.11521   1.11990   1.12754   1.14721   1.15667
 Alpha virt. eigenvalues --    1.16340   1.16863   1.19276   1.19664   1.20500
 Alpha virt. eigenvalues --    1.20852   1.21319   1.22535   1.22812   1.25059
 Alpha virt. eigenvalues --    1.25464   1.26570   1.27422   1.28338   1.29993
 Alpha virt. eigenvalues --    1.30249   1.31339   1.33200   1.33696   1.34549
 Alpha virt. eigenvalues --    1.34829   1.36703   1.37590   1.38283   1.39582
 Alpha virt. eigenvalues --    1.41464   1.41817   1.42733   1.45312   1.45632
 Alpha virt. eigenvalues --    1.47693   1.47974   1.49585   1.50243   1.51300
 Alpha virt. eigenvalues --    1.52079   1.53207   1.53870   1.55061   1.56434
 Alpha virt. eigenvalues --    1.58221   1.59277   1.61903   1.63020   1.66113
 Alpha virt. eigenvalues --    1.68180   1.68393   1.72271   1.74262   1.77338
 Alpha virt. eigenvalues --    1.79015   1.82308   1.88248   1.98710   2.17912
 Alpha virt. eigenvalues --    2.24878   2.26261   2.27864   2.30518   2.34013
 Alpha virt. eigenvalues --    2.36493   2.39717   2.41418   2.42782   2.46033
 Alpha virt. eigenvalues --    2.46966   2.51029   2.53256   2.54019   2.54768
 Alpha virt. eigenvalues --    2.56849   2.57250   2.59355   2.60849   2.61133
 Alpha virt. eigenvalues --    2.62486   2.62772   2.63586   2.67302   2.67834
 Alpha virt. eigenvalues --    2.69239   2.70017   2.71888   2.72438   2.74119
 Alpha virt. eigenvalues --    2.75172   2.76592   2.78521   2.80160   2.81941
 Alpha virt. eigenvalues --    2.82848   2.84624   2.85184   2.86209   2.86953
 Alpha virt. eigenvalues --    2.87671   2.88121   2.90837   2.91379   2.93176
 Alpha virt. eigenvalues --    2.94472   2.95462   2.96956   2.99343   2.99549
 Alpha virt. eigenvalues --    3.01758   3.02326   3.03421   3.04384   3.05010
 Alpha virt. eigenvalues --    3.05875   3.06449   3.08118   3.08517   3.09812
 Alpha virt. eigenvalues --    3.11002   3.11740   3.12598   3.12856   3.14348
 Alpha virt. eigenvalues --    3.14815   3.16727   3.17025   3.17373   3.19002
 Alpha virt. eigenvalues --    3.19385   3.20756   3.21568   3.22856   3.24517
 Alpha virt. eigenvalues --    3.25427   3.26099   3.26555   3.28897   3.31460
 Alpha virt. eigenvalues --    3.33107   3.34868   3.35336   3.38035   3.38862
 Alpha virt. eigenvalues --    3.39887   3.40719   3.41178   3.42339   3.42875
 Alpha virt. eigenvalues --    3.43058   3.45872   3.46749   3.47778   3.49986
 Alpha virt. eigenvalues --    3.50747   3.51037   3.53089   3.53810   3.55157
 Alpha virt. eigenvalues --    3.57665   3.58133   3.59314   3.60685   3.61253
 Alpha virt. eigenvalues --    3.62324   3.64162   3.65464   3.66495   3.68183
 Alpha virt. eigenvalues --    3.69138   3.70554   3.72130   3.72239   3.74627
 Alpha virt. eigenvalues --    3.75241   3.75772   3.77290   3.78683   3.80422
 Alpha virt. eigenvalues --    3.80978   3.83211   3.84078   3.85856   3.86747
 Alpha virt. eigenvalues --    3.88792   3.89077   3.89556   3.90669   3.91849
 Alpha virt. eigenvalues --    3.92530   3.94911   3.95994   3.97145   3.98544
 Alpha virt. eigenvalues --    3.99338   3.99429   3.99749   4.01158   4.02132
 Alpha virt. eigenvalues --    4.04161   4.04795   4.05886   4.06420   4.07649
 Alpha virt. eigenvalues --    4.09914   4.11963   4.12306   4.13929   4.14491
 Alpha virt. eigenvalues --    4.15800   4.17058   4.17993   4.18829   4.19258
 Alpha virt. eigenvalues --    4.20780   4.21771   4.22934   4.24584   4.25259
 Alpha virt. eigenvalues --    4.25922   4.27754   4.30372   4.31204   4.32488
 Alpha virt. eigenvalues --    4.32986   4.33850   4.35254   4.36821   4.37882
 Alpha virt. eigenvalues --    4.40325   4.41381   4.45081   4.46302   4.49015
 Alpha virt. eigenvalues --    4.50185   4.51381   4.52048   4.54215   4.57258
 Alpha virt. eigenvalues --    4.58648   4.61606   4.63830   4.66337   4.67131
 Alpha virt. eigenvalues --    4.68611   4.69897   4.71128   4.72864   4.75348
 Alpha virt. eigenvalues --    4.78325   4.80525   4.81174   4.83146   4.85458
 Alpha virt. eigenvalues --    4.86552   4.88306   4.88777   4.91994   4.92465
 Alpha virt. eigenvalues --    4.94793   4.96102   4.98235   5.01182   5.02470
 Alpha virt. eigenvalues --    5.03820   5.05071   5.06210   5.07540   5.09417
 Alpha virt. eigenvalues --    5.12329   5.12639   5.14918   5.16199   5.17990
 Alpha virt. eigenvalues --    5.21300   5.21671   5.24768   5.25665   5.27367
 Alpha virt. eigenvalues --    5.28412   5.29595   5.30677   5.33145   5.37473
 Alpha virt. eigenvalues --    5.38403   5.40844   5.41997   5.43455   5.46753
 Alpha virt. eigenvalues --    5.49334   5.50120   5.52821   5.55659   5.57916
 Alpha virt. eigenvalues --    5.62425   5.62696   5.70818   5.77807   5.80435
 Alpha virt. eigenvalues --    5.82324   5.84549   5.91470   5.94971   5.97654
 Alpha virt. eigenvalues --    6.03411   6.03646   6.09993  11.17707  11.80516
 Alpha virt. eigenvalues --   12.37030  12.91737  13.50317  13.69497  13.99833
          Condensed to atoms (all electrons):
               1          2          3          4          5          6
     1  C    5.195004   0.284222  -0.046746   0.301526  -0.015090  -0.047444
     2  C    0.284222   5.098967   0.293786  -0.056684  -0.042979   0.005404
     3  C   -0.046746   0.293786   5.070656   0.007864   0.316011   0.000019
     4  C    0.301526  -0.056684   0.007864   5.056966  -0.000053   0.279858
     5  C   -0.015090  -0.042979   0.316011  -0.000053   5.059632   0.000434
     6  C   -0.047444   0.005404   0.000019   0.279858   0.000434   5.023018
     7  C   -0.015733   0.007031  -0.047305   0.002650   0.284311  -0.010831
     8  H   -0.054829  -0.015708   0.000815   0.418076   0.000401  -0.046449
     9  H   -0.045701   0.007470  -0.000680   0.413454   0.000029  -0.041408
    10  H    0.406187  -0.039448   0.005813  -0.039357  -0.000596   0.007783
    11  H    0.433283  -0.056468  -0.015148  -0.052642   0.002797  -0.020529
    12  H   -0.046153   0.419136  -0.042607   0.006361   0.006349  -0.000615
    13  H   -0.057189   0.423862  -0.050000  -0.017060   0.005003   0.001079
    14  H    0.005774  -0.048525   0.421869  -0.000590  -0.046712   0.000045
    15  H    0.007003  -0.055906   0.419985   0.000011  -0.043760   0.000022
    16  H    0.000775   0.007653  -0.043368  -0.000040   0.412627  -0.000061
    17  H   -0.002297  -0.004997  -0.037823   0.000689   0.407760   0.000337
    18  H   -0.009335   0.000650   0.000198  -0.059492   0.000812   0.412752
    19  H    0.006302  -0.000514   0.000029  -0.041708  -0.000040   0.405107
    20  H    0.005977   0.000349  -0.000116  -0.050177   0.000038   0.409335
    21  H    0.001663  -0.002825  -0.000407   0.000164  -0.050497   0.000546
    22  H   -0.009759   0.000216   0.001131  -0.000367  -0.049251  -0.008991
    23  H    0.000687  -0.000706   0.007322  -0.000030  -0.039801   0.000241
               7          8          9         10         11         12
     1  C   -0.015733  -0.054829  -0.045701   0.406187   0.433283  -0.046153
     2  C    0.007031  -0.015708   0.007470  -0.039448  -0.056468   0.419136
     3  C   -0.047305   0.000815  -0.000680   0.005813  -0.015148  -0.042607
     4  C    0.002650   0.418076   0.413454  -0.039357  -0.052642   0.006361
     5  C    0.284311   0.000401   0.000029  -0.000596   0.002797   0.006349
     6  C   -0.010831  -0.046449  -0.041408   0.007783  -0.020529  -0.000615
     7  C    5.083629  -0.000917  -0.000184   0.001376  -0.029027  -0.001063
     8  H   -0.000917   0.627322  -0.040792   0.005957   0.006131   0.001005
     9  H   -0.000184  -0.040792   0.618768  -0.020171   0.006573  -0.000134
    10  H    0.001376   0.005957  -0.020171   0.595076  -0.041775  -0.021588
    11  H   -0.029027   0.006131   0.006573  -0.041775   0.628993   0.007346
    12  H   -0.001063   0.001005  -0.000134  -0.021588   0.007346   0.599087
    13  H    0.000127   0.002791   0.001111   0.007325   0.005201  -0.038983
    14  H    0.008814  -0.000104   0.000038   0.000112   0.000706  -0.019509
    15  H   -0.007601  -0.000203   0.000024  -0.000610   0.000466   0.006070
    16  H   -0.040570   0.000010  -0.000001   0.000038   0.000391  -0.000308
    17  H   -0.047515  -0.000040  -0.000010  -0.000507  -0.005681   0.000496
    18  H   -0.017876   0.006721   0.004361   0.001468   0.000236  -0.000147
    19  H    0.000472   0.006401  -0.020727  -0.000345   0.000942   0.000033
    20  H    0.000481  -0.019144   0.007648  -0.000667   0.001300   0.000048
    21  H    0.397130   0.000030   0.000032  -0.000070   0.000458   0.000016
    22  H    0.415557  -0.000084  -0.000267   0.001489  -0.014858   0.000033
    23  H    0.407943   0.000012   0.000004  -0.000051   0.002177   0.000034
              13         14         15         16         17         18
     1  C   -0.057189   0.005774   0.007003   0.000775  -0.002297  -0.009335
     2  C    0.423862  -0.048525  -0.055906   0.007653  -0.004997   0.000650
     3  C   -0.050000   0.421869   0.419985  -0.043368  -0.037823   0.000198
     4  C   -0.017060  -0.000590   0.000011  -0.000040   0.000689  -0.059492
     5  C    0.005003  -0.046712  -0.043760   0.412627   0.407760   0.000812
     6  C    0.001079   0.000045   0.000022  -0.000061   0.000337   0.412752
     7  C    0.000127   0.008814  -0.007601  -0.040570  -0.047515  -0.017876
     8  H    0.002791  -0.000104  -0.000203   0.000010  -0.000040   0.006721
     9  H    0.001111   0.000038   0.000024  -0.000001  -0.000010   0.004361
    10  H    0.007325   0.000112  -0.000610   0.000038  -0.000507   0.001468
    11  H    0.005201   0.000706   0.000466   0.000391  -0.005681   0.000236
    12  H   -0.038983  -0.019509   0.006070  -0.000308   0.000496  -0.000147
    13  H    0.614586   0.007709  -0.018261  -0.000455  -0.000330   0.000488
    14  H    0.007709   0.598801  -0.035085  -0.008254  -0.006278   0.000008
    15  H   -0.018261  -0.035085   0.597953  -0.006418   0.008476  -0.000006
    16  H   -0.000455  -0.008254  -0.006418   0.596402  -0.034423  -0.000074
    17  H   -0.000330  -0.006278   0.008476  -0.034423   0.602286  -0.000007
    18  H    0.000488   0.000008  -0.000006  -0.000074  -0.000007   0.617847
    19  H   -0.000166  -0.000002  -0.000001   0.000003  -0.000009  -0.033940
    20  H   -0.000182  -0.000000  -0.000003   0.000001  -0.000010  -0.039591
    21  H   -0.000144   0.000303   0.003508  -0.000625   0.007818  -0.000596
    22  H   -0.000523  -0.000553   0.000119   0.006970  -0.008872  -0.010224
    23  H    0.000048  -0.000426   0.000216  -0.013375   0.000730   0.001499
              19         20         21         22         23
     1  C    0.006302   0.005977   0.001663  -0.009759   0.000687
     2  C   -0.000514   0.000349  -0.002825   0.000216  -0.000706
     3  C    0.000029  -0.000116  -0.000407   0.001131   0.007322
     4  C   -0.041708  -0.050177   0.000164  -0.000367  -0.000030
     5  C   -0.000040   0.000038  -0.050497  -0.049251  -0.039801
     6  C    0.405107   0.409335   0.000546  -0.008991   0.000241
     7  C    0.000472   0.000481   0.397130   0.415557   0.407943
     8  H    0.006401  -0.019144   0.000030  -0.000084   0.000012
     9  H   -0.020727   0.007648   0.000032  -0.000267   0.000004
    10  H   -0.000345  -0.000667  -0.000070   0.001489  -0.000051
    11  H    0.000942   0.001300   0.000458  -0.014858   0.002177
    12  H    0.000033   0.000048   0.000016   0.000033   0.000034
    13  H   -0.000166  -0.000182  -0.000144  -0.000523   0.000048
    14  H   -0.000002  -0.000000   0.000303  -0.000553  -0.000426
    15  H   -0.000001  -0.000003   0.003508   0.000119   0.000216
    16  H    0.000003   0.000001  -0.000625   0.006970  -0.013375
    17  H   -0.000009  -0.000010   0.007818  -0.008872   0.000730
    18  H   -0.033940  -0.039591  -0.000596  -0.010224   0.001499
    19  H    0.600683  -0.029109  -0.000001   0.001206  -0.000022
    20  H   -0.029109   0.599189   0.000061  -0.000843   0.000032
    21  H   -0.000001   0.000061   0.568854  -0.039917  -0.022224
    22  H    0.001206  -0.000843  -0.039917   0.639843  -0.034939
    23  H   -0.000022   0.000032  -0.022224  -0.034939   0.577540
 Mulliken charges:
               1
     1  C   -0.298127
     2  C   -0.223986
     3  C   -0.261297
     4  C   -0.169419
     5  C   -0.207424
     6  C   -0.369652
     7  C   -0.390898
     8  H    0.102598
     9  H    0.110563
    10  H    0.132562
    11  H    0.139128
    12  H    0.125092
    13  H    0.113962
    14  H    0.121859
    15  H    0.124001
    16  H    0.123100
    17  H    0.120205
    18  H    0.124248
    19  H    0.105408
    20  H    0.115384
    21  H    0.136723
    22  H    0.112883
    23  H    0.113088
 Sum of Mulliken charges =  -0.00000
 Mulliken charges with hydrogens summed into heavy atoms:
               1
     1  C   -0.026437
     2  C    0.015067
     3  C   -0.015437
     4  C    0.043742
     5  C    0.035881
     6  C   -0.024612
     7  C   -0.028205
 APT charges:
               1
     1  C   -0.467271
     2  C   -0.722390
     3  C   -0.919474
     4  C   -0.758823
     5  C   -0.733724
     6  C   -1.121859
     7  C   -0.961521
     8  H    0.291752
     9  H    0.474753
    10  H    0.418332
    11  H    0.225723
    12  H    0.442078
    13  H    0.301244
    14  H    0.465864
    15  H    0.358275
    16  H    0.518542
    17  H    0.265729
    18  H    0.133728
    19  H    0.533788
    20  H    0.324206
    21  H    0.252882
    22  H    0.158241
    23  H    0.519924
 Sum of APT charges =  -0.00000
 APT charges with hydrogens summed into heavy atoms:
               1
     1  C    0.176784
     2  C    0.020933
     3  C   -0.095335
     4  C    0.007682
     5  C    0.050547
     6  C   -0.130137
     7  C   -0.030474
 Electronic spatial extent (au):  <R**2>=           1032.2126
 Charge=              0.0000 electrons
 Dipole moment (field-independent basis, Debye):
    X=              0.1135    Y=             -0.0866    Z=             -0.0537  Tot=              0.1525
 Quadrupole moment (field-independent basis, Debye-Ang):
   XX=            -49.4286   YY=            -49.6708   ZZ=            -48.5468
   XY=              0.4225   XZ=              0.1377   YZ=              0.2641
 Traceless Quadrupole moment (field-independent basis, Debye-Ang):
   XX=             -0.2132   YY=             -0.4554   ZZ=              0.6686
   XY=              0.4225   XZ=              0.1377   YZ=              0.2641
 Octapole moment (field-independent basis, Debye-Ang**2):
  XXX=              0.6276  YYY=             -2.6617  ZZZ=              2.0203  XYY=              2.3880
  XXY=             -0.2217  XXZ=             -1.6771  XZZ=             -0.7457  YZZ=             -0.6102
  YYZ=             -2.2101  XYZ=              0.0964
 Hexadecapole moment (field-independent basis, Debye-Ang**3):
 XXXX=           -866.3027 YYYY=           -455.8002 ZZZZ=           -139.6695 XXXY=              4.4696
 XXXZ=              6.9406 YYYX=              3.8079 YYYZ=              2.3573 ZZZX=             -0.9176
 ZZZY=              1.6115 XXYY=           -221.9300 XXZZ=           -169.6989 YYZZ=            -99.4151
 XXYZ=              1.8018 YYXZ=             -0.7375 ZZXY=              0.2664
 N-N= 3.350916118497D+02 E-N=-1.308701578888D+03  KE= 2.746054418556D+02
  Exact polarizability:   0.000   0.000   0.000   0.000   0.000   0.000
 Approx polarizability:  99.089   1.466  97.160   0.256  -0.202  97.849
 No NMR shielding tensors so no spin-rotation constants.
 Leave Link  601 at Sat Sep 28 21:20:08 2019, MaxMem=   671088640 cpu:              65.5 elap:              32.8
 (Enter /shared/centos7/gaussian/g16/l701.exe)
 SCFChk:  SCF convergence  7.72D-09 required  1.00D-08
 ... and contract with generalized density number  0.
 Compute integral second derivatives.
 Entering OneElI...
 Calculate overlap and kinetic energy integrals
    NBasis = 485  MinDer = 2  MaxDer = 2
 Requested accuracy = 0.1000D-12
 PrmmSu-InSpLW:  IPartL=    0 NPrtUS=   20 NPrtUL=    1 DoSpLW=F IThBeg=    0 IThEnd=   19 NThAct=   20.
 PrsmSu:  NPrtUS=  20 ThrOK=T IAlg=1 NPAlg=1 LenDen=           0 ISkipM=0 DoSpLW=F IThBeg=    0 IThEnd=   19.
 Prism:   IPart=     0 DynPar=F LinDyn=F Incr=           6.
 PRISM was handed    33195666 working-precision words and 13786 shell-pairs
 PRISM was handed    33195666 working-precision words and 13786 shell-pairs
 PRISM was handed    33195666 working-precision words and 13786 shell-pairs
 PRISM was handed    33195666 working-precision words and 13786 shell-pairs
 PRISM was handed    33195666 working-precision words and 13786 shell-pairs
 PRISM was handed    33195666 working-precision words and 13786 shell-pairs
 PRISM was handed    33195666 working-precision words and 13786 shell-pairs
 PRISM was handed    33195666 working-precision words and 13786 shell-pairs
 IPart=  0 NShTot=         728 NBatch=          80 AvBLen=         9.1
 PRISM was handed    33195666 working-precision words and 13786 shell-pairs
 PRISM was handed    33195666 working-precision words and 13786 shell-pairs
 PRISM was handed    33195666 working-precision words and 13786 shell-pairs
 PRISM was handed    33195666 working-precision words and 13786 shell-pairs
 PRISM was handed    33195666 working-precision words and 13786 shell-pairs
 IPart=  4 NShTot=         708 NBatch=          72 AvBLen=         9.8
 PRISM was handed    33195666 working-precision words and 13786 shell-pairs
 PRISM was handed    33195666 working-precision words and 13786 shell-pairs
 PRISM was handed    33195666 working-precision words and 13786 shell-pairs
 PRISM was handed    33195666 working-precision words and 13786 shell-pairs
 IPart=  1 NShTot=         723 NBatch=          79 AvBLen=         9.2
 IPart=  6 NShTot=         705 NBatch=          69 AvBLen=        10.2
 PRISM was handed    33195666 working-precision words and 13786 shell-pairs
 PRISM was handed    33195666 working-precision words and 13786 shell-pairs
 IPart=  8 NShTot=         692 NBatch=          61 AvBLen=        11.3
 PRISM was handed    33195666 working-precision words and 13786 shell-pairs
 IPart= 17 NShTot=         666 NBatch=          51 AvBLen=        13.1
 IPart= 11 NShTot=         679 NBatch=          56 AvBLen=        12.1
 IPart=  7 NShTot=         696 NBatch=          62 AvBLen=        11.2
 IPart=  9 NShTot=         686 NBatch=          60 AvBLen=        11.4
 IPart=  5 NShTot=         707 NBatch=          71 AvBLen=        10.0
 IPart= 16 NShTot=         670 NBatch=          51 AvBLen=        13.1
 IPart= 18 NShTot=         664 NBatch=          50 AvBLen=        13.3
 IPart=  2 NShTot=         714 NBatch=          74 AvBLen=         9.6
 IPart= 19 NShTot=         663 NBatch=          50 AvBLen=        13.3
 IPart=  3 NShTot=         710 NBatch=          72 AvBLen=         9.9
 IPart= 12 NShTot=         675 NBatch=          54 AvBLen=        12.5
 IPart= 10 NShTot=         681 NBatch=          58 AvBLen=        11.7
 IPart= 13 NShTot=         674 NBatch=          53 AvBLen=        12.7
 IPart= 15 NShTot=         672 NBatch=          52 AvBLen=        12.9
 IPart= 14 NShTot=         673 NBatch=          52 AvBLen=        12.9
 PrSmSu:  NxtVal=            121.
 Entering OneElI...
 Calculate potential energy integrals
    NBasis = 485  MinDer = 2  MaxDer = 2
 Requested accuracy = 0.1000D-12
 PrmmSu-InSpLW:  IPartL=    0 NPrtUS=   20 NPrtUL=    1 DoSpLW=F IThBeg=    0 IThEnd=   19 NThAct=   20.
 PrsmSu:  NPrtUS=  20 ThrOK=T IAlg=1 NPAlg=1 LenDen=           0 ISkipM=0 DoSpLW=F IThBeg=    0 IThEnd=   19.
 Prism:   IPart=     0 DynPar=F LinDyn=F Incr=         145.
 PRISM was handed    33257720 working-precision words and 12650 shell-pairs
 PRISM was handed    33257720 working-precision words and 12650 shell-pairs
 PRISM was handed    33257720 working-precision words and 12650 shell-pairs
 PRISM was handed    33257720 working-precision words and 12650 shell-pairs
 PRISM was handed    33257720 working-precision words and 12650 shell-pairs
 PRISM was handed    33257720 working-precision words and 12650 shell-pairs
 PRISM was handed    33257720 working-precision words and 12650 shell-pairs
 PRISM was handed    33257720 working-precision words and 12650 shell-pairs
 PRISM was handed    33257720 working-precision words and 12650 shell-pairs
 PRISM was handed    33257720 working-precision words and 12650 shell-pairs
 PRISM was handed    33257720 working-precision words and 12650 shell-pairs
 PRISM was handed    33257720 working-precision words and 12650 shell-pairs
 PRISM was handed    33257720 working-precision words and 12650 shell-pairs
 PRISM was handed    33257720 working-precision words and 12650 shell-pairs
 PRISM was handed    33257720 working-precision words and 12650 shell-pairs
 PRISM was handed    33257720 working-precision words and 12650 shell-pairs
 PRISM was handed    33257720 working-precision words and 12650 shell-pairs
 PRISM was handed    33257720 working-precision words and 12650 shell-pairs
 PRISM was handed    33257720 working-precision words and 12650 shell-pairs
 PRISM was handed    33257720 working-precision words and 12650 shell-pairs
 IPart= 16 NShTot=       14076 NBatch=         613 AvBLen=        23.0
 IPart= 18 NShTot=       14007 NBatch=         610 AvBLen=        23.0
 IPart= 17 NShTot=       14053 NBatch=         612 AvBLen=        23.0
 IPart= 11 NShTot=       14398 NBatch=         627 AvBLen=        23.0
 IPart=  9 NShTot=       14467 NBatch=         630 AvBLen=        23.0
 IPart=  0 NShTot=       15341 NBatch=         669 AvBLen=        22.9
 IPart=  8 NShTot=       14467 NBatch=         630 AvBLen=        23.0
 IPart=  5 NShTot=       14973 NBatch=         653 AvBLen=        22.9
 IPart= 19 NShTot=       14007 NBatch=         610 AvBLen=        23.0
 IPart=  2 NShTot=       15134 NBatch=         660 AvBLen=        22.9
 IPart=  6 NShTot=       14720 NBatch=         642 AvBLen=        22.9
 IPart= 12 NShTot=       14329 NBatch=         624 AvBLen=        23.0
 IPart=  7 NShTot=       14559 NBatch=         635 AvBLen=        22.9
 IPart= 14 NShTot=       14237 NBatch=         620 AvBLen=        23.0
 IPart=  1 NShTot=       15180 NBatch=         662 AvBLen=        22.9
 IPart= 10 NShTot=       14467 NBatch=         630 AvBLen=        23.0
 IPart= 13 NShTot=       14283 NBatch=         622 AvBLen=        23.0
 IPart=  3 NShTot=       15088 NBatch=         658 AvBLen=        22.9
 IPart=  4 NShTot=       15019 NBatch=         655 AvBLen=        22.9
 IPart= 15 NShTot=       14145 NBatch=         616 AvBLen=        23.0
 PrSmSu:  NxtVal=           2901.
 Polarizability after L701:
                1             2             3 
      1  0.000000D+00
      2  0.000000D+00  0.000000D+00
      3  0.000000D+00  0.000000D+00  0.000000D+00
 Dipole Derivatives after L701:
                 1             2             3             4             5 
      1  -0.281283D-01 -0.421612D-01 -0.475726D+00  0.298923D-01  0.203807D+00
      2  -0.103856D+00 -0.470149D+00 -0.637021D+00 -0.249069D+00 -0.152758D+01
      3   0.233226D-01 -0.139678D-01 -0.903535D+00  0.342263D+00 -0.727287D-02
                 6             7             8             9            10 
      1   0.171728D+00 -0.134764D+01  0.735088D+00 -0.584481D+00 -0.126436D+01
      2   0.364500D+00  0.785240D+00 -0.554422D+00  0.966079D-02 -0.439833D+00
      3  -0.669486D+00 -0.244154D+00 -0.171829D+00 -0.856361D+00 -0.215386D+00
                11            12            13            14            15 
      1  -0.143463D+01  0.233821D+00 -0.141715D+01 -0.302043D+00  0.795436D+00
      2  -0.352209D+00  0.190624D+00 -0.502591D+00 -0.107947D-01  0.198590D+00
      3   0.110342D+00 -0.659898D+00  0.631254D-02 -0.514517D-01 -0.773224D+00
                16            17            18            19            20 
      1  -0.128479D+01  0.144014D+01  0.139564D+00 -0.409038D+00 -0.755421D+00
      2   0.896055D-01 -0.108527D+01 -0.462373D-01  0.257040D+00 -0.155931D+01
      3   0.765032D-02 -0.960232D-01 -0.995515D+00 -0.336582D-01  0.100474D+00
                21            22            23            24            25 
      1  -0.312263D+00  0.111536D+00  0.239338D+00 -0.631692D+00  0.887440D+00
      2  -0.174140D+00 -0.275359D-01  0.253560D+00 -0.302501D+00  0.234498D+00
      3  -0.916213D+00  0.170119D-01 -0.141163D+00  0.510160D+00  0.152119D+00
                26            27            28            29            30 
      1   0.438541D+00  0.502011D+00  0.242051D+00  0.168449D+00  0.248295D+00
      2   0.299235D+00  0.193920D+00  0.801455D-01  0.455798D+00  0.393268D+00
      3   0.106476D+00  0.237585D+00  0.116374D+00  0.337840D+00  0.557148D+00
                31            32            33            34            35 
      1   0.153914D+00 -0.704982D-01  0.158831D-01  0.183589D+00 -0.170578D+00
      2   0.600458D-01  0.305864D+00  0.129874D-02 -0.110137D+00  0.970916D+00
      3  -0.165577D+00 -0.355193D+00  0.217390D+00  0.419634D-02  0.717952D-01
                36            37            38            39            40 
      1  -0.482791D-01  0.171617D+00 -0.299580D-02 -0.280091D-01  0.717779D+00
      2   0.342101D+00  0.190251D+00  0.153349D+00 -0.479194D+00 -0.344131D+00
      3   0.171730D+00 -0.162006D+00 -0.243185D-01  0.578767D+00 -0.301672D-01
                41            42            43            44            45 
      1  -0.572137D+00 -0.323862D+00  0.293095D+00  0.760945D-01  0.645899D+00
      2   0.539821D+00  0.216780D+00 -0.241742D-01  0.108671D+00 -0.223732D+00
      3   0.367524D-01  0.139992D+00  0.879283D-01  0.461448D-01  0.673058D+00
                46            47            48            49            50 
      1   0.119059D+01  0.283692D+00  0.117260D+00  0.188465D-01 -0.918269D-01
      2   0.267140D+00  0.249088D+00  0.265825D-01 -0.368189D-01  0.117988D+00
      3  -0.596013D-01 -0.205801D-01  0.115949D+00  0.131700D+00  0.783328D-01
                51            52            53            54            55 
      1  -0.577008D+00 -0.239270D+00 -0.279332D+00  0.149159D+00  0.125267D+01
      2  -0.117795D+00  0.498020D+00  0.450561D+00 -0.233590D+00 -0.397750D+00
      3   0.660352D+00 -0.151629D+00 -0.859794D-01  0.189894D+00  0.128115D+00
                56            57            58            59            60 
      1  -0.184247D+00  0.560770D+00  0.866551D-01 -0.221615D+00 -0.786060D+00
      2   0.203647D+00 -0.173456D+00 -0.952473D-02  0.257079D+00  0.429318D+00
      3   0.200355D-02  0.145046D+00 -0.416165D-02  0.104342D+00  0.628884D+00
                61            62            63            64            65 
      1   0.187341D-01 -0.159067D-01  0.313645D+00  0.175801D+00  0.243806D-01
      2  -0.170030D+00  0.106132D+00  0.521210D+00 -0.582380D+00  0.845063D-01
      3  -0.101488D+00 -0.255550D-01  0.633778D+00  0.186451D+00  0.399611D-01
                66            67            68            69 
      1   0.426918D-01  0.456168D+00  0.533855D+00 -0.168783D+00
      2  -0.241288D+00  0.535846D+00  0.100352D+01 -0.258898D+00
      3   0.214415D+00 -0.356162D-01 -0.411294D-01  0.100082D+00
 Hessian after L701:
                1             2             3             4             5 
      1  0.155648D+02
      2  0.616830D+00  0.174591D+02
      3 -0.225362D+00 -0.118772D+00  0.179794D+02
      4 -0.420161D+01 -0.117887D+01  0.158424D+01  0.153583D+02
      5 -0.122916D+01 -0.548506D+01 -0.802622D+00 -0.301702D+00  0.164246D+02
      6  0.159626D+01 -0.787301D+00 -0.499821D+01 -0.510837D+00  0.137507D+00
      7  0.241382D+00  0.995976D-02  0.114693D+00 -0.282509D+01  0.145481D+01
      8  0.758905D-03 -0.791677D-01 -0.387706D-01  0.146123D+01 -0.529462D+01
      9  0.179405D+00 -0.320222D-01 -0.245109D-01  0.190421D+00  0.244264D+00
     10 -0.320650D+01 -0.854650D+00 -0.141893D+01  0.247164D+00 -0.489868D-01
     11 -0.816393D+00 -0.591110D+01  0.476209D+00 -0.220837D+00 -0.220938D-01
     12 -0.141713D+01  0.487086D+00 -0.542869D+01  0.811314D-01 -0.362817D-01
     13  0.165804D+00  0.157559D+00 -0.118887D-02  0.951030D-01  0.192106D+00
     14  0.131083D+00 -0.907594D-01 -0.209338D-01  0.234774D+00  0.193663D+00
     15  0.120126D+00  0.515597D-01 -0.191132D+00 -0.142028D-01 -0.492847D-01
     16  0.786820D-01 -0.274968D+00 -0.663316D-01  0.947577D-01 -0.208902D+00
     17 -0.178585D+00  0.130241D+00  0.493816D-01 -0.193877D+00  0.241056D-01
     18 -0.122133D+00  0.136483D+00 -0.109245D+00  0.128498D-01 -0.693969D-02
     19  0.500345D-01  0.282612D+00  0.939152D-02 -0.164256D+00  0.114324D+00
     20  0.173781D+00  0.120490D+00  0.103731D-01  0.906860D-01  0.271538D+00
     21  0.512164D-01  0.854534D-01 -0.147894D+00 -0.827212D-02 -0.623334D-01
     22 -0.310291D-01 -0.132798D-01  0.214051D+00 -0.564482D-01  0.248957D-01
     23 -0.145174D-01  0.159275D+00 -0.165643D-01  0.250463D-01  0.151872D-01
     24  0.166535D+00 -0.182528D-01  0.256807D-01 -0.632258D-02 -0.146993D-01
     25 -0.714010D-01  0.123105D-01  0.870199D-01  0.153406D+00 -0.154287D-01
     26  0.247196D-01  0.116665D+00  0.263620D-01 -0.161330D-02 -0.472303D-01
     27  0.748792D-01  0.163117D-01  0.123864D+00  0.645247D-01  0.182687D-03
     28 -0.437182D+01  0.209889D+00  0.315231D+00  0.105083D-01  0.774767D-01
     29  0.197068D+00 -0.377305D+01  0.104324D+01  0.687476D-01  0.116945D+00
     30  0.281651D+00  0.100971D+01 -0.265140D+01 -0.782029D-01  0.140414D+00
     31 -0.469721D+01  0.950790D+00 -0.411298D+00  0.159374D+00  0.166632D+00
     32  0.103277D+01 -0.280518D+01 -0.937873D+00  0.115985D+00  0.435560D-01
     33 -0.534760D+00 -0.113703D+01 -0.455965D+01 -0.108177D+00  0.225114D+00
     34  0.359584D-01  0.929573D-01 -0.687721D-01 -0.443186D+01 -0.200914D+00
     35  0.850880D-01  0.617047D-01  0.119740D+00 -0.185517D+00 -0.211298D+01
     36 -0.677777D-01  0.103140D+00  0.874413D-01 -0.633301D-01  0.609273D+00
     37  0.130988D+00  0.628523D-01 -0.165048D+00 -0.428402D+01  0.137961D+00
     38  0.719110D-01  0.891433D-01  0.166976D+00  0.201995D+00 -0.451071D+01
     39 -0.147551D+00  0.136902D+00 -0.453979D-01 -0.959891D+00 -0.337431D+00
     40  0.130818D+00 -0.341326D-01  0.208056D-01 -0.963953D-01 -0.974984D-01
     41 -0.630291D-01 -0.325903D-01 -0.807537D-03 -0.732599D-01  0.155904D+00
     42  0.169759D-01 -0.383557D-02 -0.388295D-01 -0.358526D-01  0.285631D-01
     43  0.725037D-01  0.851812D-02  0.819423D-01 -0.115500D+00 -0.103475D+00
     44  0.264708D-02 -0.487546D-01  0.147838D-02 -0.695605D-01  0.132994D+00
     45  0.112435D+00  0.124685D-01  0.280930D-01 -0.121736D+00 -0.424109D-01
     46  0.507733D-01  0.318667D-01 -0.448430D-02  0.862305D-01  0.102786D+00
     47  0.240505D-01 -0.472461D-02 -0.544757D-03  0.933372D-01  0.296778D-01
     48  0.436812D-02  0.265525D-02 -0.159715D-01 -0.196819D-01 -0.152344D-01
     49 -0.864848D-03  0.329700D-01 -0.210959D-01 -0.626439D-02  0.372896D-02
     50  0.239600D-01 -0.703664D-02 -0.129815D-01  0.717757D-02 -0.838720D-03
[...]
 -0.12554281,-0.15081710,-0.01447761,0.00000913,0.00015436,-0.00000924,
 0.01101117,0.00721994,0.00159306,0.00006919,-0.00011659,-0.00005034,0.
 00113856,-0.00036017,0.00162015,0.00000975,-0.00002972,0.00003480,-0.0
 0002942,0.00001470,0.00004800,-0.00035209,0.00032474,0.00013169,0.0000
 5852,-0.00000199,-0.00006567,0.00002589,-0.00003663,0.00041610,0.00030
 820,0.00109562,0.00096854,0.13732713,0.16111655,-0.00035298,0.00167646
 ,0.00137539,0.02521924,0.02011822,-0.00024424,-0.01606230,-0.01409341,
 -0.04800942,-0.00017218,0.00012486,-0.00003748,-0.01919074,-0.01620222
 ,-0.00267076,0.00000127,0.00016828,-0.00018937,-0.00233561,0.00281561,
 -0.00368055,-0.00001299,0.00002142,-0.00004225,-0.00003885,-0.00003390
 ,0.00000070,-0.00041782,-0.00076668,0.00009427,-0.00000166,-0.00006326
 ,-0.00003873,-0.00065329,0.00004428,0.00127774,0.00310759,0.00014400,-
 0.00531737,0.01798236,0.01231620,0.05749419,-0.00012220,-0.00186633,0.
 00284234,-0.00684557,0.01394336,0.00505767,-0.08218587,0.08158904,0.02
 459659,-0.00014187,0.00109107,0.00005890,-0.00859992,0.01940374,0.0044
 3337,0.00007850,0.00007669,-0.00006285,0.00082847,0.00117918,0.0011187
 9,0.00000881,-0.00001937,0.00002903,-0.00013552,-0.00000917,0.00034747
 ,0.00009718,0.00029873,0.00001803,0.00017918,-0.00011795,-0.00026315,0
 .00051120,-0.00042545,-0.00027717,0.00011918,0.00019463,-0.00056907,0.
 00975723,-0.02241509,-0.00695336,0.08750568,-0.00042810,0.00077565,0.0
 0023439,-0.00237658,0.00371489,0.00180736,0.08247416,-0.25369064,-0.06
 299057,0.00008159,0.00015278,0.00033068,0.00423548,-0.01178992,-0.0017
 6479,0.00002719,-0.00003090,-0.00013573,-0.00064935,0.00107049,-0.0000
 8992,-0.00001068,0.00000539,-0.00002923,0.00000429,-0.00000097,0.00002
 546,0.00004011,0.00041588,0.00019102,-0.00004136,0.00004752,0.00004506
 ,0.00005225,0.00020467,-0.00071680,0.00031630,0.00061624,-0.00038757,0
 .00706240,-0.01825567,-0.00522191,-0.09235034,0.27513435,0.00203479,0.
 00282809,-0.00545870,0.01118796,-0.02807248,-0.00938917,0.02503500,-0.
 06245685,-0.06444228,0.00087443,-0.00178200,0.00010982,-0.01039383,0.0
 2373713,0.00465152,-0.00008956,-0.00014204,-0.00007158,0.00117554,0.00
 063971,0.00074617,-0.00007317,0.00002291,0.00000458,0.00023669,-0.0000
 1495,-0.00066113,-0.00025383,0.00035092,0.00007690,0.00029038,-0.00001
 926,0.00007675,-0.00088543,-0.00017331,0.00067112,-0.00008804,0.000388
 55,0.00130886,0.00075639,-0.00222496,-0.00147892,-0.02715967,0.0658697
 7,0.07597124,-0.00042602,0.00036063,-0.00000152,-0.00282832,0.00140125
 ,-0.00246821,0.01046380,0.00073113,-0.02014021,0.00013366,-0.00014640,
 0.00001194,-0.11503647,-0.00130518,0.11676674,-0.00006000,0.00002816,-
 0.00002079,-0.01689972,-0.00054781,0.02334838,0.00001466,0.00000481,0.
 00008968,0.00004138,-0.00001335,-0.00004443,0.00002516,-0.00003945,0.0
 0002858,0.00019337,-0.00020570,0.00000965,0.00042879,0.00024054,-0.001
 06865,0.00002165,0.00018970,-0.00009218,0.00077908,-0.00052284,0.00065
 680,0.00085097,-0.00027506,0.00067968,0.12963832,0.00061320,-0.0000306
 3,-0.00016323,0.00235208,-0.00041259,0.00106699,-0.00574175,-0.0013289
 9,0.01183908,-0.00029121,0.00021671,-0.00000851,-0.00095449,-0.0488699
 9,0.00115011,-0.00002397,-0.00002860,-0.00004521,-0.01162565,-0.000702
 60,0.01712398,0.00004295,0.00000713,-0.00015177,-0.00002099,0.00000909
 ,0.00004118,0.00005105,0.00004856,0.00014331,-0.00047086,0.00008072,-0
 .00013725,-0.00026943,0.00003008,0.00074926,-0.00004384,0.00007209,-0.
 00031346,0.00003318,0.00021412,-0.00062078,-0.00065211,0.00023343,-0.0
 0008833,0.00303005,0.05056567,-0.00019391,0.00047832,0.00038705,-0.004
 81586,0.00143950,-0.00153876,0.01214528,0.00010430,-0.02199086,-0.0000
 7513,-0.00005215,0.00000322,0.11663631,0.00240911,-0.24027329,-0.00003
 361,0.00000241,-0.00004035,-0.00341615,-0.00009192,0.00479761,0.000042
 55,0.00002172,-0.00000935,0.00006661,-0.00003626,-0.00004884,-0.000022
 60,-0.00007760,0.00001425,-0.00010940,0.00001912,0.00008278,0.00071350
 ,0.00024515,-0.00144305,0.00005928,0.00010054,0.00020739,-0.00010766,-
 0.00068453,0.00040081,0.00026070,0.00040730,0.00106256,-0.12361659,-0.
 00346991,0.26225162,0.00031308,0.00016044,0.00031397,0.00015098,-0.000
 73638,0.00058828,-0.00768086,0.02009202,0.00381679,-0.00000610,-0.0002
 5511,-0.00001800,-0.06659927,0.06823627,0.01499870,0.00000608,0.000015
 53,0.00005859,0.00680685,-0.02871551,-0.00593703,-0.00001361,0.0000206
 8,0.00003323,0.00003240,0.00000044,-0.00006048,-0.00022326,-0.00016022
 ,-0.00025984,0.00001744,-0.00016007,0.00081770,-0.00002990,-0.00001065
 ,0.00002619,0.00002856,-0.00001169,-0.00000080,0.00031488,-0.00024596,
 0.00054404,-0.00194428,0.00119575,-0.00382501,-0.00521921,0.01576612,0
 .00309009,0.07637879,0.00111869,0.00000254,-0.00029549,0.00031309,-0.0
 0035965,-0.00063855,0.00368341,-0.01027534,-0.00144523,-0.00057350,0.0
 0040255,-0.00007205,0.06722441,-0.27758158,-0.04721817,-0.00001092,-0.
 00007126,-0.00003790,0.00376461,-0.01834983,-0.00381678,0.00005077,0.0
 0003075,-0.00026277,-0.00001242,0.00000187,0.00008253,0.00007236,-0.00
 010241,0.00028211,-0.00077043,0.00025271,-0.00047845,-0.00009358,0.000
 14446,0.00014184,0.00002116,0.00006358,-0.00000918,0.00016349,0.000739
 40,0.00025521,0.00129857,0.00075323,0.00169671,0.00023173,0.00054070,-
 0.00073890,-0.07302246,0.30330315,0.00070316,0.00014767,-0.00074183,0.
 00033708,0.00021321,0.00121673,-0.00766154,0.02420485,0.00514068,-0.00
 000536,-0.00006339,-0.00003852,0.01503854,-0.04896617,-0.05880306,-0.0
 0001559,0.00005097,0.00007560,0.00079167,-0.00319737,-0.00103258,-0.00
 002359,0.00001092,0.00007665,-0.00001248,0.00001520,0.00000832,-0.0001
 4485,-0.00029854,-0.00004622,0.00069780,-0.00001291,-0.00184478,-0.000
 00095,-0.00031849,0.00012762,-0.00004294,0.00000394,-0.00011738,0.0006
 9710,-0.00061995,0.00099883,-0.00312549,0.00222422,-0.00324509,0.00756
 677,-0.02686823,-0.00582050,-0.01379998,0.05300715,0.06321068,0.000941
 00,0.00103244,-0.00137133,-0.00017053,-0.00000883,0.00022846,0.0000750
 7,0.00007623,0.00002697,-0.02031957,0.00395251,-0.01511985,-0.00007137
 ,-0.00002176,-0.00001762,-0.19570510,0.03507675,-0.12565477,-0.0000990
 6,-0.00000432,0.00011560,-0.00247886,-0.00424405,0.00106589,0.00088678
 ,-0.00005580,0.00011920,0.00056244,-0.00004882,0.00009391,0.00006524,-
 0.00030034,0.00108209,0.00027722,-0.00010481,-0.00004928,-0.00025086,0
 .00021590,0.00003089,0.00002466,0.00000009,-0.00001983,-0.00001734,-0.
 00000451,0.00001990,0.00005501,0.00000798,0.00001196,-0.00000487,-0.00
 000621,0.00001494,0.21492231,0.00049708,0.00112341,-0.00104807,0.00017
 236,0.00013098,0.00014342,-0.00008050,0.00000894,0.00000457,-0.0189031
 7,0.00404170,-0.01503265,0.00002299,0.00005520,0.00002487,0.03531643,-
 0.05507575,0.02869277,0.00004196,-0.00003216,-0.00006489,-0.00385994,-
 0.00275605,0.00091785,0.00076473,0.00070845,-0.00048760,0.00031605,-0.
 00005862,-0.00020392,0.00045473,-0.00003201,0.00044725,-0.00008226,-0.
 00015233,-0.00006795,0.00000946,-0.00015315,0.00006799,-0.00001184,-0.
 00000014,0.00000680,0.00000464,-0.00000189,0.00000903,-0.00002835,-0.0
 0001535,-0.00001028,-0.00000721,-0.00002019,-0.00000193,-0.03469412,0.
 05736138,0.00118146,-0.00030331,0.00136987,-0.00004247,0.00000215,0.00
 012247,-0.00004682,-0.00001588,-0.00005941,0.00389834,-0.00110974,0.00
 230513,-0.00002522,-0.00000776,0.00000240,-0.12589028,0.02834372,-0.15
 347323,0.00004647,0.00000189,-0.00006351,0.00150600,0.00052880,0.00072
 733,-0.00039042,-0.00040297,-0.00009282,-0.00002742,-0.00007826,0.0001
 2960,-0.00045815,0.00012227,0.00029907,-0.00005762,0.00003410,0.000024
 53,-0.00026684,-0.00012252,0.00003905,-0.00000968,-0.00000365,0.000031
 36,-0.00001499,0.00001168,0.00002574,-0.00000624,0.00000983,0.00001709
 ,-0.00000214,0.00002040,-0.00001142,0.13872206,-0.03221965,0.16338810,
 -0.00316737,-0.00353421,-0.00119208,0.00031994,-0.00042959,-0.00007286
 ,-0.00005409,0.00001110,-0.00005393,-0.00828446,0.00237299,0.02302057,
 -0.00004496,-0.00003524,-0.00003284,-0.08050765,0.00555315,0.08840796,
 -0.00003348,-0.00000759,0.00005908,0.00020766,0.00083633,-0.00023483,0
 .00119254,0.00029052,-0.00043682,-0.00028507,-0.00017788,0.00146212,0.
 00018901,-0.00015189,0.00018463,0.00002811,0.00007264,-0.00004946,-0.0
 0010367,0.00001235,-0.00008357,0.00003176,0.00000576,0.00003807,-0.000
 01218,0.00004024,0.00005870,0.00002334,0.00002524,0.00003611,-0.000011
 17,0.00002817,-0.00002751,0.00982286,-0.00208773,-0.02333810,0.0855801
 4,-0.00379986,-0.00354812,-0.00071991,-0.00016221,-0.00073061,-0.00063
 029,0.00011702,0.00039429,0.00018586,-0.00743669,0.00061338,0.02348179
 ,0.00002304,-0.00005568,-0.00002335,0.00598858,-0.04700190,-0.01421435
 ,-0.00003513,0.00002207,0.00001031,0.00042511,0.00065342,-0.00054362,0
 .00091103,0.00073779,0.00023522,-0.00079281,-0.00004605,0.00137343,0.0
 0008034,0.00001837,-0.00036545,-0.00007766,0.00002865,0.00005632,0.000
 42672,0.00049834,0.00020380,0.00011096,0.00003050,-0.00015230,-0.00002
 598,0.00002664,0.00008136,-0.00000802,0.00002080,-0.00000407,-0.000016
 33,0.00003811,-0.00003472,-0.00243234,-0.00081993,0.00576333,-0.003153
 60,0.04986568,0.00077616,0.00089081,0.00113795,-0.00026937,0.00003810,
 0.00015859,0.00005352,0.00006055,0.00006246,-0.00020768,-0.00048674,-0
 .00215727,0.00001213,-0.00001282,-0.00000007,0.08913446,-0.01317303,-0
 .28328951,-0.00006635,0.00001014,0.00005716,0.00044290,0.00021619,0.00
 027485,-0.00009699,0.00051682,0.00032336,0.00029077,-0.00014770,-0.000
 32058,-0.00004823,-0.00018787,0.00037827,0.00008474,-0.00000050,-0.000
 00481,-0.00004094,0.00018051,0.00009022,0.00001060,0.00000826,-0.00004
 545,0.00000120,-0.00002491,-0.00003216,0.00001629,0.00000298,-0.000032
 44,-0.00000634,-0.00001143,0.00002686,0.00742053,-0.00167840,-0.018297
 44,-0.09839839,0.01426335,0.30561098,0.00078988,0.00069395,-0.00034845
 ,0.00040665,0.00039194,0.00096729,-0.00021363,-0.00005367,-0.00008607,
 0.00964055,-0.02475445,-0.00489659,0.00007393,0.00000194,-0.00003904,-
 0.07933928,0.08731872,0.01381354,-0.00000378,-0.00000192,-0.00002028,0
 .00135288,0.00081928,-0.00039993,-0.00342930,-0.00420710,0.00118275,0.
 00003180,0.00016140,-0.00015171,-0.00004905,0.00001519,0.00008536,-0.0
 0033522,0.00011930,-0.00024585,-0.00068503,-0.00018422,0.00102412,-0.0
 0000982,-0.00003098,0.00001368,0.00001109,-0.00000976,-0.00000240,-0.0
 0002811,0.00000671,-0.00003022,-0.00001592,-0.00000559,-0.00000081,-0.
 00859426,0.02217407,0.00530108,-0.00490858,0.00983611,0.00082177,0.085
 30641,0.00055568,-0.00000520,-0.00073403,-0.00028564,-0.00058653,-0.00
 074823,0.00018911,0.00061303,0.00025676,0.00754082,-0.02095234,-0.0036
 3888,0.00006809,-0.00008061,-0.00001637,0.08610126,-0.27709017,-0.0378
 3704,-0.00004582,0.00003522,-0.00000079,-0.00001186,0.00105645,-0.0002
 2954,-0.00407313,-0.00166801,0.00088181,-0.00012555,0.00019286,0.00009
 096,-0.00007249,0.00002672,0.00000350,-0.00016855,-0.00014729,0.000174
 22,0.00072310,0.00100695,0.00009140,0.00013531,0.00004084,-0.00022810,
 -0.00004939,-0.00000798,0.00007714,-0.00002038,0.00002595,-0.00003120,
 -0.00001421,0.00005020,-0.00002025,0.00154147,-0.00435890,-0.00057788,
 0.00031745,-0.00072452,-0.00046562,-0.09232303,0.30261453,-0.00068680,
 0.00049120,0.00026121,0.00044735,0.00000162,-0.00038081,-0.00008867,-0
 .00005348,-0.00008266,-0.00234934,0.00367682,0.00004621,-0.00002870,0.
 00004688,0.00000525,0.01410089,-0.03846939,-0.05376444,0.00007040,-0.0
 0003395,-0.00002536,-0.00000529,-0.00052856,0.00005219,0.00056780,0.00
 065295,0.00066402,0.00006675,-0.00023536,0.00003369,0.00005713,0.00002
 119,-0.00001125,-0.00005274,-0.00008000,0.00003719,0.00109203,0.000082
 72,-0.00160008,-0.00004434,-0.00001683,0.00007638,-0.00000261,0.000014
 10,0.00002950,-0.00000286,-0.00001681,0.00002563,0.00000176,-0.0000193
 1,-0.00000746,-0.00674128,0.02050714,0.00340246,0.01063350,-0.02898989
 ,-0.00391490,-0.01696177,0.04291290,0.05512915,-0.00016114,-0.00008628
 ,-0.00002551,0.00005708,0.00026124,-0.00011083,0.00206909,-0.00073308,
 0.00035269,0.00003414,0.00007156,0.00001280,0.00718550,-0.02811936,-0.
 00503324,-0.00005664,0.00001853,-0.00003206,-0.06480556,0.06707964,0.0
 0998212,0.00000240,-0.00000040,0.00001059,-0.00001438,-0.00000425,0.00
 001587,0.00012401,0.00001085,0.00004732,-0.00004171,-0.00012844,0.0000
 0410,0.00003821,0.00000913,-0.00001778,-0.00004927,0.00000004,-0.00003
 442,0.00016390,0.00021330,0.00039871,-0.00022846,0.00076123,0.00021695
 ,0.00108786,0.00073482,0.00036705,-0.00459638,-0.00359698,-0.00087509,
 0.00002801,0.00000230,-0.00001304,0.00001429,-0.00000067,0.00001680,0.
 00001750,-0.00000488,0.00000650,0.06982223,0.00018931,0.00006030,0.000
 11331,-0.00016029,0.00004636,-0.00023239,0.00101229,0.00100870,0.00069
 316,-0.00007943,0.00005543,0.00000349,0.00435711,-0.01932056,-0.003131
 54,0.00002046,-0.00003533,-0.00000898,0.06671493,-0.28728340,-0.035318
 13,0.00000611,0.00000708,-0.00004479,0.00000361,0.00000414,0.00001007,
 -0.00000210,0.00005174,0.00006638,-0.00012957,0.00005389,0.00007241,0.
 00001280,0.00002852,-0.00009816,0.00001830,-0.00015501,-0.00032622,-0.
 00003334,0.00036151,0.00022523,-0.00075585,0.00038795,-0.00065758,0.00
 000818,0.00037886,0.00043580,-0.00382663,-0.00069694,0.00017354,-0.000
 00978,-0.00000645,0.00000339,0.00000640,0.00001565,-0.00001058,-0.0000
 1165,0.00001710,-0.00000903,-0.06999726,0.31447575,0.00014820,-0.00022
 599,0.00013116,-0.00001648,-0.00035237,0.00011487,0.00043593,-0.000883
 84,0.00019419,-0.00008660,0.00005548,-0.00001882,0.00062249,-0.0032728
 9,-0.00126656,0.00006577,-0.00005958,0.00002883,0.00989945,-0.03518725
 ,-0.05300039,0.00000541,-0.00000496,-0.00005154,-0.00000523,0.00001124
 ,0.00002001,-0.00009027,0.00009337,-0.00010883,-0.00012364,0.00022483,
 0.00009479,0.00002737,0.00013088,0.00001127,0.00033142,0.00011581,-0.0
 0017272,0.00004690,0.00019271,0.00000735,-0.00020219,0.00009796,0.0001
 0140,-0.00025997,0.00045118,0.00005002,-0.00075402,-0.00054491,0.00069
 975,-0.00003325,0.00000316,0.00001688,-0.00001716,0.00001916,-0.000011
 24,-0.00001026,0.00002890,-0.00002134,-0.01016607,0.03959244,0.0520187
 0,0.00009466,0.00004947,-0.00028326,-0.00047905,-0.00014657,-0.0002241
 7,0.00054542,0.00020054,0.00121004,0.00013721,-0.00001296,-0.00006063,
 -0.01614741,0.00173847,0.02262074,0.00002564,-0.00001982,0.00000346,-0
 .13801963,0.00898741,0.12553443,-0.00001294,-0.00002079,0.00007423,-0.
 00001691,0.00002258,0.00002522,0.00013474,0.00013076,0.00019137,0.0000
 0883,-0.00044022,-0.00022807,0.00039379,0.00022465,0.00002639,-0.00025
 350,0.00066591,-0.00109969,0.00022910,-0.00003126,-0.00024419,-0.00001
 107,-0.00006586,-0.00006300,-0.00392466,-0.00343674,-0.00147428,0.0013
 2812,0.00030349,-0.00025479,0.00001652,-0.00000402,-0.00006472,-0.0000
 1937,0.00001381,0.00004712,-0.00000617,0.00002227,-0.00006720,-0.00558
 303,0.00039100,0.00640721,0.15052117,-0.00062237,0.00024062,-0.0003047
 6,0.00022232,0.00062453,-0.00025654,0.00086720,0.00016101,-0.00009143,
 0.00019826,-0.00005019,-0.00000568,-0.01190986,0.00037053,0.01750526,-
 0.00007702,0.00006248,-0.00002682,0.00933036,-0.04783239,-0.01196785,-
 0.00002528,-0.00001663,0.00010046,-0.00001215,-0.00002113,-0.00001953,
 0.00016512,-0.00007038,0.00010769,0.00008160,-0.00053386,-0.00015575,0
 .00004075,-0.00014857,-0.00006666,0.00031411,-0.00011765,0.00036046,0.
 00005208,-0.00001285,0.00010310,-0.00002844,0.00002448,-0.00004843,-0.
 00394145,-0.00181927,-0.00075600,0.00081252,0.00067768,0.00051434,0.00
 002588,0.00005298,-0.00000160,0.00000469,-0.00004420,0.00000743,0.0000
 4848,-0.00006402,0.00005425,0.01799718,-0.00078191,-0.02606340,-0.0068
 3628,0.04959700,-0.00036189,0.00012890,-0.00012905,-0.00033607,0.00050
 511,-0.00116382,0.00010041,0.00048770,0.00022369,-0.00002511,0.0000203
 9,-0.00006543,-0.00219037,0.00139368,0.00441273,-0.00008245,-0.0000076
 7,0.00012976,0.12663701,-0.01214119,-0.22094980,-0.00000186,-0.0000057
 2,-0.00000275,-0.00000451,0.00001090,0.00002404,0.00004123,0.00003493,
 0.00006791,0.00013423,-0.00018963,0.00025356,-0.00014010,-0.00018133,0
 .00016318,-0.00149942,-0.00009475,-0.00122537,0.00024118,-0.00005842,0
 .00007325,-0.00007516,-0.00001283,-0.00002520,-0.00133891,-0.00043874,
 0.00113931,0.00048146,0.00039329,0.00031818,0.00009070,-0.00003378,0.0
 0007210,0.00003130,0.00001696,0.00002738,-0.00002269,0.00004385,-0.000
 00121,0.00118105,-0.00015296,-0.00339107,-0.13798532,0.01265155,0.2403
 2573,-0.00001643,0.00008717,-0.00011484,-0.00019371,-0.00048233,0.0008
 2966,-0.00376275,-0.00500054,0.00075127,0.00004983,-0.00006859,0.00001
 931,-0.01469498,0.00997643,-0.02141307,-0.00003760,0.00000149,-0.00003
 190,-0.12098435,0.04402252,-0.11245375,0.00000055,0.00000773,0.0000193
 1,0.00002042,-0.00000494,-0.00003454,0.00001008,0.00006337,0.00003720,
 0.00003520,-0.00008439,0.00001214,0.00018519,0.00014954,-0.00007675,0.
 00030993,0.00036763,0.00006534,-0.00115569,0.00040433,-0.00150596,0.00
 029680,-0.00007938,0.00026752,0.00066547,0.00086765,0.00046596,0.00096
 763,-0.00018184,0.00014390,0.00003473,-0.00001767,-0.00000126,0.000022
 40,0.00000858,0.00000532,-0.00001255,0.00000035,-0.00001250,-0.0051076
 5,0.00226540,-0.00622501,0.01103854,-0.00670772,0.01512530,0.13232894,
 0.00006096,0.00007402,0.00000300,-0.00023232,-0.00022262,0.00033129,-0
 .00272054,-0.00244094,0.00025032,0.00000294,-0.00001371,-0.00000599,-0
 .01073333,0.00638970,-0.01707170,0.00000016,-0.00002093,0.00000120,0.0
 4466441,-0.07265754,0.06579598,0.00000277,-0.00000119,0.00000309,0.000
 00320,0.00000130,-0.00000871,-0.00004932,0.00005623,0.00002140,-0.0000
 0490,0.00002869,0.00001187,0.00008222,0.00006662,-0.00002721,0.0002347
 1,0.00007602,-0.00012327,-0.00084083,0.00050112,-0.00063712,-0.0003641
 9,0.00021439,-0.00002115,0.00082783,0.00076410,0.00028955,0.00088265,0
 .00045625,-0.00016407,0.00000643,-0.00000014,0.00000167,0.00000068,0.0
 0000733,0.00000447,-0.00000474,0.00000571,-0.00000916,0.01551179,-0.00
 867337,0.02557806,-0.00173583,-0.00029826,-0.00237022,-0.04559479,0.07
 568721,-0.00009805,0.00007402,0.00007651,0.00016655,0.00032641,0.00010
 919,0.00006349,-0.00070537,0.00076186,-0.00002775,-0.00000850,0.000045
 20,0.00030480,0.00054212,-0.00169949,0.00001763,0.00000815,-0.00003470
 ,-0.11329888,0.06538285,-0.21702801,0.00000232,0.00001036,-0.00001695,
 0.00002035,-0.00002665,-0.00003996,-0.00003983,-0.00005877,-0.00003478
 ,-0.00003719,0.00013213,0.00000212,-0.00019478,-0.00015209,-0.00002092
 ,-0.00019550,-0.00040277,0.00016025,-0.00011172,0.00022308,-0.00007571
 ,-0.00005839,0.00011524,-0.00003191,-0.00011396,-0.00025568,0.00075811
 ,-0.00010715,-0.00029012,-0.00019108,-0.00003588,0.00002423,0.00002467
 ,0.00000550,-0.00001293,-0.00004224,0.00000647,-0.00003349,0.00004663,
 0.00369549,-0.00139886,0.00455328,-0.01409088,0.00835992,-0.02027712,0
 .12412734,-0.07185329,0.23295507\\-0.00000054,-0.00000016,0.00000032,0
 .00000040,0.00000054,-0.00000016,-0.00000003,0.00000136,-0.00000042,-0
 .00000003,-0.00000142,0.00000023,-0.00000056,0.00000148,0.00000015,0.0
 0000059,-0.00000208,-0.00000007,0.00000001,0.00000081,-0.00000015,0.00
 000018,-0.00000104,0.00000026,-0.00000074,-0.00000158,0.00000099,-0.00
 000088,0.00000020,0.00000066,-0.00000073,-0.00000044,0.00000069,0.0000
 0059,0.00000046,-0.00000064,0.00000078,-0.00000013,-0.00000062,-0.0000
 0046,0.00000192,-0.00000020,0.00000058,0.00000180,-0.00000098,-0.00000
 067,0.00000221,-0.00000012,-0.00000112,0.00000114,0.00000057,0.0000003
 9,-0.00000227,0.00000041,0.00000065,-0.00000276,0.00000034,0.00000117,
 -0.00000172,-0.00000039,0.00000063,0.00000095,-0.00000075,0.00000016,-
 0.00000009,-0.00000013,-0.00000036,0.00000082,0.\\\@


 "TIGER, TIGER BURNING BRIGHT
 IN THE FOREST OF THE NIGHT.
 WHAT IMMORTAL HAND OR EYE
 CAN FRAME THY FEARFUL SYMMETRYE?"
                     - WILLIAM BLAKE
 Job cpu time:       0 days  5 hours 33 minutes  6.8 seconds.
 Elapsed time:       0 days  2 hours 46 minutes 35.9 seconds.
 File lengths (MBytes):  RWF=   1488 Int=      0 D2E=      0 Chk=     32 Scr=     32
 Normal termination of Gaussian 16 at Sun Sep 29 12:04:45 2019.
