 Entering Gaussian System, Link 0=g16
 Input=tight/species/CCCCCCC/conformers/CCCCCCC_350.com
 Output=tight/species/CCCCCCC/conformers/CCCCCCC_350.log
 Initial command:
 /shared/centos7/gaussian/g16/l1.exe "/scratch/harms.n/gauss_scrdir/Gau-13307.inp" -scrdir="/scratch/harms.n/gauss_scrdir/"
 Entering Link 1 = /shared/centos7/gaussian/g16/l1.exe PID=     13308.
  
 Copyright (c) 1988,1990,1992,1993,1995,1998,2003,2009,2016,
            Gaussian, Inc.  All Rights Reserved.
  
 This is part of the Gaussian(R) 16 program.  It is based on
 the Gaussian(R) 09 system (copyright 2009, Gaussian, Inc.),
 the Gaussian(R) 03 system (copyright 2003, Gaussian, Inc.),
 the Gaussian(R) 98 system (copyright 1998, Gaussian, Inc.),
 the Gaussian(R) 94 system (copyright 1995, Gaussian, Inc.),
 the Gaussian 92(TM) system (copyright 1992, Gaussian, Inc.),
 the Gaussian 90(TM) system (copyright 1990, Gaussian, Inc.),
 the Gaussian 88(TM) system (copyright 1988, Gaussian, Inc.),
 the Gaussian 86(TM) system (copyright 1986, Carnegie Mellon
 University), and the Gaussian 82(TM) system (copyright 1983,
 Carnegie Mellon University). Gaussian is a federally registered
 trademark of Gaussian, Inc.
  
 This software contains proprietary and confidential information,
 including trade secrets, belonging to Gaussian, Inc.
  
 This software is provided under written license and may be
 used, copied, transmitted, or stored only in accord with that
 written license.
  
 The following legend is applicable only to US Government
 contracts under FAR:
  
                    RESTRICTED RIGHTS LEGEND
  
 Use, reproduction and disclosure by the US Government is
 subject to restrictions as set forth in subparagraphs (a)
 and (c) of the Commercial Computer Software - Restricted
 Rights clause in FAR 52.227-19.
  
 Gaussian, Inc.
 340 Quinnipiac St., Bldg. 40, Wallingford CT 06492
  
  
 ---------------------------------------------------------------
 Warning -- This program may not be used in any manner that
 competes with the business of Gaussian, Inc. or will provide
 assistance to any competitor of Gaussian, Inc.  The licensee
 of this program is prohibited from giving any competitor of
 Gaussian, Inc. access to this program.  By using this program,
 the user acknowledges that Gaussian, Inc. is engaged in the
 business of creating and licensing software in the field of
 computational chemistry and represents and warrants to the
 licensee that it is not a competitor of Gaussian, Inc. and that
 it will not use this program in any manner prohibited above.
 ---------------------------------------------------------------
  

 Cite this work as:
 Gaussian 16, Revision A.03,
 M. J. Frisch, G. W. Trucks, H. B. Schlegel, G. E. Scuseria, 
 M. A. Robb, J. R. Cheeseman, G. Scalmani, V. Barone, 
 G. A. Petersson, H. Nakatsuji, X. Li, M. Caricato, A. V. Marenich, 
 J. Bloino, B. G. Janesko, R. Gomperts, B. Mennucci, H. P. Hratchian, 
 J. V. Ortiz, A. F. Izmaylov, J. L. Sonnenberg, D. Williams-Young, 
 F. Ding, F. Lipparini, F. Egidi, J. Goings, B. Peng, A. Petrone, 
 T. Henderson, D. Ranasinghe, V. G. Zakrzewski, J. Gao, N. Rega, 
 G. Zheng, W. Liang, M. Hada, M. Ehara, K. Toyota, R. Fukuda, 
 J. Hasegawa, M. Ishida, T. Nakajima, Y. Honda, O. Kitao, H. Nakai, 
 T. Vreven, K. Throssell, J. A. Montgomery, Jr., J. E. Peralta, 
 F. Ogliaro, M. J. Bearpark, J. J. Heyd, E. N. Brothers, K. N. Kudin, 
 V. N. Staroverov, T. A. Keith, R. Kobayashi, J. Normand, 
 K. Raghavachari, A. P. Rendell, J. C. Burant, S. S. Iyengar, 
 J. Tomasi, M. Cossi, J. M. Millam, M. Klene, C. Adamo, R. Cammi, 
 J. W. Ochterski, R. L. Martin, K. Morokuma, O. Farkas, 
 J. B. Foresman, and D. J. Fox, Gaussian, Inc., Wallingford CT, 2016.
 
 ******************************************
 Gaussian 16:  EM64L-G16RevA.03 25-Dec-2016
                28-Sep-2019 
 ******************************************
 %nprocshared=20
 Will use up to   20 processors via shared memory.
 %mem=5GB
 ----------------------------------------------------------------------
 #p m062x/cc-pVTZ opt=(calcfc,maxcycles=900,Tight) freq IOP(7/33=1,2/16
 =3) scf=(maxcycle=900)
 ----------------------------------------------------------------------
 1/6=900,7=10,10=4,18=20,19=15,26=3,38=1/1,3;
 2/9=110,12=2,16=3,17=6,18=5,40=1/2;
 3/5=16,6=1,11=2,25=1,30=1,71=2,74=-55,140=1/1,2,3;
 4//1;
 5/5=2,7=900,38=5/2;
 8/6=4,10=90,11=11/1;
 11/6=1,8=1,9=11,15=111,16=1/1,2,10;
 10/6=1,13=1/2;
 6/7=2,8=2,9=2,10=2,28=1/1;
 7/10=1,18=20,25=1,33=1/1,2,3,16;
 1/6=900,7=10,10=4,18=20,19=15,26=3/3(2);
 2/9=110,16=3/2;
 99//99;
 2/9=110,16=3/2;
 3/5=16,6=1,11=2,25=1,30=1,71=1,74=-55/1,2,3;
 4/5=5,16=3,69=1/1;
 5/5=2,7=900,38=5/2;
 7/33=1/1,2,3,16;
 1/6=900,7=10,18=20,19=15,26=3/3(-5);
 2/9=110,16=3/2;
 6/7=2,8=2,9=2,10=2,19=2,28=1/1;
 99/9=1/99;
 Leave Link    1 at Sat Sep 28 15:45:26 2019, MaxMem=   671088640 cpu:               4.5 elap:               2.2
 (Enter /shared/centos7/gaussian/g16/l101.exe)
 ------------------------------
 Gaussian input prepared by ASE
 ------------------------------
 Symbolic Z-matrix:
 Charge =  0 Multiplicity = 1
 C                     1.40759  -1.18328   0.46408 
 C                     0.18359  -0.41754   0.8348 
 C                    -0.83576  -0.22683  -0.26043 
 C                     2.24796  -0.57514  -0.60782 
 C                    -0.44727   0.79139  -1.30637 
 C                     3.51352  -1.28739  -0.85408 
 C                     0.08713   2.08246  -0.74291 
 H                     2.465     0.49871  -0.3454 
 H                     1.64755  -0.52519  -1.54738 
 H                     1.12202  -2.21027   0.15213 
 H                     2.02129  -1.30926   1.37958 
 H                     0.47092   0.57737   1.20933 
 H                    -0.30806  -0.93887   1.68318 
 H                    -1.79011   0.07572   0.20304 
 H                    -1.03507  -1.19311  -0.76811 
 H                     0.33047   0.3356   -1.97338 
 H                    -1.3189    0.99463  -1.95152 
 H                     3.6321   -2.16221  -0.18737 
 H                     3.57526  -1.66978  -1.91592 
 H                     4.394    -0.62932  -0.69532 
 H                     0.47756   1.93362   0.26456 
 H                    -0.7108    2.87413  -0.69356 
 H                     0.91998   2.48702  -1.38679 
 
 ITRead=  0  0  0  0  0  0  0  0  0  0  0  0  0  0  0  0  0  0  0  0
 ITRead=  0  0  0
 MicOpt= -1 -1 -1 -1 -1 -1 -1 -1 -1 -1 -1 -1 -1 -1 -1 -1 -1 -1 -1 -1
 MicOpt= -1 -1 -1
 NAtoms=     23 NQM=       23 NQMF=       0 NMMI=      0 NMMIF=      0
                NMic=       0 NMicF=      0.
                    Isotopes and Nuclear Properties:
 (Nuclear quadrupole moments (NQMom) in fm**2, nuclear magnetic moments (NMagM)
  in nuclear magnetons)

  Atom         1           2           3           4           5           6           7           8           9          10
 IAtWgt=          12          12          12          12          12          12          12           1           1           1
 AtmWgt=  12.0000000  12.0000000  12.0000000  12.0000000  12.0000000  12.0000000  12.0000000   1.0078250   1.0078250   1.0078250
 NucSpn=           0           0           0           0           0           0           0           1           1           1
 AtZEff=  -0.0000000  -0.0000000  -0.0000000  -0.0000000  -0.0000000  -0.0000000  -0.0000000  -0.0000000  -0.0000000  -0.0000000
 NQMom=    0.0000000   0.0000000   0.0000000   0.0000000   0.0000000   0.0000000   0.0000000   0.0000000   0.0000000   0.0000000
 NMagM=    0.0000000   0.0000000   0.0000000   0.0000000   0.0000000   0.0000000   0.0000000   2.7928460   2.7928460   2.7928460
 AtZNuc=   6.0000000   6.0000000   6.0000000   6.0000000   6.0000000   6.0000000   6.0000000   1.0000000   1.0000000   1.0000000

  Atom        11          12          13          14          15          16          17          18          19          20
 IAtWgt=           1           1           1           1           1           1           1           1           1           1
 AtmWgt=   1.0078250   1.0078250   1.0078250   1.0078250   1.0078250   1.0078250   1.0078250   1.0078250   1.0078250   1.0078250
 NucSpn=           1           1           1           1           1           1           1           1           1           1
 AtZEff=  -0.0000000  -0.0000000  -0.0000000  -0.0000000  -0.0000000  -0.0000000  -0.0000000  -0.0000000  -0.0000000  -0.0000000
 NQMom=    0.0000000   0.0000000   0.0000000   0.0000000   0.0000000   0.0000000   0.0000000   0.0000000   0.0000000   0.0000000
 NMagM=    2.7928460   2.7928460   2.7928460   2.7928460   2.7928460   2.7928460   2.7928460   2.7928460   2.7928460   2.7928460
 AtZNuc=   1.0000000   1.0000000   1.0000000   1.0000000   1.0000000   1.0000000   1.0000000   1.0000000   1.0000000   1.0000000

  Atom        21          22          23
 IAtWgt=           1           1           1
 AtmWgt=   1.0078250   1.0078250   1.0078250
 NucSpn=           1           1           1
 AtZEff=  -0.0000000  -0.0000000  -0.0000000
 NQMom=    0.0000000   0.0000000   0.0000000
 NMagM=    2.7928460   2.7928460   2.7928460
 AtZNuc=   1.0000000   1.0000000   1.0000000
 Leave Link  101 at Sat Sep 28 15:45:27 2019, MaxMem=   671088640 cpu:               2.8 elap:               1.4
 (Enter /shared/centos7/gaussian/g16/l103.exe)

 GradGradGradGradGradGradGradGradGradGradGradGradGradGradGradGradGradGrad
 Berny optimization.
 Initialization pass.
                           ----------------------------
                           !    Initial Parameters    !
                           ! (Angstroms and Degrees)  !
 --------------------------                            --------------------------
 ! Name  Definition              Value          Derivative Info.                !
 --------------------------------------------------------------------------------
 ! R1    R(1,2)                  1.4906         calculate D2E/DX2 analytically  !
 ! R2    R(1,4)                  1.4917         calculate D2E/DX2 analytically  !
 ! R3    R(1,10)                 1.1107         calculate D2E/DX2 analytically  !
 ! R4    R(1,11)                 1.1093         calculate D2E/DX2 analytically  !
 ! R5    R(2,3)                  1.5083         calculate D2E/DX2 analytically  !
 ! R6    R(2,12)                 1.1012         calculate D2E/DX2 analytically  !
 ! R7    R(2,13)                 1.1105         calculate D2E/DX2 analytically  !
 ! R8    R(3,5)                  1.5105         calculate D2E/DX2 analytically  !
 ! R9    R(3,14)                 1.1032         calculate D2E/DX2 analytically  !
 ! R10   R(3,15)                 1.1096         calculate D2E/DX2 analytically  !
 ! R11   R(4,6)                  1.473          calculate D2E/DX2 analytically  !
 ! R12   R(4,8)                  1.1266         calculate D2E/DX2 analytically  !
 ! R13   R(4,9)                  1.1161         calculate D2E/DX2 analytically  !
 ! R14   R(5,7)                  1.5066         calculate D2E/DX2 analytically  !
 ! R15   R(5,16)                 1.1214         calculate D2E/DX2 analytically  !
 ! R16   R(5,17)                 1.1033         calculate D2E/DX2 analytically  !
 ! R17   R(6,18)                 1.1063         calculate D2E/DX2 analytically  !
 ! R18   R(6,19)                 1.1303         calculate D2E/DX2 analytically  !
 ! R19   R(6,20)                 1.1106         calculate D2E/DX2 analytically  !
 ! R20   R(7,21)                 1.0907         calculate D2E/DX2 analytically  !
 ! R21   R(7,22)                 1.1251         calculate D2E/DX2 analytically  !
 ! R22   R(7,23)                 1.1278         calculate D2E/DX2 analytically  !
 ! A1    A(2,1,4)              115.588          calculate D2E/DX2 analytically  !
 ! A2    A(2,1,10)             109.4954         calculate D2E/DX2 analytically  !
 ! A3    A(2,1,11)             107.8999         calculate D2E/DX2 analytically  !
 ! A4    A(4,1,10)             108.663          calculate D2E/DX2 analytically  !
 ! A5    A(4,1,11)             109.1268         calculate D2E/DX2 analytically  !
 ! A6    A(10,1,11)            105.606          calculate D2E/DX2 analytically  !
 ! A7    A(1,2,3)              116.0594         calculate D2E/DX2 analytically  !
 ! A8    A(1,2,12)             109.5387         calculate D2E/DX2 analytically  !
 ! A9    A(1,2,13)             108.202          calculate D2E/DX2 analytically  !
 ! A10   A(3,2,12)             108.0033         calculate D2E/DX2 analytically  !
 ! A11   A(3,2,13)             108.3541         calculate D2E/DX2 analytically  !
 ! A12   A(12,2,13)            106.2494         calculate D2E/DX2 analytically  !
 ! A13   A(2,3,5)              114.4696         calculate D2E/DX2 analytically  !
 ! A14   A(2,3,14)             108.315          calculate D2E/DX2 analytically  !
 ! A15   A(2,3,15)             110.092          calculate D2E/DX2 analytically  !
 ! A16   A(5,3,14)             109.1788         calculate D2E/DX2 analytically  !
 ! A17   A(5,3,15)             108.4459         calculate D2E/DX2 analytically  !
 ! A18   A(14,3,15)            106.001          calculate D2E/DX2 analytically  !
 ! A19   A(1,4,6)              114.0203         calculate D2E/DX2 analytically  !
 ! A20   A(1,4,8)              109.2544         calculate D2E/DX2 analytically  !
 ! A21   A(1,4,9)              108.6685         calculate D2E/DX2 analytically  !
 ! A22   A(6,4,8)              109.5325         calculate D2E/DX2 analytically  !
 ! A23   A(6,4,9)              110.0664         calculate D2E/DX2 analytically  !
 ! A24   A(8,4,9)              104.896          calculate D2E/DX2 analytically  !
 ! A25   A(3,5,7)              114.1987         calculate D2E/DX2 analytically  !
 ! A26   A(3,5,16)             108.4365         calculate D2E/DX2 analytically  !
 ! A27   A(3,5,17)             109.0188         calculate D2E/DX2 analytically  !
 ! A28   A(7,5,16)             108.9507         calculate D2E/DX2 analytically  !
 ! A29   A(7,5,17)             109.9414         calculate D2E/DX2 analytically  !
 ! A30   A(16,5,17)            105.9607         calculate D2E/DX2 analytically  !
 ! A31   A(4,6,18)             111.9452         calculate D2E/DX2 analytically  !
 ! A32   A(4,6,19)             111.5663         calculate D2E/DX2 analytically  !
 ! A33   A(4,6,20)             111.7611         calculate D2E/DX2 analytically  !
 ! A34   A(18,6,19)            107.0242         calculate D2E/DX2 analytically  !
 ! A35   A(18,6,20)            107.3032         calculate D2E/DX2 analytically  !
 ! A36   A(19,6,20)            106.9448         calculate D2E/DX2 analytically  !
 ! A37   A(5,7,21)             110.8237         calculate D2E/DX2 analytically  !
 ! A38   A(5,7,22)             111.5811         calculate D2E/DX2 analytically  !
 ! A39   A(5,7,23)             110.8436         calculate D2E/DX2 analytically  !
 ! A40   A(21,7,22)            108.0214         calculate D2E/DX2 analytically  !
 ! A41   A(21,7,23)            108.1779         calculate D2E/DX2 analytically  !
 ! A42   A(22,7,23)            107.2394         calculate D2E/DX2 analytically  !
 ! D1    D(4,1,2,3)             61.8437         calculate D2E/DX2 analytically  !
 ! D2    D(4,1,2,12)           -60.7454         calculate D2E/DX2 analytically  !
 ! D3    D(4,1,2,13)          -176.1652         calculate D2E/DX2 analytically  !
 ! D4    D(10,1,2,3)           -61.243          calculate D2E/DX2 analytically  !
 ! D5    D(10,1,2,12)          176.1679         calculate D2E/DX2 analytically  !
 ! D6    D(10,1,2,13)           60.748          calculate D2E/DX2 analytically  !
 ! D7    D(11,1,2,3)          -175.7148         calculate D2E/DX2 analytically  !
 ! D8    D(11,1,2,12)           61.6961         calculate D2E/DX2 analytically  !
 ! D9    D(11,1,2,13)          -53.7238         calculate D2E/DX2 analytically  !
 ! D10   D(2,1,4,6)            174.2621         calculate D2E/DX2 analytically  !
 ! D11   D(2,1,4,8)             51.3471         calculate D2E/DX2 analytically  !
 ! D12   D(2,1,4,9)            -62.5714         calculate D2E/DX2 analytically  !
 ! D13   D(10,1,4,6)           -62.213          calculate D2E/DX2 analytically  !
 ! D14   D(10,1,4,8)           174.872          calculate D2E/DX2 analytically  !
 ! D15   D(10,1,4,9)            60.9535         calculate D2E/DX2 analytically  !
 ! D16   D(11,1,4,6)            52.4753         calculate D2E/DX2 analytically  !
 ! D17   D(11,1,4,8)           -70.4398         calculate D2E/DX2 analytically  !
 ! D18   D(11,1,4,9)           175.6417         calculate D2E/DX2 analytically  !
 ! D19   D(1,2,3,5)            -74.4582         calculate D2E/DX2 analytically  !
 ! D20   D(1,2,3,14)           163.4801         calculate D2E/DX2 analytically  !
 ! D21   D(1,2,3,15)            47.9961         calculate D2E/DX2 analytically  !
 ! D22   D(12,2,3,5)            48.9348         calculate D2E/DX2 analytically  !
 ! D23   D(12,2,3,14)          -73.127          calculate D2E/DX2 analytically  !
 ! D24   D(12,2,3,15)          171.3891         calculate D2E/DX2 analytically  !
 ! D25   D(13,2,3,5)           163.6314         calculate D2E/DX2 analytically  !
 ! D26   D(13,2,3,14)           41.5696         calculate D2E/DX2 analytically  !
 ! D27   D(13,2,3,15)          -73.9143         calculate D2E/DX2 analytically  !
 ! D28   D(2,3,5,7)            -46.3813         calculate D2E/DX2 analytically  !
 ! D29   D(2,3,5,16)            75.2945         calculate D2E/DX2 analytically  !
 ! D30   D(2,3,5,17)          -169.7763         calculate D2E/DX2 analytically  !
 ! D31   D(14,3,5,7)            75.2081         calculate D2E/DX2 analytically  !
 ! D32   D(14,3,5,16)         -163.1161         calculate D2E/DX2 analytically  !
 ! D33   D(14,3,5,17)          -48.1869         calculate D2E/DX2 analytically  !
 ! D34   D(15,3,5,7)          -169.7251         calculate D2E/DX2 analytically  !
 ! D35   D(15,3,5,16)          -48.0494         calculate D2E/DX2 analytically  !
 ! D36   D(15,3,5,17)           66.8799         calculate D2E/DX2 analytically  !
 ! D37   D(1,4,6,18)            -0.4105         calculate D2E/DX2 analytically  !
 ! D38   D(1,4,6,19)           119.5009         calculate D2E/DX2 analytically  !
 ! D39   D(1,4,6,20)          -120.8152         calculate D2E/DX2 analytically  !
 ! D40   D(8,4,6,18)           122.3529         calculate D2E/DX2 analytically  !
 ! D41   D(8,4,6,19)          -117.7357         calculate D2E/DX2 analytically  !
 ! D42   D(8,4,6,20)             1.9482         calculate D2E/DX2 analytically  !
 ! D43   D(9,4,6,18)          -122.814          calculate D2E/DX2 analytically  !
 ! D44   D(9,4,6,19)            -2.9026         calculate D2E/DX2 analytically  !
 ! D45   D(9,4,6,20)           116.7813         calculate D2E/DX2 analytically  !
 ! D46   D(3,5,7,21)            22.9196         calculate D2E/DX2 analytically  !
 ! D47   D(3,5,7,22)           -97.5039         calculate D2E/DX2 analytically  !
 ! D48   D(3,5,7,23)           143.0488         calculate D2E/DX2 analytically  !
 ! D49   D(16,5,7,21)          -98.4727         calculate D2E/DX2 analytically  !
 ! D50   D(16,5,7,22)          141.1039         calculate D2E/DX2 analytically  !
 ! D51   D(16,5,7,23)           21.6566         calculate D2E/DX2 analytically  !
 ! D52   D(17,5,7,21)          145.8148         calculate D2E/DX2 analytically  !
 ! D53   D(17,5,7,22)           25.3913         calculate D2E/DX2 analytically  !
 ! D54   D(17,5,7,23)          -94.056          calculate D2E/DX2 analytically  !
 --------------------------------------------------------------------------------
 Trust Radius=3.00D-01 FncErr=1.00D-07 GrdErr=1.00D-06 EigMax=2.50D+02 EigMin=1.00D-04
 Number of steps in this run=    138 maximum allowed number of steps=    138.
 GradGradGradGradGradGradGradGradGradGradGradGradGradGradGradGradGradGrad

 Leave Link  103 at Sat Sep 28 15:45:28 2019, MaxMem=   671088640 cpu:               1.5 elap:               0.8
 (Enter /shared/centos7/gaussian/g16/l202.exe)
                          Input orientation:                          
 ---------------------------------------------------------------------
 Center     Atomic      Atomic             Coordinates (Angstroms)
 Number     Number       Type             X           Y           Z
 ---------------------------------------------------------------------
      1          6           0        1.407587   -1.183277    0.464076
      2          6           0        0.183589   -0.417539    0.834799
      3          6           0       -0.835764   -0.226833   -0.260433
      4          6           0        2.247960   -0.575143   -0.607825
      5          6           0       -0.447266    0.791392   -1.306373
      6          6           0        3.513524   -1.287388   -0.854080
      7          6           0        0.087131    2.082458   -0.742908
      8          1           0        2.465000    0.498711   -0.345398
      9          1           0        1.647545   -0.525185   -1.547378
     10          1           0        1.122019   -2.210270    0.152126
     11          1           0        2.021292   -1.309259    1.379576
     12          1           0        0.470925    0.577373    1.209330
     13          1           0       -0.308055   -0.938869    1.683184
     14          1           0       -1.790110    0.075718    0.203042
     15          1           0       -1.035074   -1.193106   -0.768111
     16          1           0        0.330467    0.335598   -1.973383
     17          1           0       -1.318898    0.994626   -1.951520
     18          1           0        3.632103   -2.162215   -0.187373
     19          1           0        3.575256   -1.669776   -1.915920
     20          1           0        4.393996   -0.629319   -0.695318
     21          1           0        0.477558    1.933625    0.264561
     22          1           0       -0.710796    2.874125   -0.693555
     23          1           0        0.919976    2.487022   -1.386787
 ---------------------------------------------------------------------
                    Distance matrix (angstroms):
                    1          2          3          4          5
     1  C    0.000000
     2  C    1.490625   0.000000
     3  C    2.544077   1.508304   0.000000
     4  C    1.491652   2.523417   3.122716   0.000000
     5  C    3.236401   2.538525   1.510531   3.101553   0.000000
     6  C    2.486633   3.833721   4.515916   1.472952   4.495971
     7  C    3.723634   2.957778   2.533248   3.427867   1.506627
     8  H    2.145333   2.727126   3.380633   1.126559   3.080654
     9  H    2.129933   2.798129   2.812840   1.116134   2.485899
    10  H    1.110665   2.135551   2.817294   2.125773   3.687798
    11  H    1.109344   2.114025   3.467571   2.130743   4.209612
    12  H    2.128997   1.101220   2.124709   2.790734   2.686566
    13  H    2.118817   1.110520   2.136146   3.451700   3.456969
    14  H    3.446517   2.130236   1.103233   4.169789   2.143304
    15  H    2.735869   2.157768   1.109570   3.344531   2.138569
    16  H    3.067309   2.911130   2.147236   2.524080   1.121392
    17  H    4.244065   3.466302   2.141298   4.122155   1.103295
    18  H    2.516183   3.997622   4.869587   2.147424   5.159187
    19  H    3.255741   4.542902   4.927455   2.161261   4.754953
    20  H    3.251108   4.484823   5.263223   2.148502   5.082286
    21  H    3.258809   2.437121   2.582250   3.192067   2.151239
    22  H    4.721247   3.737759   3.133553   4.545221   2.186954
    23  H    4.139391   3.730172   3.422909   3.427415   2.179674
                    6          7          8          9         10
     6  C    0.000000
     7  C    4.807119   0.000000
     8  H    2.132677   2.884533   0.000000
     9  H    2.131547   3.143544   1.778019   0.000000
    10  H    2.753807   4.505508   3.064263   2.450307   0.000000
    11  H    2.686345   4.444059   2.537945   3.053116   1.768374
    12  H    4.122184   2.494757   2.529763   3.193667   3.051648
    13  H    4.600395   3.894934   3.724461   3.798952   2.450655
    14  H    5.577105   2.906177   4.311110   3.904169   3.702544
    15  H    4.550387   3.462558   3.910429   2.872251   2.556269
    16  H    3.744166   2.150536   2.689456   1.630069   3.409662
    17  H    5.455663   2.149660   4.140464   3.357520   4.544751
    18  H    1.106291   5.558120   2.909919   2.909974   2.533395
    19  H    1.130281   5.255686   2.898542   2.271999   3.253816
    20  H    1.110627   5.089704   2.261840   2.877472   3.731407
    21  H    4.565454   1.090678   2.526054   3.270740   4.195216
    22  H    5.932019   1.125104   3.981141   4.224464   5.470417
    23  H    4.610471   1.127778   2.724880   3.102988   4.947083
                   11         12         13         14         15
    11  H    0.000000
    12  H    2.447857   0.000000
    13  H    2.378072   1.769276   0.000000
    14  H    4.222462   2.525184   2.327379   0.000000
    15  H    3.737302   3.051705   2.569443   1.767239   0.000000
    16  H    4.099607   3.194972   3.924597   3.049789   2.377882
    17  H    5.249853   3.656301   4.239254   2.389262   2.503435
    18  H    2.403658   4.410121   4.529945   5.878874   4.801976
    19  H    3.661293   4.945072   5.344892   6.026931   4.774916
    20  H    3.224473   4.524851   5.278482   6.288664   5.458751
    21  H    3.760673   1.652892   3.298621   2.932222   3.623661
    22  H    5.409518   3.208194   4.511099   3.130478   4.080819
    23  H    4.824667   3.253956   4.761251   3.960621   4.212876
                   16         17         18         19         20
    16  H    0.000000
    17  H    1.776288   0.000000
    18  H    4.508847   6.131090   0.000000
    19  H    3.814903   5.572526   1.798222   0.000000
    20  H    4.367698   6.070617   1.785569   1.800766   0.000000
    21  H    2.753855   3.003329   5.189537   5.228262   4.777921
    22  H    3.027591   2.341960   6.669461   6.364861   6.191367
    23  H    2.306564   2.749314   5.514492   4.960792   4.717894
                   21         22         23
    21  H    0.000000
    22  H    1.792963   0.000000
    23  H    1.796923   1.813791   0.000000
 Stoichiometry    C7H16
 Framework group  C1[X(C7H16)]
 Deg. of freedom    63
 Full point group                 C1      NOp   1
 Largest Abelian subgroup         C1      NOp   1
 Largest concise Abelian subgroup C1      NOp   1
                         Standard orientation:                         
 ---------------------------------------------------------------------
 Center     Atomic      Atomic             Coordinates (Angstroms)
 Number     Number       Type             X           Y           Z
 ---------------------------------------------------------------------
      1          6           0        1.037581    0.997578   -0.210188
      2          6           0       -0.392337    1.288983   -0.514133
      3          6           0       -1.386367    0.919358    0.558370
      4          6           0        1.370091   -0.440311    0.006468
      5          6           0       -1.655352   -0.562177    0.678388
      6          6           0        2.809706   -0.704507    0.171679
      7          6           0       -1.896738   -1.254626   -0.637733
      8          1           0        0.972138   -1.047523   -0.854963
      9          1           0        0.808676   -0.806276    0.899013
     10          1           0        1.350883    1.573787    0.686139
     11          1           0        1.650933    1.390418   -1.046920
     12          1           0       -0.684440    0.772166   -1.441635
     13          1           0       -0.488579    2.375903   -0.720524
     14          1           0       -2.333943    1.443918    0.348461
     15          1           0       -1.040940    1.294424    1.543839
     16          1           0       -0.778411   -1.041793    1.186781
     17          1           0       -2.517355   -0.717910    1.349177
     18          1           0        3.410971    0.221271    0.098915
     19          1           0        3.034434   -1.166784    1.178324
     20          1           0        3.190535   -1.407197   -0.599481
     21          1           0       -1.454341   -0.690360   -1.459600
     22          1           0       -2.995740   -1.372148   -0.848071
     23          1           0       -1.444321   -2.287681   -0.636558
 ---------------------------------------------------------------------
 Rotational constants (GHZ):           3.6968582           1.5270681           1.2694355
 Leave Link  202 at Sat Sep 28 15:45:30 2019, MaxMem=   671088640 cpu:               4.1 elap:               2.1
 (Enter /shared/centos7/gaussian/g16/l301.exe)
 Standard basis: CC-pVTZ (5D, 7F)
 Ernie: Thresh=  0.10000D-02 Tol=  0.10000D-05 Strict=F.
 Ernie:  21 primitive shells out of 310 were deleted.
 There are   485 symmetry adapted cartesian basis functions of A   symmetry.
 There are   434 symmetry adapted basis functions of A   symmetry.
   434 basis functions,   636 primitive gaussians,   485 cartesian basis functions
    29 alpha electrons       29 beta electrons
       nuclear repulsion energy       333.3186004702 Hartrees.
 IExCor= 4336 DFT=T Ex+Corr=M062X ExCW=0 ScaHFX=  0.540000
 ScaDFX=  1.000000  1.000000  1.000000  1.000000 ScalE2=  1.000000  1.000000
 IRadAn=      5 IRanWt=     -1 IRanGd=            0 ICorTp=0 IEmpDi=  4
 NAtoms=   23 NActive=   23 NUniq=   23 SFac= 1.00D+00 NAtFMM=   60 NAOKFM=F Big=F
 Integral buffers will be    131072 words long.
 Raffenetti 2 integral format.
 Two-electron integral symmetry is turned on.
 Leave Link  301 at Sat Sep 28 15:45:31 2019, MaxMem=   671088640 cpu:               1.7 elap:               0.9
 (Enter /shared/centos7/gaussian/g16/l302.exe)
 NPDir=0 NMtPBC=     1 NCelOv=     1 NCel=       1 NClECP=     1 NCelD=      1
         NCelK=      1 NCelE2=     1 NClLst=     1 CellRange=     0.0.
 One-electron integrals computed using PRISM.
 One-electron integral symmetry used in STVInt
 NBasis=   434 RedAO= T EigKep=  3.07D-04  NBF=   434
 NBsUse=   434 1.00D-06 EigRej= -1.00D+00 NBFU=   434
 Precomputing XC quadrature grid using
 IXCGrd= 4 IRadAn=           5 IRanWt=          -1 IRanGd=           0 AccXCQ= 0.00D+00.
 Generated NRdTot=       0 NPtTot=           0 NUsed=           0 NTot=          32
 NSgBfM=   485   485   485   485   485 MxSgAt=    23 MxSgA2=    23.
 Leave Link  302 at Sat Sep 28 15:46:46 2019, MaxMem=   671088640 cpu:             151.0 elap:              75.5
 (Enter /shared/centos7/gaussian/g16/l303.exe)
 DipDrv:  MaxL=1.
 Leave Link  303 at Sat Sep 28 15:46:50 2019, MaxMem=   671088640 cpu:               8.0 elap:               4.0
 (Enter /shared/centos7/gaussian/g16/l401.exe)
 ExpMin= 1.03D-01 ExpMax= 8.24D+03 ExpMxC= 2.81D+02 IAcc=3 IRadAn=         5 AccDes= 0.00D+00
 Harris functional with IExCor= 1009 and IRadAn=       5 diagonalized for initial guess.
 HarFok:  IExCor= 1009 AccDes= 0.00D+00 IRadAn=         5 IDoV= 1 UseB2=F ITyADJ=14
 ICtDFT=  3500011 ScaDFX=  1.000000  1.000000  1.000000  1.000000
 FoFCou: FMM=F IPFlag=           0 FMFlag=      100000 FMFlg1=           0
         NFxFlg=           0 DoJE=T BraDBF=F KetDBF=T FulRan=T
         wScrn=  0.000000 ICntrl=       500 IOpCl=  0 I1Cent=   200000004 NGrid=           0
         NMat0=    1 NMatS0=      1 NMatT0=    0 NMatD0=    1 NMtDS0=    0 NMtDT0=    0
 Petite list used in FoFCou.
 Harris En= -276.314886615008    
 JPrj=0 DoOrth=F DoCkMO=F.
 Leave Link  401 at Sat Sep 28 15:47:45 2019, MaxMem=   671088640 cpu:             110.2 elap:              55.1
 (Enter /shared/centos7/gaussian/g16/l502.exe)
 Integral symmetry usage will be decided dynamically.
 Closed shell SCF:
 Using DIIS extrapolation, IDIIS=  1040.
 NGot=   671088640 LenX=   670604095 LenY=   670368385
 Requested convergence on RMS density matrix=1.00D-08 within 900 cycles.
 Requested convergence on MAX density matrix=1.00D-06.
 Requested convergence on             energy=1.00D-06.
 No special actions if energy rises.
 Fock matrices will be formed incrementally for  20 cycles.
 Integral accuracy reduced to 1.0D-05 until final iterations.

 Cycle   1  Pass 0  IDiag  1:
 FoFJK:  IHMeth= 1 ICntrl=       0 DoSepK=F KAlg= 0 I1Cent=           0 FoldK=F
 IRaf= 950000000 NMat=       1 IRICut=       1 DoRegI=T DoRafI=F ISym2E= 0 IDoP0=0 IntGTp=1.
 FoFCou: FMM=F IPFlag=           0 FMFlag=      100000 FMFlg1=           0
         NFxFlg=           0 DoJE=F BraDBF=F KetDBF=F FulRan=T
         wScrn=  0.000000 ICntrl=         0 IOpCl=  0 I1Cent=           0 NGrid=           0
         NMat0=    1 NMatS0=      1 NMatT0=    0 NMatD0=    1 NMtDS0=    0 NMtDT0=    0
 Symmetry not used in FoFCou.
 E= -275.950498309685    
 DIIS: error= 2.41D-02 at cycle   1 NSaved=   1.
 NSaved= 1 IEnMin= 1 EnMin= -275.950498309685     IErMin= 1 ErrMin= 2.41D-02
 ErrMax= 2.41D-02  0.00D+00 EMaxC= 1.00D-01 BMatC= 3.74D-01 BMatP= 3.74D-01
 IDIUse=3 WtCom= 7.59D-01 WtEn= 2.41D-01
 Coeff-Com:  0.100D+01
 Coeff-En:   0.100D+01
 Coeff:      0.100D+01
 Gap=     0.365 Goal=   None    Shift=    0.000
 GapD=    0.365 DampG=1.000 DampE=0.500 DampFc=0.5000 IDamp=-1.
 Damping current iteration by 5.00D-01
 RMSDP=1.94D-03 MaxDP=8.37D-02              OVMax= 1.61D-01

 Cycle   2  Pass 0  IDiag  1:
 RMSU=  9.65D-04    CP:  9.90D-01
 E= -276.127052957595     Delta-E=       -0.176554647910 Rises=F Damp=T
 DIIS: error= 3.34D-03 at cycle   2 NSaved=   2.
 NSaved= 2 IEnMin= 2 EnMin= -276.127052957595     IErMin= 2 ErrMin= 3.34D-03
 ErrMax= 3.34D-03  0.00D+00 EMaxC= 1.00D-01 BMatC= 1.90D-02 BMatP= 3.74D-01
 IDIUse=3 WtCom= 9.67D-01 WtEn= 3.34D-02
 Coeff-Com: -0.475D-01 0.105D+01
 Coeff-En:   0.000D+00 0.100D+01
 Coeff:     -0.459D-01 0.105D+01
 Gap=     0.449 Goal=   None    Shift=    0.000
 RMSDP=5.68D-04 MaxDP=2.37D-02 DE=-1.77D-01 OVMax= 9.01D-02

 Cycle   3  Pass 0  IDiag  1:
 RMSU=  5.57D-04    CP:  9.98D-01  8.99D-01
 E= -276.305579296609     Delta-E=       -0.178526339014 Rises=F Damp=F
 DIIS: error= 2.75D-03 at cycle   3 NSaved=   3.
 NSaved= 3 IEnMin= 3 EnMin= -276.305579296609     IErMin= 3 ErrMin= 2.75D-03
 ErrMax= 2.75D-03  0.00D+00 EMaxC= 1.00D-01 BMatC= 3.19D-03 BMatP= 1.90D-02
 IDIUse=3 WtCom= 9.73D-01 WtEn= 2.75D-02
 Coeff-Com: -0.527D-01 0.261D+00 0.792D+00
 Coeff-En:   0.000D+00 0.000D+00 0.100D+01
 Coeff:     -0.513D-01 0.254D+00 0.798D+00
 Gap=     0.407 Goal=   None    Shift=    0.000
 RMSDP=1.10D-04 MaxDP=2.88D-03 DE=-1.79D-01 OVMax= 1.18D-02

 Cycle   4  Pass 0  IDiag  1:
 RMSU=  8.75D-05    CP:  9.97D-01  9.49D-01  9.18D-01
 E= -276.308285618152     Delta-E=       -0.002706321543 Rises=F Damp=F
 DIIS: error= 7.55D-04 at cycle   4 NSaved=   4.
 NSaved= 4 IEnMin= 4 EnMin= -276.308285618152     IErMin= 4 ErrMin= 7.55D-04
 ErrMax= 7.55D-04  0.00D+00 EMaxC= 1.00D-01 BMatC= 3.68D-04 BMatP= 3.19D-03
 IDIUse=3 WtCom= 9.92D-01 WtEn= 7.55D-03
 Coeff-Com: -0.154D-01 0.442D-01 0.293D+00 0.678D+00
 Coeff-En:   0.000D+00 0.000D+00 0.000D+00 0.100D+01
 Coeff:     -0.153D-01 0.439D-01 0.291D+00 0.681D+00
 Gap=     0.408 Goal=   None    Shift=    0.000
 RMSDP=3.51D-05 MaxDP=1.79D-03 DE=-2.71D-03 OVMax= 3.42D-03

 Cycle   5  Pass 0  IDiag  1:
 RMSU=  1.94D-05    CP:  9.97D-01  9.42D-01  9.54D-01  7.74D-01
 E= -276.308618752848     Delta-E=       -0.000333134696 Rises=F Damp=F
 DIIS: error= 1.42D-04 at cycle   5 NSaved=   5.
 NSaved= 5 IEnMin= 5 EnMin= -276.308618752848     IErMin= 5 ErrMin= 1.42D-04
 ErrMax= 1.42D-04  0.00D+00 EMaxC= 1.00D-01 BMatC= 1.97D-05 BMatP= 3.68D-04
 IDIUse=3 WtCom= 9.99D-01 WtEn= 1.42D-03
 Coeff-Com: -0.181D-02 0.122D-02 0.536D-01 0.238D+00 0.709D+00
 Coeff-En:   0.000D+00 0.000D+00 0.000D+00 0.000D+00 0.100D+01
 Coeff:     -0.181D-02 0.121D-02 0.535D-01 0.238D+00 0.709D+00
 Gap=     0.407 Goal=   None    Shift=    0.000
 RMSDP=7.12D-06 MaxDP=4.42D-04 DE=-3.33D-04 OVMax= 7.90D-04

 Initial convergence to 1.0D-05 achieved.  Increase integral accuracy.
 Cycle   6  Pass 1  IDiag  1:
 E= -276.308582559732     Delta-E=        0.000036193116 Rises=F Damp=F
 DIIS: error= 3.31D-05 at cycle   1 NSaved=   1.
 NSaved= 1 IEnMin= 1 EnMin= -276.308582559732     IErMin= 1 ErrMin= 3.31D-05
 ErrMax= 3.31D-05  0.00D+00 EMaxC= 1.00D-01 BMatC= 1.51D-06 BMatP= 1.51D-06
 IDIUse=1 WtCom= 1.00D+00 WtEn= 0.00D+00
 Coeff-Com:  0.100D+01
 Coeff:      0.100D+01
 Gap=     0.407 Goal=   None    Shift=    0.000
 RMSDP=7.12D-06 MaxDP=4.42D-04 DE= 3.62D-05 OVMax= 2.48D-04

 Cycle   7  Pass 1  IDiag  1:
 RMSU=  9.27D-06    CP:  1.00D+00
 E= -276.308583256163     Delta-E=       -0.000000696431 Rises=F Damp=F
 DIIS: error= 2.14D-05 at cycle   2 NSaved=   2.
 NSaved= 2 IEnMin= 2 EnMin= -276.308583256163     IErMin= 2 ErrMin= 2.14D-05
 ErrMax= 2.14D-05  0.00D+00 EMaxC= 1.00D-01 BMatC= 4.18D-07 BMatP= 1.51D-06
 IDIUse=1 WtCom= 1.00D+00 WtEn= 0.00D+00
 Coeff-Com:  0.302D+00 0.698D+00
 Coeff:      0.302D+00 0.698D+00
 Gap=     0.407 Goal=   None    Shift=    0.000
 RMSDP=1.30D-06 MaxDP=5.37D-05 DE=-6.96D-07 OVMax= 1.44D-04

 Cycle   8  Pass 1  IDiag  1:
 RMSU=  1.30D-06    CP:  1.00D+00  9.96D-01
 E= -276.308583609520     Delta-E=       -0.000000353357 Rises=F Damp=F
 DIIS: error= 1.13D-05 at cycle   3 NSaved=   3.
 NSaved= 3 IEnMin= 3 EnMin= -276.308583609520     IErMin= 3 ErrMin= 1.13D-05
 ErrMax= 1.13D-05  0.00D+00 EMaxC= 1.00D-01 BMatC= 6.49D-08 BMatP= 4.18D-07
 IDIUse=1 WtCom= 1.00D+00 WtEn= 0.00D+00
 Coeff-Com: -0.192D-02 0.273D+00 0.729D+00
 Coeff:     -0.192D-02 0.273D+00 0.729D+00
 Gap=     0.407 Goal=   None    Shift=    0.000
 RMSDP=4.49D-07 MaxDP=1.59D-05 DE=-3.53D-07 OVMax= 4.36D-05

 Cycle   9  Pass 1  IDiag  1:
 RMSU=  3.29D-07    CP:  1.00D+00  1.02D+00  8.26D-01
 E= -276.308583671742     Delta-E=       -0.000000062222 Rises=F Damp=F
 DIIS: error= 2.36D-06 at cycle   4 NSaved=   4.
 NSaved= 4 IEnMin= 4 EnMin= -276.308583671742     IErMin= 4 ErrMin= 2.36D-06
 ErrMax= 2.36D-06  0.00D+00 EMaxC= 1.00D-01 BMatC= 1.99D-09 BMatP= 6.49D-08
 IDIUse=1 WtCom= 1.00D+00 WtEn= 0.00D+00
 Coeff-Com: -0.120D-01 0.694D-01 0.250D+00 0.693D+00
 Coeff:     -0.120D-01 0.694D-01 0.250D+00 0.693D+00
 Gap=     0.407 Goal=   None    Shift=    0.000
 RMSDP=9.01D-08 MaxDP=3.05D-06 DE=-6.22D-08 OVMax= 9.25D-06

 Cycle  10  Pass 1  IDiag  1:
 RMSU=  8.46D-08    CP:  1.00D+00  1.02D+00  8.29D-01  9.27D-01
 E= -276.308583673735     Delta-E=       -0.000000001993 Rises=F Damp=F
 DIIS: error= 3.57D-07 at cycle   5 NSaved=   5.
 NSaved= 5 IEnMin= 5 EnMin= -276.308583673735     IErMin= 5 ErrMin= 3.57D-07
 ErrMax= 3.57D-07  0.00D+00 EMaxC= 1.00D-01 BMatC= 5.83D-11 BMatP= 1.99D-09
 IDIUse=1 WtCom= 1.00D+00 WtEn= 0.00D+00
 Coeff-Com: -0.691D-03-0.148D-01-0.354D-01 0.478D-01 0.100D+01
 Coeff:     -0.691D-03-0.148D-01-0.354D-01 0.478D-01 0.100D+01
 Gap=     0.407 Goal=   None    Shift=    0.000
 RMSDP=3.60D-08 MaxDP=1.26D-06 DE=-1.99D-09 OVMax= 2.52D-06

 Cycle  11  Pass 1  IDiag  1:
 RMSU=  1.67D-08    CP:  1.00D+00  1.02D+00  8.35D-01  1.01D+00  1.11D+00
 E= -276.308583673811     Delta-E=       -0.000000000076 Rises=F Damp=F
 DIIS: error= 1.56D-07 at cycle   6 NSaved=   6.
 NSaved= 6 IEnMin= 6 EnMin= -276.308583673811     IErMin= 6 ErrMin= 1.56D-07
 ErrMax= 1.56D-07  0.00D+00 EMaxC= 1.00D-01 BMatC= 1.74D-11 BMatP= 5.83D-11
 IDIUse=1 WtCom= 1.00D+00 WtEn= 0.00D+00
 Coeff-Com:  0.425D-03-0.112D-01-0.322D-01-0.232D-01 0.456D+00 0.610D+00
 Coeff:      0.425D-03-0.112D-01-0.322D-01-0.232D-01 0.456D+00 0.610D+00
 Gap=     0.407 Goal=   None    Shift=    0.000
 RMSDP=6.70D-09 MaxDP=2.53D-07 DE=-7.64D-11 OVMax= 6.82D-07

 SCF Done:  E(RM062X) =  -276.308583674     A.U. after   11 cycles
            NFock= 11  Conv=0.67D-08     -V/T= 2.0065
 KE= 2.745326809791D+02 PE=-1.305082777877D+03 EE= 4.209229127534D+02
 Leave Link  502 at Sat Sep 28 16:11:24 2019, MaxMem=   671088640 cpu:            2835.8 elap:            1418.1
 (Enter /shared/centos7/gaussian/g16/l801.exe)
 DoSCS=F DFT=T ScalE2(SS,OS)=  1.000000  1.000000
 Range of M.O.s used for correlation:     1   434
 NBasis=   434 NAE=    29 NBE=    29 NFC=     0 NFV=     0
 NROrb=    434 NOA=    29 NOB=    29 NVA=   405 NVB=   405

 **** Warning!!: The largest alpha MO coefficient is  0.10871665D+02

 Leave Link  801 at Sat Sep 28 16:11:25 2019, MaxMem=   671088640 cpu:               1.8 elap:               0.9
 (Enter /shared/centos7/gaussian/g16/l1101.exe)
 Using compressed storage, NAtomX=    23.
 Will process     24 centers per pass.
 Leave Link 1101 at Sat Sep 28 16:12:06 2019, MaxMem=   671088640 cpu:              83.3 elap:              41.7
 (Enter /shared/centos7/gaussian/g16/l1102.exe)
 Symmetrizing basis deriv contribution to polar:
 IMax=3 JMax=2 DiffMx= 0.00D+00
 Leave Link 1102 at Sat Sep 28 16:12:09 2019, MaxMem=   671088640 cpu:               4.9 elap:               2.5
 (Enter /shared/centos7/gaussian/g16/l1110.exe)
 Forming Gx(P) for the SCF density, NAtomX=    23.
 Integral derivatives from FoFJK, PRISM(SPDF).
 Do as many integral derivatives as possible in FoFJK.
 G2DrvN: MDV=     671086848.
 G2DrvN: will do    24 centers at a time, making    1 passes.
 Calling FoFCou, ICntrl=  3107 FMM=F I1Cent=   0 AccDes= 0.00D+00.
 FoFJK:  IHMeth= 1 ICntrl=    3107 DoSepK=F KAlg= 0 I1Cent=           0 FoldK=F
 IRaf=         0 NMat=       1 IRICut=       1 DoRegI=T DoRafI=F ISym2E= 0 IDoP0=0 IntGTp=1.
 FoFCou: FMM=F IPFlag=           0 FMFlag=      100000 FMFlg1=           0
         NFxFlg=           0 DoJE=F BraDBF=F KetDBF=F FulRan=T
         wScrn=  0.000000 ICntrl=      3107 IOpCl=  0 I1Cent=           0 NGrid=           0
         NMat0=    1 NMatS0=      1 NMatT0=    0 NMatD0=    1 NMtDS0=    0 NMtDT0=    0
 Symmetry not used in FoFCou.
 End of G2Drv F.D. properties file   721 does not exist.
 End of G2Drv F.D. properties file   722 does not exist.
 End of G2Drv F.D. properties file   788 does not exist.
 Leave Link 1110 at Sat Sep 28 17:10:43 2019, MaxMem=   671088640 cpu:            7028.2 elap:            3514.5
 (Enter /shared/centos7/gaussian/g16/l1002.exe)
 Minotr:  Closed shell wavefunction.
          IDoAtm=11111111111111111111111
          Direct CPHF calculation.
          Differentiating once with respect to nuclear coordinates.
          Requested convergence is 1.0D-08 RMS, and 1.0D-07 maximum.
          Secondary convergence is 1.0D-12 RMS, and 1.0D-12 maximum.
          NewPWx=T KeepS1=F KeepF1=F KeepIn=T MapXYZ=F SortEE=F KeepMc=T.
         6904 words used for storage of precomputed grid.
 Two-electron integrals replicated using symmetry.
          MDV=     671088640 using IRadAn=       1.
          Solving linear equations simultaneously, MaxMat=     380.
 FoF2E skips out because all densities are zero.
 CalDSu exits because no D1Ps are significant.
 FoFJK:  IHMeth= 1 ICntrl=       0 DoSepK=F KAlg= 0 I1Cent=           0 FoldK=F
 IRaf= 930000000 NMat=      69 IRICut=     172 DoRegI=T DoRafI=T ISym2E= 2 IDoP0=3 IntGTp=3.
 FoFCou: FMM=F IPFlag=           0 FMFlag=      100000 FMFlg1=           0
         NFxFlg=           0 DoJE=F BraDBF=F KetDBF=F FulRan=T
         wScrn=  0.000000 ICntrl=         0 IOpCl=  0 I1Cent=           0 NGrid=           0
         NMat0=   69 NMatS0=     69 NMatT0=    0 NMatD0=   69 NMtDS0=    0 NMtDT0=    0
 Integrals replicated using symmetry in FoFCou.
 Raff kept on since  90.19% of shell-pairs survive, threshold=   0.20 IRatSp=90.
          There are    72 degrees of freedom in the 1st order CPHF.  IDoFFX=6 NUNeed=     0.
     66 vectors produced by pass  0 Test12= 1.63D-14 1.39D-09 XBig12= 5.59D-02 3.64D-02.
 AX will form    66 AO Fock derivatives at one time.
     66 vectors produced by pass  1 Test12= 1.63D-14 1.39D-09 XBig12= 3.00D-03 6.65D-03.
     66 vectors produced by pass  2 Test12= 1.63D-14 1.39D-09 XBig12= 5.27D-05 1.07D-03.
     66 vectors produced by pass  3 Test12= 1.63D-14 1.39D-09 XBig12= 4.09D-07 6.04D-05.
     66 vectors produced by pass  4 Test12= 1.63D-14 1.39D-09 XBig12= 1.86D-09 4.26D-06.
     66 vectors produced by pass  5 Test12= 1.63D-14 1.39D-09 XBig12= 9.30D-12 2.94D-07.
     23 vectors produced by pass  6 Test12= 1.63D-14 1.39D-09 XBig12= 3.62D-14 1.95D-08.
 InvSVY:  IOpt=1 It=  1 EMax= 2.50D-16
 Solved reduced A of dimension   419 with    72 vectors.
 End of Minotr F.D. properties file   721 does not exist.
 End of Minotr F.D. properties file   722 does not exist.
 End of Minotr F.D. properties file   788 does not exist.
 Leave Link 1002 at Sat Sep 28 18:47:22 2019, MaxMem=   671088640 cpu:           11595.5 elap:            5798.2
 (Enter /shared/centos7/gaussian/g16/l601.exe)
 Copying SCF densities to generalized density rwf, IOpCl= 0 IROHF=0.

 **********************************************************************

            Population analysis using the SCF density.

 **********************************************************************

 Orbital symmetries:
       Occupied  (A) (A) (A) (A) (A) (A) (A) (A) (A) (A) (A) (A)
                 (A) (A) (A) (A) (A) (A) (A) (A) (A) (A) (A) (A)
                 (A) (A) (A) (A) (A)
       Virtual   (A) (A) (A) (A) (A) (A) (A) (A) (A) (A) (A) (A)
                 (A) (A) (A) (A) (A) (A) (A) (A) (A) (A) (A) (A)
                 (A) (A) (A) (A) (A) (A) (A) (A) (A) (A) (A) (A)
                 (A) (A) (A) (A) (A) (A) (A) (A) (A) (A) (A) (A)
                 (A) (A) (A) (A) (A) (A) (A) (A) (A) (A) (A) (A)
                 (A) (A) (A) (A) (A) (A) (A) (A) (A) (A) (A) (A)
                 (A) (A) (A) (A) (A) (A) (A) (A) (A) (A) (A) (A)
                 (A) (A) (A) (A) (A) (A) (A) (A) (A) (A) (A) (A)
                 (A) (A) (A) (A) (A) (A) (A) (A) (A) (A) (A) (A)
                 (A) (A) (A) (A) (A) (A) (A) (A) (A) (A) (A) (A)
                 (A) (A) (A) (A) (A) (A) (A) (A) (A) (A) (A) (A)
                 (A) (A) (A) (A) (A) (A) (A) (A) (A) (A) (A) (A)
                 (A) (A) (A) (A) (A) (A) (A) (A) (A) (A) (A) (A)
                 (A) (A) (A) (A) (A) (A) (A) (A) (A) (A) (A) (A)
                 (A) (A) (A) (A) (A) (A) (A) (A) (A) (A) (A) (A)
                 (A) (A) (A) (A) (A) (A) (A) (A) (A) (A) (A) (A)
                 (A) (A) (A) (A) (A) (A) (A) (A) (A) (A) (A) (A)
                 (A) (A) (A) (A) (A) (A) (A) (A) (A) (A) (A) (A)
                 (A) (A) (A) (A) (A) (A) (A) (A) (A) (A) (A) (A)
                 (A) (A) (A) (A) (A) (A) (A) (A) (A) (A) (A) (A)
                 (A) (A) (A) (A) (A) (A) (A) (A) (A) (A) (A) (A)
                 (A) (A) (A) (A) (A) (A) (A) (A) (A) (A) (A) (A)
                 (A) (A) (A) (A) (A) (A) (A) (A) (A) (A) (A) (A)
                 (A) (A) (A) (A) (A) (A) (A) (A) (A) (A) (A) (A)
                 (A) (A) (A) (A) (A) (A) (A) (A) (A) (A) (A) (A)
                 (A) (A) (A) (A) (A) (A) (A) (A) (A) (A) (A) (A)
                 (A) (A) (A) (A) (A) (A) (A) (A) (A) (A) (A) (A)
                 (A) (A) (A) (A) (A) (A) (A) (A) (A) (A) (A) (A)
                 (A) (A) (A) (A) (A) (A) (A) (A) (A) (A) (A) (A)
                 (A) (A) (A) (A) (A) (A) (A) (A) (A) (A) (A) (A)
                 (A) (A) (A) (A) (A) (A) (A) (A) (A) (A) (A) (A)
                 (A) (A) (A) (A) (A) (A) (A) (A) (A) (A) (A) (A)
                 (A) (A) (A) (A) (A) (A) (A) (A) (A) (A) (A) (A)
                 (A) (A) (A) (A) (A) (A) (A) (A) (A)
 The electronic state is 1-A.
 Alpha  occ. eigenvalues --  -10.52539 -10.52488 -10.52428 -10.52370 -10.52290
 Alpha  occ. eigenvalues --  -10.52218 -10.52200  -0.92518  -0.87926  -0.82776
 Alpha  occ. eigenvalues --   -0.76455  -0.71139  -0.65721  -0.62451  -0.55478
 Alpha  occ. eigenvalues --   -0.53571  -0.51632  -0.48850  -0.47667  -0.46993
 Alpha  occ. eigenvalues --   -0.45056  -0.42928  -0.41807  -0.40569  -0.39069
 Alpha  occ. eigenvalues --   -0.37998  -0.36837  -0.36174  -0.34240
 Alpha virt. eigenvalues --    0.06496   0.07923   0.08528   0.08828   0.10675
 Alpha virt. eigenvalues --    0.12399   0.13024   0.13406   0.13784   0.14843
 Alpha virt. eigenvalues --    0.15740   0.16747   0.17992   0.18663   0.21571
 Alpha virt. eigenvalues --    0.22483   0.22774   0.23253   0.25717   0.27467
 Alpha virt. eigenvalues --    0.27937   0.28279   0.30004   0.30230   0.30640
 Alpha virt. eigenvalues --    0.32712   0.33649   0.34281   0.35309   0.36265
 Alpha virt. eigenvalues --    0.37682   0.38461   0.40392   0.42643   0.44492
 Alpha virt. eigenvalues --    0.44655   0.45491   0.46336   0.47297   0.48082
 Alpha virt. eigenvalues --    0.48562   0.49684   0.50052   0.50582   0.51515
 Alpha virt. eigenvalues --    0.52033   0.52990   0.53293   0.54035   0.54119
 Alpha virt. eigenvalues --    0.54299   0.55945   0.57466   0.58343   0.59069
 Alpha virt. eigenvalues --    0.59729   0.61008   0.62056   0.62338   0.63914
 Alpha virt. eigenvalues --    0.64456   0.67789   0.73253   0.75855   0.77921
 Alpha virt. eigenvalues --    0.79332   0.80323   0.81528   0.81808   0.82978
 Alpha virt. eigenvalues --    0.87605   0.88440   0.90326   0.92816   0.93483
 Alpha virt. eigenvalues --    0.94002   0.95620   0.96590   0.97770   1.00051
 Alpha virt. eigenvalues --    1.01545   1.02834   1.03081   1.04405   1.05888
 Alpha virt. eigenvalues --    1.06479   1.08122   1.08548   1.09671   1.10791
 Alpha virt. eigenvalues --    1.11616   1.11867   1.12814   1.13321   1.15474
 Alpha virt. eigenvalues --    1.16860   1.18298   1.18659   1.19438   1.21539
 Alpha virt. eigenvalues --    1.21976   1.22245   1.22657   1.24372   1.24960
 Alpha virt. eigenvalues --    1.25153   1.26502   1.26927   1.27683   1.28746
 Alpha virt. eigenvalues --    1.29792   1.30121   1.31095   1.33213   1.34297
 Alpha virt. eigenvalues --    1.35107   1.36022   1.36732   1.38164   1.39265
 Alpha virt. eigenvalues --    1.41018   1.42914   1.43596   1.44142   1.46382
 Alpha virt. eigenvalues --    1.47605   1.48114   1.49345   1.49706   1.51472
 Alpha virt. eigenvalues --    1.52834   1.53841   1.54487   1.55334   1.56945
 Alpha virt. eigenvalues --    1.58647   1.59403   1.61912   1.62398   1.65172
 Alpha virt. eigenvalues --    1.68266   1.69990   1.70990   1.72805   1.77583
 Alpha virt. eigenvalues --    1.79804   1.81334   1.91096   1.92903   2.21249
 Alpha virt. eigenvalues --    2.25329   2.25787   2.32206   2.35009   2.36811
 Alpha virt. eigenvalues --    2.37871   2.41811   2.42541   2.43233   2.45313
 Alpha virt. eigenvalues --    2.46879   2.48734   2.51222   2.52716   2.54803
 Alpha virt. eigenvalues --    2.56728   2.56942   2.58036   2.60314   2.61597
 Alpha virt. eigenvalues --    2.63272   2.64828   2.65155   2.65603   2.66502
 Alpha virt. eigenvalues --    2.68592   2.69793   2.72035   2.72410   2.73106
 Alpha virt. eigenvalues --    2.75615   2.77003   2.78732   2.78987   2.80228
 Alpha virt. eigenvalues --    2.80456   2.81953   2.83429   2.84180   2.85137
 Alpha virt. eigenvalues --    2.86550   2.87874   2.89914   2.90506   2.92362
 Alpha virt. eigenvalues --    2.93516   2.95149   2.97579   2.98002   2.99429
 Alpha virt. eigenvalues --    2.99922   3.00749   3.01690   3.02506   3.03697
 Alpha virt. eigenvalues --    3.06721   3.07640   3.08363   3.09047   3.09684
 Alpha virt. eigenvalues --    3.10674   3.11678   3.12942   3.13585   3.14682
 Alpha virt. eigenvalues --    3.14782   3.16326   3.17007   3.18392   3.19146
 Alpha virt. eigenvalues --    3.19860   3.20631   3.22159   3.23161   3.23645
 Alpha virt. eigenvalues --    3.25899   3.28272   3.28962   3.30366   3.31413
 Alpha virt. eigenvalues --    3.32557   3.32707   3.34959   3.35258   3.37464
 Alpha virt. eigenvalues --    3.37742   3.39376   3.41161   3.42200   3.42861
 Alpha virt. eigenvalues --    3.43687   3.45570   3.46529   3.46749   3.49536
 Alpha virt. eigenvalues --    3.49943   3.51974   3.52270   3.54662   3.55084
 Alpha virt. eigenvalues --    3.56423   3.58897   3.59165   3.60630   3.62589
 Alpha virt. eigenvalues --    3.63362   3.64580   3.65667   3.66358   3.67534
 Alpha virt. eigenvalues --    3.68525   3.69961   3.72628   3.72839   3.74199
 Alpha virt. eigenvalues --    3.75441   3.76771   3.76900   3.78033   3.79484
 Alpha virt. eigenvalues --    3.79809   3.81835   3.84260   3.84803   3.85412
 Alpha virt. eigenvalues --    3.87358   3.88543   3.89541   3.90887   3.91476
 Alpha virt. eigenvalues --    3.92448   3.92816   3.94712   3.95896   3.96228
 Alpha virt. eigenvalues --    3.97423   3.99462   4.00214   4.01431   4.02232
 Alpha virt. eigenvalues --    4.03044   4.04085   4.05142   4.06604   4.07726
 Alpha virt. eigenvalues --    4.08603   4.09772   4.10912   4.13146   4.13749
 Alpha virt. eigenvalues --    4.14486   4.15646   4.16412   4.16511   4.18134
 Alpha virt. eigenvalues --    4.18998   4.19920   4.20979   4.22191   4.24194
 Alpha virt. eigenvalues --    4.25052   4.26927   4.27958   4.28832   4.30187
 Alpha virt. eigenvalues --    4.31654   4.33545   4.36534   4.37757   4.40437
 Alpha virt. eigenvalues --    4.41999   4.43338   4.45683   4.46234   4.49060
 Alpha virt. eigenvalues --    4.50395   4.52302   4.54906   4.56200   4.58399
 Alpha virt. eigenvalues --    4.58526   4.62662   4.63343   4.64269   4.66317
 Alpha virt. eigenvalues --    4.68288   4.70070   4.72039   4.72985   4.73838
 Alpha virt. eigenvalues --    4.76471   4.78686   4.80184   4.81726   4.82332
 Alpha virt. eigenvalues --    4.85290   4.87675   4.89008   4.91641   4.92341
 Alpha virt. eigenvalues --    4.93477   4.94794   4.96721   4.97820   5.01290
 Alpha virt. eigenvalues --    5.01861   5.02942   5.06104   5.06948   5.08042
 Alpha virt. eigenvalues --    5.10119   5.13428   5.13894   5.18668   5.20922
 Alpha virt. eigenvalues --    5.22319   5.23444   5.25412   5.26064   5.27072
 Alpha virt. eigenvalues --    5.28143   5.29992   5.30169   5.34406   5.35924
 Alpha virt. eigenvalues --    5.38599   5.39370   5.40778   5.43880   5.44827
 Alpha virt. eigenvalues --    5.47318   5.50652   5.52227   5.53712   5.58771
 Alpha virt. eigenvalues --    5.61360   5.67543   5.69581   5.71234   5.75462
 Alpha virt. eigenvalues --    5.81489   5.83956   5.85877   5.90588   5.97831
 Alpha virt. eigenvalues --    5.98734   6.06432   6.06715  11.70484  11.99816
 Alpha virt. eigenvalues --   12.56618  12.95663  13.26803  13.78380  13.96589
          Condensed to atoms (all electrons):
               1          2          3          4          5          6
     1  C    5.070045   0.320684  -0.051157   0.287558   0.005639  -0.047869
     2  C    0.320684   5.107754   0.303473  -0.051558  -0.047496   0.008746
     3  C   -0.051157   0.303473   5.097812   0.002122   0.319206  -0.000894
     4  C    0.287558  -0.051558   0.002122   5.185876  -0.008339   0.276168
     5  C    0.005639  -0.047496   0.319206  -0.008339   5.094652   0.000960
     6  C   -0.047869   0.008746  -0.000894   0.276168   0.000960   4.973081
     7  C   -0.002281  -0.016514  -0.055678   0.001853   0.292246   0.000118
     8  H   -0.056715   0.003846  -0.002533   0.404828  -0.001757  -0.030101
     9  H   -0.037894  -0.007918   0.006289   0.411242  -0.017974  -0.039830
    10  H    0.407123  -0.035649  -0.007560  -0.051537   0.000477  -0.002255
    11  H    0.421115  -0.046524   0.009201  -0.045751  -0.001044  -0.008331
    12  H   -0.044744   0.416326  -0.043607  -0.007490  -0.008111   0.000029
    13  H   -0.046483   0.416816  -0.041545   0.009817   0.007261  -0.000488
    14  H    0.008936  -0.051653   0.418239  -0.000685  -0.044588   0.000055
    15  H   -0.001927  -0.047417   0.410664  -0.001266  -0.047785  -0.000062
    16  H    0.001468  -0.003489  -0.041616  -0.016956   0.416534   0.002421
    17  H   -0.000955   0.008912  -0.039942   0.000967   0.409866  -0.000044
    18  H   -0.003986   0.001135  -0.000030  -0.068960  -0.000080   0.418224
    19  H    0.003962  -0.000423  -0.000009  -0.048976   0.000202   0.409430
    20  H    0.004539  -0.000622   0.000034  -0.046296  -0.000036   0.408433
    21  H   -0.001614  -0.002563  -0.007214   0.000210  -0.054318   0.000133
    22  H    0.000065  -0.000119   0.003504  -0.000002  -0.040304  -0.000001
    23  H    0.000088   0.000245   0.007022  -0.000051  -0.042351  -0.000008
               7          8          9         10         11         12
     1  C   -0.002281  -0.056715  -0.037894   0.407123   0.421115  -0.044744
     2  C   -0.016514   0.003846  -0.007918  -0.035649  -0.046524   0.416326
     3  C   -0.055678  -0.002533   0.006289  -0.007560   0.009201  -0.043607
     4  C    0.001853   0.404828   0.411242  -0.051537  -0.045751  -0.007490
     5  C    0.292246  -0.001757  -0.017974   0.000477  -0.001044  -0.008111
     6  C    0.000118  -0.030101  -0.039830  -0.002255  -0.008331   0.000029
     7  C    5.026715  -0.000062  -0.001336  -0.000030   0.000089  -0.014156
     8  H   -0.000062   0.590758  -0.037825   0.008544  -0.005278   0.002130
     9  H   -0.001336  -0.037825   0.604756  -0.007930   0.008401   0.000651
    10  H   -0.000030   0.008544  -0.007930   0.583857  -0.036064   0.008568
    11  H    0.000089  -0.005278   0.008401  -0.036064   0.587641  -0.005459
    12  H   -0.014156   0.002130   0.000651   0.008568  -0.005459   0.587959
    13  H    0.001091   0.000285  -0.000508  -0.005454  -0.008858  -0.031578
    14  H    0.000123  -0.000148  -0.000201   0.000063  -0.000524  -0.002029
    15  H    0.008414   0.000255   0.000833   0.004107   0.000205   0.007753
    16  H   -0.048434  -0.001804  -0.013063   0.000432  -0.000343   0.000650
    17  H   -0.037726  -0.000050   0.002174  -0.000126   0.000069  -0.000327
    18  H    0.000000   0.005719   0.006011   0.000725   0.001650   0.000045
    19  H   -0.000020   0.006439  -0.017551   0.000988  -0.000136  -0.000021
    20  H    0.000003  -0.017856   0.006790  -0.000291   0.001324   0.000030
    21  H    0.412674  -0.002210   0.000268  -0.000259   0.000135  -0.010604
    22  H    0.402366   0.000463  -0.000228   0.000024  -0.000019   0.001303
    23  H    0.403002  -0.000365   0.000233   0.000003   0.000022   0.000469
              13         14         15         16         17         18
     1  C   -0.046483   0.008936  -0.001927   0.001468  -0.000955  -0.003986
     2  C    0.416816  -0.051653  -0.047417  -0.003489   0.008912   0.001135
     3  C   -0.041545   0.418239   0.410664  -0.041616  -0.039942  -0.000030
     4  C    0.009817  -0.000685  -0.001266  -0.016956   0.000967  -0.068960
     5  C    0.007261  -0.044588  -0.047785   0.416534   0.409866  -0.000080
     6  C   -0.000488   0.000055  -0.000062   0.002421  -0.000044   0.418224
     7  C    0.001091   0.000123   0.008414  -0.048434  -0.037726   0.000000
     8  H    0.000285  -0.000148   0.000255  -0.001804  -0.000050   0.005719
     9  H   -0.000508  -0.000201   0.000833  -0.013063   0.002174   0.006011
    10  H   -0.005454   0.000063   0.004107   0.000432  -0.000126   0.000725
    11  H   -0.008858  -0.000524   0.000205  -0.000343   0.000069   0.001650
    12  H   -0.031578  -0.002029   0.007753   0.000650  -0.000327   0.000045
    13  H    0.580704  -0.011678  -0.001736  -0.000550  -0.000340  -0.000121
    14  H   -0.011678   0.577723  -0.027788   0.008969  -0.011686  -0.000002
    15  H   -0.001736  -0.027788   0.575677  -0.010095  -0.003194   0.000016
    16  H   -0.000550   0.008969  -0.010095   0.620123  -0.037383  -0.000122
    17  H   -0.000340  -0.011686  -0.003194  -0.037383   0.582440   0.000003
    18  H   -0.000121  -0.000002   0.000016  -0.000122   0.000003   0.600932
    19  H    0.000034  -0.000003   0.000002   0.000122  -0.000008  -0.035185
    20  H    0.000025  -0.000001   0.000006  -0.000165   0.000003  -0.035416
    21  H    0.000767   0.000665  -0.000142   0.002361   0.006425  -0.000002
    22  H   -0.000082   0.002046  -0.000371   0.008284  -0.016045   0.000000
    23  H   -0.000015  -0.000442  -0.000355  -0.015428   0.003482   0.000001
              19         20         21         22         23
     1  C    0.003962   0.004539  -0.001614   0.000065   0.000088
     2  C   -0.000423  -0.000622  -0.002563  -0.000119   0.000245
     3  C   -0.000009   0.000034  -0.007214   0.003504   0.007022
     4  C   -0.048976  -0.046296   0.000210  -0.000002  -0.000051
     5  C    0.000202  -0.000036  -0.054318  -0.040304  -0.042351
     6  C    0.409430   0.408433   0.000133  -0.000001  -0.000008
     7  C   -0.000020   0.000003   0.412674   0.402366   0.403002
     8  H    0.006439  -0.017856  -0.002210   0.000463  -0.000365
     9  H   -0.017551   0.006790   0.000268  -0.000228   0.000233
    10  H    0.000988  -0.000291  -0.000259   0.000024   0.000003
    11  H   -0.000136   0.001324   0.000135  -0.000019   0.000022
    12  H   -0.000021   0.000030  -0.010604   0.001303   0.000469
    13  H    0.000034   0.000025   0.000767  -0.000082  -0.000015
    14  H   -0.000003  -0.000001   0.000665   0.002046  -0.000442
    15  H    0.000002   0.000006  -0.000142  -0.000371  -0.000355
    16  H    0.000122  -0.000165   0.002361   0.008284  -0.015428
    17  H   -0.000008   0.000003   0.006425  -0.016045   0.003482
    18  H   -0.035185  -0.035416  -0.000002   0.000000   0.000001
    19  H    0.615159  -0.033120  -0.000004   0.000002  -0.000014
    20  H   -0.033120   0.605736  -0.000005  -0.000003   0.000037
    21  H   -0.000004  -0.000005   0.603587  -0.033952  -0.040433
    22  H    0.000002  -0.000003  -0.033952   0.586521  -0.025704
    23  H   -0.000014   0.000037  -0.040433  -0.025704   0.594959
 Mulliken charges:
               1
     1  C   -0.235595
     2  C   -0.275992
     3  C   -0.285782
     4  C   -0.232773
     5  C   -0.232862
     6  C   -0.367916
     7  C   -0.372456
     8  H    0.133437
     9  H    0.134609
    10  H    0.132245
    11  H    0.128478
    12  H    0.142212
    13  H    0.132636
    14  H    0.134608
    15  H    0.134207
    16  H    0.128084
    17  H    0.133485
    18  H    0.109442
    19  H    0.099129
    20  H    0.106854
    21  H    0.126094
    22  H    0.112253
    23  H    0.115604
 Sum of Mulliken charges =  -0.00000
 Mulliken charges with hydrogens summed into heavy atoms:
               1
     1  C    0.025128
     2  C   -0.001144
     3  C   -0.016968
     4  C    0.035273
     5  C    0.028707
     6  C   -0.052492
     7  C   -0.018504
 APT charges:
               1
     1  C   -0.792372
     2  C   -0.685083
     3  C   -0.862273
     4  C   -0.131638
     5  C   -0.585451
     6  C   -1.516595
     7  C   -1.122282
     8  H    0.273814
     9  H    0.234085
    10  H    0.360236
    11  H    0.411824
    12  H    0.284857
    13  H    0.455896
    14  H    0.471245
    15  H    0.324902
    16  H    0.190475
    17  H    0.506141
    18  H    0.381152
    19  H    0.376627
    20  H    0.416703
    21  H    0.169756
    22  H    0.535532
    23  H    0.302448
 Sum of APT charges =  -0.00000
 APT charges with hydrogens summed into heavy atoms:
               1
     1  C   -0.020312
     2  C    0.055670
     3  C   -0.066126
     4  C    0.376261
     5  C    0.111165
     6  C   -0.342112
     7  C   -0.114546
 Electronic spatial extent (au):  <R**2>=           1077.4302
 Charge=             -0.0000 electrons
 Dipole moment (field-independent basis, Debye):
    X=             -0.0742    Y=              0.0553    Z=              0.0391  Tot=              0.1005
 Quadrupole moment (field-independent basis, Debye-Ang):
   XX=            -49.8856   YY=            -49.3353   ZZ=            -48.8395
   XY=             -0.2451   XZ=             -0.2354   YZ=             -0.1110
 Traceless Quadrupole moment (field-independent basis, Debye-Ang):
   XX=             -0.5322   YY=              0.0182   ZZ=              0.5140
   XY=             -0.2451   XZ=             -0.2354   YZ=             -0.1110
 Octapole moment (field-independent basis, Debye-Ang**2):
  XXX=             -7.2223  YYY=              0.9830  ZZZ=              0.8088  XYY=              1.0365
  XXY=              1.3528  XXZ=             -0.1936  XZZ=              1.5735  YZZ=              0.0232
  YYZ=              0.1271  XYZ=              0.6582
 Hexadecapole moment (field-independent basis, Debye-Ang**3):
 XXXX=           -978.1585 YYYY=           -381.9300 ZZZZ=           -180.2908 XXXY=              4.5858
 XXXZ=             -5.6388 YYYX=             -3.3681 YYYZ=             -0.8015 ZZZX=             -0.8075
 ZZZY=             -0.8971 XXYY=           -227.9282 XXZZ=           -192.3117 YYZZ=            -94.7427
 XXYZ=             -0.6745 YYXZ=             -1.3418 ZZXY=             -2.5891
 N-N= 3.333186004702D+02 E-N=-1.305082705909D+03  KE= 2.745326809791D+02
  Exact polarizability:   0.000   0.000   0.000   0.000   0.000   0.000
 Approx polarizability:  99.601   1.145  98.783   0.312   0.345  98.316
 No NMR shielding tensors so no spin-rotation constants.
 Leave Link  601 at Sat Sep 28 18:47:53 2019, MaxMem=   671088640 cpu:              62.3 elap:              31.2
 (Enter /shared/centos7/gaussian/g16/l701.exe)
 SCFChk:  SCF convergence  6.70D-09 required  1.00D-08
 ... and contract with generalized density number  0.
 Compute integral second derivatives.
 Entering OneElI...
 Calculate overlap and kinetic energy integrals
    NBasis = 485  MinDer = 2  MaxDer = 2
 Requested accuracy = 0.1000D-12
 PrmmSu-InSpLW:  IPartL=    0 NPrtUS=   20 NPrtUL=    1 DoSpLW=F IThBeg=    0 IThEnd=   19 NThAct=   20.
 PrsmSu:  NPrtUS=  20 ThrOK=T IAlg=1 NPAlg=1 LenDen=           0 ISkipM=0 DoSpLW=F IThBeg=    0 IThEnd=   19.
 Prism:   IPart=     0 DynPar=F LinDyn=F Incr=           6.
 PRISM was handed    33198388 working-precision words and 13731 shell-pairs
 PRISM was handed    33198388 working-precision words and 13731 shell-pairs
 PRISM was handed    33198388 working-precision words and 13731 shell-pairs
 PRISM was handed    33198388 working-precision words and 13731 shell-pairs
 PRISM was handed    33198388 working-precision words and 13731 shell-pairs
 PRISM was handed    33198388 working-precision words and 13731 shell-pairs
 PRISM was handed    33198388 working-precision words and 13731 shell-pairs
 PRISM was handed    33198388 working-precision words and 13731 shell-pairs
 PRISM was handed    33198388 working-precision words and 13731 shell-pairs
 PRISM was handed    33198388 working-precision words and 13731 shell-pairs
 PRISM was handed    33198388 working-precision words and 13731 shell-pairs
 PRISM was handed    33198388 working-precision words and 13731 shell-pairs
 PRISM was handed    33198388 working-precision words and 13731 shell-pairs
 PRISM was handed    33198388 working-precision words and 13731 shell-pairs
 PRISM was handed    33198388 working-precision words and 13731 shell-pairs
 PRISM was handed    33198388 working-precision words and 13731 shell-pairs
 PRISM was handed    33198388 working-precision words and 13731 shell-pairs
 PRISM was handed    33198388 working-precision words and 13731 shell-pairs
 PRISM was handed    33198388 working-precision words and 13731 shell-pairs
 PRISM was handed    33198388 working-precision words and 13731 shell-pairs
 IPart=  5 NShTot=         707 NBatch=          71 AvBLen=        10.0
 IPart= 18 NShTot=         659 NBatch=          48 AvBLen=        13.7
 IPart=  9 NShTot=         685 NBatch=          58 AvBLen=        11.8
 IPart=  4 NShTot=         711 NBatch=          73 AvBLen=         9.7
 IPart=  8 NShTot=         688 NBatch=          58 AvBLen=        11.9
 IPart= 11 NShTot=         677 NBatch=          56 AvBLen=        12.1
 IPart=  0 NShTot=         721 NBatch=          80 AvBLen=         9.0
 IPart= 16 NShTot=         662 NBatch=          50 AvBLen=        13.2
 IPart= 15 NShTot=         666 NBatch=          52 AvBLen=        12.8
 IPart= 12 NShTot=         673 NBatch=          53 AvBLen=        12.7
 IPart= 13 NShTot=         669 NBatch=          52 AvBLen=        12.9
 IPart=  1 NShTot=         719 NBatch=          79 AvBLen=         9.1
 IPart=  2 NShTot=         716 NBatch=          77 AvBLen=         9.3
 IPart= 14 NShTot=         668 NBatch=          52 AvBLen=        12.8
 IPart=  7 NShTot=         694 NBatch=          62 AvBLen=        11.2
 IPart= 17 NShTot=         662 NBatch=          50 AvBLen=        13.2
 IPart=  6 NShTot=         701 NBatch=          68 AvBLen=        10.3
 IPart=  3 NShTot=         714 NBatch=          75 AvBLen=         9.5
 IPart= 10 NShTot=         680 NBatch=          56 AvBLen=        12.1
 IPart= 19 NShTot=         659 NBatch=          48 AvBLen=        13.7
 PrSmSu:  NxtVal=            121.
 Entering OneElI...
 Calculate potential energy integrals
    NBasis = 485  MinDer = 2  MaxDer = 2
 Requested accuracy = 0.1000D-12
 PrmmSu-InSpLW:  IPartL=    0 NPrtUS=   20 NPrtUL=    1 DoSpLW=F IThBeg=    0 IThEnd=   19 NThAct=   20.
 PrsmSu:  NPrtUS=  20 ThrOK=T IAlg=1 NPAlg=1 LenDen=           0 ISkipM=0 DoSpLW=F IThBeg=    0 IThEnd=   19.
 Prism:   IPart=     0 DynPar=F LinDyn=F Incr=         143.
 PRISM was handed    33260054 working-precision words and 12510 shell-pairs
 PRISM was handed    33260054 working-precision words and 12510 shell-pairs
 PRISM was handed    33260054 working-precision words and 12510 shell-pairs
 PRISM was handed    33260054 working-precision words and 12510 shell-pairs
 PRISM was handed    33260054 working-precision words and 12510 shell-pairs
 PRISM was handed    33260054 working-precision words and 12510 shell-pairs
 PRISM was handed    33260054 working-precision words and 12510 shell-pairs
 PRISM was handed    33260054 working-precision words and 12510 shell-pairs
 PRISM was handed    33260054 working-precision words and 12510 shell-pairs
 PRISM was handed    33260054 working-precision words and 12510 shell-pairs
 PRISM was handed    33260054 working-precision words and 12510 shell-pairs
 PRISM was handed    33260054 working-precision words and 12510 shell-pairs
 PRISM was handed    33260054 working-precision words and 12510 shell-pairs
 PRISM was handed    33260054 working-precision words and 12510 shell-pairs
 PRISM was handed    33260054 working-precision words and 12510 shell-pairs
 PRISM was handed    33260054 working-precision words and 12510 shell-pairs
 PRISM was handed    33260054 working-precision words and 12510 shell-pairs
 PRISM was handed    33260054 working-precision words and 12510 shell-pairs
 PRISM was handed    33260054 working-precision words and 12510 shell-pairs
 PRISM was handed    33260054 working-precision words and 12510 shell-pairs
 IPart= 16 NShTot=       13915 NBatch=         606 AvBLen=        23.0
 IPart=  0 NShTot=       15111 NBatch=         659 AvBLen=        22.9
 IPart=  4 NShTot=       14904 NBatch=         650 AvBLen=        22.9
 IPart= 14 NShTot=       14030 NBatch=         611 AvBLen=        23.0
 IPart= 13 NShTot=       14076 NBatch=         613 AvBLen=        23.0
 IPart= 15 NShTot=       13961 NBatch=         608 AvBLen=        23.0
 IPart= 11 NShTot=       14214 NBatch=         619 AvBLen=        23.0
 IPart= 18 NShTot=       13846 NBatch=         603 AvBLen=        23.0
 IPart= 19 NShTot=       13800 NBatch=         601 AvBLen=        23.0
 IPart=  9 NShTot=       14329 NBatch=         624 AvBLen=        23.0
 IPart= 17 NShTot=       13869 NBatch=         604 AvBLen=        23.0
 IPart= 12 NShTot=       14099 NBatch=         614 AvBLen=        23.0
 IPart= 10 NShTot=       14283 NBatch=         622 AvBLen=        23.0
 IPart=  5 NShTot=       14858 NBatch=         648 AvBLen=        22.9
 IPart=  2 NShTot=       14950 NBatch=         652 AvBLen=        22.9
 IPart=  8 NShTot=       14352 NBatch=         625 AvBLen=        23.0
 IPart=  6 NShTot=       14697 NBatch=         641 AvBLen=        22.9
 IPart=  1 NShTot=       15065 NBatch=         657 AvBLen=        22.9
 IPart=  3 NShTot=       14927 NBatch=         651 AvBLen=        22.9
 IPart=  7 NShTot=       14444 NBatch=         630 AvBLen=        22.9
 PrSmSu:  NxtVal=           2861.
 Polarizability after L701:
                1             2             3 
      1  0.000000D+00
      2  0.000000D+00  0.000000D+00
      3  0.000000D+00  0.000000D+00  0.000000D+00
 Dipole Derivatives after L701:
                 1             2             3             4             5 
      1  -0.857817D+00 -0.764606D+00  0.109570D+00 -0.130715D+00  0.104856D+00
      2  -0.651305D+00 -0.721422D+00 -0.116986D+00  0.178036D+00 -0.112672D+01
      3   0.266077D+00  0.288796D-01 -0.797876D+00 -0.263921D+00  0.243166D-01
                 6             7             8             9            10 
      1  -0.417884D+00 -0.109531D+01  0.796546D+00  0.291446D+00  0.863687D+00
      2   0.597287D+00  0.498737D+00 -0.706474D+00 -0.526710D+00 -0.357788D+00
      3  -0.797810D+00 -0.998670D-01 -0.418316D+00 -0.785037D+00  0.103454D+00
                11            12            13            14            15 
      1   0.519290D+00  0.877297D-01 -0.772115D+00 -0.397368D+00  0.107262D+01
      2  -0.476706D+00 -0.786140D-01  0.915344D-01 -0.313839D+00  0.613020D+00
      3  -0.101105D+00 -0.781895D+00  0.803783D-01  0.466898D+00 -0.670399D+00
                16            17            18            19            20 
      1  -0.247898D+01  0.295897D+00 -0.171003D+00 -0.119755D+01 -0.558557D+00
      2   0.373259D+00 -0.105727D+01  0.309486D-01 -0.879602D-01 -0.125894D+01
      3  -0.810772D-01  0.598385D-02 -0.101353D+01 -0.135042D-01 -0.388100D-01
                21            22            23            24            25 
      1  -0.937958D+00  0.573650D-01 -0.223576D+00 -0.252658D+00  0.871663D-02
      2  -0.495969D+00  0.100988D+00  0.358016D+00  0.293581D+00  0.175903D+00
      3  -0.910351D+00  0.953362D-01  0.201697D+00  0.406060D+00 -0.207712D+00
                26            27            28            29            30 
      1  -0.120843D+00  0.227394D+00  0.268380D+00  0.237066D+00  0.371205D+00
      2   0.237578D+00 -0.247488D+00  0.151053D+00  0.438543D+00  0.441146D+00
      3  -0.135103D+00  0.455961D+00  0.800795D-01  0.141318D+00  0.373786D+00
                31            32            33            34            35 
      1   0.461894D+00  0.213689D+00 -0.439346D+00  0.248630D+00  0.182985D+00
      2   0.247376D+00  0.324659D+00 -0.366149D+00 -0.612015D-01  0.107902D-01
      3  -0.215210D+00 -0.153063D+00  0.448918D+00  0.173114D+00  0.354239D+00
                36            37            38            39            40 
      1   0.210510D+00  0.188562D+00 -0.173822D+00  0.172006D-01  0.898972D+00
      2  -0.202629D+00 -0.732207D-01  0.100867D+01 -0.160207D+00 -0.444950D+00
      3   0.595151D+00  0.547509D-02 -0.252763D+00  0.170452D+00 -0.107330D+00
                41            42            43            44            45 
      1  -0.399951D+00  0.145508D+00  0.162616D-01 -0.995901D-01 -0.310490D+00
      2   0.401150D+00 -0.125927D+00  0.154195D+00  0.289885D+00  0.419048D+00
      3   0.219952D-01  0.113615D+00  0.190614D+00  0.169442D+00  0.668558D+00
                46            47            48            49            50 
      1  -0.603504D-01  0.109919D+00 -0.103173D+00  0.907500D+00  0.126965D+00
      2  -0.369819D+00  0.324922D+00 -0.118978D+00  0.215932D+00  0.178171D+00
      3   0.409972D+00 -0.159526D+00  0.306852D+00 -0.395564D+00 -0.567393D-01
                51            52            53            54            55 
      1  -0.530674D+00  0.797574D+00  0.964155D+00 -0.697541D-01  0.316187D+00
      2  -0.142692D+00  0.690849D-01  0.260588D+00 -0.171962D-01 -0.738953D-01
      3   0.432753D+00  0.199590D-01  0.143028D-01  0.852947D-01  0.578297D-01
                56            57            58            59            60 
      1  -0.430710D+00  0.946138D+00  0.494518D+00 -0.706418D+00 -0.781958D+00
      2   0.264869D+00 -0.412039D+00 -0.170119D+00  0.446084D+00  0.408314D+00
      3  -0.209459D+00  0.548824D+00 -0.607938D-01  0.191658D+00  0.309508D+00
                61            62            63            64            65 
      1  -0.932506D-01 -0.218596D+00  0.342539D+00  0.129295D+01  0.117159D+00
      2  -0.616292D-01  0.685701D-01  0.124866D+00  0.515033D+00  0.138301D+00
      3  -0.262450D+00 -0.326158D+00  0.533948D+00  0.308302D+00  0.470214D-01
                66            67            68            69 
      1   0.158804D+00 -0.135112D+00  0.425511D+00  0.342384D-01
      2   0.904547D-01 -0.419245D+00  0.910582D+00 -0.708151D-02
      3   0.175346D+00 -0.831634D-01  0.183292D+00  0.131872D+00
 Hessian after L701:
                1             2             3             4             5 
      1  0.151959D+02
      2  0.934673D+00  0.168206D+02
      3 -0.116784D+00  0.463848D+00  0.181978D+02
      4 -0.260564D+01 -0.823073D+00  0.752246D+00  0.154929D+02
      5 -0.836795D+00 -0.624858D+01 -0.135286D+00 -0.807436D-01  0.172301D+02
      6  0.749377D+00 -0.117468D+00 -0.621947D+01  0.301774D+00  0.516005D+00
      7  0.344825D+00 -0.766781D-01 -0.210191D+00 -0.430176D+01  0.781269D+00
      8  0.130932D-01 -0.835966D-01 -0.335653D-01  0.749305D+00 -0.585961D+01
      9 -0.128036D+00 -0.544917D-02 -0.383565D-02 -0.189627D+01 -0.838638D+00
     10 -0.590600D+01 -0.125044D+01  0.235167D+00  0.144435D+00 -0.233790D+00
     11 -0.117778D+01 -0.274514D+01 -0.637824D+00 -0.195977D+00  0.189505D+00
     12  0.208510D+00 -0.624856D+00 -0.601952D+01  0.858621D-02 -0.400864D-01
     13  0.161413D+00  0.195461D+00 -0.133778D+00  0.869758D-01  0.217241D+00
     14  0.193600D+00 -0.618263D-01 -0.693632D-01  0.224620D+00  0.177002D+00
     15 -0.910152D-01 -0.563253D-01 -0.161896D+00 -0.151254D+00 -0.136915D+00
     16  0.161102D+00 -0.180520D+00  0.433097D-01  0.171580D+00 -0.192959D+00
     17 -0.333912D+00  0.494844D-01 -0.504128D-01 -0.193034D+00 -0.324528D-01
     18  0.651938D-01 -0.371651D-01 -0.176434D+00  0.722414D-01 -0.480873D-01
     19  0.528657D-01  0.117906D+00  0.301831D-01 -0.479714D-01  0.146006D+00
     20  0.111736D+00 -0.105735D-01  0.207633D-01  0.161158D+00  0.587800D-01
     21  0.634227D-02  0.665392D-02 -0.111445D+00 -0.480586D-01 -0.668743D-01
     22  0.180890D+00  0.533417D-01  0.359669D-01 -0.111620D-01 -0.473068D-01
     23 -0.256758D-02 -0.208194D+00 -0.598193D-01 -0.729992D-01  0.503809D-01
     24  0.177524D-01 -0.719917D-01  0.193033D+00 -0.221481D-01  0.346089D-01
     25  0.110464D+00  0.107285D-01 -0.405998D-01  0.495251D-03  0.155559D-01
     26 -0.521161D-01 -0.103198D+00  0.741443D-01 -0.606439D-02 -0.226664D-02
     27  0.391204D-02  0.710555D-01  0.107698D+00  0.445277D-02 -0.490433D-02
     28 -0.419734D+01  0.495928D+00  0.654478D+00 -0.753518D-01  0.227154D-01
     29  0.479823D+00 -0.362632D+01  0.117715D+01  0.143173D-01  0.982332D-01
     30  0.586947D+00  0.109520D+01 -0.281990D+01 -0.500922D-01  0.484618D-01
     31 -0.358695D+01  0.612180D+00 -0.107042D+01 -0.964637D-01  0.273481D-02
     32  0.652541D+00 -0.401689D+01 -0.762194D+00 -0.852625D-02  0.112689D+00
     33 -0.106921D+01 -0.711813D+00 -0.305086D+01  0.134430D-01 -0.220472D-01
     34 -0.100576D+00 -0.464240D-01 -0.108393D+00 -0.454652D+01  0.382557D+00
     35  0.109370D-01  0.133582D+00  0.397805D-01  0.324584D+00 -0.414341D+01
     36 -0.123439D+00 -0.805704D-02  0.102014D+00  0.721468D+00  0.122708D+01
     37 -0.449221D-01  0.120401D+00 -0.380274D-01 -0.431550D+01 -0.244857D+00
     38  0.129365D+00  0.955232D-01  0.172468D-01 -0.237120D+00 -0.194699D+01
     39 -0.464087D-01  0.215988D-01  0.935531D-01  0.687191D-01 -0.559667D+00
     40  0.179761D+00 -0.396050D-01 -0.346294D-01 -0.614053D-01 -0.324637D-01
     41 -0.472247D-01 -0.403030D-01  0.885360D-02 -0.131346D-01  0.144570D+00
     42 -0.296410D-01  0.262921D-02 -0.499679D-01  0.133406D+00 -0.111539D-01
     43  0.126864D-01 -0.606900D-02 -0.158484D-01  0.937167D-01  0.165216D-02
     44 -0.130703D-01 -0.211225D-01  0.107052D-01  0.126053D-01  0.137997D+00
     45 -0.419363D-01  0.184799D-01  0.679201D-02  0.114531D+00  0.510223D-01
     46 -0.173092D-01  0.145590D-01 -0.655454D-02 -0.129811D-01 -0.145861D-01
     47  0.404339D-01  0.199632D-01 -0.377615D-01  0.145129D-01  0.110208D-01
     48 -0.298074D-01 -0.336017D-01 -0.357940D-02 -0.129986D-01 -0.187646D-01
     49  0.227030D-02 -0.754513D-03 -0.959430D-02  0.531142D-01  0.898902D-01
     50  0.328426D-02 -0.688885D-02 -0.294983D-02  0.801838D-01  0.194862D-01
[...]
 00760719,0.00974875,0.00007611,0.00013018,-0.00005512,-0.00068878,0.00
 188749,0.00042341,0.00008775,0.00007240,-0.00003372,0.00004190,0.00006
 150,-0.00004708,-0.00024346,0.00048426,0.00039961,0.00045459,0.0000381
 0,0.00008054,-0.00004850,0.00054870,0.00035699,0.00009428,-0.00033460,
 0.00011754,-0.10189114,0.11973757,-0.00282827,0.00013671,-0.00300533,-
 0.01740209,0.01231485,0.01004462,0.08913756,-0.06228892,-0.10511808,-0
 .00009272,0.00070532,-0.00010188,0.02118060,-0.01284087,-0.01638957,-0
 .00020152,-0.00021525,0.00012127,-0.00067074,-0.00129340,0.00095104,0.
 00003077,-0.00005477,0.00004404,-0.00010235,-0.00019872,0.00009344,0.0
 0011382,0.00010888,0.00000582,-0.00078702,0.00060540,0.00027134,0.0006
 8493,-0.00047840,0.00079559,0.00067449,0.00006284,0.00096735,-0.096592
 13,0.06396170,0.11943732,0.00128142,-0.00207985,-0.00073226,-0.0123658
 5,-0.02136383,-0.01000137,-0.08595350,-0.08554607,-0.02812403,-0.00014
 785,-0.00002893,0.00023414,-0.00448340,-0.00877769,-0.00265088,0.00001
 171,0.00003732,0.00002737,0.00045354,-0.00012786,0.00210902,0.00016937
 ,0.00019594,0.00008403,0.00003152,0.00002066,-0.00005295,-0.00025165,0
 .00074584,0.00082590,0.00024571,0.00007079,0.00013654,-0.00319310,0.00
 130571,-0.00350811,0.00105641,0.00032297,0.00061532,0.00959494,0.02059
 702,0.00680818,0.09289325,0.00004721,0.00105832,0.00045609,0.00341830,
 0.00491620,0.00207630,-0.08656909,-0.24390616,-0.06909697,0.00025161,0
 .00014433,0.00024606,-0.00567743,-0.01572308,-0.00543074,-0.00003211,-
 0.00000296,-0.00006400,-0.00062705,-0.00046600,0.00449012,0.00012934,-
 0.00003005,-0.00011490,0.00002855,-0.00003482,-0.00008450,-0.00061147,
 0.00021792,0.00005486,-0.00006251,0.00018746,0.00018523,0.00161572,0.0
 0097183,0.00092954,-0.00038179,0.00072367,-0.00070298,-0.00574262,-0.0
 1416466,-0.00474289,0.09455129,0.26569178,0.00140750,-0.00024886,0.000
 21822,-0.01067181,-0.01924137,-0.00945435,-0.02891235,-0.06972322,-0.0
 7000018,0.00004068,0.00007684,0.00000443,0.01063433,0.02624540,0.00764
 019,0.00000447,-0.00000532,0.00009644,0.00136207,0.00193650,-0.0048838
 6,0.00015422,0.00009077,0.00000150,-0.00001014,0.00001805,0.00003697,-
 0.00001817,0.00043424,0.00053258,0.00009222,0.00005253,-0.00001024,-0.
 00364123,0.00165526,-0.00239407,0.00064710,-0.00023381,0.00034410,-0.0
 0617024,-0.01322231,-0.00540574,0.03505972,0.07185798,0.08082096,0.000
 28803,-0.00001528,0.00044192,0.00023221,-0.00029349,-0.00057064,-0.006
 75833,0.00360079,0.00498120,-0.00121107,-0.00012589,-0.00080541,-0.175
 68753,0.09118275,0.09315737,-0.00003249,0.00004297,-0.00008826,0.00910
 028,-0.00646285,-0.00659866,-0.00011945,0.00002563,-0.00007002,-0.0019
 6504,0.00009125,-0.00149866,0.00010652,-0.00016059,0.00010121,-0.00000
 561,-0.00015757,-0.00003657,0.00004289,-0.00000540,0.00000823,0.000021
 68,-0.00005342,0.00001639,0.00076613,-0.00160681,0.00109766,-0.0001240
 0,-0.00025793,-0.00000874,0.19327633,0.00051879,0.00055836,0.00041414,
 0.00049811,0.00031181,-0.00079002,-0.01398140,0.00943788,0.00929333,0.
 00049188,0.00030910,-0.00013146,0.08998352,-0.11059771,-0.06560576,0.0
 0003589,-0.00004426,0.00027413,0.02174730,-0.01719858,-0.01584829,0.00
 005566,-0.00014879,0.00020099,-0.00018935,-0.00002051,0.00019185,-0.00
 002875,-0.00042452,-0.00020004,-0.00017786,-0.00007573,-0.00007819,0.0
 0005490,-0.00001712,0.00002856,-0.00014891,0.00002765,-0.00025077,-0.0
 0105795,-0.00129822,0.00376077,0.00011367,0.00068419,-0.00087613,-0.09
 739935,0.12365574,-0.00042580,-0.00004140,-0.00045461,0.00064715,-0.00
 103830,0.00092070,0.02044057,-0.01339291,-0.01525787,-0.00031108,0.000
 68969,-0.00023887,0.09131675,-0.06540549,-0.11496536,-0.00010777,-0.00
 004287,0.00025739,0.00472654,-0.00392126,-0.00405603,0.00023557,-0.000
 13676,0.00027386,-0.00111330,-0.00051908,0.00009482,-0.00008412,0.0005
 3209,-0.00001692,0.00000525,0.00001426,0.00029805,-0.00005579,0.000095
 86,-0.00013071,-0.00008870,0.00008289,0.00033638,0.00151517,0.00334993
 ,-0.00393396,-0.00040324,0.00014130,0.00094189,-0.10231583,0.07090862,
 0.12471070,-0.00000609,-0.00024226,0.00019935,0.00000745,-0.00079357,0
 .00156384,0.00811111,-0.00152943,0.00750122,-0.00008793,-0.00044295,0.
 00023528,-0.21463684,0.01807083,-0.12508637,0.00003518,0.00004935,-0.0
 0019411,-0.00879058,-0.00005317,-0.00583717,-0.00009230,0.00011272,-0.
 00011949,0.00015422,0.00024884,-0.00031437,0.00003927,-0.00012185,0.00
 004093,0.00006088,0.00003150,-0.00012660,0.00003034,-0.00000255,0.0001
 5232,0.00019263,-0.00013696,0.00031963,0.00059017,0.00028294,-0.000518
 29,0.00053872,0.00060385,-0.00047949,-0.01905538,0.00219693,-0.0134137
 6,0.23157368,-0.00039194,0.00032781,-0.00000440,-0.00211218,-0.0014882
 0,0.00262141,0.01478446,-0.00294233,0.01099840,0.00002250,0.00008087,-
 0.00005760,0.01817721,-0.04789306,0.01166634,0.00004222,0.00006862,0.0
 0003772,-0.02755125,0.00004612,-0.01967704,0.00009941,-0.00005931,0.00
 016016,0.00000130,-0.00025463,0.00005379,-0.00002451,0.00014061,-0.000
 16685,0.00001878,-0.00001290,0.00001693,0.00001844,0.00008856,0.000163
 09,0.00074139,-0.00011999,0.00094869,-0.00033474,0.00055967,-0.0005063
 2,0.00055029,0.00012673,-0.00042361,0.01273426,-0.00195475,0.00991804,
 -0.01581877,0.05667694,0.00038919,-0.00013442,-0.00006861,0.00410354,0
 .00291093,-0.00311737,-0.02275102,0.00368450,-0.01822451,0.00014861,0.
 00026429,0.00000343,-0.12388043,0.01116749,-0.14041111,-0.00003643,-0.
 00008160,0.00009611,-0.00588067,-0.00006798,-0.00446632,0.00007795,-0.
 00005592,0.00010520,-0.00009782,-0.00019997,0.00009690,-0.00002855,0.0
 0013895,0.00010180,-0.00009490,0.00004322,0.00011560,0.00014801,-0.000
 25567,0.00023387,-0.00127810,0.00041297,-0.00125530,-0.00003870,-0.000
 93562,0.00052524,0.00004166,0.00004641,0.00123262,0.01319809,-0.000877
 83,0.01038640,0.13570561,-0.01479632,0.15364181,0.00119504,0.00074288,
 -0.00170522,0.00018281,-0.00012506,0.00040606,0.00013181,-0.00005258,-
 0.00015818,-0.00953787,0.01521290,-0.01833009,0.00007495,0.00000418,-0
 .00011414,-0.07553498,0.05185017,-0.06292853,0.00000952,0.00002156,0.0
 0013099,0.00098858,-0.00065314,0.00024666,-0.00317012,0.00280871,0.002
 45961,-0.00006114,-0.00005975,-0.00002347,-0.00028233,-0.00050216,0.00
 080256,0.00007054,-0.00006661,-0.00008320,-0.00006034,-0.00002006,0.00
 004001,0.00005204,-0.00002334,0.00006424,-0.00002262,-0.00001564,0.000
 00418,0.00000035,0.00006740,0.00009384,-0.00007301,0.00000428,0.000038
 92,0.08121231,-0.00128931,0.00060931,0.00022830,-0.00023664,0.00004457
 ,-0.00037715,-0.00012995,0.00002631,0.00010887,0.00732584,-0.01364020,
 0.01470324,-0.00004536,-0.00001020,0.00009694,0.05213176,-0.14512655,0
 .11658200,-0.00002322,-0.00002155,-0.00010174,-0.00068185,0.00018128,0
 .00011334,0.00296784,-0.00137733,-0.00226665,0.00005197,0.00000809,-0.
 00012011,0.00040534,0.00071267,-0.00033636,-0.00000332,-0.00002150,0.0
 0006484,0.00007895,0.00000919,-0.00002883,-0.00001983,0.00000662,-0.00
 004408,0.00000740,0.00002006,-0.00000795,0.00001551,-0.00008758,-0.000
 10315,0.00007377,-0.00001281,-0.00002170,-0.06113655,0.15744546,-0.000
 19083,-0.00072267,0.00083106,-0.00009122,-0.00013837,0.00013674,-0.000
 01206,-0.00002883,0.00001211,0.00470723,-0.00776499,0.00948066,0.00006
 389,-0.00003236,0.00000071,-0.06360848,0.11710284,-0.18597056,0.000004
 71,0.00000122,-0.00001741,-0.00067399,0.00035797,0.00083543,0.00254837
 ,-0.00162939,0.00027392,-0.00005196,0.00015198,-0.00010285,-0.00046813
 ,0.00008525,-0.00001475,0.00001534,-0.00001717,-0.00001713,-0.00006467
 ,0.00004343,0.00003006,-0.00001008,0.00000503,0.00000869,0.00000067,0.
 00000298,-0.00001061,0.00002965,-0.00002885,-0.00001983,0.00001322,-0.
 00000097,-0.00000992,0.06794686,-0.12765045,0.19962969,0.00200906,0.00
 084720,0.00036984,-0.00013447,0.00032759,-0.00003715,-0.00002144,-0.00
 009690,-0.00003225,0.00812817,0.01435161,0.02084232,-0.00006748,0.0000
 5954,0.00009192,-0.07605009,-0.05001078,-0.06779076,0.00005516,0.00000
 211,-0.00000266,-0.00357122,0.00308334,0.00227431,0.00114137,-0.000732
 01,-0.00059197,-0.00026528,-0.00031596,-0.00044093,-0.00004496,-0.0001
 3538,-0.00003019,-0.00008552,-0.00022930,-0.00010091,0.00004215,-0.000
 06853,-0.00005275,0.00002354,-0.00001345,0.00000302,-0.00004549,-0.000
 00178,-0.00002045,0.00006023,-0.00002480,-0.00006379,0.00002035,-0.000
 02662,-0.00001282,-0.00447014,-0.00606117,-0.00698710,0.08150717,-0.00
 085513,0.00047925,0.00081181,0.00009096,-0.00003742,0.00024251,0.00000
 702,0.00006682,-0.00004914,-0.00645851,-0.01246733,-0.01591430,0.00011
 130,-0.00008364,-0.00008008,-0.04951433,-0.12906086,-0.11181336,-0.000
 09532,-0.00000491,-0.00001805,0.00359987,-0.00150719,-0.00099949,-0.00
 063119,0.00020973,0.00042413,0.00049444,0.00061953,-0.00006296,0.00013
 261,-0.00000386,0.00004524,-0.00012043,0.00011071,0.00009980,0.0000255
 3,0.00007037,0.00003313,0.00000760,-0.00001988,0.00003321,0.00003141,-
 0.00000177,0.00001318,0.00000264,-0.00000386,0.00000421,0.00000459,0.0
 0001431,0.00002699,0.00687432,0.01232498,0.01551008,0.05156854,0.13960
 842,-0.00108616,-0.00009753,0.00013984,0.00026807,0.00017262,0.0002139
 2,0.00002016,-0.00001504,-0.00001447,-0.00325549,-0.00622351,-0.008981
 45,0.00001106,0.00000273,0.00004431,-0.06719953,-0.11193601,-0.2015130
 2,-0.00004918,-0.00000285,-0.00003879,0.00207900,-0.00115094,0.0007238
 3,0.00029901,0.00023253,0.00073875,0.00080344,0.00029512,0.00000228,-0
 .00002097,-0.00005815,-0.00010543,-0.00014607,0.00015635,0.00013112,0.
 00002943,0.00003240,0.00000321,0.00000152,0.00000819,0.00000066,0.0000
 4631,0.00001554,0.00000982,0.00005632,-0.00009441,-0.00004428,0.000031
 08,-0.00000012,-0.00000484,-0.00755808,-0.01356893,-0.01758158,0.07234
 788,0.12558531,0.21703966,-0.00264906,0.00501705,0.00135708,-0.0004852
 4,-0.00140846,0.00053833,0.00002135,0.00003549,0.00021978,-0.01747004,
 -0.01466743,0.00653414,-0.00002297,-0.00005329,-0.00000432,-0.20493237
 ,-0.11512927,0.06611026,0.00000554,-0.00001095,-0.00003410,0.00097428,
 0.00005684,0.00017753,0.00039718,-0.00016091,-0.00077339,0.00033614,0.
 00022249,-0.00014055,0.00021049,-0.00004118,0.00009740,0.00004105,0.00
 005767,0.00002272,-0.00046618,0.00025625,0.00020921,-0.00009205,0.0000
 5702,-0.00008301,0.00000877,-0.00000013,-0.00003036,0.00001676,-0.0000
 2991,0.00002770,-0.00001429,0.00004616,-0.00003532,0.00942585,0.006442
 64,-0.00320498,-0.00822760,-0.00532093,0.00328192,0.22293749,0.0023345
 6,-0.00265992,-0.00101089,0.00084518,0.00087273,-0.00050134,-0.0000062
 7,-0.00000516,-0.00007783,0.01698416,0.01291312,-0.00701421,0.00001039
 ,0.00001799,-0.00000463,-0.11624029,-0.13124400,0.04890873,0.00000215,
 0.00001225,0.00004059,-0.00085067,0.00077181,0.00024881,-0.00073657,0.
 00077240,0.00051803,0.00023792,0.00001670,0.00019364,-0.00000871,0.000
 05402,-0.00033723,-0.00010323,0.00001782,0.00003793,0.00027743,-0.0001
 6767,-0.00013318,0.00001446,-0.00001578,0.00002909,0.00000913,0.000001
 14,0.00000118,-0.00000472,-0.00000527,0.00001896,-0.00001099,-0.000009
 51,0.00000783,-0.01487239,-0.01115645,0.00473912,-0.01246990,-0.010364
 01,0.00659782,0.12460905,0.14018573,0.00140673,-0.00227034,-0.00050851
 ,0.00051334,0.00062279,0.00039676,0.00010921,-0.00012984,-0.00019473,0
 .00763475,0.00702196,-0.00477124,0.00001336,0.00002741,-0.00001908,0.0
 6605900,0.04842533,-0.07499162,-0.00000156,-0.00000445,0.00001944,-0.0
 0026687,0.00035953,-0.00012855,-0.00040028,-0.00023512,0.00043391,0.00
 026935,0.00028110,0.00017437,-0.00025085,-0.00041021,0.00034452,-0.000
 05314,-0.00001285,0.00002160,0.00013403,-0.00003877,-0.00005614,0.0000
 7628,-0.00003531,0.00006462,-0.00000145,0.00001026,0.00000196,-0.00001
 962,-0.00002818,-0.00000205,0.00000461,-0.00001750,0.00001661,0.018814
 14,0.01258109,-0.00753254,-0.01977158,-0.01393424,0.00919002,-0.074283
 78,-0.05222777,0.07753821,0.00019690,-0.00019971,-0.00000478,-0.000218
 92,-0.00039389,-0.00074597,-0.00017790,0.00039184,-0.00068197,-0.00027
 029,0.00062370,0.00070492,-0.00871535,-0.00021475,-0.00540075,-0.00004
 276,0.00010181,-0.00021114,-0.23131205,0.00865692,-0.12337422,0.000027
 59,-0.00022314,-0.00007601,-0.00051459,0.00096802,0.00006314,-0.000076
 92,0.00011364,0.00009397,-0.00002417,0.00000131,-0.00000294,0.00052699
 ,0.00044304,0.00050315,0.00021928,0.00035751,0.00023620,-0.00001893,-0
 .00003261,-0.00002246,0.00013654,-0.00005514,0.00018523,0.00046781,-0.
 00013271,0.00027766,0.00073827,-0.00209740,-0.00009298,-0.00004904,0.0
 0004747,0.00001458,0.00001863,0.00000585,0.00000426,-0.00001795,-0.000
 00255,0.00001067,0.25071640,-0.00009876,-0.00025680,0.00001322,0.00015
 505,-0.00033658,0.00075717,0.00009684,0.00141442,-0.00036348,0.0001457
 7,-0.00045289,0.00023474,-0.02701534,0.00267088,-0.01825084,0.00008488
 ,0.00010603,-0.00016820,0.00969524,-0.04726568,0.00664532,0.00010704,0
 .00006616,0.00008855,0.00069850,-0.00080074,-0.00065438,0.00000789,0.0
 0008946,0.00002840,0.00005264,0.00010207,-0.00003534,-0.00010277,-0.00
 090026,0.00122056,0.00011005,0.00018271,-0.00003412,-0.00003023,-0.000
 08968,0.00011468,0.00030083,0.00015240,-0.00000737,0.00080935,0.001469
 78,0.00012123,-0.00225827,-0.00607248,-0.00133019,-0.00007985,0.000080
 13,0.00002223,-0.00003198,0.00005111,0.00004432,-0.00003212,-0.0000095
 2,0.00001844,-0.00947362,0.05263103,-0.00024535,-0.00004798,-0.0001250
 6,-0.00014294,0.00044955,-0.00034739,0.00059131,0.00000291,0.00003401,
 0.00014118,-0.00001947,0.00096595,-0.00602829,-0.00052019,-0.00498225,
 0.00001608,0.00014741,-0.00035794,-0.12345976,0.00605200,-0.13031045,-
 0.00005918,-0.00012651,-0.00006678,0.00003185,-0.00025454,-0.00043237,
 0.00006407,-0.00000595,0.00003918,0.00009138,0.00005269,-0.00006578,0.
 00031830,0.00147249,-0.00087389,0.00016781,-0.00000564,0.00013543,0.00
 004569,-0.00002095,0.00002903,-0.00010596,-0.00008303,-0.00000321,-0.0
 0008157,0.00019365,-0.00003801,-0.00009560,-0.00164910,0.00064931,-0.0
 0009965,0.00011021,0.00001450,0.00001873,0.00000163,0.00002685,0.00004
 706,-0.00002898,0.00000063,0.13708650,-0.00639483,0.14015493,-0.000204
 70,-0.00020589,-0.00012044,0.00004095,0.00017121,-0.00003330,0.0008618
 2,0.00012100,-0.00048833,0.00005633,-0.00007673,0.00052740,0.00859647,
 -0.00651985,-0.00619732,0.00004897,0.00011062,-0.00020187,-0.17806889,
 0.09293861,0.09509409,0.00003395,-0.00004295,0.00004604,-0.00000768,0.
 00000560,-0.00034472,0.00008602,0.00002014,0.00004613,0.00006527,0.000
 05793,-0.00002612,-0.00019880,0.00005285,-0.00000389,0.00002996,0.0000
 5273,-0.00001135,-0.00007571,0.00052650,-0.00006158,0.00007508,0.00010
 609,-0.00023191,0.00017780,-0.00286490,-0.00051191,0.00073098,0.000750
 69,0.00002439,-0.00007062,0.00007498,0.00001253,-0.00000911,0.00001889
 ,0.00002683,0.00001785,-0.00001953,0.00000758,-0.01842706,0.01250245,0
 .01479294,0.19096407,-0.00002673,-0.00004150,-0.00017551,-0.00008900,-
 0.00006009,0.00022919,0.00158528,0.00150233,-0.00104938,-0.00002460,0.
 00012672,-0.00014252,0.02228847,-0.01749193,-0.01598346,-0.00003225,-0
 .00004712,0.00005794,0.09233306,-0.11095567,-0.06629342,0.00003755,-0.
 00001373,0.00005211,-0.00016738,-0.00013835,0.00003299,0.00000886,0.00
 011923,0.00004103,-0.00001902,0.00004152,0.00008756,0.00016875,-0.0000
 6922,0.00005015,0.00004262,-0.00002844,0.00008430,-0.00079571,-0.00005
 540,0.00086118,-0.00030842,0.00054001,0.00000614,-0.00288062,-0.005366
 36,-0.00133018,-0.00016971,0.00129494,0.00018823,0.00002744,-0.0000194
 9,0.00000354,-0.00001583,0.00002140,0.00000163,0.00000604,0.00000631,0
 .00000296,0.00083028,-0.00143643,-0.00010506,-0.10012453,0.12323633,-0
 .00006413,-0.00006500,-0.00001472,0.00001691,-0.00002353,0.00009633,-0
 .00051791,0.00112168,0.00073475,-0.00008556,0.00005811,0.00026136,0.00
 548269,-0.00449315,-0.00501789,0.00002436,0.00007177,-0.00009904,0.094
 72354,-0.06643940,-0.11622582,0.00005030,-0.00004943,0.00006304,-0.000
 04034,0.00002765,-0.00021569,0.00001442,0.00003295,-0.00002779,0.00002
 823,0.00000351,-0.00000762,-0.00005543,-0.00024447,-0.00004266,0.00004
 526,-0.00004535,0.00001070,-0.00002061,-0.00023588,0.00050989,-0.00015
 839,0.00006715,-0.00001786,-0.00119383,-0.00117086,0.00056569,0.000066
 09,0.00011284,-0.00023465,-0.00003218,0.00002522,0.00001650,-0.0000085
 8,0.00002176,0.00001203,0.00000731,-0.00000693,-0.00000698,-0.01294800
 ,0.00990483,0.01035967,-0.10440821,0.07558860,0.12263223,0.00013612,-0
 .00009350,0.00010182,-0.00017346,-0.00019061,-0.00048167,-0.00045083,-
 0.00239198,-0.00154000,-0.00018701,0.00003601,-0.00004166,-0.00352776,
 -0.00481130,0.00961136,0.00003916,0.00004391,-0.00000452,-0.05825881,-
 0.02763358,0.04617219,0.00007732,-0.00002413,0.00007314,0.00004514,-0.
 00007717,-0.00001738,-0.00003266,0.00006233,0.00003031,0.00000678,-0.0
 0001172,0.00000825,0.00012663,0.00033387,0.00028608,0.00012330,0.00017
 776,0.00011513,0.00032654,0.00018285,-0.00043309,0.00009047,-0.0007172
 7,0.00060315,0.00040190,0.00027183,-0.00039113,-0.00006681,0.00036603,
 0.00035176,-0.00001160,0.00000373,0.00000647,-0.00001301,0.00002027,0.
 00000920,-0.00001498,0.00000137,-0.00000394,0.00681753,0.01435641,-0.0
 2309460,-0.00472293,-0.01267456,0.01907406,0.05926895,-0.00008484,0.00
 013764,0.00005231,-0.00042900,0.00011352,-0.00053398,-0.00170218,-0.00
 517365,-0.00383960,0.00007570,-0.00014257,0.00005775,-0.00589961,-0.01
 501924,0.02687128,0.00002020,0.00002965,-0.00000896,-0.02772575,-0.116
 00417,0.11458209,-0.00000051,0.00002737,-0.00003019,-0.00001720,-0.000
 04056,0.00005735,-0.00005346,0.00003443,-0.00000313,0.00008615,-0.0000
 2098,-0.00001211,0.00015141,0.00017217,-0.00000775,0.00008250,0.000021
 49,0.00007893,-0.00013305,0.00016581,-0.00003101,-0.00062763,-0.001106
 52,0.00160188,0.00091875,0.00078875,0.00005433,-0.00009483,0.00139479,
 -0.00013459,-0.00000670,0.00000499,-0.00001162,-0.00000553,-0.00002190
 ,0.00000293,0.00004789,-0.00000473,-0.00000631,0.00028413,-0.00139513,
 0.00077967,0.00234412,0.00883498,-0.01426210,0.03276946,0.12720386,0.0
 0010316,-0.00002154,0.00003725,-0.00010013,-0.00032216,-0.00012723,-0.
 00059794,-0.00156038,-0.00001683,-0.00009495,0.00003872,0.00004554,-0.
 00248981,-0.00586159,0.00865655,0.00002363,0.00002546,-0.00002829,0.04
 687301,0.11565034,-0.23562674,0.00005091,-0.00002476,0.00004298,-0.000
 02140,0.00012281,-0.00015753,-0.00004085,0.00004578,0.00002692,-0.0000
 4084,0.00001965,-0.00000249,0.00022331,0.00016346,0.00028249,0.0001004
 3,0.00016377,0.00007521,-0.00023906,-0.00008973,0.00008460,-0.00025021
 ,-0.00025982,0.00029842,0.00019979,0.00071474,0.00037264,0.00035206,0.
 00060243,0.00058777,-0.00001533,0.00001305,0.00000712,-0.00000416,0.00
 001862,0.00000758,-0.00004063,0.00000127,0.00000880,0.00438094,0.00802
 507,-0.01480638,0.00206302,0.00779198,-0.01335148,-0.05043495,-0.12525
 717,0.25358310\\0.00000012,-0.00000066,-0.00000132,-0.00000069,-0.0000
 0199,-0.00000101,-0.00000009,-0.00000123,-0.00000128,0.00000005,0.0000
 0045,0.00000053,0.00000032,0.00000065,-0.00000005,0.00000075,0.0000017
 2,0.00000015,-0.00000046,0.00000042,0.00000212,-0.00000074,-0.00000037
 ,0.00000165,0.00000026,0.00000137,0.00000125,0.00000092,0.00000020,-0.
 00000234,-0.00000010,-0.00000154,-0.00000188,-0.00000136,-0.00000232,0
 .00000049,-0.00000099,-0.00000325,-0.00000195,-0.00000074,-0.00000221,
 -0.00000115,0.00000051,-0.00000096,-0.00000284,0.00000089,0.00000167,-
 0.00000019,0.00000068,0.00000107,-0.00000048,0.00000061,0.00000085,-0.
 00000044,0.00000164,0.00000263,-0.00000083,0.00000077,0.00000253,0.000
 00149,-0.00000095,0.,0.00000266,-0.00000119,-0.00000067,0.00000237,-0.
 00000022,0.00000164,0.00000303\\\@


 SOME THINGS ARE EASY, THEY ARE ONLY HARD TO DO.
            -- A. EINSTEIN TO J. O. HIRSCHFELDER
 THE ONLY TROUBLE WITH A SURE THING IS THE UNCERTAINTY.
     -- FROM A TEABAG (BELONGING TO W.H.?)
 Job cpu time:       0 days  6 hours 42 minutes 22.0 seconds.
 Elapsed time:       0 days  3 hours 21 minutes 12.4 seconds.
 File lengths (MBytes):  RWF=   1488 Int=      0 D2E=      0 Chk=     32 Scr=     32
 Normal termination of Gaussian 16 at Sun Sep 29 13:19:36 2019.
