 Entering Gaussian System, Link 0=g16
 Input=tight/species/CCCCCCC/conformers/CCCCCCC_806.com
 Output=tight/species/CCCCCCC/conformers/CCCCCCC_806.log
 Initial command:
 /shared/centos7/gaussian/g16/l1.exe "/scratch/harms.n/gauss_scrdir/Gau-40551.inp" -scrdir="/scratch/harms.n/gauss_scrdir/"
 Entering Link 1 = /shared/centos7/gaussian/g16/l1.exe PID=     40552.
  
 Copyright (c) 1988,1990,1992,1993,1995,1998,2003,2009,2016,
            Gaussian, Inc.  All Rights Reserved.
  
 This is part of the Gaussian(R) 16 program.  It is based on
 the Gaussian(R) 09 system (copyright 2009, Gaussian, Inc.),
 the Gaussian(R) 03 system (copyright 2003, Gaussian, Inc.),
 the Gaussian(R) 98 system (copyright 1998, Gaussian, Inc.),
 the Gaussian(R) 94 system (copyright 1995, Gaussian, Inc.),
 the Gaussian 92(TM) system (copyright 1992, Gaussian, Inc.),
 the Gaussian 90(TM) system (copyright 1990, Gaussian, Inc.),
 the Gaussian 88(TM) system (copyright 1988, Gaussian, Inc.),
 the Gaussian 86(TM) system (copyright 1986, Carnegie Mellon
 University), and the Gaussian 82(TM) system (copyright 1983,
 Carnegie Mellon University). Gaussian is a federally registered
 trademark of Gaussian, Inc.
  
 This software contains proprietary and confidential information,
 including trade secrets, belonging to Gaussian, Inc.
  
 This software is provided under written license and may be
 used, copied, transmitted, or stored only in accord with that
 written license.
  
 The following legend is applicable only to US Government
 contracts under FAR:
  
                    RESTRICTED RIGHTS LEGEND
  
 Use, reproduction and disclosure by the US Government is
 subject to restrictions as set forth in subparagraphs (a)
 and (c) of the Commercial Computer Software - Restricted
 Rights clause in FAR 52.227-19.
  
 Gaussian, Inc.
 340 Quinnipiac St., Bldg. 40, Wallingford CT 06492
  
  
 ---------------------------------------------------------------
 Warning -- This program may not be used in any manner that
 competes with the business of Gaussian, Inc. or will provide
 assistance to any competitor of Gaussian, Inc.  The licensee
 of this program is prohibited from giving any competitor of
 Gaussian, Inc. access to this program.  By using this program,
 the user acknowledges that Gaussian, Inc. is engaged in the
 business of creating and licensing software in the field of
 computational chemistry and represents and warrants to the
 licensee that it is not a competitor of Gaussian, Inc. and that
 it will not use this program in any manner prohibited above.
 ---------------------------------------------------------------
  

 Cite this work as:
 Gaussian 16, Revision A.03,
 M. J. Frisch, G. W. Trucks, H. B. Schlegel, G. E. Scuseria, 
 M. A. Robb, J. R. Cheeseman, G. Scalmani, V. Barone, 
 G. A. Petersson, H. Nakatsuji, X. Li, M. Caricato, A. V. Marenich, 
 J. Bloino, B. G. Janesko, R. Gomperts, B. Mennucci, H. P. Hratchian, 
 J. V. Ortiz, A. F. Izmaylov, J. L. Sonnenberg, D. Williams-Young, 
 F. Ding, F. Lipparini, F. Egidi, J. Goings, B. Peng, A. Petrone, 
 T. Henderson, D. Ranasinghe, V. G. Zakrzewski, J. Gao, N. Rega, 
 G. Zheng, W. Liang, M. Hada, M. Ehara, K. Toyota, R. Fukuda, 
 J. Hasegawa, M. Ishida, T. Nakajima, Y. Honda, O. Kitao, H. Nakai, 
 T. Vreven, K. Throssell, J. A. Montgomery, Jr., J. E. Peralta, 
 F. Ogliaro, M. J. Bearpark, J. J. Heyd, E. N. Brothers, K. N. Kudin, 
 V. N. Staroverov, T. A. Keith, R. Kobayashi, J. Normand, 
 K. Raghavachari, A. P. Rendell, J. C. Burant, S. S. Iyengar, 
 J. Tomasi, M. Cossi, J. M. Millam, M. Klene, C. Adamo, R. Cammi, 
 J. W. Ochterski, R. L. Martin, K. Morokuma, O. Farkas, 
 J. B. Foresman, and D. J. Fox, Gaussian, Inc., Wallingford CT, 2016.
 
 ******************************************
 Gaussian 16:  EM64L-G16RevA.03 25-Dec-2016
                28-Sep-2019 
 ******************************************
 %nprocshared=20
 Will use up to   20 processors via shared memory.
 %mem=5GB
 ----------------------------------------------------------------------
 #p m062x/cc-pVTZ opt=(calcfc,maxcycles=900,Tight) freq IOP(7/33=1,2/16
 =3) scf=(maxcycle=900)
 ----------------------------------------------------------------------
 1/6=900,7=10,10=4,18=20,19=15,26=3,38=1/1,3;
 2/9=110,12=2,16=3,17=6,18=5,40=1/2;
 3/5=16,6=1,11=2,25=1,30=1,71=2,74=-55,140=1/1,2,3;
 4//1;
 5/5=2,7=900,38=5/2;
 8/6=4,10=90,11=11/1;
 11/6=1,8=1,9=11,15=111,16=1/1,2,10;
 10/6=1,13=1/2;
 6/7=2,8=2,9=2,10=2,28=1/1;
 7/10=1,18=20,25=1,33=1/1,2,3,16;
 1/6=900,7=10,10=4,18=20,19=15,26=3/3(2);
 2/9=110,16=3/2;
 99//99;
 2/9=110,16=3/2;
 3/5=16,6=1,11=2,25=1,30=1,71=1,74=-55/1,2,3;
 4/5=5,16=3,69=1/1;
 5/5=2,7=900,38=5/2;
 7/33=1/1,2,3,16;
 1/6=900,7=10,18=20,19=15,26=3/3(-5);
 2/9=110,16=3/2;
 6/7=2,8=2,9=2,10=2,19=2,28=1/1;
 99/9=1/99;
 Leave Link    1 at Sat Sep 28 18:17:26 2019, MaxMem=   671088640 cpu:               3.9 elap:               2.0
 (Enter /shared/centos7/gaussian/g16/l101.exe)
 ------------------------------
 Gaussian input prepared by ASE
 ------------------------------
 Symbolic Z-matrix:
 Charge =  0 Multiplicity = 1
 C                     1.38571  -1.07383   0.51736 
 C                     0.12637  -0.4234    0.97884 
 C                    -1.1074   -1.26597   0.77181 
 C                     2.16724  -0.45727  -0.59354 
 C                    -1.10558  -2.5785    1.51946 
 C                     1.69535   0.7929   -1.21321 
 C                    -0.92549  -2.45681   3.01033 
 H                     2.27827  -1.23133  -1.40449 
 H                     3.21003  -0.29568  -0.22992 
 H                     1.15041  -2.12031   0.22911 
 H                     2.06036  -1.17942   1.39162 
 H                    -0.03481   0.54256   0.47521 
 H                     0.20757  -0.17581   2.05836 
 H                    -1.22508  -1.47424  -0.30517 
 H                    -1.99882  -0.67785   1.07285 
 H                    -2.07587  -3.10129   1.3127 
 H                    -0.31523  -3.23152   1.11182 
 H                     0.72101   1.13715  -0.8182 
 H                     2.43373   1.63323  -1.05143 
 H                     1.57805   0.6773   -2.31156 
 H                    -1.51228  -1.63758   3.4276 
 H                     0.15251  -2.27664   3.27738 
 H                    -1.24487  -3.41108   3.5195 
 
 ITRead=  0  0  0  0  0  0  0  0  0  0  0  0  0  0  0  0  0  0  0  0
 ITRead=  0  0  0
 MicOpt= -1 -1 -1 -1 -1 -1 -1 -1 -1 -1 -1 -1 -1 -1 -1 -1 -1 -1 -1 -1
 MicOpt= -1 -1 -1
 NAtoms=     23 NQM=       23 NQMF=       0 NMMI=      0 NMMIF=      0
                NMic=       0 NMicF=      0.
                    Isotopes and Nuclear Properties:
 (Nuclear quadrupole moments (NQMom) in fm**2, nuclear magnetic moments (NMagM)
  in nuclear magnetons)

  Atom         1           2           3           4           5           6           7           8           9          10
 IAtWgt=          12          12          12          12          12          12          12           1           1           1
 AtmWgt=  12.0000000  12.0000000  12.0000000  12.0000000  12.0000000  12.0000000  12.0000000   1.0078250   1.0078250   1.0078250
 NucSpn=           0           0           0           0           0           0           0           1           1           1
 AtZEff=  -0.0000000  -0.0000000  -0.0000000  -0.0000000  -0.0000000  -0.0000000  -0.0000000  -0.0000000  -0.0000000  -0.0000000
 NQMom=    0.0000000   0.0000000   0.0000000   0.0000000   0.0000000   0.0000000   0.0000000   0.0000000   0.0000000   0.0000000
 NMagM=    0.0000000   0.0000000   0.0000000   0.0000000   0.0000000   0.0000000   0.0000000   2.7928460   2.7928460   2.7928460
 AtZNuc=   6.0000000   6.0000000   6.0000000   6.0000000   6.0000000   6.0000000   6.0000000   1.0000000   1.0000000   1.0000000

  Atom        11          12          13          14          15          16          17          18          19          20
 IAtWgt=           1           1           1           1           1           1           1           1           1           1
 AtmWgt=   1.0078250   1.0078250   1.0078250   1.0078250   1.0078250   1.0078250   1.0078250   1.0078250   1.0078250   1.0078250
 NucSpn=           1           1           1           1           1           1           1           1           1           1
 AtZEff=  -0.0000000  -0.0000000  -0.0000000  -0.0000000  -0.0000000  -0.0000000  -0.0000000  -0.0000000  -0.0000000  -0.0000000
 NQMom=    0.0000000   0.0000000   0.0000000   0.0000000   0.0000000   0.0000000   0.0000000   0.0000000   0.0000000   0.0000000
 NMagM=    2.7928460   2.7928460   2.7928460   2.7928460   2.7928460   2.7928460   2.7928460   2.7928460   2.7928460   2.7928460
 AtZNuc=   1.0000000   1.0000000   1.0000000   1.0000000   1.0000000   1.0000000   1.0000000   1.0000000   1.0000000   1.0000000

  Atom        21          22          23
 IAtWgt=           1           1           1
 AtmWgt=   1.0078250   1.0078250   1.0078250
 NucSpn=           1           1           1
 AtZEff=  -0.0000000  -0.0000000  -0.0000000
 NQMom=    0.0000000   0.0000000   0.0000000
 NMagM=    2.7928460   2.7928460   2.7928460
 AtZNuc=   1.0000000   1.0000000   1.0000000
 Leave Link  101 at Sat Sep 28 18:17:27 2019, MaxMem=   671088640 cpu:               2.1 elap:               1.1
 (Enter /shared/centos7/gaussian/g16/l103.exe)

 GradGradGradGradGradGradGradGradGradGradGradGradGradGradGradGradGradGrad
 Berny optimization.
 Initialization pass.
                           ----------------------------
                           !    Initial Parameters    !
                           ! (Angstroms and Degrees)  !
 --------------------------                            --------------------------
 ! Name  Definition              Value          Derivative Info.                !
 --------------------------------------------------------------------------------
 ! R1    R(1,2)                  1.4906         calculate D2E/DX2 analytically  !
 ! R2    R(1,4)                  1.4917         calculate D2E/DX2 analytically  !
 ! R3    R(1,10)                 1.1107         calculate D2E/DX2 analytically  !
 ! R4    R(1,11)                 1.1093         calculate D2E/DX2 analytically  !
 ! R5    R(2,3)                  1.5083         calculate D2E/DX2 analytically  !
 ! R6    R(2,12)                 1.1012         calculate D2E/DX2 analytically  !
 ! R7    R(2,13)                 1.1105         calculate D2E/DX2 analytically  !
 ! R8    R(3,5)                  1.5105         calculate D2E/DX2 analytically  !
 ! R9    R(3,14)                 1.1032         calculate D2E/DX2 analytically  !
 ! R10   R(3,15)                 1.1096         calculate D2E/DX2 analytically  !
 ! R11   R(4,6)                  1.473          calculate D2E/DX2 analytically  !
 ! R12   R(4,8)                  1.1266         calculate D2E/DX2 analytically  !
 ! R13   R(4,9)                  1.1161         calculate D2E/DX2 analytically  !
 ! R14   R(5,7)                  1.5066         calculate D2E/DX2 analytically  !
 ! R15   R(5,16)                 1.1214         calculate D2E/DX2 analytically  !
 ! R16   R(5,17)                 1.1033         calculate D2E/DX2 analytically  !
 ! R17   R(6,18)                 1.1063         calculate D2E/DX2 analytically  !
 ! R18   R(6,19)                 1.1303         calculate D2E/DX2 analytically  !
 ! R19   R(6,20)                 1.1106         calculate D2E/DX2 analytically  !
 ! R20   R(7,21)                 1.0907         calculate D2E/DX2 analytically  !
 ! R21   R(7,22)                 1.1251         calculate D2E/DX2 analytically  !
 ! R22   R(7,23)                 1.1278         calculate D2E/DX2 analytically  !
 ! A1    A(2,1,4)              119.5274         calculate D2E/DX2 analytically  !
 ! A2    A(2,1,10)             108.2096         calculate D2E/DX2 analytically  !
 ! A3    A(2,1,11)             108.1398         calculate D2E/DX2 analytically  !
 ! A4    A(4,1,10)             107.8892         calculate D2E/DX2 analytically  !
 ! A5    A(4,1,11)             107.9169         calculate D2E/DX2 analytically  !
 ! A6    A(10,1,11)            104.1048         calculate D2E/DX2 analytically  !
 ! A7    A(1,2,3)              113.8796         calculate D2E/DX2 analytically  !
 ! A8    A(1,2,12)             111.3966         calculate D2E/DX2 analytically  !
 ! A9    A(1,2,13)             109.6614         calculate D2E/DX2 analytically  !
 ! A10   A(3,2,12)             107.9094         calculate D2E/DX2 analytically  !
 ! A11   A(3,2,13)             108.5282         calculate D2E/DX2 analytically  !
 ! A12   A(12,2,13)            105.0528         calculate D2E/DX2 analytically  !
 ! A13   A(2,3,5)              114.6124         calculate D2E/DX2 analytically  !
 ! A14   A(2,3,14)             109.069          calculate D2E/DX2 analytically  !
 ! A15   A(2,3,15)             108.8943         calculate D2E/DX2 analytically  !
 ! A16   A(5,3,14)             108.6193         calculate D2E/DX2 analytically  !
 ! A17   A(5,3,15)             109.1016         calculate D2E/DX2 analytically  !
 ! A18   A(14,3,15)            106.2137         calculate D2E/DX2 analytically  !
 ! A19   A(1,4,6)              119.7547         calculate D2E/DX2 analytically  !
 ! A20   A(1,4,8)              107.6814         calculate D2E/DX2 analytically  !
 ! A21   A(1,4,9)              107.862          calculate D2E/DX2 analytically  !
 ! A22   A(6,4,8)              108.1748         calculate D2E/DX2 analytically  !
 ! A23   A(6,4,9)              108.2701         calculate D2E/DX2 analytically  !
 ! A24   A(8,4,9)              103.999          calculate D2E/DX2 analytically  !
 ! A25   A(3,5,7)              114.8186         calculate D2E/DX2 analytically  !
 ! A26   A(3,5,16)             108.2272         calculate D2E/DX2 analytically  !
 ! A27   A(3,5,17)             109.4072         calculate D2E/DX2 analytically  !
 ! A28   A(7,5,16)             108.8767         calculate D2E/DX2 analytically  !
 ! A29   A(7,5,17)             109.1349         calculate D2E/DX2 analytically  !
 ! A30   A(16,5,17)            106.0075         calculate D2E/DX2 analytically  !
 ! A31   A(4,6,18)             113.3312         calculate D2E/DX2 analytically  !
 ! A32   A(4,6,19)             111.1932         calculate D2E/DX2 analytically  !
 ! A33   A(4,6,20)             111.1952         calculate D2E/DX2 analytically  !
 ! A34   A(18,6,19)            107.0316         calculate D2E/DX2 analytically  !
 ! A35   A(18,6,20)            107.0069         calculate D2E/DX2 analytically  !
 ! A36   A(19,6,20)            106.7341         calculate D2E/DX2 analytically  !
 ! A37   A(5,7,21)             112.0203         calculate D2E/DX2 analytically  !
 ! A38   A(5,7,22)             111.2436         calculate D2E/DX2 analytically  !
 ! A39   A(5,7,23)             110.1554         calculate D2E/DX2 analytically  !
 ! A40   A(21,7,22)            107.7217         calculate D2E/DX2 analytically  !
 ! A41   A(21,7,23)            108.0876         calculate D2E/DX2 analytically  !
 ! A42   A(22,7,23)            107.438          calculate D2E/DX2 analytically  !
 ! D1    D(4,1,2,3)            116.72           calculate D2E/DX2 analytically  !
 ! D2    D(4,1,2,12)            -5.601          calculate D2E/DX2 analytically  !
 ! D3    D(4,1,2,13)          -121.4626         calculate D2E/DX2 analytically  !
 ! D4    D(10,1,2,3)            -7.1954         calculate D2E/DX2 analytically  !
 ! D5    D(10,1,2,12)         -129.5164         calculate D2E/DX2 analytically  !
 ! D6    D(10,1,2,13)          114.6219         calculate D2E/DX2 analytically  !
 ! D7    D(11,1,2,3)          -119.389          calculate D2E/DX2 analytically  !
 ! D8    D(11,1,2,12)          118.29           calculate D2E/DX2 analytically  !
 ! D9    D(11,1,2,13)            2.4283         calculate D2E/DX2 analytically  !
 ! D10   D(2,1,4,6)              0.6184         calculate D2E/DX2 analytically  !
 ! D11   D(2,1,4,8)           -123.3914         calculate D2E/DX2 analytically  !
 ! D12   D(2,1,4,9)            124.9245         calculate D2E/DX2 analytically  !
 ! D13   D(10,1,4,6)           124.6887         calculate D2E/DX2 analytically  !
 ! D14   D(10,1,4,8)             0.6789         calculate D2E/DX2 analytically  !
 ! D15   D(10,1,4,9)          -111.0051         calculate D2E/DX2 analytically  !
 ! D16   D(11,1,4,6)          -123.3803         calculate D2E/DX2 analytically  !
 ! D17   D(11,1,4,8)           112.6099         calculate D2E/DX2 analytically  !
 ! D18   D(11,1,4,9)             0.9259         calculate D2E/DX2 analytically  !
 ! D19   D(1,2,3,5)             61.5895         calculate D2E/DX2 analytically  !
 ! D20   D(1,2,3,14)           -60.4111         calculate D2E/DX2 analytically  !
 ! D21   D(1,2,3,15)          -175.9147         calculate D2E/DX2 analytically  !
 ! D22   D(12,2,3,5)          -174.191          calculate D2E/DX2 analytically  !
 ! D23   D(12,2,3,14)           63.8084         calculate D2E/DX2 analytically  !
 ! D24   D(12,2,3,15)          -51.6953         calculate D2E/DX2 analytically  !
 ! D25   D(13,2,3,5)           -60.8525         calculate D2E/DX2 analytically  !
 ! D26   D(13,2,3,14)          177.1469         calculate D2E/DX2 analytically  !
 ! D27   D(13,2,3,15)           61.6432         calculate D2E/DX2 analytically  !
 ! D28   D(2,3,5,7)             56.6595         calculate D2E/DX2 analytically  !
 ! D29   D(2,3,5,16)           178.5013         calculate D2E/DX2 analytically  !
 ! D30   D(2,3,5,17)           -66.4217         calculate D2E/DX2 analytically  !
 ! D31   D(14,3,5,7)           178.9045         calculate D2E/DX2 analytically  !
 ! D32   D(14,3,5,16)          -59.2537         calculate D2E/DX2 analytically  !
 ! D33   D(14,3,5,17)           55.8233         calculate D2E/DX2 analytically  !
 ! D34   D(15,3,5,7)           -65.724          calculate D2E/DX2 analytically  !
 ! D35   D(15,3,5,16)           56.1179         calculate D2E/DX2 analytically  !
 ! D36   D(15,3,5,17)          171.1948         calculate D2E/DX2 analytically  !
 ! D37   D(1,4,6,18)            -3.9313         calculate D2E/DX2 analytically  !
 ! D38   D(1,4,6,19)           116.6898         calculate D2E/DX2 analytically  !
 ! D39   D(1,4,6,20)          -124.5217         calculate D2E/DX2 analytically  !
 ! D40   D(8,4,6,18)           119.8409         calculate D2E/DX2 analytically  !
 ! D41   D(8,4,6,19)          -119.5381         calculate D2E/DX2 analytically  !
 ! D42   D(8,4,6,20)            -0.7496         calculate D2E/DX2 analytically  !
 ! D43   D(9,4,6,18)          -128.0416         calculate D2E/DX2 analytically  !
 ! D44   D(9,4,6,19)            -7.4206         calculate D2E/DX2 analytically  !
 ! D45   D(9,4,6,20)           111.3679         calculate D2E/DX2 analytically  !
 ! D46   D(3,5,7,21)            42.4035         calculate D2E/DX2 analytically  !
 ! D47   D(3,5,7,22)           -78.2277         calculate D2E/DX2 analytically  !
 ! D48   D(3,5,7,23)           162.7478         calculate D2E/DX2 analytically  !
 ! D49   D(16,5,7,21)          -79.085          calculate D2E/DX2 analytically  !
 ! D50   D(16,5,7,22)          160.2838         calculate D2E/DX2 analytically  !
 ! D51   D(16,5,7,23)           41.2593         calculate D2E/DX2 analytically  !
 ! D52   D(17,5,7,21)          165.6304         calculate D2E/DX2 analytically  !
 ! D53   D(17,5,7,22)           44.9992         calculate D2E/DX2 analytically  !
 ! D54   D(17,5,7,23)          -74.0253         calculate D2E/DX2 analytically  !
 --------------------------------------------------------------------------------
 Trust Radius=3.00D-01 FncErr=1.00D-07 GrdErr=1.00D-06 EigMax=2.50D+02 EigMin=1.00D-04
 Number of steps in this run=    138 maximum allowed number of steps=    138.
 GradGradGradGradGradGradGradGradGradGradGradGradGradGradGradGradGradGrad

 Leave Link  103 at Sat Sep 28 18:17:27 2019, MaxMem=   671088640 cpu:               1.4 elap:               0.7
 (Enter /shared/centos7/gaussian/g16/l202.exe)
                          Input orientation:                          
 ---------------------------------------------------------------------
 Center     Atomic      Atomic             Coordinates (Angstroms)
 Number     Number       Type             X           Y           Z
 ---------------------------------------------------------------------
      1          6           0        1.385711   -1.073833    0.517356
      2          6           0        0.126373   -0.423397    0.978837
      3          6           0       -1.107397   -1.265973    0.771813
      4          6           0        2.167237   -0.457268   -0.593541
      5          6           0       -1.105580   -2.578496    1.519465
      6          6           0        1.695350    0.792898   -1.213215
      7          6           0       -0.925489   -2.456809    3.010332
      8          1           0        2.278269   -1.231333   -1.404485
      9          1           0        3.210034   -0.295678   -0.229925
     10          1           0        1.150406   -2.120313    0.229108
     11          1           0        2.060361   -1.179418    1.391623
     12          1           0       -0.034806    0.542558    0.475213
     13          1           0        0.207565   -0.175814    2.058358
     14          1           0       -1.225084   -1.474241   -0.305173
     15          1           0       -1.998815   -0.677847    1.072855
     16          1           0       -2.075867   -3.101290    1.312702
     17          1           0       -0.315233   -3.231517    1.111819
     18          1           0        0.721013    1.137147   -0.818196
     19          1           0        2.433733    1.633227   -1.051435
     20          1           0        1.578048    0.677300   -2.311563
     21          1           0       -1.512278   -1.637577    3.427603
     22          1           0        0.152512   -2.276643    3.277381
     23          1           0       -1.244871   -3.411075    3.519504
 ---------------------------------------------------------------------
                    Distance matrix (angstroms):
                    1          2          3          4          5
     1  C    0.000000
     2  C    1.490625   0.000000
     3  C    2.513415   1.508304   0.000000
     4  C    1.491652   2.576557   3.638876   0.000000
     5  C    3.078111   2.540558   1.510531   4.435734   0.000000
     6  C    2.564261   2.957389   4.004332   1.472952   5.165176
     7  C    3.670041   3.060744   2.542076   5.152768   1.506627
     8  H    2.124838   3.311138   4.024948   1.126559   4.670628
     9  H    2.119459   3.314571   4.537088   1.116134   5.186150
    10  H    1.110665   2.119023   2.474288   2.115755   2.639020
    11  H    1.109344   2.117137   3.228985   2.115136   3.463660
    12  H    2.152293   1.101220   2.123490   2.644027   3.460924
    13  H    2.137558   1.110520   2.138404   3.309395   2.790634
    14  H    2.766430   2.139951   1.103233   3.553200   2.136109
    15  H    3.452593   2.142431   1.109570   4.492384   2.147043
    16  H    4.089704   3.483164   2.144500   5.350564   1.121392
    17  H    2.811085   2.845740   2.146274   4.094798   1.103295
    18  H    2.667199   2.453206   3.412652   2.164299   4.754692
    19  H    3.299640   3.698056   4.926378   2.156584   6.072469
    20  H    3.332603   3.761068   4.527155   2.141492   5.699022
    21  H    4.145563   3.186827   2.712055   5.576877   2.166038
    22  H    3.253501   2.952712   2.981056   4.727925   2.182700
    23  H    4.625533   4.154698   3.488577   6.106111   2.170886
                    6          7          8          9         10
     6  C    0.000000
     7  C    5.938665   0.000000
     8  H    2.115158   5.590748   0.000000
     9  H    2.108584   5.680872   1.767266   0.000000
    10  H    3.296067   3.486800   2.175083   2.789637   0.000000
    11  H    3.287620   3.628670   2.805067   2.175354   1.750640
    12  H    2.430411   4.026953   3.468468   3.424741   2.925095
    13  H    3.722243   2.719009   4.170517   3.776960   2.831286
    14  H    3.807019   3.470990   3.679806   4.589657   2.519091
    15  H    4.586508   2.840872   4.973631   5.382880   3.565138
    16  H    5.980554   2.149575   5.462448   6.179960   3.541938
    17  H    5.064005   2.139378   4.130227   4.779847   2.040110
    18  H    1.106291   5.503191   2.894560   2.931600   3.448517
    19  H    1.130281   6.671636   2.890419   2.235665   4.168427
    20  H    1.110627   6.664301   2.226203   2.818383   3.803227
    21  H    6.142742   1.090678   6.154864   6.121964   4.189665
    22  H    5.654014   1.125104   5.247036   5.057060   3.211261
    23  H    6.979750   1.127778   6.435018   6.603794   4.269674
                   11         12         13         14         15
    11  H    0.000000
    12  H    2.862644   0.000000
    13  H    2.210115   1.755320   0.000000
    14  H    3.709472   2.468449   3.053633   0.000000
    15  H    4.102450   2.388283   2.468070   1.769707   0.000000
    16  H    4.561600   4.259688   3.785297   2.447169   2.436501
    17  H    3.151642   3.837649   3.241385   2.433868   3.058953
    18  H    3.470393   1.611739   3.203444   3.296943   3.777266
    19  H    3.744184   3.100629   4.230752   4.858005   5.431496
    20  H    4.170566   3.222666   4.658566   4.063531   5.107315
    21  H    4.137496   3.956327   2.639971   3.747369   2.588945
    22  H    2.898253   3.979337   2.429513   3.921264   3.470488
    23  H    4.520257   5.134509   3.835549   4.287175   3.745005
                   16         17         18         19         20
    16  H    0.000000
    17  H    1.776835   0.000000
    18  H    5.507050   4.887125   0.000000
    19  H    6.952789   5.991846   1.798307   0.000000
    20  H    6.384680   5.530182   1.782166   1.798309   0.000000
    21  H    2.633039   3.055555   5.541975   6.806684   6.917138
    22  H    3.083128   2.412515   5.361987   6.263362   6.480296
    23  H    2.378339   2.587163   6.585337   7.737609   7.660616
                   21         22         23
    21  H    0.000000
    22  H    1.789552   0.000000
    23  H    1.795898   1.816105   0.000000
 Stoichiometry    C7H16
 Framework group  C1[X(C7H16)]
 Deg. of freedom    63
 Full point group                 C1      NOp   1
 Largest Abelian subgroup         C1      NOp   1
 Largest concise Abelian subgroup C1      NOp   1
                         Standard orientation:                         
 ---------------------------------------------------------------------
 Center     Atomic      Atomic             Coordinates (Angstroms)
 Number     Number       Type             X           Y           Z
 ---------------------------------------------------------------------
      1          6           0       -0.748876   -0.776835    0.058008
      2          6           0       -0.050060    0.349028   -0.624671
      3          6           0        0.987252    1.032369    0.230905
      4          6           0       -2.217578   -0.689605    0.303634
      5          6           0        2.123896    0.141382    0.673495
      6          6           0       -2.963910    0.499511   -0.141989
      7          6           0        2.877542   -0.526113   -0.447394
      8          1           0       -2.387630   -0.817001    1.409974
      9          1           0       -2.694470   -1.591777   -0.148487
     10          1           0       -0.249665   -0.954317    1.034156
     11          1           0       -0.553712   -1.704564   -0.518076
     12          1           0       -0.762840    1.114607   -0.968937
     13          1           0        0.442868   -0.022100   -1.548003
     14          1           0        0.497343    1.449676    1.126989
     15          1           0        1.400384    1.897563   -0.327582
     16          1           0        2.840571    0.759699    1.274812
     17          1           0        1.738113   -0.631139    1.360259
     18          1           0       -2.317992    1.283250   -0.580648
     19          1           0       -3.734043    0.229268   -0.923910
     20          1           0       -3.514920    0.967112    0.701356
     21          1           0        3.063009    0.155606   -1.278321
     22          1           0        2.310412   -1.410488   -0.850016
     23          1           0        3.872986   -0.903821   -0.075491
 ---------------------------------------------------------------------
 Rotational constants (GHZ):           5.9767073           1.1079355           1.0524549
 Leave Link  202 at Sat Sep 28 18:17:29 2019, MaxMem=   671088640 cpu:               3.7 elap:               1.9
 (Enter /shared/centos7/gaussian/g16/l301.exe)
 Standard basis: CC-pVTZ (5D, 7F)
 Ernie: Thresh=  0.10000D-02 Tol=  0.10000D-05 Strict=F.
 Ernie:  21 primitive shells out of 310 were deleted.
 There are   485 symmetry adapted cartesian basis functions of A   symmetry.
 There are   434 symmetry adapted basis functions of A   symmetry.
   434 basis functions,   636 primitive gaussians,   485 cartesian basis functions
    29 alpha electrons       29 beta electrons
       nuclear repulsion energy       325.7065104387 Hartrees.
 IExCor= 4336 DFT=T Ex+Corr=M062X ExCW=0 ScaHFX=  0.540000
 ScaDFX=  1.000000  1.000000  1.000000  1.000000 ScalE2=  1.000000  1.000000
 IRadAn=      5 IRanWt=     -1 IRanGd=            0 ICorTp=0 IEmpDi=  4
 NAtoms=   23 NActive=   23 NUniq=   23 SFac= 1.00D+00 NAtFMM=   60 NAOKFM=F Big=F
 Integral buffers will be    131072 words long.
 Raffenetti 2 integral format.
 Two-electron integral symmetry is turned on.
 Leave Link  301 at Sat Sep 28 18:17:30 2019, MaxMem=   671088640 cpu:               1.6 elap:               0.8
 (Enter /shared/centos7/gaussian/g16/l302.exe)
 NPDir=0 NMtPBC=     1 NCelOv=     1 NCel=       1 NClECP=     1 NCelD=      1
         NCelK=      1 NCelE2=     1 NClLst=     1 CellRange=     0.0.
 One-electron integrals computed using PRISM.
 One-electron integral symmetry used in STVInt
 NBasis=   434 RedAO= T EigKep=  2.55D-04  NBF=   434
 NBsUse=   434 1.00D-06 EigRej= -1.00D+00 NBFU=   434
 Precomputing XC quadrature grid using
 IXCGrd= 4 IRadAn=           5 IRanWt=          -1 IRanGd=           0 AccXCQ= 0.00D+00.
 Generated NRdTot=       0 NPtTot=           0 NUsed=           0 NTot=          32
 NSgBfM=   485   485   485   485   485 MxSgAt=    23 MxSgA2=    23.
 Leave Link  302 at Sat Sep 28 18:18:37 2019, MaxMem=   671088640 cpu:             133.2 elap:              66.6
 (Enter /shared/centos7/gaussian/g16/l303.exe)
 DipDrv:  MaxL=1.
 Leave Link  303 at Sat Sep 28 18:18:42 2019, MaxMem=   671088640 cpu:              10.9 elap:               5.5
 (Enter /shared/centos7/gaussian/g16/l401.exe)
 ExpMin= 1.03D-01 ExpMax= 8.24D+03 ExpMxC= 2.81D+02 IAcc=3 IRadAn=         5 AccDes= 0.00D+00
 Harris functional with IExCor= 1009 and IRadAn=       5 diagonalized for initial guess.
 HarFok:  IExCor= 1009 AccDes= 0.00D+00 IRadAn=         5 IDoV= 1 UseB2=F ITyADJ=14
 ICtDFT=  3500011 ScaDFX=  1.000000  1.000000  1.000000  1.000000
 FoFCou: FMM=F IPFlag=           0 FMFlag=      100000 FMFlg1=           0
         NFxFlg=           0 DoJE=T BraDBF=F KetDBF=T FulRan=T
         wScrn=  0.000000 ICntrl=       500 IOpCl=  0 I1Cent=   200000004 NGrid=           0
         NMat0=    1 NMatS0=      1 NMatT0=    0 NMatD0=    1 NMtDS0=    0 NMtDT0=    0
 Petite list used in FoFCou.
 Harris En= -276.313782829298    
 JPrj=0 DoOrth=F DoCkMO=F.
 Leave Link  401 at Sat Sep 28 18:19:24 2019, MaxMem=   671088640 cpu:              83.4 elap:              41.7
 (Enter /shared/centos7/gaussian/g16/l502.exe)
 Integral symmetry usage will be decided dynamically.
 Closed shell SCF:
 Using DIIS extrapolation, IDIIS=  1040.
 NGot=   671088640 LenX=   670604095 LenY=   670368385
 Requested convergence on RMS density matrix=1.00D-08 within 900 cycles.
 Requested convergence on MAX density matrix=1.00D-06.
 Requested convergence on             energy=1.00D-06.
 No special actions if energy rises.
 Fock matrices will be formed incrementally for  20 cycles.
 Integral accuracy reduced to 1.0D-05 until final iterations.

 Cycle   1  Pass 0  IDiag  1:
 FoFJK:  IHMeth= 1 ICntrl=       0 DoSepK=F KAlg= 0 I1Cent=           0 FoldK=F
 IRaf= 930000000 NMat=       1 IRICut=       1 DoRegI=T DoRafI=F ISym2E= 0 IDoP0=0 IntGTp=1.
 FoFCou: FMM=F IPFlag=           0 FMFlag=      100000 FMFlg1=           0
         NFxFlg=           0 DoJE=F BraDBF=F KetDBF=F FulRan=T
         wScrn=  0.000000 ICntrl=         0 IOpCl=  0 I1Cent=           0 NGrid=           0
         NMat0=    1 NMatS0=      1 NMatT0=    0 NMatD0=    1 NMtDS0=    0 NMtDT0=    0
 Symmetry not used in FoFCou.
 E= -275.942116990366    
 DIIS: error= 2.40D-02 at cycle   1 NSaved=   1.
 NSaved= 1 IEnMin= 1 EnMin= -275.942116990366     IErMin= 1 ErrMin= 2.40D-02
 ErrMax= 2.40D-02  0.00D+00 EMaxC= 1.00D-01 BMatC= 3.75D-01 BMatP= 3.75D-01
 IDIUse=3 WtCom= 7.60D-01 WtEn= 2.40D-01
 Coeff-Com:  0.100D+01
 Coeff-En:   0.100D+01
 Coeff:      0.100D+01
 Gap=     0.350 Goal=   None    Shift=    0.000
 GapD=    0.350 DampG=1.000 DampE=0.500 DampFc=0.5000 IDamp=-1.
 Damping current iteration by 5.00D-01
 RMSDP=1.89D-03 MaxDP=6.25D-02              OVMax= 1.62D-01

 Cycle   2  Pass 0  IDiag  1:
 RMSU=  9.45D-04    CP:  9.90D-01
 E= -276.120176395773     Delta-E=       -0.178059405407 Rises=F Damp=T
 DIIS: error= 4.35D-03 at cycle   2 NSaved=   2.
 NSaved= 2 IEnMin= 2 EnMin= -276.120176395773     IErMin= 2 ErrMin= 4.35D-03
 ErrMax= 4.35D-03  0.00D+00 EMaxC= 1.00D-01 BMatC= 1.87D-02 BMatP= 3.75D-01
 IDIUse=3 WtCom= 9.57D-01 WtEn= 4.35D-02
 Coeff-Com: -0.497D-01 0.105D+01
 Coeff-En:   0.000D+00 0.100D+01
 Coeff:     -0.476D-01 0.105D+01
 Gap=     0.444 Goal=   None    Shift=    0.000
 RMSDP=5.46D-04 MaxDP=2.57D-02 DE=-1.78D-01 OVMax= 8.92D-02

 Cycle   3  Pass 0  IDiag  1:
 RMSU=  5.38D-04    CP:  9.98D-01  9.27D-01
 E= -276.299699078477     Delta-E=       -0.179522682704 Rises=F Damp=F
 DIIS: error= 2.66D-03 at cycle   3 NSaved=   3.
 NSaved= 3 IEnMin= 3 EnMin= -276.299699078477     IErMin= 3 ErrMin= 2.66D-03
 ErrMax= 2.66D-03  0.00D+00 EMaxC= 1.00D-01 BMatC= 2.55D-03 BMatP= 1.87D-02
 IDIUse=3 WtCom= 9.73D-01 WtEn= 2.66D-02
 Coeff-Com: -0.511D-01 0.235D+00 0.816D+00
 Coeff-En:   0.000D+00 0.000D+00 0.100D+01
 Coeff:     -0.498D-01 0.229D+00 0.821D+00
 Gap=     0.400 Goal=   None    Shift=    0.000
 RMSDP=9.33D-05 MaxDP=2.77D-03 DE=-1.80D-01 OVMax= 9.08D-03

 Cycle   4  Pass 0  IDiag  1:
 RMSU=  7.08D-05    CP:  9.97D-01  9.77D-01  9.31D-01
 E= -276.301949258677     Delta-E=       -0.002250180201 Rises=F Damp=F
 DIIS: error= 5.64D-04 at cycle   4 NSaved=   4.
 NSaved= 4 IEnMin= 4 EnMin= -276.301949258677     IErMin= 4 ErrMin= 5.64D-04
 ErrMax= 5.64D-04  0.00D+00 EMaxC= 1.00D-01 BMatC= 2.17D-04 BMatP= 2.55D-03
 IDIUse=3 WtCom= 9.94D-01 WtEn= 5.64D-03
 Coeff-Com: -0.127D-01 0.359D-01 0.263D+00 0.713D+00
 Coeff-En:   0.000D+00 0.000D+00 0.000D+00 0.100D+01
 Coeff:     -0.126D-01 0.357D-01 0.262D+00 0.715D+00
 Gap=     0.400 Goal=   None    Shift=    0.000
 RMSDP=3.14D-05 MaxDP=1.09D-03 DE=-2.25D-03 OVMax= 2.91D-03

 Cycle   5  Pass 0  IDiag  1:
 RMSU=  1.93D-05    CP:  9.97D-01  9.70D-01  9.65D-01  7.88D-01
 E= -276.302141797873     Delta-E=       -0.000192539196 Rises=F Damp=F
 DIIS: error= 1.65D-04 at cycle   5 NSaved=   5.
 NSaved= 5 IEnMin= 5 EnMin= -276.302141797873     IErMin= 5 ErrMin= 1.65D-04
 ErrMax= 1.65D-04  0.00D+00 EMaxC= 1.00D-01 BMatC= 2.15D-05 BMatP= 2.17D-04
 IDIUse=3 WtCom= 9.98D-01 WtEn= 1.65D-03
 Coeff-Com: -0.158D-02 0.774D-03 0.551D-01 0.288D+00 0.658D+00
 Coeff-En:   0.000D+00 0.000D+00 0.000D+00 0.000D+00 0.100D+01
 Coeff:     -0.158D-02 0.773D-03 0.550D-01 0.288D+00 0.658D+00
 Gap=     0.400 Goal=   None    Shift=    0.000
 RMSDP=6.88D-06 MaxDP=3.06D-04 DE=-1.93D-04 OVMax= 7.58D-04

 Initial convergence to 1.0D-05 achieved.  Increase integral accuracy.
 Cycle   6  Pass 1  IDiag  1:
 E= -276.302158596765     Delta-E=       -0.000016798892 Rises=F Damp=F
 DIIS: error= 3.62D-05 at cycle   1 NSaved=   1.
 NSaved= 1 IEnMin= 1 EnMin= -276.302158596765     IErMin= 1 ErrMin= 3.62D-05
 ErrMax= 3.62D-05  0.00D+00 EMaxC= 1.00D-01 BMatC= 1.38D-06 BMatP= 1.38D-06
 IDIUse=1 WtCom= 1.00D+00 WtEn= 0.00D+00
 Coeff-Com:  0.100D+01
 Coeff:      0.100D+01
 Gap=     0.400 Goal=   None    Shift=    0.000
 RMSDP=6.88D-06 MaxDP=3.06D-04 DE=-1.68D-05 OVMax= 2.38D-04

 Cycle   7  Pass 1  IDiag  1:
 RMSU=  1.08D-05    CP:  1.00D+00
 E= -276.302159280463     Delta-E=       -0.000000683699 Rises=F Damp=F
 DIIS: error= 1.60D-05 at cycle   2 NSaved=   2.
 NSaved= 2 IEnMin= 2 EnMin= -276.302159280463     IErMin= 2 ErrMin= 1.60D-05
 ErrMax= 1.60D-05  0.00D+00 EMaxC= 1.00D-01 BMatC= 2.32D-07 BMatP= 1.38D-06
 IDIUse=1 WtCom= 1.00D+00 WtEn= 0.00D+00
 Coeff-Com:  0.218D+00 0.782D+00
 Coeff:      0.218D+00 0.782D+00
 Gap=     0.400 Goal=   None    Shift=    0.000
 RMSDP=1.03D-06 MaxDP=5.22D-05 DE=-6.84D-07 OVMax= 1.14D-04

 Cycle   8  Pass 1  IDiag  1:
 RMSU=  1.02D-06    CP:  1.00D+00  1.01D+00
 E= -276.302159440063     Delta-E=       -0.000000159599 Rises=F Damp=F
 DIIS: error= 7.92D-06 at cycle   3 NSaved=   3.
 NSaved= 3 IEnMin= 3 EnMin= -276.302159440063     IErMin= 3 ErrMin= 7.92D-06
 ErrMax= 7.92D-06  0.00D+00 EMaxC= 1.00D-01 BMatC= 6.89D-08 BMatP= 2.32D-07
 IDIUse=1 WtCom= 1.00D+00 WtEn= 0.00D+00
 Coeff-Com: -0.839D-02 0.346D+00 0.663D+00
 Coeff:     -0.839D-02 0.346D+00 0.663D+00
 Gap=     0.400 Goal=   None    Shift=    0.000
 RMSDP=4.38D-07 MaxDP=1.75D-05 DE=-1.60D-07 OVMax= 4.60D-05

 Cycle   9  Pass 1  IDiag  1:
 RMSU=  3.00D-07    CP:  1.00D+00  1.03D+00  7.30D-01
 E= -276.302159505768     Delta-E=       -0.000000065705 Rises=F Damp=F
 DIIS: error= 1.28D-06 at cycle   4 NSaved=   4.
 NSaved= 4 IEnMin= 4 EnMin= -276.302159505768     IErMin= 4 ErrMin= 1.28D-06
 ErrMax= 1.28D-06  0.00D+00 EMaxC= 1.00D-01 BMatC= 9.26D-10 BMatP= 6.89D-08
 IDIUse=1 WtCom= 1.00D+00 WtEn= 0.00D+00
 Coeff-Com: -0.924D-02 0.725D-01 0.183D+00 0.753D+00
 Coeff:     -0.924D-02 0.725D-01 0.183D+00 0.753D+00
 Gap=     0.400 Goal=   None    Shift=    0.000
 RMSDP=6.47D-08 MaxDP=2.82D-06 DE=-6.57D-08 OVMax= 6.01D-06

 Cycle  10  Pass 1  IDiag  1:
 RMSU=  6.11D-08    CP:  1.00D+00  1.03D+00  7.44D-01  9.67D-01
 E= -276.302159506764     Delta-E=       -0.000000000996 Rises=F Damp=F
 DIIS: error= 4.29D-07 at cycle   5 NSaved=   5.
 NSaved= 5 IEnMin= 5 EnMin= -276.302159506764     IErMin= 5 ErrMin= 4.29D-07
 ErrMax= 4.29D-07  0.00D+00 EMaxC= 1.00D-01 BMatC= 4.45D-11 BMatP= 9.26D-10
 IDIUse=1 WtCom= 1.00D+00 WtEn= 0.00D+00
 Coeff-Com: -0.193D-03-0.211D-01-0.364D-01 0.764D-01 0.981D+00
 Coeff:     -0.193D-03-0.211D-01-0.364D-01 0.764D-01 0.981D+00
 Gap=     0.400 Goal=   None    Shift=    0.000
 RMSDP=3.09D-08 MaxDP=1.04D-06 DE=-9.96D-10 OVMax= 2.57D-06

 Cycle  11  Pass 1  IDiag  1:
 RMSU=  1.46D-08    CP:  1.00D+00  1.03D+00  7.48D-01  1.05D+00  1.09D+00
 E= -276.302159506830     Delta-E=       -0.000000000065 Rises=F Damp=F
 DIIS: error= 1.45D-07 at cycle   6 NSaved=   6.
 NSaved= 6 IEnMin= 6 EnMin= -276.302159506830     IErMin= 6 ErrMin= 1.45D-07
 ErrMax= 1.45D-07  0.00D+00 EMaxC= 1.00D-01 BMatC= 1.23D-11 BMatP= 4.45D-11
 IDIUse=1 WtCom= 1.00D+00 WtEn= 0.00D+00
 Coeff-Com:  0.402D-03-0.139D-01-0.273D-01-0.790D-02 0.453D+00 0.596D+00
 Coeff:      0.402D-03-0.139D-01-0.273D-01-0.790D-02 0.453D+00 0.596D+00
 Gap=     0.400 Goal=   None    Shift=    0.000
 RMSDP=5.43D-09 MaxDP=2.17D-07 DE=-6.55D-11 OVMax= 5.51D-07

 SCF Done:  E(RM062X) =  -276.302159507     A.U. after   11 cycles
            NFock= 11  Conv=0.54D-08     -V/T= 2.0065
 KE= 2.745142552346D+02 PE=-1.289867026496D+03 EE= 4.133441013160D+02
 Leave Link  502 at Sat Sep 28 18:34:04 2019, MaxMem=   671088640 cpu:            1759.9 elap:             880.1
 (Enter /shared/centos7/gaussian/g16/l801.exe)
 DoSCS=F DFT=T ScalE2(SS,OS)=  1.000000  1.000000
 Range of M.O.s used for correlation:     1   434
 NBasis=   434 NAE=    29 NBE=    29 NFC=     0 NFV=     0
 NROrb=    434 NOA=    29 NOB=    29 NVA=   405 NVB=   405

 **** Warning!!: The largest alpha MO coefficient is  0.10605200D+02

 Leave Link  801 at Sat Sep 28 18:34:05 2019, MaxMem=   671088640 cpu:               1.5 elap:               0.8
 (Enter /shared/centos7/gaussian/g16/l1101.exe)
 Using compressed storage, NAtomX=    23.
 Will process     24 centers per pass.
 Leave Link 1101 at Sat Sep 28 18:34:40 2019, MaxMem=   671088640 cpu:              70.1 elap:              35.1
 (Enter /shared/centos7/gaussian/g16/l1102.exe)
 Symmetrizing basis deriv contribution to polar:
 IMax=3 JMax=2 DiffMx= 0.00D+00
 Leave Link 1102 at Sat Sep 28 18:34:43 2019, MaxMem=   671088640 cpu:               5.4 elap:               2.7
 (Enter /shared/centos7/gaussian/g16/l1110.exe)
 Forming Gx(P) for the SCF density, NAtomX=    23.
 Integral derivatives from FoFJK, PRISM(SPDF).
 Do as many integral derivatives as possible in FoFJK.
 G2DrvN: MDV=     671086848.
 G2DrvN: will do    24 centers at a time, making    1 passes.
 Calling FoFCou, ICntrl=  3107 FMM=F I1Cent=   0 AccDes= 0.00D+00.
 FoFJK:  IHMeth= 1 ICntrl=    3107 DoSepK=F KAlg= 0 I1Cent=           0 FoldK=F
 IRaf=         0 NMat=       1 IRICut=       1 DoRegI=T DoRafI=F ISym2E= 0 IDoP0=0 IntGTp=1.
 FoFCou: FMM=F IPFlag=           0 FMFlag=      100000 FMFlg1=           0
         NFxFlg=           0 DoJE=F BraDBF=F KetDBF=F FulRan=T
         wScrn=  0.000000 ICntrl=      3107 IOpCl=  0 I1Cent=           0 NGrid=           0
         NMat0=    1 NMatS0=      1 NMatT0=    0 NMatD0=    1 NMtDS0=    0 NMtDT0=    0
 Symmetry not used in FoFCou.
 End of G2Drv F.D. properties file   721 does not exist.
 End of G2Drv F.D. properties file   722 does not exist.
 End of G2Drv F.D. properties file   788 does not exist.
 Leave Link 1110 at Sat Sep 28 19:13:47 2019, MaxMem=   671088640 cpu:            4687.6 elap:            2344.1
 (Enter /shared/centos7/gaussian/g16/l1002.exe)
 Minotr:  Closed shell wavefunction.
          IDoAtm=11111111111111111111111
          Direct CPHF calculation.
          Differentiating once with respect to nuclear coordinates.
          Requested convergence is 1.0D-08 RMS, and 1.0D-07 maximum.
          Secondary convergence is 1.0D-12 RMS, and 1.0D-12 maximum.
          NewPWx=T KeepS1=F KeepF1=F KeepIn=T MapXYZ=F SortEE=F KeepMc=T.
         6918 words used for storage of precomputed grid.
 Two-electron integrals replicated using symmetry.
          MDV=     671088640 using IRadAn=       1.
          Solving linear equations simultaneously, MaxMat=     380.
 FoF2E skips out because all densities are zero.
 CalDSu exits because no D1Ps are significant.
 FoFJK:  IHMeth= 1 ICntrl=       0 DoSepK=F KAlg= 0 I1Cent=           0 FoldK=F
 IRaf= 910000000 NMat=      69 IRICut=     172 DoRegI=T DoRafI=T ISym2E= 2 IDoP0=3 IntGTp=3.
 FoFCou: FMM=F IPFlag=           0 FMFlag=      100000 FMFlg1=           0
         NFxFlg=           0 DoJE=F BraDBF=F KetDBF=F FulRan=T
         wScrn=  0.000000 ICntrl=         0 IOpCl=  0 I1Cent=           0 NGrid=           0
         NMat0=   69 NMatS0=     69 NMatT0=    0 NMatD0=   69 NMtDS0=    0 NMtDT0=    0
 Integrals replicated using symmetry in FoFCou.
 Raff kept on since  87.25% of shell-pairs survive, threshold=   0.20 IRatSp=87.
          There are    72 degrees of freedom in the 1st order CPHF.  IDoFFX=6 NUNeed=     0.
     66 vectors produced by pass  0 Test12= 1.63D-14 1.39D-09 XBig12= 5.73D-02 3.51D-02.
 AX will form    66 AO Fock derivatives at one time.
     66 vectors produced by pass  1 Test12= 1.63D-14 1.39D-09 XBig12= 3.42D-03 7.45D-03.
     66 vectors produced by pass  2 Test12= 1.63D-14 1.39D-09 XBig12= 5.76D-05 1.17D-03.
     66 vectors produced by pass  3 Test12= 1.63D-14 1.39D-09 XBig12= 4.70D-07 8.95D-05.
     66 vectors produced by pass  4 Test12= 1.63D-14 1.39D-09 XBig12= 2.09D-09 5.29D-06.
     66 vectors produced by pass  5 Test12= 1.63D-14 1.39D-09 XBig12= 1.09D-11 3.71D-07.
     24 vectors produced by pass  6 Test12= 1.63D-14 1.39D-09 XBig12= 4.28D-14 1.66D-08.
 InvSVY:  IOpt=1 It=  1 EMax= 2.78D-16
 Solved reduced A of dimension   420 with    72 vectors.
 End of Minotr F.D. properties file   721 does not exist.
 End of Minotr F.D. properties file   722 does not exist.
 End of Minotr F.D. properties file   788 does not exist.
 Leave Link 1002 at Sat Sep 28 20:22:53 2019, MaxMem=   671088640 cpu:            8290.8 elap:            4145.8
 (Enter /shared/centos7/gaussian/g16/l601.exe)
 Copying SCF densities to generalized density rwf, IOpCl= 0 IROHF=0.

 **********************************************************************

            Population analysis using the SCF density.

 **********************************************************************

 Orbital symmetries:
       Occupied  (A) (A) (A) (A) (A) (A) (A) (A) (A) (A) (A) (A)
                 (A) (A) (A) (A) (A) (A) (A) (A) (A) (A) (A) (A)
                 (A) (A) (A) (A) (A)
       Virtual   (A) (A) (A) (A) (A) (A) (A) (A) (A) (A) (A) (A)
                 (A) (A) (A) (A) (A) (A) (A) (A) (A) (A) (A) (A)
                 (A) (A) (A) (A) (A) (A) (A) (A) (A) (A) (A) (A)
                 (A) (A) (A) (A) (A) (A) (A) (A) (A) (A) (A) (A)
                 (A) (A) (A) (A) (A) (A) (A) (A) (A) (A) (A) (A)
                 (A) (A) (A) (A) (A) (A) (A) (A) (A) (A) (A) (A)
                 (A) (A) (A) (A) (A) (A) (A) (A) (A) (A) (A) (A)
                 (A) (A) (A) (A) (A) (A) (A) (A) (A) (A) (A) (A)
                 (A) (A) (A) (A) (A) (A) (A) (A) (A) (A) (A) (A)
                 (A) (A) (A) (A) (A) (A) (A) (A) (A) (A) (A) (A)
                 (A) (A) (A) (A) (A) (A) (A) (A) (A) (A) (A) (A)
                 (A) (A) (A) (A) (A) (A) (A) (A) (A) (A) (A) (A)
                 (A) (A) (A) (A) (A) (A) (A) (A) (A) (A) (A) (A)
                 (A) (A) (A) (A) (A) (A) (A) (A) (A) (A) (A) (A)
                 (A) (A) (A) (A) (A) (A) (A) (A) (A) (A) (A) (A)
                 (A) (A) (A) (A) (A) (A) (A) (A) (A) (A) (A) (A)
                 (A) (A) (A) (A) (A) (A) (A) (A) (A) (A) (A) (A)
                 (A) (A) (A) (A) (A) (A) (A) (A) (A) (A) (A) (A)
                 (A) (A) (A) (A) (A) (A) (A) (A) (A) (A) (A) (A)
                 (A) (A) (A) (A) (A) (A) (A) (A) (A) (A) (A) (A)
                 (A) (A) (A) (A) (A) (A) (A) (A) (A) (A) (A) (A)
                 (A) (A) (A) (A) (A) (A) (A) (A) (A) (A) (A) (A)
                 (A) (A) (A) (A) (A) (A) (A) (A) (A) (A) (A) (A)
                 (A) (A) (A) (A) (A) (A) (A) (A) (A) (A) (A) (A)
                 (A) (A) (A) (A) (A) (A) (A) (A) (A) (A) (A) (A)
                 (A) (A) (A) (A) (A) (A) (A) (A) (A) (A) (A) (A)
                 (A) (A) (A) (A) (A) (A) (A) (A) (A) (A) (A) (A)
                 (A) (A) (A) (A) (A) (A) (A) (A) (A) (A) (A) (A)
                 (A) (A) (A) (A) (A) (A) (A) (A) (A) (A) (A) (A)
                 (A) (A) (A) (A) (A) (A) (A) (A) (A) (A) (A) (A)
                 (A) (A) (A) (A) (A) (A) (A) (A) (A) (A) (A) (A)
                 (A) (A) (A) (A) (A) (A) (A) (A) (A) (A) (A) (A)
                 (A) (A) (A) (A) (A) (A) (A) (A) (A) (A) (A) (A)
                 (A) (A) (A) (A) (A) (A) (A) (A) (A)
 The electronic state is 1-A.
 Alpha  occ. eigenvalues --  -10.52747 -10.52596 -10.52493 -10.52483 -10.52112
 Alpha  occ. eigenvalues --  -10.52083 -10.51981  -0.92184  -0.88134  -0.82228
 Alpha  occ. eigenvalues --   -0.76775  -0.71913  -0.65663  -0.60768  -0.55052
 Alpha  occ. eigenvalues --   -0.54603  -0.51399  -0.49433  -0.48348  -0.46495
 Alpha  occ. eigenvalues --   -0.44778  -0.42215  -0.41856  -0.40288  -0.39144
 Alpha  occ. eigenvalues --   -0.37743  -0.36932  -0.35923  -0.34256
 Alpha virt. eigenvalues --    0.05739   0.07757   0.08444   0.08688   0.10781
 Alpha virt. eigenvalues --    0.11690   0.12327   0.13843   0.14450   0.14859
 Alpha virt. eigenvalues --    0.16238   0.17690   0.18276   0.19272   0.20886
 Alpha virt. eigenvalues --    0.22064   0.22302   0.23056   0.25112   0.26268
 Alpha virt. eigenvalues --    0.27081   0.28524   0.29321   0.30371   0.31600
 Alpha virt. eigenvalues --    0.32474   0.33330   0.34448   0.36535   0.37564
 Alpha virt. eigenvalues --    0.39094   0.40429   0.41685   0.42121   0.43287
 Alpha virt. eigenvalues --    0.44187   0.44588   0.45569   0.46361   0.47901
 Alpha virt. eigenvalues --    0.48036   0.48940   0.50170   0.50513   0.51001
 Alpha virt. eigenvalues --    0.51182   0.52661   0.53221   0.53406   0.54277
 Alpha virt. eigenvalues --    0.54724   0.55359   0.55734   0.56303   0.56492
 Alpha virt. eigenvalues --    0.57435   0.59451   0.60902   0.61675   0.62323
 Alpha virt. eigenvalues --    0.64943   0.66331   0.71897   0.74074   0.77222
 Alpha virt. eigenvalues --    0.79006   0.80005   0.81104   0.83668   0.84798
 Alpha virt. eigenvalues --    0.86585   0.88699   0.89753   0.91917   0.92453
 Alpha virt. eigenvalues --    0.94418   0.95525   0.96285   0.97894   0.98819
 Alpha virt. eigenvalues --    0.99560   1.00943   1.03041   1.05025   1.05676
 Alpha virt. eigenvalues --    1.06473   1.07572   1.08075   1.08592   1.09626
 Alpha virt. eigenvalues --    1.10962   1.11317   1.12303   1.13051   1.13624
 Alpha virt. eigenvalues --    1.14926   1.16742   1.17732   1.18060   1.18950
 Alpha virt. eigenvalues --    1.19648   1.20133   1.21696   1.23156   1.23682
 Alpha virt. eigenvalues --    1.24675   1.25413   1.26476   1.27648   1.27966
 Alpha virt. eigenvalues --    1.29276   1.30497   1.32764   1.33262   1.33574
 Alpha virt. eigenvalues --    1.34168   1.35708   1.36359   1.37750   1.38236
 Alpha virt. eigenvalues --    1.39761   1.40989   1.42234   1.44331   1.45881
 Alpha virt. eigenvalues --    1.46325   1.47601   1.48699   1.49543   1.50234
 Alpha virt. eigenvalues --    1.51893   1.52391   1.54499   1.54941   1.56795
 Alpha virt. eigenvalues --    1.58200   1.60487   1.61417   1.62216   1.64381
 Alpha virt. eigenvalues --    1.65811   1.67094   1.70090   1.70649   1.71667
 Alpha virt. eigenvalues --    1.75161   1.80854   1.85169   1.98776   2.14159
 Alpha virt. eigenvalues --    2.23411   2.24099   2.28003   2.29297   2.31702
 Alpha virt. eigenvalues --    2.35935   2.37470   2.41322   2.42732   2.43634
 Alpha virt. eigenvalues --    2.45883   2.47098   2.48899   2.50472   2.51617
 Alpha virt. eigenvalues --    2.53316   2.57147   2.57484   2.58562   2.60580
 Alpha virt. eigenvalues --    2.62926   2.63645   2.64111   2.66199   2.67293
 Alpha virt. eigenvalues --    2.68886   2.69738   2.71543   2.72426   2.73277
 Alpha virt. eigenvalues --    2.73953   2.74467   2.75944   2.76986   2.78431
 Alpha virt. eigenvalues --    2.79854   2.82862   2.83917   2.84800   2.85302
 Alpha virt. eigenvalues --    2.86888   2.88037   2.88990   2.91290   2.92161
 Alpha virt. eigenvalues --    2.92991   2.93572   2.96286   2.97548   2.99770
 Alpha virt. eigenvalues --    3.00207   3.00972   3.01633   3.04745   3.04889
 Alpha virt. eigenvalues --    3.06214   3.06307   3.07740   3.08173   3.08662
 Alpha virt. eigenvalues --    3.09823   3.10659   3.10865   3.11837   3.12865
 Alpha virt. eigenvalues --    3.14223   3.15501   3.15700   3.16564   3.16946
 Alpha virt. eigenvalues --    3.18330   3.19356   3.20424   3.21787   3.23201
 Alpha virt. eigenvalues --    3.23700   3.26130   3.27147   3.29380   3.30138
 Alpha virt. eigenvalues --    3.30702   3.32942   3.33056   3.34333   3.35750
 Alpha virt. eigenvalues --    3.37031   3.38250   3.39121   3.39929   3.41783
 Alpha virt. eigenvalues --    3.43904   3.45470   3.46388   3.48295   3.48768
 Alpha virt. eigenvalues --    3.49072   3.49652   3.50973   3.52074   3.52847
 Alpha virt. eigenvalues --    3.54494   3.56813   3.58661   3.59976   3.61375
 Alpha virt. eigenvalues --    3.61855   3.63341   3.65210   3.66358   3.67153
 Alpha virt. eigenvalues --    3.68347   3.70561   3.71015   3.72830   3.73749
 Alpha virt. eigenvalues --    3.75024   3.75787   3.77618   3.78446   3.79002
 Alpha virt. eigenvalues --    3.79443   3.80691   3.82029   3.84511   3.85116
 Alpha virt. eigenvalues --    3.85881   3.86770   3.88099   3.88692   3.90824
 Alpha virt. eigenvalues --    3.91702   3.92067   3.94732   3.95241   3.96080
 Alpha virt. eigenvalues --    3.96752   3.98125   3.99187   4.00535   4.01274
 Alpha virt. eigenvalues --    4.02972   4.03623   4.04804   4.05328   4.05963
 Alpha virt. eigenvalues --    4.06737   4.08127   4.09140   4.09502   4.10475
 Alpha virt. eigenvalues --    4.11855   4.12684   4.14558   4.15677   4.16645
 Alpha virt. eigenvalues --    4.18419   4.19832   4.21443   4.22580   4.23950
 Alpha virt. eigenvalues --    4.25118   4.26781   4.28090   4.28569   4.30855
 Alpha virt. eigenvalues --    4.32439   4.33646   4.34531   4.35991   4.36774
 Alpha virt. eigenvalues --    4.39526   4.41405   4.43625   4.44258   4.44745
 Alpha virt. eigenvalues --    4.48962   4.50750   4.51900   4.53606   4.55103
 Alpha virt. eigenvalues --    4.55438   4.61709   4.62156   4.64631   4.66515
 Alpha virt. eigenvalues --    4.68637   4.70928   4.71744   4.73281   4.74834
 Alpha virt. eigenvalues --    4.78101   4.78640   4.79100   4.80833   4.83546
 Alpha virt. eigenvalues --    4.84720   4.85551   4.87044   4.88184   4.90722
 Alpha virt. eigenvalues --    4.92449   4.94361   4.96565   4.98600   5.01788
 Alpha virt. eigenvalues --    5.03504   5.04467   5.05330   5.06869   5.09397
 Alpha virt. eigenvalues --    5.11629   5.12426   5.13555   5.16877   5.18591
 Alpha virt. eigenvalues --    5.19830   5.22548   5.23324   5.24545   5.25551
 Alpha virt. eigenvalues --    5.27320   5.29076   5.29301   5.30516   5.35261
 Alpha virt. eigenvalues --    5.37356   5.39032   5.41463   5.43777   5.45840
 Alpha virt. eigenvalues --    5.49514   5.50316   5.54411   5.55259   5.58230
 Alpha virt. eigenvalues --    5.61708   5.64588   5.68429   5.74110   5.80084
 Alpha virt. eigenvalues --    5.82818   5.83577   5.84282   5.87259   5.94297
 Alpha virt. eigenvalues --    5.98846   6.03203   6.07738  11.01608  12.20126
 Alpha virt. eigenvalues --   12.56238  12.88685  13.20082  13.29506  14.14728
          Condensed to atoms (all electrons):
               1          2          3          4          5          6
     1  C    5.132402   0.276207  -0.052202   0.292037  -0.005184  -0.042204
     2  C    0.276207   5.229549   0.290314  -0.039209  -0.045983  -0.032282
     3  C   -0.052202   0.290314   5.091760   0.006395   0.320068   0.000053
     4  C    0.292037  -0.039209   0.006395   5.026786  -0.000705   0.285672
     5  C   -0.005184  -0.045983   0.320068  -0.000705   5.070209  -0.000090
     6  C   -0.042204  -0.032282   0.000053   0.285672  -0.000090   4.996494
     7  C   -0.002575   0.002487  -0.054080   0.000235   0.297080  -0.000003
     8  H   -0.054503   0.006764  -0.000369   0.425053   0.000216  -0.050084
     9  H   -0.051151   0.005145  -0.000509   0.424061  -0.000020  -0.046750
    10  H    0.424227  -0.064991  -0.006175  -0.045782  -0.003155   0.005986
    11  H    0.411288  -0.044545   0.006060  -0.037617   0.000609   0.005795
    12  H   -0.041400   0.422629  -0.046005  -0.010805   0.008659  -0.014928
    13  H   -0.050831   0.408646  -0.035369   0.006370  -0.012736   0.001468
    14  H   -0.002588  -0.044976   0.418768   0.000410  -0.051947   0.000835
    15  H    0.010401  -0.054410   0.419124  -0.000570  -0.040831  -0.000005
    16  H    0.000126   0.009558  -0.048792   0.000025   0.415874   0.000010
    17  H   -0.000156  -0.009725  -0.035267   0.000273   0.406087  -0.000038
    18  H   -0.008774  -0.009208  -0.001004  -0.049326  -0.000057   0.409949
    19  H    0.005930   0.000410   0.000095  -0.047812  -0.000001   0.408402
    20  H    0.006759   0.000767   0.000016  -0.047619   0.000003   0.408262
    21  H    0.000686  -0.006375   0.005121  -0.000010  -0.052366  -0.000001
    22  H    0.000631   0.004794  -0.007027   0.000105  -0.037765   0.000005
    23  H   -0.000095  -0.000104   0.008032  -0.000001  -0.039322   0.000000
               7          8          9         10         11         12
     1  C   -0.002575  -0.054503  -0.051151   0.424227   0.411288  -0.041400
     2  C    0.002487   0.006764   0.005145  -0.064991  -0.044545   0.422629
     3  C   -0.054080  -0.000369  -0.000509  -0.006175   0.006060  -0.046005
     4  C    0.000235   0.425053   0.424061  -0.045782  -0.037617  -0.010805
     5  C    0.297080   0.000216  -0.000020  -0.003155   0.000609   0.008659
     6  C   -0.000003  -0.050084  -0.046750   0.005986   0.005795  -0.014928
     7  C    4.987853  -0.000018   0.000003   0.000170  -0.000694  -0.000472
     8  H   -0.000018   0.637744  -0.043578  -0.021901   0.007784   0.000501
     9  H    0.000003  -0.043578   0.629222   0.007460  -0.022518   0.000087
    10  H    0.000170  -0.021901   0.007460   0.610344  -0.043772   0.005669
    11  H   -0.000694   0.007784  -0.022518  -0.043772   0.607239   0.005510
    12  H   -0.000472   0.000501   0.000087   0.005669   0.005510   0.560513
    13  H    0.005904  -0.000571   0.000203   0.006775  -0.021053  -0.032516
    14  H    0.009295  -0.000161   0.000017   0.000709  -0.000195  -0.008658
    15  H   -0.005597   0.000019   0.000034   0.000590  -0.000573  -0.006813
    16  H   -0.040864  -0.000006   0.000001  -0.000209   0.000063  -0.000340
    17  H   -0.043967   0.000037  -0.000004  -0.000909  -0.000811  -0.000452
    18  H    0.000003   0.004982   0.006240   0.000312   0.000202  -0.001653
    19  H    0.000000   0.008109  -0.021872  -0.000556   0.000261   0.000059
    20  H    0.000000  -0.021460   0.006828   0.000135  -0.000563   0.000249
    21  H    0.405923   0.000001  -0.000000  -0.000096   0.000031  -0.000364
    22  H    0.398027   0.000006  -0.000007  -0.000603   0.001008   0.000299
    23  H    0.406305  -0.000000  -0.000000   0.000102  -0.000039   0.000030
              13         14         15         16         17         18
     1  C   -0.050831  -0.002588   0.010401   0.000126  -0.000156  -0.008774
     2  C    0.408646  -0.044976  -0.054410   0.009558  -0.009725  -0.009208
     3  C   -0.035369   0.418768   0.419124  -0.048792  -0.035267  -0.001004
     4  C    0.006370   0.000410  -0.000570   0.000025   0.000273  -0.049326
     5  C   -0.012736  -0.051947  -0.040831   0.415874   0.406087  -0.000057
     6  C    0.001468   0.000835  -0.000005   0.000010  -0.000038   0.409949
     7  C    0.005904   0.009295  -0.005597  -0.040864  -0.043967   0.000003
     8  H   -0.000571  -0.000161   0.000019  -0.000006   0.000037   0.004982
     9  H    0.000203   0.000017   0.000034   0.000001  -0.000004   0.006240
    10  H    0.006775   0.000709   0.000590  -0.000209  -0.000909   0.000312
    11  H   -0.021053  -0.000195  -0.000573   0.000063  -0.000811   0.000202
    12  H   -0.032516  -0.008658  -0.006813  -0.000340  -0.000452  -0.001653
    13  H    0.579164   0.008265  -0.004823  -0.000138   0.000559   0.000603
    14  H    0.008265   0.572216  -0.026637  -0.005677  -0.005787   0.000584
    15  H   -0.004823  -0.026637   0.573571  -0.007894   0.007611   0.000258
    16  H   -0.000138  -0.005677  -0.007894   0.597791  -0.034503   0.000009
    17  H    0.000559  -0.005787   0.007611  -0.034503   0.588369   0.000003
    18  H    0.000603   0.000584   0.000258   0.000009   0.000003   0.609330
    19  H   -0.000085  -0.000010  -0.000006  -0.000000   0.000001  -0.035395
    20  H    0.000005   0.000011   0.000004  -0.000001   0.000003  -0.036120
    21  H    0.001006   0.000185   0.002910  -0.002004   0.007951   0.000002
    22  H   -0.006099  -0.000576  -0.000009   0.007999  -0.010841   0.000002
    23  H    0.000134  -0.000376  -0.000070  -0.011878  -0.001264  -0.000000
              19         20         21         22         23
     1  C    0.005930   0.006759   0.000686   0.000631  -0.000095
     2  C    0.000410   0.000767  -0.006375   0.004794  -0.000104
     3  C    0.000095   0.000016   0.005121  -0.007027   0.008032
     4  C   -0.047812  -0.047619  -0.000010   0.000105  -0.000001
     5  C   -0.000001   0.000003  -0.052366  -0.037765  -0.039322
     6  C    0.408402   0.408262  -0.000001   0.000005   0.000000
     7  C    0.000000   0.000000   0.405923   0.398027   0.406305
     8  H    0.008109  -0.021460   0.000001   0.000006  -0.000000
     9  H   -0.021872   0.006828  -0.000000  -0.000007  -0.000000
    10  H   -0.000556   0.000135  -0.000096  -0.000603   0.000102
    11  H    0.000261  -0.000563   0.000031   0.001008  -0.000039
    12  H    0.000059   0.000249  -0.000364   0.000299   0.000030
    13  H   -0.000085   0.000005   0.001006  -0.006099   0.000134
    14  H   -0.000010   0.000011   0.000185  -0.000576  -0.000376
    15  H   -0.000006   0.000004   0.002910  -0.000009  -0.000070
    16  H   -0.000000  -0.000001  -0.002004   0.007999  -0.011878
    17  H    0.000001   0.000003   0.007951  -0.010841  -0.001264
    18  H   -0.035395  -0.036120   0.000002   0.000002  -0.000000
    19  H    0.616615  -0.033869   0.000000  -0.000000  -0.000000
    20  H   -0.033869   0.609933  -0.000000  -0.000000   0.000000
    21  H    0.000000  -0.000000   0.581259  -0.040898  -0.028896
    22  H   -0.000000  -0.000000  -0.040898   0.609636  -0.029077
    23  H   -0.000000   0.000000  -0.028896  -0.029077   0.586368
 Mulliken charges:
               1
     1  C   -0.249032
     2  C   -0.305463
     3  C   -0.279008
     4  C   -0.187966
     5  C   -0.228642
     6  C   -0.336546
     7  C   -0.365017
     8  H    0.101435
     9  H    0.107108
    10  H    0.125672
    11  H    0.126530
    12  H    0.160201
    13  H    0.145119
    14  H    0.136294
    15  H    0.133717
    16  H    0.120852
    17  H    0.132831
    18  H    0.109058
    19  H    0.099725
    20  H    0.106656
    21  H    0.125935
    22  H    0.110389
    23  H    0.110152
 Sum of Mulliken charges =  -0.00000
 Mulliken charges with hydrogens summed into heavy atoms:
               1
     1  C    0.003170
     2  C   -0.000144
     3  C   -0.008997
     4  C    0.020577
     5  C    0.025041
     6  C   -0.021107
     7  C   -0.018540
 APT charges:
               1
     1  C   -0.478172
     2  C   -0.569433
     3  C   -0.755218
     4  C   -0.839794
     5  C   -0.655167
     6  C   -1.248817
     7  C   -1.229423
     8  H    0.360264
     9  H    0.444673
    10  H    0.273742
    11  H    0.350059
    12  H    0.381324
    13  H    0.343501
    14  H    0.305280
    15  H    0.417631
    16  H    0.502202
    17  H    0.235173
    18  H    0.112939
    19  H    0.501966
    20  H    0.446548
    21  H    0.333691
    22  H    0.169545
    23  H    0.597486
 Sum of APT charges =  -0.00000
 APT charges with hydrogens summed into heavy atoms:
               1
     1  C    0.145629
     2  C    0.155392
     3  C   -0.032307
     4  C   -0.034858
     5  C    0.082208
     6  C   -0.187364
     7  C   -0.128701
 Electronic spatial extent (au):  <R**2>=           1242.2795
 Charge=             -0.0000 electrons
 Dipole moment (field-independent basis, Debye):
    X=              0.0035    Y=             -0.0210    Z=              0.0539  Tot=              0.0579
 Quadrupole moment (field-independent basis, Debye-Ang):
   XX=            -49.7244   YY=            -49.1733   ZZ=            -48.7874
   XY=              0.5652   XZ=              0.1311   YZ=              0.1859
 Traceless Quadrupole moment (field-independent basis, Debye-Ang):
   XX=             -0.4960   YY=              0.0551   ZZ=              0.4410
   XY=              0.5652   XZ=              0.1311   YZ=              0.1859
 Octapole moment (field-independent basis, Debye-Ang**2):
  XXX=              2.9561  YYY=             -0.1990  ZZZ=              1.3117  XYY=              0.1889
  XXY=             -0.1360  XXZ=              1.0877  XZZ=             -1.4809  YZZ=              0.0099
  YYZ=             -1.1947  XYZ=             -1.9167
 Hexadecapole moment (field-independent basis, Debye-Ang**3):
 XXXX=          -1368.2700 YYYY=           -242.1814 ZZZZ=           -167.3773 XXXY=              8.7910
 XXXZ=              9.1798 YYYX=              3.5097 YYYZ=              0.9148 ZZZX=             -3.1254
 ZZZY=              0.0270 XXYY=           -270.1150 XXZZ=           -252.3019 YYZZ=            -66.7658
 XXYZ=              2.5915 YYXZ=              1.4688 ZZXY=              1.7751
 N-N= 3.257065104387D+02 E-N=-1.289866965861D+03  KE= 2.745142552346D+02
  Exact polarizability:   0.000   0.000   0.000   0.000   0.000   0.000
 Approx polarizability:  99.107   0.458  97.014   0.185   0.274  97.872
 No NMR shielding tensors so no spin-rotation constants.
 Leave Link  601 at Sat Sep 28 20:23:17 2019, MaxMem=   671088640 cpu:              48.4 elap:              24.2
 (Enter /shared/centos7/gaussian/g16/l701.exe)
 SCFChk:  SCF convergence  5.43D-09 required  1.00D-08
 ... and contract with generalized density number  0.
 Compute integral second derivatives.
 Entering OneElI...
 Calculate overlap and kinetic energy integrals
    NBasis = 485  MinDer = 2  MaxDer = 2
 Requested accuracy = 0.1000D-12
 PrmmSu-InSpLW:  IPartL=    0 NPrtUS=   20 NPrtUL=    1 DoSpLW=F IThBeg=    0 IThEnd=   19 NThAct=   20.
 PrsmSu:  NPrtUS=  20 ThrOK=T IAlg=1 NPAlg=1 LenDen=           0 ISkipM=0 DoSpLW=F IThBeg=    0 IThEnd=   19.
 Prism:   IPart=     0 DynPar=F LinDyn=F Incr=           6.
 PRISM was handed    33203818 working-precision words and 13562 shell-pairs
 PRISM was handed    33203818 working-precision words and 13562 shell-pairs
 PRISM was handed    33203818 working-precision words and 13562 shell-pairs
 PRISM was handed    33203818 working-precision words and 13562 shell-pairs
 PRISM was handed    33203818 working-precision words and 13562 shell-pairs
 PRISM was handed    33203818 working-precision words and 13562 shell-pairs
 PRISM was handed    33203818 working-precision words and 13562 shell-pairs
 PRISM was handed    33203818 working-precision words and 13562 shell-pairs
 PRISM was handed    33203818 working-precision words and 13562 shell-pairs
 IPart=  0 NShTot=         714 NBatch=          81 AvBLen=         8.8
 IPart= 16 NShTot=         658 NBatch=          52 AvBLen=        12.7
 PRISM was handed    33203818 working-precision words and 13562 shell-pairs
 PRISM was handed    33203818 working-precision words and 13562 shell-pairs
 PRISM was handed    33203818 working-precision words and 13562 shell-pairs
 PRISM was handed    33203818 working-precision words and 13562 shell-pairs
 PRISM was handed    33203818 working-precision words and 13562 shell-pairs
 PRISM was handed    33203818 working-precision words and 13562 shell-pairs
 IPart=  6 NShTot=         692 NBatch=          67 AvBLen=        10.3
 IPart=  2 NShTot=         704 NBatch=          74 AvBLen=         9.5
 IPart=  8 NShTot=         678 NBatch=          59 AvBLen=        11.5
 PRISM was handed    33203818 working-precision words and 13562 shell-pairs
 PRISM was handed    33203818 working-precision words and 13562 shell-pairs
 PRISM was handed    33203818 working-precision words and 13562 shell-pairs
 IPart=  3 NShTot=         699 NBatch=          70 AvBLen=        10.0
 PRISM was handed    33203818 working-precision words and 13562 shell-pairs
 PRISM was handed    33203818 working-precision words and 13562 shell-pairs
 IPart= 18 NShTot=         654 NBatch=          50 AvBLen=        13.1
 IPart= 14 NShTot=         662 NBatch=          52 AvBLen=        12.7
 IPart= 13 NShTot=         665 NBatch=          52 AvBLen=        12.8
 IPart= 10 NShTot=         671 NBatch=          55 AvBLen=        12.2
 IPart=  9 NShTot=         676 NBatch=          59 AvBLen=        11.5
 IPart=  5 NShTot=         696 NBatch=          69 AvBLen=        10.1
 IPart= 12 NShTot=         667 NBatch=          53 AvBLen=        12.6
 IPart= 19 NShTot=         650 NBatch=          48 AvBLen=        13.5
 IPart= 17 NShTot=         658 NBatch=          52 AvBLen=        12.7
 IPart= 11 NShTot=         671 NBatch=          55 AvBLen=        12.2
 IPart=  4 NShTot=         697 NBatch=          69 AvBLen=        10.1
 IPart= 15 NShTot=         660 NBatch=          52 AvBLen=        12.7
 IPart=  7 NShTot=         681 NBatch=          60 AvBLen=        11.4
 IPart=  1 NShTot=         709 NBatch=          77 AvBLen=         9.2
 PrSmSu:  NxtVal=            121.
 Entering OneElI...
 Calculate potential energy integrals
    NBasis = 485  MinDer = 2  MaxDer = 2
 Requested accuracy = 0.1000D-12
 PrmmSu-InSpLW:  IPartL=    0 NPrtUS=   20 NPrtUL=    1 DoSpLW=F IThBeg=    0 IThEnd=   19 NThAct=   20.
 PrsmSu:  NPrtUS=  20 ThrOK=T IAlg=1 NPAlg=1 LenDen=           0 ISkipM=0 DoSpLW=F IThBeg=    0 IThEnd=   19.
 Prism:   IPart=     0 DynPar=F LinDyn=F Incr=         138.
 PRISM was handed    33268543 working-precision words and 12083 shell-pairs
 PRISM was handed    33268543 working-precision words and 12083 shell-pairs
 PRISM was handed    33268543 working-precision words and 12083 shell-pairs
 PRISM was handed    33268543 working-precision words and 12083 shell-pairs
 PRISM was handed    33268543 working-precision words and 12083 shell-pairs
 PRISM was handed    33268543 working-precision words and 12083 shell-pairs
 PRISM was handed    33268543 working-precision words and 12083 shell-pairs
 PRISM was handed    33268543 working-precision words and 12083 shell-pairs
 PRISM was handed    33268543 working-precision words and 12083 shell-pairs
 PRISM was handed    33268543 working-precision words and 12083 shell-pairs
 PRISM was handed    33268543 working-precision words and 12083 shell-pairs
 PRISM was handed    33268543 working-precision words and 12083 shell-pairs
 PRISM was handed    33268543 working-precision words and 12083 shell-pairs
 PRISM was handed    33268543 working-precision words and 12083 shell-pairs
 PRISM was handed    33268543 working-precision words and 12083 shell-pairs
 PRISM was handed    33268543 working-precision words and 12083 shell-pairs
 PRISM was handed    33268543 working-precision words and 12083 shell-pairs
 PRISM was handed    33268543 working-precision words and 12083 shell-pairs
 PRISM was handed    33268543 working-precision words and 12083 shell-pairs
 PRISM was handed    33268543 working-precision words and 12083 shell-pairs
 IPart=  5 NShTot=       14260 NBatch=         621 AvBLen=        23.0
 IPart= 14 NShTot=       13639 NBatch=         594 AvBLen=        23.0
 IPart=  6 NShTot=       14076 NBatch=         613 AvBLen=        23.0
 IPart= 12 NShTot=       13708 NBatch=         597 AvBLen=        23.0
 IPart=  0 NShTot=       14559 NBatch=         635 AvBLen=        22.9
 IPart=  2 NShTot=       14467 NBatch=         631 AvBLen=        22.9
 IPart=  8 NShTot=       13892 NBatch=         605 AvBLen=        23.0
 IPart= 10 NShTot=       13800 NBatch=         601 AvBLen=        23.0
 IPart= 17 NShTot=       13363 NBatch=         582 AvBLen=        23.0
 IPart= 11 NShTot=       13800 NBatch=         601 AvBLen=        23.0
 IPart=  4 NShTot=       14306 NBatch=         624 AvBLen=        22.9
 IPart= 13 NShTot=       13685 NBatch=         596 AvBLen=        23.0
 IPart= 15 NShTot=       13593 NBatch=         592 AvBLen=        23.0
 IPart= 18 NShTot=       13317 NBatch=         580 AvBLen=        23.0
 IPart= 16 NShTot=       13432 NBatch=         585 AvBLen=        23.0
 IPart=  3 NShTot=       14444 NBatch=         630 AvBLen=        22.9
 IPart=  1 NShTot=       14490 NBatch=         632 AvBLen=        22.9
 IPart=  9 NShTot=       13869 NBatch=         604 AvBLen=        23.0
 IPart=  7 NShTot=       13938 NBatch=         607 AvBLen=        23.0
 IPart= 19 NShTot=       13271 NBatch=         578 AvBLen=        23.0
 PrSmSu:  NxtVal=           2761.
 Polarizability after L701:
                1             2             3 
      1  0.000000D+00
      2  0.000000D+00  0.000000D+00
      3  0.000000D+00  0.000000D+00  0.000000D+00
 Dipole Derivatives after L701:
                 1             2             3             4             5 
      1   0.205873D+00 -0.159364D+00 -0.108784D+00 -0.402395D+00  0.386604D+00
      2   0.486334D+00 -0.964687D+00 -0.330015D-01  0.410915D+00 -0.365855D+00
      3  -0.294894D+00 -0.174727D+00 -0.675701D+00  0.371038D-01  0.566010D-01
                 6             7             8             9            10 
      1   0.487136D-01 -0.341035D+00 -0.714941D+00  0.222736D+00 -0.910027D+00
      2   0.139432D+00 -0.118755D+00 -0.125724D+01 -0.142527D+00 -0.606930D+00
      3  -0.940048D+00  0.438964D+00 -0.101395D+00 -0.667384D+00  0.165274D+00
                11            12            13            14            15 
      1  -0.169360D+01  0.862550D+00 -0.679001D+00 -0.204109D+00 -0.150783D+01
      2  -0.746438D+00  0.691874D-01 -0.397504D+00 -0.486682D+00  0.410322D-01
      3  -0.516077D-03 -0.862917D+00 -0.266641D+00  0.186768D+00 -0.799817D+00
                16            17            18            19            20 
      1  -0.197226D+01  0.148956D+01 -0.580317D+00 -0.176551D+01  0.673117D+00
      2   0.456733D-01 -0.857961D+00 -0.682958D-01  0.465990D-01 -0.103015D+01
      3  -0.256213D-01 -0.874722D-01 -0.916226D+00 -0.528602D-01  0.424144D-01
                21            22            23            24            25 
      1   0.110874D+01  0.280798D+00  0.616286D-01 -0.802831D+00  0.566618D+00
      2  -0.586260D-01  0.137257D-01  0.150331D+00 -0.262885D+00  0.223675D+00
      3  -0.892611D+00 -0.634446D-01 -0.371007D-01  0.649663D+00  0.424637D-01
                26            27            28            29            30 
      1   0.736769D+00  0.406514D+00  0.129846D+00  0.373891D-01 -0.728073D-01
      2   0.596274D+00  0.261953D+00 -0.128062D+00  0.179632D+00 -0.278738D+00
      3   0.736754D-01  0.171127D+00  0.160688D+00 -0.600483D-01  0.511749D+00
                31            32            33            34            35 
      1   0.133093D+00  0.194120D+00  0.839061D-01  0.428271D+00 -0.217051D+00
      2  -0.694403D-01  0.651218D+00  0.331344D+00 -0.306850D+00  0.470692D+00
      3  -0.439290D-01  0.182395D+00  0.265866D+00  0.261426D+00 -0.263655D+00
                36            37            38            39            40 
      1   0.746408D-01  0.231944D+00 -0.618416D-01 -0.146614D+00  0.834204D-01
      2  -0.106472D+00  0.790792D-03  0.204273D+00  0.204435D-01 -0.244676D+00
      3   0.245009D+00 -0.272127D+00  0.247145D+00  0.594286D+00 -0.186605D+00
                41            42            43            44            45 
      1   0.543916D-01  0.135762D+00  0.359724D+00  0.406658D+00 -0.244759D+00
      2   0.324277D+00  0.428485D+00  0.283780D+00  0.678740D+00 -0.368664D+00
      3   0.157799D+00  0.508142D+00 -0.375308D-01 -0.118944D+00  0.214430D+00
                46            47            48            49            50 
      1   0.834011D+00  0.541154D+00  0.545174D+00 -0.699618D-01 -0.429990D+00
      2   0.180705D+00  0.307325D+00  0.160922D+00  0.103265D+00  0.341536D+00
      3   0.299606D+00  0.257789D+00  0.365269D+00 -0.206993D+00 -0.359286D+00
                51            52            53            54            55 
      1   0.339580D+00 -0.301231D+00 -0.557421D+00  0.311759D+00  0.102588D+01
      2  -0.141206D+00  0.309455D+00  0.452404D+00 -0.213856D+00 -0.415752D-01
      3   0.433945D+00 -0.158647D+00 -0.170459D+00  0.187644D+00  0.267415D+00
                56            57            58            59            60 
      1   0.399423D+00  0.946582D+00  0.697674D+00 -0.522319D+00 -0.987631D+00
      2   0.132550D+00 -0.258145D-01 -0.188316D+00  0.250341D+00  0.263867D+00
      3   0.124322D+00  0.347468D+00 -0.145294D+00  0.990835D-01  0.391628D+00
                61            62            63            64            65 
      1   0.272242D+00  0.588645D+00 -0.875041D+00 -0.262091D+00 -0.542834D+00
      2   0.238438D-01  0.219061D+00 -0.962939D-01  0.301017D+00  0.535227D+00
      3  -0.792009D-01 -0.295725D+00  0.509771D+00  0.157114D+00  0.229166D+00
                66            67            68            69 
      1  -0.306759D+00  0.145412D+01 -0.465989D+00  0.546711D+00
      2   0.197271D+00 -0.327670D+00  0.215127D+00 -0.117557D+00
      3   0.235499D+00  0.373200D-02  0.121706D-01  0.123210D+00
 Hessian after L701:
                1             2             3             4             5 
      1  0.147898D+02
      2 -0.509483D+00  0.168238D+02
      3  0.194027D+00  0.257884D+00  0.178986D+02
      4 -0.516298D+01  0.159695D+01 -0.943858D+00  0.151604D+02
      5  0.162733D+01 -0.402488D+01 -0.117048D+01 -0.865172D+00  0.174202D+02
      6 -0.960802D+00 -0.116865D+01 -0.544228D+01 -0.321919D+00  0.161198D+00
      7  0.184541D+00  0.269011D+00  0.267220D-01 -0.410378D+01  0.124161D+01
      8  0.280579D+00  0.215635D+00 -0.365381D-03  0.122452D+01 -0.536991D+01
      9 -0.507216D-01 -0.615935D-01 -0.108733D+00  0.159136D+01  0.989939D+00
     10 -0.229036D+01 -0.200004D+00 -0.596111D+00  0.243320D+00  0.139462D+00
     11 -0.280730D+00 -0.594972D+01  0.167844D+00  0.155795D+00 -0.187211D-01
     12 -0.529063D+00  0.152617D+00 -0.568802D+01 -0.179681D+00 -0.110231D+00
     13  0.229044D+00  0.659987D-01  0.163232D+00  0.412504D+00 -0.281210D-01
     14  0.154487D+00 -0.148858D+00  0.570704D-01 -0.248678D-01 -0.853851D-01
     15  0.457583D-01  0.193104D-01 -0.156115D+00  0.206373D+00  0.230287D-02
     16  0.202964D+00 -0.220819D+00  0.417779D-01  0.986956D-01 -0.654696D-01
     17 -0.186710D+00  0.320935D-01 -0.618367D-01  0.866399D-01 -0.938549D-01
     18  0.182878D-01 -0.517147D-01 -0.134269D+00 -0.594120D-01  0.762252D-02
     19  0.189879D+00 -0.241593D-01 -0.487958D-01  0.264216D+00 -0.182752D+00
     20  0.582677D-01 -0.129642D+00 -0.575024D-02 -0.158366D+00 -0.160139D+00
     21 -0.286192D-01 -0.811251D-02 -0.112801D+00  0.114809D+00 -0.259312D-01
     22 -0.101636D+00 -0.982099D-02  0.118127D+00  0.520280D-01  0.404975D-01
     23 -0.265668D-01  0.133238D+00  0.139866D-01  0.469575D-01 -0.284618D-01
     24  0.120953D+00 -0.166458D-02  0.153018D+00 -0.101395D+00 -0.379491D-01
     25 -0.101649D+00 -0.287324D-01  0.351892D-01  0.722572D-01  0.730915D-01
     26 -0.425645D-01  0.155588D+00  0.350980D-01  0.941885D-01  0.193785D-01
     27  0.404880D-01  0.427286D-01  0.136468D+00 -0.659882D-02 -0.439304D-02
     28 -0.413822D+01 -0.290020D+00  0.105105D+01  0.219534D+00 -0.642635D-01
     29 -0.383416D+00 -0.453939D+01 -0.595702D+00 -0.439462D-01 -0.120469D-01
     30  0.119495D+01 -0.489842D+00 -0.258019D+01  0.821293D-01  0.219934D+00
     31 -0.438383D+01 -0.425577D+00 -0.203575D+00  0.963022D-01 -0.877882D-01
     32 -0.493131D+00 -0.257127D+01  0.101841D+01 -0.604970D-01 -0.594636D-01
     33 -0.232811D+00  0.100044D+01 -0.389895D+01  0.125619D-01  0.938030D-01
     34  0.152962D+00 -0.112046D+00  0.519483D-01 -0.359469D+01 -0.120795D+01
     35 -0.743169D-01 -0.389685D-01  0.112883D+00 -0.132482D+01 -0.334540D+01
     36  0.353883D-01  0.124895D+00  0.198129D-01  0.700559D+00 -0.723305D+00
     37  0.737234D-01 -0.127194D+00  0.904877D-01 -0.407473D+01 -0.359987D+00
     38 -0.134696D+00  0.569697D-01  0.162537D+00 -0.376935D+00 -0.428585D+01
     39  0.103486D+00  0.181022D+00  0.497802D-01 -0.104647D+01  0.682694D+00
     40 -0.108734D-01  0.844505D-02  0.385891D-03  0.945065D-01 -0.676437D-01
     41  0.390232D-01  0.423815D-02  0.229015D-01 -0.597979D-01  0.728199D-01
     42  0.286013D-01  0.223964D-01 -0.241993D-03 -0.100643D+00 -0.531666D-01
     43  0.502741D-01  0.120329D+00 -0.199310D-01  0.524109D-03 -0.131593D+00
     44  0.143002D+00  0.102186D+00 -0.223959D-01 -0.150728D+00  0.380265D-02
     45 -0.329857D-01 -0.305581D-01 -0.548806D-01 -0.489474D-01 -0.698157D-01
     46  0.294701D-01  0.123005D-01  0.159942D-01  0.116591D+00  0.296734D-01
     47  0.236223D-01 -0.666775D-02  0.103763D-01  0.387836D-01 -0.458479D-01
     48  0.192335D-01  0.351585D-02 -0.501214D-02  0.115606D+00  0.190568D-01
     49  0.111186D-01 -0.169382D-01  0.476146D-01 -0.107517D-01  0.164996D-01
     50 -0.437682D-01 -0.309088D-01 -0.240290D-01 -0.108527D-02  0.402351D-02
[...]
 0.00015250,0.00062591,0.00023363,0.00059729,-0.00379217,0.03446030,-0.
 00051277,0.00017897,-0.00007620,0.00007448,-0.00681492,-0.00027914,0.0
 0050442,-0.00017791,-0.00014469,-0.00003472,-0.00012974,0.00010286,-0.
 00002667,0.00004648,0.00000406,0.00009857,-0.00005045,-0.00004707,0.00
 065482,0.00047043,0.00000143,-0.00362840,-0.00155721,-0.00118882,0.001
 35466,0.05695275,0.00039462,-0.00021799,-0.00026783,-0.00126798,-0.000
 48860,-0.01230815,-0.00825324,0.02199612,-0.30393520,0.00043159,-0.000
 51745,-0.00058279,0.00011997,0.00025438,-0.00735046,0.00026606,-0.0000
 2959,0.00021302,0.00027706,0.00223837,0.00128308,0.00096341,0.00032241
 ,0.00015245,0.00022475,0.00023968,0.00027675,0.00005690,-0.00001585,0.
 00006657,-0.00016194,0.00005089,0.00011791,-0.00002900,-0.00028849,0.0
 0044053,-0.00192986,-0.00140224,0.00065651,0.00885298,-0.02298603,0.33
 223837,-0.00188416,-0.00464845,-0.00266964,-0.02339483,0.00970276,0.00
 931742,-0.23231756,0.08614833,0.07855883,0.00036668,-0.00019125,-0.000
 59976,-0.00103569,0.00060913,0.00077978,-0.00005983,0.00007978,0.00000
 822,0.00015610,-0.00037465,-0.00021346,0.00019803,0.00000097,-0.000011
 79,-0.00001338,0.00002746,0.00009389,0.00020450,0.00013699,-0.00009104
 ,-0.00165296,0.00061834,0.00037113,0.00065899,-0.00033317,0.00045216,0
 .00089253,0.00055713,-0.00038312,0.00095030,-0.00085727,0.00027127,0.2
 5463499,-0.00229959,-0.00201277,-0.00158527,-0.01675524,0.00674053,0.0
 0684434,0.08615944,-0.08492647,-0.03539017,-0.00004095,-0.00015216,-0.
 00034933,0.02866632,-0.01670189,-0.01211366,0.00002728,0.00006080,0.00
 002791,0.00020422,0.00136407,-0.00151374,0.00006758,-0.00004695,0.0001
 6948,0.00001347,0.00002062,0.00005565,-0.00021752,0.00007668,-0.000159
 32,-0.00097885,0.00034449,0.00009208,0.00052465,0.00054035,0.00059675,
 0.00072265,0.00065681,0.00004618,-0.00282611,0.00058214,0.00066979,-0.
 09186760,0.09808892,-0.00158321,-0.00198520,-0.00082576,-0.01305949,0.
 00495147,0.00381196,0.07961356,-0.03572252,-0.08172605,-0.00009221,-0.
 00042744,-0.00024340,-0.00716302,0.00355131,0.00207300,0.00002916,0.00
 004596,0.00012840,-0.00131617,0.00014830,0.00124615,0.00006607,0.00035
 605,0.00027128,0.00016997,0.00015668,0.00016492,0.00019787,0.00004987,
 -0.00002251,-0.00075421,0.00018523,0.00022772,0.00073636,0.00022852,0.
 00016519,0.00021728,0.00066377,0.00061907,0.02764152,-0.01279935,-0.01
 175290,-0.08491279,0.03998924,0.08539676,0.00005448,0.00031560,-0.0002
 2733,0.00074298,0.00055129,0.00023813,0.00178599,0.00225198,0.00129752
 ,0.00007092,-0.00009703,-0.00005114,-0.22234412,-0.09467440,-0.0799637
 6,-0.00007155,0.00000060,0.00002672,0.00026950,0.00053876,0.00007346,-
 0.00007252,-0.00004005,-0.00014030,-0.00002486,-0.00000423,0.00001386,
 0.00029224,-0.00021279,0.00018642,0.00003976,-0.00020884,0.00005578,0.
 00001923,0.00004309,-0.00008529,-0.00000864,-0.00000066,0.00000020,-0.
 00000948,-0.00050299,0.00041019,0.00072061,-0.00036487,0.00011335,0.23
 813157,0.00082099,-0.00019250,0.00013485,0.00247769,-0.00558938,0.0031
 7172,-0.02812714,-0.01718564,-0.01226494,-0.00009313,0.00000998,-0.000
 10633,-0.09379343,-0.09770403,-0.04523942,0.00003684,0.00000639,0.0000
 5077,0.00543120,0.00221018,0.00290350,0.00004436,0.00000661,0.00006741
 ,-0.00003269,0.00001852,0.00008635,-0.00006065,0.00028573,-0.00005005,
 -0.00012973,0.00015636,-0.00002293,-0.00155763,-0.00125386,-0.00079660
 ,0.00017051,0.00014423,-0.00014916,-0.00003326,0.00126184,0.00037360,0
 .00035432,0.00110943,-0.00070423,0.10312823,0.10951236,-0.00007059,0.0
 0007352,0.00010832,-0.00005564,0.00154656,0.00010761,0.00719581,0.0038
 2692,0.00264748,-0.00001952,-0.00002247,0.00001710,-0.07916886,-0.0449
 2634,-0.08412835,0.00003253,0.00001318,0.00002654,-0.02872609,-0.01386
 348,-0.01540126,0.00001983,-0.00000295,0.00007224,0.00000589,0.0000062
 9,-0.00001098,0.00001394,0.00003459,-0.00017363,-0.00000193,0.00005832
 ,-0.00002397,0.00017804,0.00029494,0.00023050,0.00009119,0.00032619,0.
 00012829,0.00043107,-0.00038389,0.00035736,-0.00020122,-0.00045010,0.0
 0007454,0.08822965,0.04560250,0.09480469,-0.00089202,-0.00022507,-0.00
 021767,0.00012147,-0.00008429,-0.00050385,-0.00063003,0.00151800,-0.00
 049716,-0.00002794,-0.00006600,0.00008711,-0.21343875,0.08788847,0.088
 13401,-0.00006793,-0.00011407,-0.00009119,0.00193738,-0.00135493,-0.00
 097739,0.00004733,-0.00014474,0.00008157,-0.00008020,-0.00006308,-0.00
 005265,-0.00097828,-0.00132811,-0.00020747,0.00022433,-0.00014674,0.00
 001363,0.00006301,0.00018858,0.00010966,0.00000887,-0.00010753,-0.0000
 1432,0.00008261,0.00046873,-0.00026504,0.00136524,-0.00009147,-0.00057
 539,-0.02178938,0.01114023,0.01108202,0.23201833,-0.00051964,-0.000407
 08,-0.00024309,0.00091960,0.00116586,-0.00023976,0.02771467,-0.0153412
 0,-0.01344209,-0.00042688,-0.00017417,-0.00012891,0.08658559,-0.094529
 50,-0.04748398,0.00031418,0.00005239,0.00011335,-0.00489321,0.00235833
 ,0.00256345,-0.00011631,-0.00007171,0.00079308,0.00010541,0.00010071,0
 .00004699,-0.00107930,-0.00027055,-0.00044828,-0.00002554,0.00037921,-
 0.00000149,-0.00015031,0.00022493,0.00014791,-0.00005379,-0.00008170,0
 .00003553,-0.00023859,0.00134431,0.00015141,-0.00016453,-0.00628131,0.
 00175136,-0.01147149,0.00620979,0.00688716,-0.09643877,0.10426198,0.00
 039633,-0.00048983,0.00050046,0.00047457,-0.00054734,-0.00028293,-0.00
 746909,0.00369350,0.00319789,0.00021515,0.00051327,0.00019743,0.086654
 27,-0.04753811,-0.09331815,-0.00003842,-0.00003668,-0.00013959,0.02736
 290,-0.01425528,-0.01691396,0.00017214,0.00031447,-0.00043578,-0.00001
 332,-0.00004123,-0.00001419,-0.00052081,-0.00006559,-0.00028397,0.0000
 1303,0.00017347,-0.00018117,-0.00017866,-0.00002271,-0.00000646,0.0000
 1454,0.00001990,0.00005102,-0.00028214,-0.00049999,0.00036963,-0.00001
 773,0.00219513,0.00032397,-0.00963909,0.00596838,0.00516389,-0.0961227
 2,0.04913870,0.10562773,-0.00028535,0.00037389,0.00023132,-0.00047334,
 0.00075177,0.00060309,0.00024234,-0.00005426,0.00043229,-0.00273677,0.
 00145095,-0.00033346,-0.00007077,-0.00001333,-0.00000069,-0.28854689,0
 .07724202,0.01526954,0.00000260,-0.00005778,-0.00001346,0.00061038,0.0
 0029818,-0.00021418,0.00158267,0.00037500,-0.00032766,0.00012342,-0.00
 001677,-0.00019735,0.00003167,0.00001464,0.00004997,0.00008833,-0.0007
 5828,0.00073234,0.00010678,-0.00035853,0.00004607,0.00009919,-0.000078
 34,-0.00023415,0.00001391,0.00001095,0.00004609,0.00002118,-0.00004018
 ,-0.00000625,0.00000392,-0.00005944,-0.00000107,0.31289223,-0.00018619
 ,0.00061104,-0.00086834,0.00005472,0.00036520,0.00024488,0.00003710,0.
 00002620,0.00059273,0.02895343,-0.00992415,-0.00260429,0.00005091,-0.0
 0018799,-0.00029290,0.07669516,-0.07144392,-0.00539385,-0.00000364,0.0
 0016464,0.00002068,-0.00018445,0.00114187,-0.00089994,0.00043697,-0.00
 488017,0.00370211,-0.00009239,0.00005022,-0.00007648,-0.00004818,-0.00
 000615,0.00007171,-0.00009821,0.00034295,-0.00019019,-0.00018403,0.000
 09596,-0.00011263,-0.00048641,-0.00044826,-0.00012470,0.00000918,0.000
 02565,-0.00016470,-0.00001858,0.00000240,0.00001710,-0.00000748,0.0000
 4898,0.00001668,-0.08616537,0.07848978,-0.00073295,-0.00043028,0.00062
 194,0.00019991,0.00023012,-0.00079485,0.00018222,-0.00008949,-0.000067
 00,-0.01675747,0.00429485,0.00116433,-0.00014623,0.00010126,0.00006326
 ,0.01629036,-0.00542559,-0.04800661,0.00002591,-0.00008377,-0.00000330
 ,0.00053345,-0.00074174,0.00056783,-0.00042252,0.00312907,-0.00127755,
 0.00029949,-0.00011355,0.00011885,0.00002587,0.00006773,-0.00005747,0.
 00055053,-0.00014574,-0.00188916,-0.00003865,-0.00016058,0.00018075,0.
 00014021,0.00017125,0.00021439,-0.00001735,-0.00001169,0.00001319,-0.0
 0001911,-0.00007153,0.00000826,0.00005018,-0.00003446,0.00000040,-0.01
 846037,0.00387896,0.05011183,0.00035662,-0.00009813,0.00016399,-0.0000
 1801,-0.00034857,-0.00005470,-0.00010455,0.00001793,-0.00032697,0.0031
 1890,0.00374776,0.00229948,0.00007394,0.00008028,0.00018957,-0.1397729
 5,-0.11120231,-0.05864173,-0.00001552,-0.00007104,-0.00000842,0.001040
 50,0.00114929,-0.00061704,0.00045023,-0.00024481,0.00058099,0.00000191
 ,0.00013989,0.00017090,-0.00008789,-0.00027014,0.00036360,-0.00031014,
 0.00015373,-0.00005063,0.00002560,0.00007728,0.00004207,0.00022809,0.0
 0016251,0.00010166,-0.00001319,-0.00001919,0.00007152,0.00001396,0.000
 02755,-0.00001377,-0.00000445,-0.00000976,0.00000060,-0.01746523,-0.02
 248296,-0.01234728,0.14784406,-0.00011101,0.00128825,-0.00166404,-0.00
 009868,0.00013778,0.00029915,0.00007215,0.00003218,-0.00011147,-0.0180
 1798,-0.02240846,-0.01043003,0.00016022,-0.00008310,-0.00002837,-0.110
 97786,-0.18030651,-0.07154317,-0.00007659,0.00004272,-0.00000145,0.001
 74347,-0.00426623,0.00344418,0.00036815,0.00072385,-0.00053969,0.00039
 450,0.00031135,-0.00014119,0.00026613,0.00036079,0.00106396,-0.0002335
 7,-0.00013148,0.00015334,-0.00008235,0.00002705,0.00004000,0.00008833,
 -0.00007862,0.00002834,0.00000167,0.00003446,0.00006333,-0.00002244,0.
 00002022,0.00001394,-0.00004220,0.00012772,-0.00003729,0.00583688,0.00
 779196,0.00463103,0.12234134,0.19941353,0.00112021,0.00066018,0.001633
 49,0.00000189,0.00001572,0.00008362,-0.00003216,0.00015612,0.00007358,
 0.01106519,0.01263541,0.00573391,-0.00003273,0.00007194,-0.00005048,-0
 .05876811,-0.07191592,-0.08494542,0.00005559,-0.00000971,0.00000460,-0
 .00022586,0.00357987,-0.00130359,-0.00005844,-0.00088671,0.00036022,-0
 .00013350,-0.00018376,0.00020462,-0.00052398,-0.00038377,0.00002953,0.
 00004639,-0.00020125,0.00007563,-0.00002048,-0.00007719,0.00001625,-0.
 00007542,0.00000266,-0.00002634,-0.00002983,-0.00003090,-0.00002084,0.
 00001947,-0.00001486,-0.00001503,0.00005637,-0.00006455,0.00000577,0.0
 0191333,0.00263124,0.00001818,0.06528748,0.07600671,0.08904240,0.00011
 491,0.00140863,-0.00063916,-0.00011664,0.00046444,0.00012862,0.0001152
 9,-0.00002892,-0.00001065,-0.00012032,-0.00080853,-0.00587552,-0.00003
 406,0.00005994,0.00005004,-0.06119375,0.00711302,0.05980984,0.00000915
 ,-0.00007263,-0.00000667,-0.00007209,-0.00006642,0.00037961,0.00028322
 ,-0.00044461,-0.00028891,0.00032413,0.00017608,-0.00041216,0.00011571,
 0.00008055,0.00040476,-0.00000287,-0.00051650,-0.00001125,0.00006715,-
 0.00022893,0.00008189,0.00007932,0.00011662,0.00008687,0.00000909,-0.0
 0000008,0.00002377,-0.00000741,-0.00003494,0.00000301,0.00002883,-0.00
 003283,-0.00000450,-0.00622602,0.00372692,0.03066450,0.00462775,-0.001
 61713,-0.01964169,0.06201263,0.00098085,-0.00569802,0.00145593,0.00051
 762,-0.00054913,-0.00027648,-0.00004575,0.00010322,0.00000983,-0.00694
 867,0.00443690,0.02989844,0.00006686,-0.00000257,0.00001291,0.00725093
 ,-0.05057575,-0.03384759,0.00000974,0.00002759,0.00003169,-0.00055019,
 0.00087851,-0.00073955,0.00012675,0.00139739,-0.00067901,-0.00007418,0
 .00012785,0.00183668,0.00023269,0.00003385,0.00009331,-0.00017979,0.00
 039144,-0.00009452,-0.00009404,0.00019718,-0.00003706,-0.00000384,-0.0
 0002628,-0.00003547,-0.00004862,-0.00002521,-0.00001789,-0.00002668,0.
 00001599,-0.00000149,0.00001913,0.00003637,0.00003425,0.00123979,-0.00
 227342,-0.00919694,0.00685593,-0.00302885,-0.02199226,-0.00929647,0.05
 454957,-0.00059015,0.00396446,0.00012882,-0.00041701,0.00011227,0.0003
 8595,-0.00006840,-0.00002889,-0.00010242,0.00313549,-0.00312644,-0.014
 28921,0.00000830,0.00000186,0.00002265,0.05930651,-0.03277524,-0.29873
 985,-0.00002247,0.00000287,-0.00001320,0.00033307,0.00023303,0.0004290
 8,-0.00055777,-0.00021527,0.00049692,0.00029009,-0.00006601,-0.0011531
 0,0.00003994,-0.00005155,0.00035572,-0.00010386,-0.00000277,0.00013619
 ,0.00004781,-0.00000666,-0.00004217,-0.00002010,0.00000422,-0.00000375
 ,0.00007509,0.00002328,0.00000201,0.00005055,0.00003569,-0.00000943,-0
 .00002448,-0.00004432,-0.00003397,0.00047103,-0.00037538,-0.00099212,0
 .00275020,-0.00130263,-0.01087720,-0.06475343,0.03360300,0.32425018,-0
 .00012521,0.00027154,-0.00017172,-0.00009393,0.00007841,0.00028684,0.0
 0051992,-0.00003897,-0.00014395,0.00013339,-0.00016260,0.00000870,0.00
 129524,-0.00101446,-0.00040974,-0.00003508,0.00002312,0.00005134,-0.20
 209789,0.09404931,0.08948037,-0.00000424,0.00000231,-0.00000906,0.0000
 1536,0.00000464,-0.00002942,0.00026364,-0.00009496,-0.00006473,-0.0000
 0844,-0.00007100,0.00004081,0.00002638,-0.00006879,-0.00004551,-0.0003
 1312,-0.00009027,-0.00013831,0.00011575,-0.00019792,-0.00009116,-0.000
 07219,-0.00046363,0.00041306,0.00051369,-0.00029936,0.00044988,0.00142
 027,0.00010125,-0.00056457,0.00001285,-0.00000419,0.00000664,-0.000008
 78,-0.00000677,-0.00000306,0.00000813,-0.00002398,0.00002000,0.2167866
 3,-0.00005680,0.00013515,0.00010369,-0.00002429,0.00021926,0.00005569,
 -0.00123564,0.00102352,0.00051240,0.00000058,-0.00007993,0.00005388,-0
 .00449942,0.00177022,0.00230552,-0.00003292,0.00000548,0.00001159,0.09
 413689,-0.10516483,-0.05494389,-0.00003393,-0.00001936,-0.00001750,-0.
 00000431,-0.00001176,-0.00001028,0.00009866,-0.00003367,-0.00002686,0.
 00002808,-0.00001121,-0.00000466,0.00006199,0.00000291,-0.00007187,0.0
 0000673,0.00002989,-0.00028973,-0.00000166,0.00006865,-0.00012773,0.00
 036305,0.00029602,-0.00022625,0.00012021,-0.00013211,-0.00050549,-0.00
 049082,0.00056308,0.00151815,0.00001096,-0.00001189,0.00001153,0.00000
 308,-0.00000170,0.00000492,0.00001110,-0.00000919,-0.00000367,-0.10414
 681,0.10978263,-0.00007261,-0.00010564,-0.00000873,0.00001884,0.000307
 86,0.00007804,0.00063779,-0.00155484,0.00173490,-0.00011836,-0.0000980
 9,-0.00011310,0.02710659,-0.01539494,-0.01662113,0.00007584,0.00003294
 ,0.00006140,0.08915833,-0.05463747,-0.09776244,0.00003385,0.00002435,0
 .00015265,0.00002201,0.00003104,0.00001554,-0.00005928,-0.00002655,-0.
 00010686,-0.00003020,0.00006410,0.00002008,0.00005848,0.00005145,0.000
 03961,0.00018175,0.00012652,-0.00008278,-0.00043460,-0.00018095,0.0003
 3348,-0.00065773,0.00093190,0.00007860,-0.00039433,-0.00037786,0.00115
 276,-0.00095876,0.00138206,-0.00651263,-0.00001328,0.00001092,-0.00000
 944,-0.00000192,0.00004351,-0.00001990,-0.00000481,-0.00000296,-0.0000
 0119,-0.09914566,0.05968128,0.10973104,0.00031999,-0.00041482,0.000279
 80,-0.00017399,-0.00084113,-0.00064009,-0.00029948,-0.00034886,-0.0003
 9896,-0.00009026,0.00004213,0.00000486,0.00063346,0.00075418,-0.000183
 86,-0.00000302,0.00002134,0.00002990,-0.24244013,-0.07802148,-0.089011
 15,-0.00000112,0.00001700,0.00005087,0.00000419,0.00002012,0.00004604,
 -0.00003867,0.00025567,0.00005333,0.00001726,-0.00001521,-0.00000616,-
 0.00000203,0.00008365,0.00034997,0.00005916,-0.00013046,0.00080430,0.0
 0010815,0.00021114,-0.00002818,0.00003595,-0.00005301,0.00000235,0.001
 51866,0.00014539,0.00045133,0.00065007,0.00027214,-0.00040469,-0.00001
 422,-0.00000112,-0.00001973,0.00001249,0.00001035,-0.00001171,-0.00001
 651,0.00000246,0.00001310,-0.02052812,-0.00929122,-0.00953895,0.261403
 11,-0.00012316,-0.00000296,-0.00009379,-0.00021778,-0.00071154,0.00040
 610,0.00068227,0.00027129,-0.00024419,0.00009985,-0.00000274,0.0000595
 8,0.00517415,0.00147843,0.00104079,-0.00002009,-0.00000244,-0.00001648
 ,-0.07876541,-0.07871131,-0.03599513,-0.00004192,-0.00000423,-0.000011
 85,0.00003640,0.00000002,-0.00005442,0.00001492,0.00020619,-0.00004110
 ,0.00002314,-0.00004540,0.00001611,0.00010622,0.00011959,-0.00007023,-
 0.00020408,-0.00185243,0.00075080,-0.00021593,0.00004258,-0.00015316,-
 0.00000778,-0.00001787,0.00006712,0.00028927,0.00059889,0.00116713,-0.
 00026812,0.00006855,-0.00048131,0.00001585,-0.00000816,0.00001474,-0.0
 0000273,-0.00000127,0.00000486,0.00000692,-0.00000307,-0.00000898,0.01
 372025,0.00534445,0.00717444,0.08756789,0.08343401,-0.00002047,0.00050
 706,-0.00011550,-0.00013098,0.00043656,-0.00001756,-0.00011151,-0.0007
 8238,0.00097576,-0.00002484,-0.00036048,-0.00010251,-0.02962891,-0.012
 64107,-0.01360821,-0.00002772,0.00008526,0.00016940,-0.08817740,-0.035
 68909,-0.08684615,0.00000961,0.00004076,0.00005866,0.00000446,0.000026
 17,0.00002764,0.00061128,-0.00019920,-0.00030231,0.00000472,-0.0001446
 8,0.00008087,0.00015151,-0.00006414,0.00026595,0.00014343,0.00058181,0
 .00033556,0.00019730,-0.00000928,0.00014177,0.00005173,0.00007485,-0.0
 0005003,0.00025048,0.00169642,-0.00669260,0.00031751,-0.00042218,0.001
 60141,-0.00000242,-0.00002246,-0.00000874,0.00000893,0.00001025,-0.000
 01970,-0.00000149,-0.00004961,0.00005701,0.01234916,0.00630229,0.00552
 858,0.09776123,0.03903897,0.09665673,0.00008554,0.00004294,0.00001566,
 0.00002063,-0.00024496,-0.00029663,0.00032893,0.00007775,-0.00081322,0
 .00000052,-0.00007279,-0.00003677,-0.00133333,0.00155627,-0.00046631,-
 0.00000549,0.00002463,0.00006012,-0.04846484,-0.01713750,0.00390074,0.
 00002122,0.00001779,0.00003152,-0.00001027,0.00000617,0.00002367,0.000
 10321,-0.00009222,-0.00006293,0.00001161,-0.00001586,0.00001009,0.0000
 2458,0.00000951,0.00020148,-0.00013569,0.00013913,0.00038175,0.0003397
 3,0.00018754,-0.00019676,0.00023688,-0.00041845,0.00011456,0.00013323,
 0.00042482,0.00007968,-0.00006267,-0.00033247,-0.00004670,-0.00001286,
 -0.00000116,-0.00000761,0.00000667,0.00000339,-0.00000896,-0.00000564,
 -0.00001053,0.00001651,0.00217576,0.02497648,-0.00586299,-0.00115495,-
 0.02787013,0.00626440,0.04769723,0.00010761,-0.00005855,0.00005750,0.0
 0018716,0.00020544,-0.00021433,-0.00015766,0.00121342,0.00117980,-0.00
 003518,0.00000348,-0.00002050,-0.00006658,-0.00262325,-0.00046419,0.00
 001378,0.00001185,0.00002682,-0.01686815,-0.30563167,0.05261232,0.0000
 2844,-0.00002090,-0.00001099,-0.00004579,-0.00000201,0.00003978,0.0000
 4419,-0.00003181,-0.00000920,-0.00005159,-0.00001381,0.00000830,-0.000
 01129,-0.00002822,0.00011954,0.00009201,0.00019449,0.00019638,-0.00011
 209,-0.00040646,0.00006231,-0.00011581,0.00022368,-0.00016061,0.000406
 01,0.00048860,0.00028786,-0.00024973,0.00021501,0.00042947,-0.00001861
 ,0.00002725,-0.00002517,-0.00000692,-0.00000563,-0.00000876,-0.0000162
 3,-0.00000437,0.00002713,-0.00156710,-0.01376562,0.00251692,-0.0002861
 4,-0.01020058,0.00158418,0.01872966,0.33020964,0.00000468,0.00008607,0
 .00008912,-0.00044832,-0.00070618,-0.00050589,0.00009063,-0.00118786,-
 0.00699666,-0.00005902,-0.00001891,-0.00001798,0.00167774,0.03421018,-
 0.00601604,-0.00002683,0.00004044,0.00001717,0.00381884,0.05145342,-0.
 05641272,-0.00003848,0.00005428,0.00003091,0.00003892,0.00001187,0.000
 01144,0.00002112,-0.00005229,-0.00002212,0.00007985,-0.00001497,-0.000
 01191,0.00007163,0.00006490,0.00022579,0.00005824,0.00004311,0.0004659
 6,-0.00010884,0.00208186,-0.00063438,-0.00017406,-0.00011238,0.0000447
 3,-0.00044542,-0.00029330,0.00155567,0.00057605,-0.00045790,0.00108320
 ,0.00000927,-0.00006114,0.00002304,0.00003146,0.00000160,-0.00000329,0
 .00001733,-0.00000521,-0.00000692,-0.00228989,-0.01433303,0.00231154,0
 .00039641,-0.01257000,0.00186395,-0.00330129,-0.05823457,0.06290539\\0
 .00000012,-0.00000107,0.00000178,-0.00000005,-0.00000003,0.00000011,-0
 .00000004,0.00000106,-0.00000144,0.00000180,-0.00000096,0.00000166,-0.
 00000179,0.00000095,-0.00000173,0.00000383,-0.00000068,0.00000169,-0.0
 0000373,0.00000071,-0.00000178,0.00000157,-0.00000039,0.00000083,0.000
 00163,-0.00000181,0.00000296,-0.00000134,-0.00000131,0.00000155,0.0000
 0014,-0.00000183,0.00000259,0.00000131,0.00000018,0.00000003,-0.000001
 31,-0.00000015,-0.00000014,0.00000137,0.00000135,-0.00000173,-0.000000
 13,0.00000183,-0.00000265,-0.00000165,0.00000184,-0.00000296,-0.000001
 59,0.00000033,-0.00000084,0.00000391,0.00000015,0.00000059,0.00000394,
 -0.00000127,0.00000273,0.00000496,-0.00000069,0.00000212,-0.00000395,0
 .00000128,-0.00000270,-0.00000407,-0.00000022,-0.00000061,-0.00000497,
 0.00000072,-0.00000207\\\@



 WE LOSE BECAUSE WE WIN

 GAMBLERS,

 RECOLLECTING WHICH,

 TOSS THEIR DICE AGAIN....


                          EMILY DICKINSON  BOLTS OF MELODY NO. 533
 Job cpu time:       0 days  5 hours 46 minutes 26.0 seconds.
 Elapsed time:       0 days  2 hours 53 minutes 14.6 seconds.
 File lengths (MBytes):  RWF=   1488 Int=      0 D2E=      0 Chk=     32 Scr=     32
 Normal termination of Gaussian 16 at Sun Sep 29 08:31:12 2019.
