 Entering Gaussian System, Link 0=g16
 Input=tight/species/CCCCCCC/conformers/CCCCCCC_994.com
 Output=tight/species/CCCCCCC/conformers/CCCCCCC_994.log
 Initial command:
 /shared/centos7/gaussian/g16/l1.exe "/scratch/harms.n/gauss_scrdir/Gau-32968.inp" -scrdir="/scratch/harms.n/gauss_scrdir/"
 Entering Link 1 = /shared/centos7/gaussian/g16/l1.exe PID=     32969.
  
 Copyright (c) 1988,1990,1992,1993,1995,1998,2003,2009,2016,
            Gaussian, Inc.  All Rights Reserved.
  
 This is part of the Gaussian(R) 16 program.  It is based on
 the Gaussian(R) 09 system (copyright 2009, Gaussian, Inc.),
 the Gaussian(R) 03 system (copyright 2003, Gaussian, Inc.),
 the Gaussian(R) 98 system (copyright 1998, Gaussian, Inc.),
 the Gaussian(R) 94 system (copyright 1995, Gaussian, Inc.),
 the Gaussian 92(TM) system (copyright 1992, Gaussian, Inc.),
 the Gaussian 90(TM) system (copyright 1990, Gaussian, Inc.),
 the Gaussian 88(TM) system (copyright 1988, Gaussian, Inc.),
 the Gaussian 86(TM) system (copyright 1986, Carnegie Mellon
 University), and the Gaussian 82(TM) system (copyright 1983,
 Carnegie Mellon University). Gaussian is a federally registered
 trademark of Gaussian, Inc.
  
 This software contains proprietary and confidential information,
 including trade secrets, belonging to Gaussian, Inc.
  
 This software is provided under written license and may be
 used, copied, transmitted, or stored only in accord with that
 written license.
  
 The following legend is applicable only to US Government
 contracts under FAR:
  
                    RESTRICTED RIGHTS LEGEND
  
 Use, reproduction and disclosure by the US Government is
 subject to restrictions as set forth in subparagraphs (a)
 and (c) of the Commercial Computer Software - Restricted
 Rights clause in FAR 52.227-19.
  
 Gaussian, Inc.
 340 Quinnipiac St., Bldg. 40, Wallingford CT 06492
  
  
 ---------------------------------------------------------------
 Warning -- This program may not be used in any manner that
 competes with the business of Gaussian, Inc. or will provide
 assistance to any competitor of Gaussian, Inc.  The licensee
 of this program is prohibited from giving any competitor of
 Gaussian, Inc. access to this program.  By using this program,
 the user acknowledges that Gaussian, Inc. is engaged in the
 business of creating and licensing software in the field of
 computational chemistry and represents and warrants to the
 licensee that it is not a competitor of Gaussian, Inc. and that
 it will not use this program in any manner prohibited above.
 ---------------------------------------------------------------
  

 Cite this work as:
 Gaussian 16, Revision A.03,
 M. J. Frisch, G. W. Trucks, H. B. Schlegel, G. E. Scuseria, 
 M. A. Robb, J. R. Cheeseman, G. Scalmani, V. Barone, 
 G. A. Petersson, H. Nakatsuji, X. Li, M. Caricato, A. V. Marenich, 
 J. Bloino, B. G. Janesko, R. Gomperts, B. Mennucci, H. P. Hratchian, 
 J. V. Ortiz, A. F. Izmaylov, J. L. Sonnenberg, D. Williams-Young, 
 F. Ding, F. Lipparini, F. Egidi, J. Goings, B. Peng, A. Petrone, 
 T. Henderson, D. Ranasinghe, V. G. Zakrzewski, J. Gao, N. Rega, 
 G. Zheng, W. Liang, M. Hada, M. Ehara, K. Toyota, R. Fukuda, 
 J. Hasegawa, M. Ishida, T. Nakajima, Y. Honda, O. Kitao, H. Nakai, 
 T. Vreven, K. Throssell, J. A. Montgomery, Jr., J. E. Peralta, 
 F. Ogliaro, M. J. Bearpark, J. J. Heyd, E. N. Brothers, K. N. Kudin, 
 V. N. Staroverov, T. A. Keith, R. Kobayashi, J. Normand, 
 K. Raghavachari, A. P. Rendell, J. C. Burant, S. S. Iyengar, 
 J. Tomasi, M. Cossi, J. M. Millam, M. Klene, C. Adamo, R. Cammi, 
 J. W. Ochterski, R. L. Martin, K. Morokuma, O. Farkas, 
 J. B. Foresman, and D. J. Fox, Gaussian, Inc., Wallingford CT, 2016.
 
 ******************************************
 Gaussian 16:  EM64L-G16RevA.03 25-Dec-2016
                28-Sep-2019 
 ******************************************
 %nprocshared=20
 Will use up to   20 processors via shared memory.
 %mem=5GB
 ----------------------------------------------------------------------
 #p m062x/cc-pVTZ opt=(calcfc,maxcycles=900,Tight) freq IOP(7/33=1,2/16
 =3) scf=(maxcycle=900)
 ----------------------------------------------------------------------
 1/6=900,7=10,10=4,18=20,19=15,26=3,38=1/1,3;
 2/9=110,12=2,16=3,17=6,18=5,40=1/2;
 3/5=16,6=1,11=2,25=1,30=1,71=2,74=-55,140=1/1,2,3;
 4//1;
 5/5=2,7=900,38=5/2;
 8/6=4,10=90,11=11/1;
 11/6=1,8=1,9=11,15=111,16=1/1,2,10;
 10/6=1,13=1/2;
 6/7=2,8=2,9=2,10=2,28=1/1;
 7/10=1,18=20,25=1,33=1/1,2,3,16;
 1/6=900,7=10,10=4,18=20,19=15,26=3/3(2);
 2/9=110,16=3/2;
 99//99;
 2/9=110,16=3/2;
 3/5=16,6=1,11=2,25=1,30=1,71=1,74=-55/1,2,3;
 4/5=5,16=3,69=1/1;
 5/5=2,7=900,38=5/2;
 7/33=1/1,2,3,16;
 1/6=900,7=10,18=20,19=15,26=3/3(-5);
 2/9=110,16=3/2;
 6/7=2,8=2,9=2,10=2,19=2,28=1/1;
 99/9=1/99;
 Leave Link    1 at Sat Sep 28 16:53:44 2019, MaxMem=   671088640 cpu:               4.3 elap:               2.2
 (Enter /shared/centos7/gaussian/g16/l101.exe)
 ------------------------------
 Gaussian input prepared by ASE
 ------------------------------
 Symbolic Z-matrix:
 Charge =  0 Multiplicity = 1
 C                     1.50451  -1.08786   0.60848 
 C                     0.17791  -0.49586   0.94258 
 C                    -1.06162  -1.30905   0.66459 
 C                     2.20355  -0.4635   -0.55192 
 C                    -0.91025  -2.65073  -0.01266 
 C                     2.69269   0.90926  -0.33779 
 C                    -1.25392  -3.81731   0.87667 
 H                     1.52242  -0.4842   -1.44901 
 H                     3.06263  -1.11892  -0.83152 
 H                     1.39191  -2.17399   0.40544 
 H                     2.16436  -1.02239   1.49785 
 H                     0.07014   0.4713    0.42713 
 H                     0.17294  -0.23754   2.02262 
 H                    -1.74989  -0.69554   0.05877 
 H                    -1.59651  -1.45879   1.62512 
 H                    -1.57863  -2.68308  -0.91253 
 H                     0.11713  -2.78074  -0.39323 
 H                     2.40032   1.32099   0.64653 
 H                     3.82126   0.94946  -0.38521 
 H                     2.3147    1.60671  -1.11508 
 H                    -2.17639  -3.63791   1.43023 
 H                    -0.43456  -4.013     1.62247 
 H                    -1.38823  -4.75706   0.26781 
 
 ITRead=  0  0  0  0  0  0  0  0  0  0  0  0  0  0  0  0  0  0  0  0
 ITRead=  0  0  0
 MicOpt= -1 -1 -1 -1 -1 -1 -1 -1 -1 -1 -1 -1 -1 -1 -1 -1 -1 -1 -1 -1
 MicOpt= -1 -1 -1
 NAtoms=     23 NQM=       23 NQMF=       0 NMMI=      0 NMMIF=      0
                NMic=       0 NMicF=      0.
                    Isotopes and Nuclear Properties:
 (Nuclear quadrupole moments (NQMom) in fm**2, nuclear magnetic moments (NMagM)
  in nuclear magnetons)

  Atom         1           2           3           4           5           6           7           8           9          10
 IAtWgt=          12          12          12          12          12          12          12           1           1           1
 AtmWgt=  12.0000000  12.0000000  12.0000000  12.0000000  12.0000000  12.0000000  12.0000000   1.0078250   1.0078250   1.0078250
 NucSpn=           0           0           0           0           0           0           0           1           1           1
 AtZEff=  -0.0000000  -0.0000000  -0.0000000  -0.0000000  -0.0000000  -0.0000000  -0.0000000  -0.0000000  -0.0000000  -0.0000000
 NQMom=    0.0000000   0.0000000   0.0000000   0.0000000   0.0000000   0.0000000   0.0000000   0.0000000   0.0000000   0.0000000
 NMagM=    0.0000000   0.0000000   0.0000000   0.0000000   0.0000000   0.0000000   0.0000000   2.7928460   2.7928460   2.7928460
 AtZNuc=   6.0000000   6.0000000   6.0000000   6.0000000   6.0000000   6.0000000   6.0000000   1.0000000   1.0000000   1.0000000

  Atom        11          12          13          14          15          16          17          18          19          20
 IAtWgt=           1           1           1           1           1           1           1           1           1           1
 AtmWgt=   1.0078250   1.0078250   1.0078250   1.0078250   1.0078250   1.0078250   1.0078250   1.0078250   1.0078250   1.0078250
 NucSpn=           1           1           1           1           1           1           1           1           1           1
 AtZEff=  -0.0000000  -0.0000000  -0.0000000  -0.0000000  -0.0000000  -0.0000000  -0.0000000  -0.0000000  -0.0000000  -0.0000000
 NQMom=    0.0000000   0.0000000   0.0000000   0.0000000   0.0000000   0.0000000   0.0000000   0.0000000   0.0000000   0.0000000
 NMagM=    2.7928460   2.7928460   2.7928460   2.7928460   2.7928460   2.7928460   2.7928460   2.7928460   2.7928460   2.7928460
 AtZNuc=   1.0000000   1.0000000   1.0000000   1.0000000   1.0000000   1.0000000   1.0000000   1.0000000   1.0000000   1.0000000

  Atom        21          22          23
 IAtWgt=           1           1           1
 AtmWgt=   1.0078250   1.0078250   1.0078250
 NucSpn=           1           1           1
 AtZEff=  -0.0000000  -0.0000000  -0.0000000
 NQMom=    0.0000000   0.0000000   0.0000000
 NMagM=    2.7928460   2.7928460   2.7928460
 AtZNuc=   1.0000000   1.0000000   1.0000000
 Leave Link  101 at Sat Sep 28 16:53:46 2019, MaxMem=   671088640 cpu:               5.6 elap:               2.8
 (Enter /shared/centos7/gaussian/g16/l103.exe)

 GradGradGradGradGradGradGradGradGradGradGradGradGradGradGradGradGradGrad
 Berny optimization.
 Initialization pass.
                           ----------------------------
                           !    Initial Parameters    !
                           ! (Angstroms and Degrees)  !
 --------------------------                            --------------------------
 ! Name  Definition              Value          Derivative Info.                !
 --------------------------------------------------------------------------------
 ! R1    R(1,2)                  1.4906         calculate D2E/DX2 analytically  !
 ! R2    R(1,4)                  1.4917         calculate D2E/DX2 analytically  !
 ! R3    R(1,10)                 1.1107         calculate D2E/DX2 analytically  !
 ! R4    R(1,11)                 1.1093         calculate D2E/DX2 analytically  !
 ! R5    R(2,3)                  1.5083         calculate D2E/DX2 analytically  !
 ! R6    R(2,12)                 1.1012         calculate D2E/DX2 analytically  !
 ! R7    R(2,13)                 1.1105         calculate D2E/DX2 analytically  !
 ! R8    R(3,5)                  1.5105         calculate D2E/DX2 analytically  !
 ! R9    R(3,14)                 1.1032         calculate D2E/DX2 analytically  !
 ! R10   R(3,15)                 1.1096         calculate D2E/DX2 analytically  !
 ! R11   R(4,6)                  1.473          calculate D2E/DX2 analytically  !
 ! R12   R(4,8)                  1.1266         calculate D2E/DX2 analytically  !
 ! R13   R(4,9)                  1.1161         calculate D2E/DX2 analytically  !
 ! R14   R(5,7)                  1.5066         calculate D2E/DX2 analytically  !
 ! R15   R(5,16)                 1.1214         calculate D2E/DX2 analytically  !
 ! R16   R(5,17)                 1.1033         calculate D2E/DX2 analytically  !
 ! R17   R(6,18)                 1.1063         calculate D2E/DX2 analytically  !
 ! R18   R(6,19)                 1.1303         calculate D2E/DX2 analytically  !
 ! R19   R(6,20)                 1.1106         calculate D2E/DX2 analytically  !
 ! R20   R(7,21)                 1.0907         calculate D2E/DX2 analytically  !
 ! R21   R(7,22)                 1.1251         calculate D2E/DX2 analytically  !
 ! R22   R(7,23)                 1.1278         calculate D2E/DX2 analytically  !
 ! A1    A(2,1,4)              115.1627         calculate D2E/DX2 analytically  !
 ! A2    A(2,1,10)             109.8234         calculate D2E/DX2 analytically  !
 ! A3    A(2,1,11)             109.0402         calculate D2E/DX2 analytically  !
 ! A4    A(4,1,10)             108.3378         calculate D2E/DX2 analytically  !
 ! A5    A(4,1,11)             108.6763         calculate D2E/DX2 analytically  !
 ! A6    A(10,1,11)            105.3419         calculate D2E/DX2 analytically  !
 ! A7    A(1,2,3)              118.4209         calculate D2E/DX2 analytically  !
 ! A8    A(1,2,12)             109.3289         calculate D2E/DX2 analytically  !
 ! A9    A(1,2,13)             108.3213         calculate D2E/DX2 analytically  !
 ! A10   A(3,2,12)             107.8672         calculate D2E/DX2 analytically  !
 ! A11   A(3,2,13)             107.5165         calculate D2E/DX2 analytically  !
 ! A12   A(12,2,13)            104.5065         calculate D2E/DX2 analytically  !
 ! A13   A(2,3,5)              118.6306         calculate D2E/DX2 analytically  !
 ! A14   A(2,3,14)             108.3059         calculate D2E/DX2 analytically  !
 ! A15   A(2,3,15)             108.0221         calculate D2E/DX2 analytically  !
 ! A16   A(5,3,14)             108.0739         calculate D2E/DX2 analytically  !
 ! A17   A(5,3,15)             108.4555         calculate D2E/DX2 analytically  !
 ! A18   A(14,3,15)            104.4575         calculate D2E/DX2 analytically  !
 ! A19   A(1,4,6)              115.6343         calculate D2E/DX2 analytically  !
 ! A20   A(1,4,8)              109.1744         calculate D2E/DX2 analytically  !
 ! A21   A(1,4,9)              108.0462         calculate D2E/DX2 analytically  !
 ! A22   A(6,4,8)              109.4913         calculate D2E/DX2 analytically  !
 ! A23   A(6,4,9)              109.1535         calculate D2E/DX2 analytically  !
 ! A24   A(8,4,9)              104.7796         calculate D2E/DX2 analytically  !
 ! A25   A(3,5,7)              113.5929         calculate D2E/DX2 analytically  !
 ! A26   A(3,5,16)             109.0069         calculate D2E/DX2 analytically  !
 ! A27   A(3,5,17)             110.6485         calculate D2E/DX2 analytically  !
 ! A28   A(7,5,16)             108.3841         calculate D2E/DX2 analytically  !
 ! A29   A(7,5,17)             108.9519         calculate D2E/DX2 analytically  !
 ! A30   A(16,5,17)            105.9511         calculate D2E/DX2 analytically  !
 ! A31   A(4,6,18)             112.8577         calculate D2E/DX2 analytically  !
 ! A32   A(4,6,19)             111.0157         calculate D2E/DX2 analytically  !
 ! A33   A(4,6,20)             111.7468         calculate D2E/DX2 analytically  !
 ! A34   A(18,6,19)            106.7367         calculate D2E/DX2 analytically  !
 ! A35   A(18,6,20)            107.4002         calculate D2E/DX2 analytically  !
 ! A36   A(19,6,20)            106.7451         calculate D2E/DX2 analytically  !
 ! A37   A(5,7,21)             111.4169         calculate D2E/DX2 analytically  !
 ! A38   A(5,7,22)             111.0904         calculate D2E/DX2 analytically  !
 ! A39   A(5,7,23)             110.7133         calculate D2E/DX2 analytically  !
 ! A40   A(21,7,22)            107.9462         calculate D2E/DX2 analytically  !
 ! A41   A(21,7,23)            108.0795         calculate D2E/DX2 analytically  !
 ! A42   A(22,7,23)            107.4377         calculate D2E/DX2 analytically  !
 ! D1    D(4,1,2,3)            109.4491         calculate D2E/DX2 analytically  !
 ! D2    D(4,1,2,12)           -14.5733         calculate D2E/DX2 analytically  !
 ! D3    D(4,1,2,13)          -127.8877         calculate D2E/DX2 analytically  !
 ! D4    D(10,1,2,3)           -13.1559         calculate D2E/DX2 analytically  !
 ! D5    D(10,1,2,12)         -137.1784         calculate D2E/DX2 analytically  !
 ! D6    D(10,1,2,13)          109.5073         calculate D2E/DX2 analytically  !
 ! D7    D(11,1,2,3)          -128.1123         calculate D2E/DX2 analytically  !
 ! D8    D(11,1,2,12)          107.8652         calculate D2E/DX2 analytically  !
 ! D9    D(11,1,2,13)           -5.4491         calculate D2E/DX2 analytically  !
 ! D10   D(2,1,4,6)             69.0977         calculate D2E/DX2 analytically  !
 ! D11   D(2,1,4,8)            -54.8676         calculate D2E/DX2 analytically  !
 ! D12   D(2,1,4,9)           -168.2805         calculate D2E/DX2 analytically  !
 ! D13   D(10,1,4,6)          -167.5059         calculate D2E/DX2 analytically  !
 ! D14   D(10,1,4,8)            68.5288         calculate D2E/DX2 analytically  !
 ! D15   D(10,1,4,9)           -44.8841         calculate D2E/DX2 analytically  !
 ! D16   D(11,1,4,6)           -53.5356         calculate D2E/DX2 analytically  !
 ! D17   D(11,1,4,8)          -177.501          calculate D2E/DX2 analytically  !
 ! D18   D(11,1,4,9)            69.0861         calculate D2E/DX2 analytically  !
 ! D19   D(1,2,3,5)             -3.5202         calculate D2E/DX2 analytically  !
 ! D20   D(1,2,3,14)          -127.0871         calculate D2E/DX2 analytically  !
 ! D21   D(1,2,3,15)           120.3206         calculate D2E/DX2 analytically  !
 ! D22   D(12,2,3,5)           121.2211         calculate D2E/DX2 analytically  !
 ! D23   D(12,2,3,14)           -2.3457         calculate D2E/DX2 analytically  !
 ! D24   D(12,2,3,15)         -114.9381         calculate D2E/DX2 analytically  !
 ! D25   D(13,2,3,5)          -126.5863         calculate D2E/DX2 analytically  !
 ! D26   D(13,2,3,14)          109.8469         calculate D2E/DX2 analytically  !
 ! D27   D(13,2,3,15)           -2.7455         calculate D2E/DX2 analytically  !
 ! D28   D(2,3,5,7)            112.2324         calculate D2E/DX2 analytically  !
 ! D29   D(2,3,5,16)          -126.8077         calculate D2E/DX2 analytically  !
 ! D30   D(2,3,5,17)           -10.6767         calculate D2E/DX2 analytically  !
 ! D31   D(14,3,5,7)          -124.0862         calculate D2E/DX2 analytically  !
 ! D32   D(14,3,5,16)           -3.1263         calculate D2E/DX2 analytically  !
 ! D33   D(14,3,5,17)          113.0047         calculate D2E/DX2 analytically  !
 ! D34   D(15,3,5,7)           -11.3946         calculate D2E/DX2 analytically  !
 ! D35   D(15,3,5,16)          109.5653         calculate D2E/DX2 analytically  !
 ! D36   D(15,3,5,17)         -134.3037         calculate D2E/DX2 analytically  !
 ! D37   D(1,4,6,18)            -4.4359         calculate D2E/DX2 analytically  !
 ! D38   D(1,4,6,19)           115.3482         calculate D2E/DX2 analytically  !
 ! D39   D(1,4,6,20)          -125.6038         calculate D2E/DX2 analytically  !
 ! D40   D(8,4,6,18)           119.3638         calculate D2E/DX2 analytically  !
 ! D41   D(8,4,6,19)          -120.8521         calculate D2E/DX2 analytically  !
 ! D42   D(8,4,6,20)            -1.8041         calculate D2E/DX2 analytically  !
 ! D43   D(9,4,6,18)          -126.4688         calculate D2E/DX2 analytically  !
 ! D44   D(9,4,6,19)            -6.6847         calculate D2E/DX2 analytically  !
 ! D45   D(9,4,6,20)           112.3633         calculate D2E/DX2 analytically  !
 ! D46   D(3,5,7,21)            44.8765         calculate D2E/DX2 analytically  !
 ! D47   D(3,5,7,22)           -75.5224         calculate D2E/DX2 analytically  !
 ! D48   D(3,5,7,23)           165.1885         calculate D2E/DX2 analytically  !
 ! D49   D(16,5,7,21)          -76.4323         calculate D2E/DX2 analytically  !
 ! D50   D(16,5,7,22)          163.1688         calculate D2E/DX2 analytically  !
 ! D51   D(16,5,7,23)           43.8797         calculate D2E/DX2 analytically  !
 ! D52   D(17,5,7,21)          168.713          calculate D2E/DX2 analytically  !
 ! D53   D(17,5,7,22)           48.3141         calculate D2E/DX2 analytically  !
 ! D54   D(17,5,7,23)          -70.975          calculate D2E/DX2 analytically  !
 --------------------------------------------------------------------------------
 Trust Radius=3.00D-01 FncErr=1.00D-07 GrdErr=1.00D-06 EigMax=2.50D+02 EigMin=1.00D-04
 Number of steps in this run=    138 maximum allowed number of steps=    138.
 GradGradGradGradGradGradGradGradGradGradGradGradGradGradGradGradGradGrad

 Leave Link  103 at Sat Sep 28 16:53:47 2019, MaxMem=   671088640 cpu:               1.6 elap:               0.8
 (Enter /shared/centos7/gaussian/g16/l202.exe)
                          Input orientation:                          
 ---------------------------------------------------------------------
 Center     Atomic      Atomic             Coordinates (Angstroms)
 Number     Number       Type             X           Y           Z
 ---------------------------------------------------------------------
      1          6           0        1.504514   -1.087864    0.608484
      2          6           0        0.177912   -0.495858    0.942577
      3          6           0       -1.061616   -1.309047    0.664591
      4          6           0        2.203554   -0.463505   -0.551924
      5          6           0       -0.910254   -2.650732   -0.012663
      6          6           0        2.692688    0.909259   -0.337787
      7          6           0       -1.253915   -3.817311    0.876671
      8          1           0        1.522422   -0.484198   -1.449012
      9          1           0        3.062630   -1.118921   -0.831516
     10          1           0        1.391909   -2.173991    0.405441
     11          1           0        2.164358   -1.022394    1.497845
     12          1           0        0.070141    0.471296    0.427132
     13          1           0        0.172941   -0.237535    2.022624
     14          1           0       -1.749889   -0.695544    0.058771
     15          1           0       -1.596515   -1.458785    1.625115
     16          1           0       -1.578626   -2.683079   -0.912527
     17          1           0        0.117133   -2.780744   -0.393232
     18          1           0        2.400319    1.320986    0.646531
     19          1           0        3.821258    0.949463   -0.385213
     20          1           0        2.314704    1.606714   -1.115075
     21          1           0       -2.176394   -3.637909    1.430230
     22          1           0       -0.434555   -4.013003    1.622468
     23          1           0       -1.388234   -4.757062    0.267812
 ---------------------------------------------------------------------
                    Distance matrix (angstroms):
                    1          2          3          4          5
     1  C    0.000000
     2  C    1.490625   0.000000
     3  C    2.576256   1.508304   0.000000
     4  C    1.491652   2.517500   3.585552   0.000000
     5  C    2.942700   2.596164   1.510531   3.843249   0.000000
     6  C    2.509120   3.152425   4.474421   1.472952   5.075473
     7  C    3.889825   3.617529   2.524548   5.024240   1.506627
     8  H    2.144299   2.743637   3.438742   1.126559   3.560180
     9  H    2.121860   3.443431   4.391343   1.116134   4.335986
    10  H    1.110665   2.139727   2.614397   2.121574   2.387896
    11  H    1.109344   2.128739   3.344158   2.124958   3.792935
    12  H    2.126334   1.101220   2.122942   2.526629   3.301765
    13  H    2.120363   1.110520   2.125211   3.286753   3.337547
    14  H    3.323739   2.130119   1.103233   4.007057   2.129049
    15  H    3.284434   2.131121   1.109570   4.491170   2.138694
    16  H    3.789978   3.363149   2.154661   4.400162   1.121392
    17  H    2.407095   2.647411   2.162021   3.122168   1.103295
    18  H    2.570306   2.885769   4.347689   2.158568   5.212387
    19  H    3.241209   4.138351   5.481370   2.154352   5.957130
    20  H    3.299669   3.636018   4.802959   2.148325   5.453578
    21  H    4.552700   3.956392   2.693052   5.761051   2.158603
    22  H    3.653025   3.634237   2.936343   4.928137   2.180763
    23  H    4.684769   4.589769   3.486104   5.657521   2.178017
                    6          7          8          9         10
     6  C    0.000000
     7  C    6.276229   0.000000
     8  H    2.132151   4.922041   0.000000
     9  H    2.119939   5.369523   1.776630   0.000000
    10  H    3.427950   3.150071   2.512255   2.331211   0.000000
    11  H    2.716608   4.458924   3.063609   2.498426   1.765276
    12  H    2.766706   4.510804   2.557735   3.614966   2.957208
    13  H    3.638103   4.020438   3.732853   4.156111   2.801967
    14  H    4.740162   3.265023   3.609169   4.912454   3.489539
    15  H    5.278056   2.498036   4.486407   5.278085   3.306025
    16  H    5.610645   2.143163   3.839192   4.898409   3.289420
    17  H    4.500298   2.137030   2.891995   3.410235   1.622062
    18  H    1.106291   6.309397   2.901843   2.928553   3.645528
    19  H    1.130281   7.076147   2.910618   2.247869   4.035199
    20  H    1.110627   6.791329   2.260783   2.840579   4.178187
    21  H    6.892791   1.090678   5.649527   6.237641   3.990743
    22  H    6.152310   1.125104   5.071116   5.160238   2.863406
    23  H    7.009127   1.127778   5.447639   5.852759   3.797420
                   11         12         13         14         15
    11  H    0.000000
    12  H    2.786266   0.000000
    13  H    2.203891   1.748886   0.000000
    14  H    4.183192   2.193106   2.786354   0.000000
    15  H    3.788245   2.817467   2.186422   1.749142   0.000000
    16  H    4.751599   3.803051   4.202830   2.218794   2.817595
    17  H    3.295315   3.354247   3.508189   2.835161   2.959374
    18  H    2.504365   2.489948   3.046938   4.651461   4.965827
    19  H    3.190524   3.867741   4.529553   5.825877   6.260458
    20  H    3.709740   2.950532   4.222980   4.816558   5.674818
    21  H    5.068295   4.789435   4.175266   3.274189   2.263365
    22  H    3.964041   4.668242   3.844910   3.896253   2.806098
    23  H    5.299211   5.430282   5.093403   4.082942   3.572714
                   16         17         18         19         20
    16  H    0.000000
    17  H    1.776176   0.000000
    18  H    5.856211   4.808143   0.000000
    19  H    6.529331   5.256905   1.794879   0.000000
    20  H    5.796669   4.959856   1.786681   1.798439   0.000000
    21  H    2.599526   3.052869   6.793461   7.766056   7.358981
    22  H    3.082822   2.426081   6.118856   6.838771   6.828894
    23  H    2.393919   2.570786   7.172115   7.754332   7.491447
                   21         22         23
    21  H    0.000000
    22  H    1.792108   0.000000
    23  H    1.795805   1.816101   0.000000
 Stoichiometry    C7H16
 Framework group  C1[X(C7H16)]
 Deg. of freedom    63
 Full point group                 C1      NOp   1
 Largest Abelian subgroup         C1      NOp   1
 Largest concise Abelian subgroup C1      NOp   1
                         Standard orientation:                         
 ---------------------------------------------------------------------
 Center     Atomic      Atomic             Coordinates (Angstroms)
 Number     Number       Type             X           Y           Z
 ---------------------------------------------------------------------
      1          6           0       -0.807756   -0.334698   -0.629569
      2          6           0       -0.199027    0.987045   -0.306450
      3          6           0        1.190949    1.013469    0.278572
      4          6           0       -1.930801   -0.750197    0.259901
      5          6           0        1.871965   -0.299345    0.585885
      6          6           0       -3.171851    0.031922    0.126957
      7          6           0        3.059772   -0.583510   -0.296323
      8          1           0       -1.583261   -0.724540    1.331205
      9          1           0       -2.152134   -1.825380    0.058040
     10          1           0       -0.028350   -1.125444   -0.600880
     11          1           0       -1.171616   -0.319103   -1.677427
     12          1           0       -0.864006    1.537150    0.377562
     13          1           0       -0.183681    1.600017   -1.232347
     14          1           0        1.165433    1.611055    1.205590
     15          1           0        1.841231    1.594322   -0.407641
     16          1           0        2.217752   -0.290486    1.652596
     17          1           0        1.157635   -1.136336    0.505648
     18          1           0       -3.070613    0.882966   -0.572581
     19          1           0       -4.016241   -0.610727   -0.262328
     20          1           0       -3.506094    0.442467    1.103290
     21          1           0        3.695368    0.296254   -0.404081
     22          1           0        2.733217   -0.903294   -1.324408
     23          1           0        3.685869   -1.417039    0.133926
 ---------------------------------------------------------------------
 Rotational constants (GHZ):           5.8605093           1.0829784           1.0165529
 Leave Link  202 at Sat Sep 28 16:53:49 2019, MaxMem=   671088640 cpu:               3.7 elap:               1.9
 (Enter /shared/centos7/gaussian/g16/l301.exe)
 Standard basis: CC-pVTZ (5D, 7F)
 Ernie: Thresh=  0.10000D-02 Tol=  0.10000D-05 Strict=F.
 Ernie:  21 primitive shells out of 310 were deleted.
 There are   485 symmetry adapted cartesian basis functions of A   symmetry.
 There are   434 symmetry adapted basis functions of A   symmetry.
   434 basis functions,   636 primitive gaussians,   485 cartesian basis functions
    29 alpha electrons       29 beta electrons
       nuclear repulsion energy       323.7682634480 Hartrees.
 IExCor= 4336 DFT=T Ex+Corr=M062X ExCW=0 ScaHFX=  0.540000
 ScaDFX=  1.000000  1.000000  1.000000  1.000000 ScalE2=  1.000000  1.000000
 IRadAn=      5 IRanWt=     -1 IRanGd=            0 ICorTp=0 IEmpDi=  4
 NAtoms=   23 NActive=   23 NUniq=   23 SFac= 1.00D+00 NAtFMM=   60 NAOKFM=F Big=F
 Integral buffers will be    131072 words long.
 Raffenetti 2 integral format.
 Two-electron integral symmetry is turned on.
 Leave Link  301 at Sat Sep 28 16:53:50 2019, MaxMem=   671088640 cpu:               1.7 elap:               0.8
 (Enter /shared/centos7/gaussian/g16/l302.exe)
 NPDir=0 NMtPBC=     1 NCelOv=     1 NCel=       1 NClECP=     1 NCelD=      1
         NCelK=      1 NCelE2=     1 NClLst=     1 CellRange=     0.0.
 One-electron integrals computed using PRISM.
 One-electron integral symmetry used in STVInt
 NBasis=   434 RedAO= T EigKep=  2.06D-04  NBF=   434
 NBsUse=   434 1.00D-06 EigRej= -1.00D+00 NBFU=   434
 Precomputing XC quadrature grid using
 IXCGrd= 4 IRadAn=           5 IRanWt=          -1 IRanGd=           0 AccXCQ= 0.00D+00.
 Generated NRdTot=       0 NPtTot=           0 NUsed=           0 NTot=          32
 NSgBfM=   485   485   485   485   485 MxSgAt=    23 MxSgA2=    23.
 Leave Link  302 at Sat Sep 28 16:55:22 2019, MaxMem=   671088640 cpu:             184.8 elap:              92.4
 (Enter /shared/centos7/gaussian/g16/l303.exe)
 DipDrv:  MaxL=1.
 Leave Link  303 at Sat Sep 28 16:55:27 2019, MaxMem=   671088640 cpu:               8.9 elap:               4.5
 (Enter /shared/centos7/gaussian/g16/l401.exe)
 ExpMin= 1.03D-01 ExpMax= 8.24D+03 ExpMxC= 2.81D+02 IAcc=3 IRadAn=         5 AccDes= 0.00D+00
 Harris functional with IExCor= 1009 and IRadAn=       5 diagonalized for initial guess.
 HarFok:  IExCor= 1009 AccDes= 0.00D+00 IRadAn=         5 IDoV= 1 UseB2=F ITyADJ=14
 ICtDFT=  3500011 ScaDFX=  1.000000  1.000000  1.000000  1.000000
 FoFCou: FMM=F IPFlag=           0 FMFlag=      100000 FMFlg1=           0
         NFxFlg=           0 DoJE=T BraDBF=F KetDBF=T FulRan=T
         wScrn=  0.000000 ICntrl=       500 IOpCl=  0 I1Cent=   200000004 NGrid=           0
         NMat0=    1 NMatS0=      1 NMatT0=    0 NMatD0=    1 NMtDS0=    0 NMtDT0=    0
 Petite list used in FoFCou.
 Harris En= -276.312796518434    
 JPrj=0 DoOrth=F DoCkMO=F.
 Leave Link  401 at Sat Sep 28 16:56:18 2019, MaxMem=   671088640 cpu:             101.8 elap:              50.9
 (Enter /shared/centos7/gaussian/g16/l502.exe)
 Integral symmetry usage will be decided dynamically.
 Closed shell SCF:
 Using DIIS extrapolation, IDIIS=  1040.
 NGot=   671088640 LenX=   670604095 LenY=   670368385
 Requested convergence on RMS density matrix=1.00D-08 within 900 cycles.
 Requested convergence on MAX density matrix=1.00D-06.
 Requested convergence on             energy=1.00D-06.
 No special actions if energy rises.
 Fock matrices will be formed incrementally for  20 cycles.
 Integral accuracy reduced to 1.0D-05 until final iterations.

 Cycle   1  Pass 0  IDiag  1:
 FoFJK:  IHMeth= 1 ICntrl=       0 DoSepK=F KAlg= 0 I1Cent=           0 FoldK=F
 IRaf= 920000000 NMat=       1 IRICut=       1 DoRegI=T DoRafI=F ISym2E= 0 IDoP0=0 IntGTp=1.
 FoFCou: FMM=F IPFlag=           0 FMFlag=      100000 FMFlg1=           0
         NFxFlg=           0 DoJE=F BraDBF=F KetDBF=F FulRan=T
         wScrn=  0.000000 ICntrl=         0 IOpCl=  0 I1Cent=           0 NGrid=           0
         NMat0=    1 NMatS0=      1 NMatT0=    0 NMatD0=    1 NMtDS0=    0 NMtDT0=    0
 Symmetry not used in FoFCou.
 E= -275.938351377182    
 DIIS: error= 2.90D-02 at cycle   1 NSaved=   1.
 NSaved= 1 IEnMin= 1 EnMin= -275.938351377182     IErMin= 1 ErrMin= 2.90D-02
 ErrMax= 2.90D-02  0.00D+00 EMaxC= 1.00D-01 BMatC= 3.75D-01 BMatP= 3.75D-01
 IDIUse=3 WtCom= 7.10D-01 WtEn= 2.90D-01
 Coeff-Com:  0.100D+01
 Coeff-En:   0.100D+01
 Coeff:      0.100D+01
 Gap=     0.359 Goal=   None    Shift=    0.000
 GapD=    0.359 DampG=1.000 DampE=0.500 DampFc=0.5000 IDamp=-1.
 Damping current iteration by 5.00D-01
 RMSDP=1.93D-03 MaxDP=6.71D-02              OVMax= 1.66D-01

 Cycle   2  Pass 0  IDiag  1:
 RMSU=  9.61D-04    CP:  9.90D-01
 E= -276.117939813482     Delta-E=       -0.179588436300 Rises=F Damp=T
 DIIS: error= 5.38D-03 at cycle   2 NSaved=   2.
 NSaved= 2 IEnMin= 2 EnMin= -276.117939813482     IErMin= 2 ErrMin= 5.38D-03
 ErrMax= 5.38D-03  0.00D+00 EMaxC= 1.00D-01 BMatC= 1.84D-02 BMatP= 3.75D-01
 IDIUse=3 WtCom= 9.46D-01 WtEn= 5.38D-02
 Coeff-Com: -0.541D-01 0.105D+01
 Coeff-En:   0.000D+00 0.100D+01
 Coeff:     -0.512D-01 0.105D+01
 Gap=     0.444 Goal=   None    Shift=    0.000
 RMSDP=5.27D-04 MaxDP=1.91D-02 DE=-1.80D-01 OVMax= 8.90D-02

 Cycle   3  Pass 0  IDiag  1:
 RMSU=  5.20D-04    CP:  9.98D-01  9.27D-01
 E= -276.297429288256     Delta-E=       -0.179489474773 Rises=F Damp=F
 DIIS: error= 2.30D-03 at cycle   3 NSaved=   3.
 NSaved= 3 IEnMin= 3 EnMin= -276.297429288256     IErMin= 3 ErrMin= 2.30D-03
 ErrMax= 2.30D-03  0.00D+00 EMaxC= 1.00D-01 BMatC= 2.31D-03 BMatP= 1.84D-02
 IDIUse=3 WtCom= 9.77D-01 WtEn= 2.30D-02
 Coeff-Com: -0.495D-01 0.225D+00 0.825D+00
 Coeff-En:   0.000D+00 0.000D+00 0.100D+01
 Coeff:     -0.483D-01 0.220D+00 0.829D+00
 Gap=     0.409 Goal=   None    Shift=    0.000
 RMSDP=8.53D-05 MaxDP=2.93D-03 DE=-1.79D-01 OVMax= 9.79D-03

 Cycle   4  Pass 0  IDiag  1:
 RMSU=  6.72D-05    CP:  9.97D-01  9.74D-01  9.49D-01
 E= -276.299439430522     Delta-E=       -0.002010142267 Rises=F Damp=F
 DIIS: error= 6.01D-04 at cycle   4 NSaved=   4.
 NSaved= 4 IEnMin= 4 EnMin= -276.299439430522     IErMin= 4 ErrMin= 6.01D-04
 ErrMax= 6.01D-04  0.00D+00 EMaxC= 1.00D-01 BMatC= 2.40D-04 BMatP= 2.31D-03
 IDIUse=3 WtCom= 9.94D-01 WtEn= 6.01D-03
 Coeff-Com: -0.131D-01 0.377D-01 0.282D+00 0.693D+00
 Coeff-En:   0.000D+00 0.000D+00 0.000D+00 0.100D+01
 Coeff:     -0.131D-01 0.374D-01 0.280D+00 0.695D+00
 Gap=     0.410 Goal=   None    Shift=    0.000
 RMSDP=3.00D-05 MaxDP=1.32D-03 DE=-2.01D-03 OVMax= 2.89D-03

 Cycle   5  Pass 0  IDiag  1:
 RMSU=  1.91D-05    CP:  9.97D-01  9.66D-01  9.80D-01  7.75D-01
 E= -276.299653689568     Delta-E=       -0.000214259046 Rises=F Damp=F
 DIIS: error= 1.87D-04 at cycle   5 NSaved=   5.
 NSaved= 5 IEnMin= 5 EnMin= -276.299653689568     IErMin= 5 ErrMin= 1.87D-04
 ErrMax= 1.87D-04  0.00D+00 EMaxC= 1.00D-01 BMatC= 2.06D-05 BMatP= 2.40D-04
 IDIUse=3 WtCom= 9.98D-01 WtEn= 1.87D-03
 Coeff-Com: -0.130D-02 0.146D-03 0.526D-01 0.269D+00 0.679D+00
 Coeff-En:   0.000D+00 0.000D+00 0.000D+00 0.000D+00 0.100D+01
 Coeff:     -0.130D-02 0.146D-03 0.525D-01 0.269D+00 0.680D+00
 Gap=     0.410 Goal=   None    Shift=    0.000
 RMSDP=6.86D-06 MaxDP=3.71D-04 DE=-2.14D-04 OVMax= 7.40D-04

 Initial convergence to 1.0D-05 achieved.  Increase integral accuracy.
 Cycle   6  Pass 1  IDiag  1:
 E= -276.299631858698     Delta-E=        0.000021830870 Rises=F Damp=F
 DIIS: error= 5.54D-05 at cycle   1 NSaved=   1.
 NSaved= 1 IEnMin= 1 EnMin= -276.299631858698     IErMin= 1 ErrMin= 5.54D-05
 ErrMax= 5.54D-05  0.00D+00 EMaxC= 1.00D-01 BMatC= 1.62D-06 BMatP= 1.62D-06
 IDIUse=1 WtCom= 1.00D+00 WtEn= 0.00D+00
 Coeff-Com:  0.100D+01
 Coeff:      0.100D+01
 Gap=     0.410 Goal=   None    Shift=    0.000
 RMSDP=6.86D-06 MaxDP=3.71D-04 DE= 2.18D-05 OVMax= 2.12D-04

 Cycle   7  Pass 1  IDiag  1:
 RMSU=  1.31D-05    CP:  1.00D+00
 E= -276.299632775285     Delta-E=       -0.000000916586 Rises=F Damp=F
 DIIS: error= 2.00D-05 at cycle   2 NSaved=   2.
 NSaved= 2 IEnMin= 2 EnMin= -276.299632775285     IErMin= 2 ErrMin= 2.00D-05
 ErrMax= 2.00D-05  0.00D+00 EMaxC= 1.00D-01 BMatC= 2.56D-07 BMatP= 1.62D-06
 IDIUse=1 WtCom= 1.00D+00 WtEn= 0.00D+00
 Coeff-Com:  0.207D+00 0.793D+00
 Coeff:      0.207D+00 0.793D+00
 Gap=     0.410 Goal=   None    Shift=    0.000
 RMSDP=1.12D-06 MaxDP=4.81D-05 DE=-9.17D-07 OVMax= 1.16D-04

 Cycle   8  Pass 1  IDiag  1:
 RMSU=  1.09D-06    CP:  1.00D+00  1.02D+00
 E= -276.299632944152     Delta-E=       -0.000000168867 Rises=F Damp=F
 DIIS: error= 1.26D-05 at cycle   3 NSaved=   3.
 NSaved= 3 IEnMin= 3 EnMin= -276.299632944152     IErMin= 3 ErrMin= 1.26D-05
 ErrMax= 1.26D-05  0.00D+00 EMaxC= 1.00D-01 BMatC= 8.49D-08 BMatP= 2.56D-07
 IDIUse=1 WtCom= 1.00D+00 WtEn= 0.00D+00
 Coeff-Com: -0.881D-02 0.359D+00 0.650D+00
 Coeff:     -0.881D-02 0.359D+00 0.650D+00
 Gap=     0.410 Goal=   None    Shift=    0.000
 RMSDP=4.60D-07 MaxDP=1.82D-05 DE=-1.69D-07 OVMax= 4.80D-05

 Cycle   9  Pass 1  IDiag  1:
 RMSU=  2.88D-07    CP:  1.00D+00  1.03D+00  7.04D-01
 E= -276.299633025395     Delta-E=       -0.000000081243 Rises=F Damp=F
 DIIS: error= 1.51D-06 at cycle   4 NSaved=   4.
 NSaved= 4 IEnMin= 4 EnMin= -276.299633025395     IErMin= 4 ErrMin= 1.51D-06
 ErrMax= 1.51D-06  0.00D+00 EMaxC= 1.00D-01 BMatC= 1.14D-09 BMatP= 8.49D-08
 IDIUse=1 WtCom= 1.00D+00 WtEn= 0.00D+00
 Coeff-Com: -0.883D-02 0.781D-01 0.185D+00 0.746D+00
 Coeff:     -0.883D-02 0.781D-01 0.185D+00 0.746D+00
 Gap=     0.410 Goal=   None    Shift=    0.000
 RMSDP=7.05D-08 MaxDP=2.26D-06 DE=-8.12D-08 OVMax= 6.57D-06

 Cycle  10  Pass 1  IDiag  1:
 RMSU=  6.67D-08    CP:  1.00D+00  1.03D+00  7.19D-01  9.94D-01
 E= -276.299633026578     Delta-E=       -0.000000001183 Rises=F Damp=F
 DIIS: error= 3.83D-07 at cycle   5 NSaved=   5.
 NSaved= 5 IEnMin= 5 EnMin= -276.299633026578     IErMin= 5 ErrMin= 3.83D-07
 ErrMax= 3.83D-07  0.00D+00 EMaxC= 1.00D-01 BMatC= 4.91D-11 BMatP= 1.14D-09
 IDIUse=1 WtCom= 1.00D+00 WtEn= 0.00D+00
 Coeff-Com:  0.122D-03-0.254D-01-0.425D-01 0.540D-01 0.101D+01
 Coeff:      0.122D-03-0.254D-01-0.425D-01 0.540D-01 0.101D+01
 Gap=     0.410 Goal=   None    Shift=    0.000
 RMSDP=3.18D-08 MaxDP=7.93D-07 DE=-1.18D-09 OVMax= 2.27D-06

 Cycle  11  Pass 1  IDiag  1:
 RMSU=  1.35D-08    CP:  1.00D+00  1.03D+00  7.23D-01  1.09D+00  1.10D+00
 E= -276.299633026680     Delta-E=       -0.000000000102 Rises=F Damp=F
 DIIS: error= 1.14D-07 at cycle   6 NSaved=   6.
 NSaved= 6 IEnMin= 6 EnMin= -276.299633026680     IErMin= 6 ErrMin= 1.14D-07
 ErrMax= 1.14D-07  0.00D+00 EMaxC= 1.00D-01 BMatC= 1.09D-11 BMatP= 4.91D-11
 IDIUse=1 WtCom= 1.00D+00 WtEn= 0.00D+00
 Coeff-Com:  0.440D-03-0.148D-01-0.271D-01-0.900D-02 0.454D+00 0.596D+00
 Coeff:      0.440D-03-0.148D-01-0.271D-01-0.900D-02 0.454D+00 0.596D+00
 Gap=     0.410 Goal=   None    Shift=    0.000
 RMSDP=5.21D-09 MaxDP=2.42D-07 DE=-1.02D-10 OVMax= 5.87D-07

 SCF Done:  E(RM062X) =  -276.299633027     A.U. after   11 cycles
            NFock= 11  Conv=0.52D-08     -V/T= 2.0065
 KE= 2.745215296277D+02 PE=-1.285985729640D+03 EE= 4.113963035380D+02
 Leave Link  502 at Sat Sep 28 17:18:37 2019, MaxMem=   671088640 cpu:            2677.1 elap:            1339.1
 (Enter /shared/centos7/gaussian/g16/l801.exe)
 DoSCS=F DFT=T ScalE2(SS,OS)=  1.000000  1.000000
 Range of M.O.s used for correlation:     1   434
 NBasis=   434 NAE=    29 NBE=    29 NFC=     0 NFV=     0
 NROrb=    434 NOA=    29 NOB=    29 NVA=   405 NVB=   405

 **** Warning!!: The largest alpha MO coefficient is  0.11387631D+02

 Leave Link  801 at Sat Sep 28 17:18:38 2019, MaxMem=   671088640 cpu:               1.7 elap:               0.9
 (Enter /shared/centos7/gaussian/g16/l1101.exe)
 Using compressed storage, NAtomX=    23.
 Will process     24 centers per pass.
 Leave Link 1101 at Sat Sep 28 17:19:26 2019, MaxMem=   671088640 cpu:              97.2 elap:              48.6
 (Enter /shared/centos7/gaussian/g16/l1102.exe)
 Symmetrizing basis deriv contribution to polar:
 IMax=3 JMax=2 DiffMx= 0.00D+00
 Leave Link 1102 at Sat Sep 28 17:19:29 2019, MaxMem=   671088640 cpu:               4.3 elap:               2.2
 (Enter /shared/centos7/gaussian/g16/l1110.exe)
 Forming Gx(P) for the SCF density, NAtomX=    23.
 Integral derivatives from FoFJK, PRISM(SPDF).
 Do as many integral derivatives as possible in FoFJK.
 G2DrvN: MDV=     671086848.
 G2DrvN: will do    24 centers at a time, making    1 passes.
 Calling FoFCou, ICntrl=  3107 FMM=F I1Cent=   0 AccDes= 0.00D+00.
 FoFJK:  IHMeth= 1 ICntrl=    3107 DoSepK=F KAlg= 0 I1Cent=           0 FoldK=F
 IRaf=         0 NMat=       1 IRICut=       1 DoRegI=T DoRafI=F ISym2E= 0 IDoP0=0 IntGTp=1.
 FoFCou: FMM=F IPFlag=           0 FMFlag=      100000 FMFlg1=           0
         NFxFlg=           0 DoJE=F BraDBF=F KetDBF=F FulRan=T
         wScrn=  0.000000 ICntrl=      3107 IOpCl=  0 I1Cent=           0 NGrid=           0
         NMat0=    1 NMatS0=      1 NMatT0=    0 NMatD0=    1 NMtDS0=    0 NMtDT0=    0
 Symmetry not used in FoFCou.
 End of G2Drv F.D. properties file   721 does not exist.
 End of G2Drv F.D. properties file   722 does not exist.
 End of G2Drv F.D. properties file   788 does not exist.
 Leave Link 1110 at Sat Sep 28 18:13:01 2019, MaxMem=   671088640 cpu:            6424.2 elap:            3212.8
 (Enter /shared/centos7/gaussian/g16/l1002.exe)
 Minotr:  Closed shell wavefunction.
          IDoAtm=11111111111111111111111
          Direct CPHF calculation.
          Differentiating once with respect to nuclear coordinates.
          Requested convergence is 1.0D-08 RMS, and 1.0D-07 maximum.
          Secondary convergence is 1.0D-12 RMS, and 1.0D-12 maximum.
          NewPWx=T KeepS1=F KeepF1=F KeepIn=T MapXYZ=F SortEE=F KeepMc=T.
         6932 words used for storage of precomputed grid.
 Two-electron integrals replicated using symmetry.
          MDV=     671088640 using IRadAn=       1.
          Solving linear equations simultaneously, MaxMat=     380.
 FoF2E skips out because all densities are zero.
 CalDSu exits because no D1Ps are significant.
 FoFJK:  IHMeth= 1 ICntrl=       0 DoSepK=F KAlg= 0 I1Cent=           0 FoldK=F
 IRaf= 910000000 NMat=      69 IRICut=     172 DoRegI=T DoRafI=T ISym2E= 2 IDoP0=3 IntGTp=3.
 FoFCou: FMM=F IPFlag=           0 FMFlag=      100000 FMFlg1=           0
         NFxFlg=           0 DoJE=F BraDBF=F KetDBF=F FulRan=T
         wScrn=  0.000000 ICntrl=         0 IOpCl=  0 I1Cent=           0 NGrid=           0
         NMat0=   69 NMatS0=     69 NMatT0=    0 NMatD0=   69 NMtDS0=    0 NMtDT0=    0
 Integrals replicated using symmetry in FoFCou.
 Raff kept on since  86.86% of shell-pairs survive, threshold=   0.20 IRatSp=87.
          There are    72 degrees of freedom in the 1st order CPHF.  IDoFFX=6 NUNeed=     0.
     66 vectors produced by pass  0 Test12= 1.63D-14 1.39D-09 XBig12= 5.52D-02 4.64D-02.
 AX will form    66 AO Fock derivatives at one time.
     66 vectors produced by pass  1 Test12= 1.63D-14 1.39D-09 XBig12= 2.93D-03 7.56D-03.
     66 vectors produced by pass  2 Test12= 1.63D-14 1.39D-09 XBig12= 4.76D-05 1.11D-03.
     66 vectors produced by pass  3 Test12= 1.63D-14 1.39D-09 XBig12= 3.75D-07 8.46D-05.
     66 vectors produced by pass  4 Test12= 1.63D-14 1.39D-09 XBig12= 1.77D-09 4.30D-06.
     66 vectors produced by pass  5 Test12= 1.63D-14 1.39D-09 XBig12= 8.85D-12 3.06D-07.
     22 vectors produced by pass  6 Test12= 1.63D-14 1.39D-09 XBig12= 3.27D-14 1.60D-08.
 InvSVY:  IOpt=1 It=  1 EMax= 2.78D-16
 Solved reduced A of dimension   418 with    72 vectors.
 End of Minotr F.D. properties file   721 does not exist.
 End of Minotr F.D. properties file   722 does not exist.
 End of Minotr F.D. properties file   788 does not exist.
 Leave Link 1002 at Sat Sep 28 19:41:14 2019, MaxMem=   671088640 cpu:           10582.7 elap:            5292.5
 (Enter /shared/centos7/gaussian/g16/l601.exe)
 Copying SCF densities to generalized density rwf, IOpCl= 0 IROHF=0.

 **********************************************************************

            Population analysis using the SCF density.

 **********************************************************************

 Orbital symmetries:
       Occupied  (A) (A) (A) (A) (A) (A) (A) (A) (A) (A) (A) (A)
                 (A) (A) (A) (A) (A) (A) (A) (A) (A) (A) (A) (A)
                 (A) (A) (A) (A) (A)
       Virtual   (A) (A) (A) (A) (A) (A) (A) (A) (A) (A) (A) (A)
                 (A) (A) (A) (A) (A) (A) (A) (A) (A) (A) (A) (A)
                 (A) (A) (A) (A) (A) (A) (A) (A) (A) (A) (A) (A)
                 (A) (A) (A) (A) (A) (A) (A) (A) (A) (A) (A) (A)
                 (A) (A) (A) (A) (A) (A) (A) (A) (A) (A) (A) (A)
                 (A) (A) (A) (A) (A) (A) (A) (A) (A) (A) (A) (A)
                 (A) (A) (A) (A) (A) (A) (A) (A) (A) (A) (A) (A)
                 (A) (A) (A) (A) (A) (A) (A) (A) (A) (A) (A) (A)
                 (A) (A) (A) (A) (A) (A) (A) (A) (A) (A) (A) (A)
                 (A) (A) (A) (A) (A) (A) (A) (A) (A) (A) (A) (A)
                 (A) (A) (A) (A) (A) (A) (A) (A) (A) (A) (A) (A)
                 (A) (A) (A) (A) (A) (A) (A) (A) (A) (A) (A) (A)
                 (A) (A) (A) (A) (A) (A) (A) (A) (A) (A) (A) (A)
                 (A) (A) (A) (A) (A) (A) (A) (A) (A) (A) (A) (A)
                 (A) (A) (A) (A) (A) (A) (A) (A) (A) (A) (A) (A)
                 (A) (A) (A) (A) (A) (A) (A) (A) (A) (A) (A) (A)
                 (A) (A) (A) (A) (A) (A) (A) (A) (A) (A) (A) (A)
                 (A) (A) (A) (A) (A) (A) (A) (A) (A) (A) (A) (A)
                 (A) (A) (A) (A) (A) (A) (A) (A) (A) (A) (A) (A)
                 (A) (A) (A) (A) (A) (A) (A) (A) (A) (A) (A) (A)
                 (A) (A) (A) (A) (A) (A) (A) (A) (A) (A) (A) (A)
                 (A) (A) (A) (A) (A) (A) (A) (A) (A) (A) (A) (A)
                 (A) (A) (A) (A) (A) (A) (A) (A) (A) (A) (A) (A)
                 (A) (A) (A) (A) (A) (A) (A) (A) (A) (A) (A) (A)
                 (A) (A) (A) (A) (A) (A) (A) (A) (A) (A) (A) (A)
                 (A) (A) (A) (A) (A) (A) (A) (A) (A) (A) (A) (A)
                 (A) (A) (A) (A) (A) (A) (A) (A) (A) (A) (A) (A)
                 (A) (A) (A) (A) (A) (A) (A) (A) (A) (A) (A) (A)
                 (A) (A) (A) (A) (A) (A) (A) (A) (A) (A) (A) (A)
                 (A) (A) (A) (A) (A) (A) (A) (A) (A) (A) (A) (A)
                 (A) (A) (A) (A) (A) (A) (A) (A) (A) (A) (A) (A)
                 (A) (A) (A) (A) (A) (A) (A) (A) (A) (A) (A) (A)
                 (A) (A) (A) (A) (A) (A) (A) (A) (A) (A) (A) (A)
                 (A) (A) (A) (A) (A) (A) (A) (A) (A)
 The electronic state is 1-A.
 Alpha  occ. eigenvalues --  -10.52599 -10.52585 -10.52554 -10.52324 -10.52309
 Alpha  occ. eigenvalues --  -10.52164 -10.52083  -0.92159  -0.88159  -0.82660
 Alpha  occ. eigenvalues --   -0.76607  -0.71007  -0.66305  -0.61644  -0.55183
 Alpha  occ. eigenvalues --   -0.53558  -0.51507  -0.49673  -0.47739  -0.46285
 Alpha  occ. eigenvalues --   -0.45090  -0.43106  -0.41888  -0.40114  -0.38742
 Alpha  occ. eigenvalues --   -0.37820  -0.36834  -0.35525  -0.34853
 Alpha virt. eigenvalues --    0.06139   0.08264   0.08315   0.08680   0.10187
 Alpha virt. eigenvalues --    0.11485   0.11714   0.12683   0.14219   0.14804
 Alpha virt. eigenvalues --    0.16215   0.16804   0.17740   0.18319   0.19185
 Alpha virt. eigenvalues --    0.21986   0.22807   0.23158   0.25461   0.25727
 Alpha virt. eigenvalues --    0.26793   0.28180   0.29770   0.31025   0.31637
 Alpha virt. eigenvalues --    0.32248   0.34381   0.35068   0.35566   0.37592
 Alpha virt. eigenvalues --    0.39020   0.40660   0.40755   0.41934   0.43359
 Alpha virt. eigenvalues --    0.45057   0.45494   0.46174   0.46899   0.47003
 Alpha virt. eigenvalues --    0.47782   0.49031   0.49892   0.50108   0.51310
 Alpha virt. eigenvalues --    0.51855   0.52348   0.52776   0.53466   0.54177
 Alpha virt. eigenvalues --    0.54335   0.54931   0.55198   0.55829   0.56643
 Alpha virt. eigenvalues --    0.57027   0.57869   0.58896   0.61675   0.62624
 Alpha virt. eigenvalues --    0.63907   0.66084   0.68251   0.72037   0.76595
 Alpha virt. eigenvalues --    0.78745   0.80819   0.81202   0.85256   0.86428
 Alpha virt. eigenvalues --    0.87232   0.88565   0.89774   0.91565   0.93217
 Alpha virt. eigenvalues --    0.94005   0.96077   0.96298   0.97466   0.99595
 Alpha virt. eigenvalues --    1.00582   1.02166   1.03616   1.03860   1.04257
 Alpha virt. eigenvalues --    1.05183   1.05535   1.07516   1.09072   1.09247
 Alpha virt. eigenvalues --    1.10046   1.10662   1.12464   1.13147   1.14228
 Alpha virt. eigenvalues --    1.14776   1.14912   1.16578   1.17295   1.19377
 Alpha virt. eigenvalues --    1.20120   1.20432   1.22356   1.22959   1.23730
 Alpha virt. eigenvalues --    1.24387   1.25050   1.26320   1.28014   1.28401
 Alpha virt. eigenvalues --    1.30887   1.31422   1.32308   1.33409   1.33553
 Alpha virt. eigenvalues --    1.33898   1.34414   1.35350   1.37401   1.38012
 Alpha virt. eigenvalues --    1.38597   1.40069   1.41625   1.43019   1.45032
 Alpha virt. eigenvalues --    1.46386   1.47655   1.48164   1.49943   1.50740
 Alpha virt. eigenvalues --    1.51442   1.52309   1.52994   1.54259   1.55685
 Alpha virt. eigenvalues --    1.57396   1.57496   1.58066   1.59717   1.62723
 Alpha virt. eigenvalues --    1.65590   1.66887   1.68451   1.69489   1.71751
 Alpha virt. eigenvalues --    1.72168   1.78677   1.79411   1.93623   2.18359
 Alpha virt. eigenvalues --    2.22146   2.26041   2.27697   2.30320   2.31743
 Alpha virt. eigenvalues --    2.35274   2.35876   2.37491   2.40055   2.42056
 Alpha virt. eigenvalues --    2.45503   2.47844   2.49387   2.50236   2.51669
 Alpha virt. eigenvalues --    2.54673   2.56140   2.57504   2.58923   2.60156
 Alpha virt. eigenvalues --    2.61044   2.62584   2.63265   2.64443   2.66521
 Alpha virt. eigenvalues --    2.68108   2.69383   2.70055   2.72417   2.74566
 Alpha virt. eigenvalues --    2.75431   2.77168   2.78167   2.78245   2.79967
 Alpha virt. eigenvalues --    2.80759   2.82410   2.82621   2.83544   2.85515
 Alpha virt. eigenvalues --    2.86496   2.88587   2.88985   2.90717   2.91123
 Alpha virt. eigenvalues --    2.93833   2.94782   2.95234   2.96850   2.97885
 Alpha virt. eigenvalues --    2.99132   2.99736   3.01601   3.01791   3.01969
 Alpha virt. eigenvalues --    3.04161   3.05237   3.05866   3.06094   3.08912
 Alpha virt. eigenvalues --    3.09786   3.10422   3.10602   3.11631   3.12714
 Alpha virt. eigenvalues --    3.13525   3.14448   3.15313   3.16020   3.17061
 Alpha virt. eigenvalues --    3.18321   3.18670   3.19410   3.20206   3.23351
 Alpha virt. eigenvalues --    3.24637   3.25512   3.28447   3.29665   3.30394
 Alpha virt. eigenvalues --    3.31167   3.31994   3.33466   3.34322   3.36267
 Alpha virt. eigenvalues --    3.37326   3.38498   3.38843   3.40171   3.40586
 Alpha virt. eigenvalues --    3.42529   3.43893   3.45400   3.46347   3.46717
 Alpha virt. eigenvalues --    3.48688   3.50286   3.51929   3.52484   3.54307
 Alpha virt. eigenvalues --    3.54784   3.56326   3.58000   3.58269   3.59351
 Alpha virt. eigenvalues --    3.60617   3.62266   3.62918   3.64158   3.66011
 Alpha virt. eigenvalues --    3.67373   3.68888   3.70822   3.72037   3.73570
 Alpha virt. eigenvalues --    3.74401   3.75177   3.76834   3.77506   3.79462
 Alpha virt. eigenvalues --    3.80613   3.81743   3.81882   3.83784   3.84825
 Alpha virt. eigenvalues --    3.86354   3.87544   3.88739   3.89473   3.90714
 Alpha virt. eigenvalues --    3.91680   3.92517   3.94113   3.95469   3.95735
 Alpha virt. eigenvalues --    3.96161   3.98342   3.98650   3.99343   4.00571
 Alpha virt. eigenvalues --    4.02194   4.03047   4.04056   4.04681   4.04951
 Alpha virt. eigenvalues --    4.05454   4.08499   4.09559   4.11022   4.11129
 Alpha virt. eigenvalues --    4.12832   4.14236   4.15296   4.17242   4.17932
 Alpha virt. eigenvalues --    4.18648   4.20079   4.20575   4.22096   4.22709
 Alpha virt. eigenvalues --    4.23311   4.25622   4.27102   4.28791   4.29849
 Alpha virt. eigenvalues --    4.30288   4.33008   4.34031   4.35061   4.36438
 Alpha virt. eigenvalues --    4.38766   4.40706   4.42103   4.44216   4.44880
 Alpha virt. eigenvalues --    4.47986   4.48383   4.50602   4.53384   4.55786
 Alpha virt. eigenvalues --    4.56532   4.58134   4.58950   4.61700   4.65675
 Alpha virt. eigenvalues --    4.67613   4.70181   4.73410   4.73970   4.75402
 Alpha virt. eigenvalues --    4.75939   4.77177   4.79746   4.79920   4.82546
 Alpha virt. eigenvalues --    4.84207   4.86632   4.87549   4.89761   4.91622
 Alpha virt. eigenvalues --    4.94293   4.95606   4.96992   4.99447   5.00992
 Alpha virt. eigenvalues --    5.02926   5.03995   5.05166   5.07525   5.08066
 Alpha virt. eigenvalues --    5.09825   5.11129   5.12485   5.14013   5.17583
 Alpha virt. eigenvalues --    5.17773   5.19708   5.23926   5.24390   5.25516
 Alpha virt. eigenvalues --    5.26016   5.27874   5.28878   5.30028   5.32223
 Alpha virt. eigenvalues --    5.33357   5.34592   5.40275   5.41583   5.44327
 Alpha virt. eigenvalues --    5.47824   5.52071   5.53977   5.55325   5.57376
 Alpha virt. eigenvalues --    5.60070   5.63923   5.69956   5.76020   5.78050
 Alpha virt. eigenvalues --    5.79212   5.82404   5.84009   5.87217   5.95129
 Alpha virt. eigenvalues --    5.99153   6.04347   6.05978  11.25063  11.69929
 Alpha virt. eigenvalues --   12.33595  12.82057  13.18315  13.58103  13.95178
          Condensed to atoms (all electrons):
               1          2          3          4          5          6
     1  C    5.169185   0.283396  -0.037481   0.307130  -0.026154  -0.043671
     2  C    0.283396   5.110797   0.295685  -0.047992  -0.042555  -0.006523
     3  C   -0.037481   0.295685   5.077424   0.003374   0.297146   0.000059
     4  C    0.307130  -0.047992   0.003374   5.061481   0.000144   0.286415
     5  C   -0.026154  -0.042555   0.297146   0.000144   5.097054  -0.000096
     6  C   -0.043671  -0.006523   0.000059   0.286415  -0.000096   4.991994
     7  C   -0.001175   0.007530  -0.058956   0.000285   0.318640  -0.000009
     8  H   -0.044658  -0.003914   0.000392   0.407093   0.001020  -0.047806
     9  H   -0.046845   0.009657  -0.000414   0.417425  -0.000038  -0.045721
    10  H    0.421053  -0.047941  -0.011361  -0.045272  -0.012635   0.009395
    11  H    0.409793  -0.051042   0.006513  -0.040939   0.001351  -0.008465
    12  H   -0.061502   0.420700  -0.043306  -0.007054   0.004563   0.001588
    13  H   -0.048299   0.421939  -0.046193   0.007916   0.007512  -0.000396
    14  H    0.007383  -0.047402   0.419189  -0.000448  -0.045601   0.000072
    15  H    0.004562  -0.049243   0.424689  -0.000453  -0.055496  -0.000010
    16  H    0.001248   0.006082  -0.045083  -0.000077   0.409479   0.000010
    17  H   -0.009718  -0.008488  -0.047353  -0.001764   0.413531  -0.000077
    18  H   -0.001816  -0.000760   0.000117  -0.060841  -0.000027   0.409561
    19  H    0.003645  -0.000056  -0.000006  -0.043703   0.000008   0.404114
    20  H    0.006547  -0.000370   0.000074  -0.044451   0.000007   0.405688
    21  H   -0.000043   0.000518  -0.009502  -0.000015  -0.044208   0.000000
    22  H    0.000920   0.000181  -0.000421   0.000013  -0.041260   0.000001
    23  H    0.000011  -0.000644   0.009619  -0.000005  -0.042334   0.000000
               7          8          9         10         11         12
     1  C   -0.001175  -0.044658  -0.046845   0.421053   0.409793  -0.061502
     2  C    0.007530  -0.003914   0.009657  -0.047941  -0.051042   0.420700
     3  C   -0.058956   0.000392  -0.000414  -0.011361   0.006513  -0.043306
     4  C    0.000285   0.407093   0.417425  -0.045272  -0.040939  -0.007054
     5  C    0.318640   0.001020  -0.000038  -0.012635   0.001351   0.004563
     6  C   -0.000009  -0.047806  -0.045721   0.009395  -0.008465   0.001588
     7  C    4.942580   0.000042  -0.000004  -0.001175  -0.000053  -0.000473
     8  H    0.000042   0.610621  -0.035372  -0.006902   0.009274  -0.000693
     9  H   -0.000004  -0.035372   0.606664  -0.008399  -0.004841   0.000590
    10  H   -0.001175  -0.006902  -0.008399   0.597311  -0.033496   0.006850
    11  H   -0.000053   0.009274  -0.004841  -0.033496   0.584954   0.005088
    12  H   -0.000473  -0.000693   0.000590   0.006850   0.005088   0.596909
    13  H   -0.000361  -0.000087  -0.000610   0.004430  -0.019966  -0.040315
    14  H    0.007016  -0.000316   0.000022   0.000400  -0.000547  -0.019391
    15  H   -0.011655  -0.000003   0.000037   0.000265   0.000140   0.007115
    16  H   -0.040403   0.000136  -0.000015   0.001481  -0.000001   0.000193
    17  H   -0.041432   0.000199   0.000546  -0.013418   0.000974  -0.000098
    18  H   -0.000000   0.005716   0.006293   0.000493   0.000278  -0.000349
    19  H    0.000000   0.007543  -0.020846  -0.000528   0.002099   0.000044
    20  H   -0.000000  -0.018589   0.006182  -0.000568  -0.000104  -0.001011
    21  H    0.408681  -0.000001   0.000001  -0.000350   0.000017  -0.000051
    22  H    0.398243   0.000013  -0.000009   0.001893  -0.000016   0.000048
    23  H    0.405655  -0.000000  -0.000000   0.000299   0.000002   0.000031
              13         14         15         16         17         18
     1  C   -0.048299   0.007383   0.004562   0.001248  -0.009718  -0.001816
     2  C    0.421939  -0.047402  -0.049243   0.006082  -0.008488  -0.000760
     3  C   -0.046193   0.419189   0.424689  -0.045083  -0.047353   0.000117
     4  C    0.007916  -0.000448  -0.000453  -0.000077  -0.001764  -0.060841
     5  C    0.007512  -0.045601  -0.055496   0.409479   0.413531  -0.000027
     6  C   -0.000396   0.000072  -0.000010   0.000010  -0.000077   0.409561
     7  C   -0.000361   0.007016  -0.011655  -0.040403  -0.041432  -0.000000
     8  H   -0.000087  -0.000316  -0.000003   0.000136   0.000199   0.005716
     9  H   -0.000610   0.000022   0.000037  -0.000015   0.000546   0.006293
    10  H    0.004430   0.000400   0.000265   0.001481  -0.013418   0.000493
    11  H   -0.019966  -0.000547   0.000140  -0.000001   0.000974   0.000278
    12  H   -0.040315  -0.019391   0.007115   0.000193  -0.000098  -0.000349
    13  H    0.605069   0.006511  -0.020498  -0.000501   0.000337  -0.000578
    14  H    0.006511   0.606148  -0.040997  -0.018985   0.004552   0.000053
    15  H   -0.020498  -0.040997   0.611314   0.005690   0.006108  -0.000009
    16  H   -0.000501  -0.018985   0.005690   0.610097  -0.040982   0.000000
    17  H    0.000337   0.004552   0.006108  -0.040982   0.612102  -0.000003
    18  H   -0.000578   0.000053  -0.000009   0.000000  -0.000003   0.595863
    19  H    0.000059  -0.000005   0.000001  -0.000000   0.000007  -0.033315
    20  H   -0.000029  -0.000010  -0.000000  -0.000004   0.000018  -0.037537
    21  H    0.000005   0.000719   0.003220  -0.003754   0.008399   0.000000
    22  H   -0.000145  -0.000380   0.000574   0.009000  -0.012977   0.000000
    23  H    0.000012  -0.000537   0.000676  -0.010417  -0.001841   0.000000
              19         20         21         22         23
     1  C    0.003645   0.006547  -0.000043   0.000920   0.000011
     2  C   -0.000056  -0.000370   0.000518   0.000181  -0.000644
     3  C   -0.000006   0.000074  -0.009502  -0.000421   0.009619
     4  C   -0.043703  -0.044451  -0.000015   0.000013  -0.000005
     5  C    0.000008   0.000007  -0.044208  -0.041260  -0.042334
     6  C    0.404114   0.405688   0.000000   0.000001   0.000000
     7  C    0.000000  -0.000000   0.408681   0.398243   0.405655
     8  H    0.007543  -0.018589  -0.000001   0.000013  -0.000000
     9  H   -0.020846   0.006182   0.000001  -0.000009  -0.000000
    10  H   -0.000528  -0.000568  -0.000350   0.001893   0.000299
    11  H    0.002099  -0.000104   0.000017  -0.000016   0.000002
    12  H    0.000044  -0.001011  -0.000051   0.000048   0.000031
    13  H    0.000059  -0.000029   0.000005  -0.000145   0.000012
    14  H   -0.000005  -0.000010   0.000719  -0.000380  -0.000537
    15  H    0.000001  -0.000000   0.003220   0.000574   0.000676
    16  H   -0.000000  -0.000004  -0.003754   0.009000  -0.010417
    17  H    0.000007   0.000018   0.008399  -0.012977  -0.001841
    18  H   -0.033315  -0.037537   0.000000   0.000000   0.000000
    19  H    0.606320  -0.030360  -0.000000  -0.000000   0.000000
    20  H   -0.030360   0.601831   0.000000  -0.000000  -0.000000
    21  H   -0.000000   0.000000   0.597718  -0.039534  -0.033371
    22  H   -0.000000  -0.000000  -0.039534   0.606896  -0.029586
    23  H    0.000000  -0.000000  -0.033371  -0.029586   0.598939
 Mulliken charges:
               1
     1  C   -0.293508
     2  C   -0.249554
     3  C   -0.234206
     4  C   -0.198261
     5  C   -0.240052
     6  C   -0.356125
     7  C   -0.332977
     8  H    0.116292
     9  H    0.115696
    10  H    0.138173
    11  H    0.138987
    12  H    0.130524
    13  H    0.124189
    14  H    0.122554
    15  H    0.113973
    16  H    0.116805
    17  H    0.131377
    18  H    0.116858
    19  H    0.104978
    20  H    0.112686
    21  H    0.111550
    22  H    0.106547
    23  H    0.103492
 Sum of Mulliken charges =  -0.00000
 Mulliken charges with hydrogens summed into heavy atoms:
               1
     1  C   -0.016347
     2  C    0.005159
     3  C    0.002321
     4  C    0.033727
     5  C    0.008131
     6  C   -0.021603
     7  C   -0.011387
 APT charges:
               1
     1  C   -0.541886
     2  C   -0.674944
     3  C   -0.806384
     4  C   -0.498217
     5  C   -0.443117
     6  C   -1.412569
     7  C   -1.336331
     8  H    0.249805
     9  H    0.416693
    10  H    0.248130
    11  H    0.387207
    12  H    0.338549
    13  H    0.384148
    14  H    0.379039
    15  H    0.393726
    16  H    0.414585
    17  H    0.167532
    18  H    0.247898
    19  H    0.537946
    20  H    0.384480
    21  H    0.424881
    22  H    0.219468
    23  H    0.519361
 Sum of APT charges =  -0.00000
 APT charges with hydrogens summed into heavy atoms:
               1
     1  C    0.093450
     2  C    0.047753
     3  C   -0.033619
     4  C    0.168281
     5  C    0.139001
     6  C   -0.242245
     7  C   -0.172620
 Electronic spatial extent (au):  <R**2>=           1275.1432
 Charge=              0.0000 electrons
 Dipole moment (field-independent basis, Debye):
    X=             -0.0250    Y=              0.0110    Z=              0.0560  Tot=              0.0623
 Quadrupole moment (field-independent basis, Debye-Ang):
   XX=            -50.1748   YY=            -49.1011   ZZ=            -48.6285
   XY=              0.5336   XZ=              0.2603   YZ=              0.1125
 Traceless Quadrupole moment (field-independent basis, Debye-Ang):
   XX=             -0.8733   YY=              0.2003   ZZ=              0.6730
   XY=              0.5336   XZ=              0.2603   YZ=              0.1125
 Octapole moment (field-independent basis, Debye-Ang**2):
  XXX=              0.3135  YYY=             -0.9691  ZZZ=              0.9148  XYY=             -0.0033
  XXY=             -0.8152  XXZ=              1.3118  XZZ=             -0.6209  YZZ=              1.8487
  YYZ=             -0.4821  XYZ=             -1.4036
 Hexadecapole moment (field-independent basis, Debye-Ang**3):
 XXXX=          -1434.8278 YYYY=           -253.9681 ZZZZ=           -154.4992 XXXY=             13.9174
 XXXZ=              8.5748 YYYX=              1.9425 YYYZ=              0.0137 ZZZX=              0.6299
 ZZZY=              0.9189 XXYY=           -273.0401 XXZZ=           -260.6179 YYZZ=            -67.9411
 XXYZ=             -0.6616 YYXZ=              1.5570 ZZXY=             -0.9321
 N-N= 3.237682634480D+02 E-N=-1.285985675392D+03  KE= 2.745215296277D+02
  Exact polarizability:   0.000   0.000   0.000   0.000   0.000   0.000
 Approx polarizability:  97.777   0.235  97.253   1.117  -0.101  98.714
 No NMR shielding tensors so no spin-rotation constants.
 Leave Link  601 at Sat Sep 28 19:41:45 2019, MaxMem=   671088640 cpu:              62.2 elap:              31.1
 (Enter /shared/centos7/gaussian/g16/l701.exe)
 SCFChk:  SCF convergence  5.21D-09 required  1.00D-08
 ... and contract with generalized density number  0.
 Compute integral second derivatives.
 Entering OneElI...
 Calculate overlap and kinetic energy integrals
    NBasis = 485  MinDer = 2  MaxDer = 2
 Requested accuracy = 0.1000D-12
 PrmmSu-InSpLW:  IPartL=    0 NPrtUS=   20 NPrtUL=    1 DoSpLW=F IThBeg=    0 IThEnd=   19 NThAct=   20.
 PrsmSu:  NPrtUS=  20 ThrOK=T IAlg=1 NPAlg=1 LenDen=           0 ISkipM=0 DoSpLW=F IThBeg=    0 IThEnd=   19.
 Prism:   IPart=     0 DynPar=F LinDyn=F Incr=           6.
 PRISM was handed    33204827 working-precision words and 13554 shell-pairs
 PRISM was handed    33204827 working-precision words and 13554 shell-pairs
 PRISM was handed    33204827 working-precision words and 13554 shell-pairs
 PRISM was handed    33204827 working-precision words and 13554 shell-pairs
 PRISM was handed    33204827 working-precision words and 13554 shell-pairs
 PRISM was handed    33204827 working-precision words and 13554 shell-pairs
 PRISM was handed    33204827 working-precision words and 13554 shell-pairs
 PRISM was handed    33204827 working-precision words and 13554 shell-pairs
 PRISM was handed    33204827 working-precision words and 13554 shell-pairs
 PRISM was handed    33204827 working-precision words and 13554 shell-pairs
 PRISM was handed    33204827 working-precision words and 13554 shell-pairs
 PRISM was handed    33204827 working-precision words and 13554 shell-pairs
 PRISM was handed    33204827 working-precision words and 13554 shell-pairs
 PRISM was handed    33204827 working-precision words and 13554 shell-pairs
 PRISM was handed    33204827 working-precision words and 13554 shell-pairs
 PRISM was handed    33204827 working-precision words and 13554 shell-pairs
 IPart= 16 NShTot=         659 NBatch=          51 AvBLen=        12.9
 PRISM was handed    33204827 working-precision words and 13554 shell-pairs
 IPart=  4 NShTot=         699 NBatch=          71 AvBLen=         9.8
 PRISM was handed    33204827 working-precision words and 13554 shell-pairs
 PRISM was handed    33204827 working-precision words and 13554 shell-pairs
 PRISM was handed    33204827 working-precision words and 13554 shell-pairs
 IPart=  0 NShTot=         710 NBatch=          78 AvBLen=         9.1
 IPart= 15 NShTot=         661 NBatch=          52 AvBLen=        12.7
 IPart=  8 NShTot=         675 NBatch=          59 AvBLen=        11.4
 IPart= 10 NShTot=         672 NBatch=          57 AvBLen=        11.8
 IPart= 18 NShTot=         656 NBatch=          50 AvBLen=        13.1
 IPart= 12 NShTot=         664 NBatch=          53 AvBLen=        12.5
 IPart= 13 NShTot=         661 NBatch=          52 AvBLen=        12.7
 IPart=  2 NShTot=         706 NBatch=          76 AvBLen=         9.3
 IPart= 17 NShTot=         659 NBatch=          51 AvBLen=        12.9
 IPart=  5 NShTot=         696 NBatch=          70 AvBLen=         9.9
 IPart=  6 NShTot=         692 NBatch=          68 AvBLen=        10.2
 IPart=  1 NShTot=         708 NBatch=          77 AvBLen=         9.2
 IPart= 11 NShTot=         669 NBatch=          57 AvBLen=        11.7
 IPart= 14 NShTot=         661 NBatch=          52 AvBLen=        12.7
 IPart= 19 NShTot=         649 NBatch=          48 AvBLen=        13.5
 IPart=  7 NShTot=         679 NBatch=          61 AvBLen=        11.1
 IPart=  3 NShTot=         703 NBatch=          73 AvBLen=         9.6
 IPart=  9 NShTot=         675 NBatch=          59 AvBLen=        11.4
 PrSmSu:  NxtVal=            121.
 Entering OneElI...
 Calculate potential energy integrals
    NBasis = 485  MinDer = 2  MaxDer = 2
 Requested accuracy = 0.1000D-12
 PrmmSu-InSpLW:  IPartL=    0 NPrtUS=   20 NPrtUL=    1 DoSpLW=F IThBeg=    0 IThEnd=   19 NThAct=   20.
 PrsmSu:  NPrtUS=  20 ThrOK=T IAlg=1 NPAlg=1 LenDen=           0 ISkipM=0 DoSpLW=F IThBeg=    0 IThEnd=   19.
 Prism:   IPart=     0 DynPar=F LinDyn=F Incr=         138.
 PRISM was handed    33270184 working-precision words and 12032 shell-pairs
 PRISM was handed    33270184 working-precision words and 12032 shell-pairs
 PRISM was handed    33270184 working-precision words and 12032 shell-pairs
 PRISM was handed    33270184 working-precision words and 12032 shell-pairs
 PRISM was handed    33270184 working-precision words and 12032 shell-pairs
 PRISM was handed    33270184 working-precision words and 12032 shell-pairs
 PRISM was handed    33270184 working-precision words and 12032 shell-pairs
 PRISM was handed    33270184 working-precision words and 12032 shell-pairs
 PRISM was handed    33270184 working-precision words and 12032 shell-pairs
 PRISM was handed    33270184 working-precision words and 12032 shell-pairs
 PRISM was handed    33270184 working-precision words and 12032 shell-pairs
 PRISM was handed    33270184 working-precision words and 12032 shell-pairs
 PRISM was handed    33270184 working-precision words and 12032 shell-pairs
 PRISM was handed    33270184 working-precision words and 12032 shell-pairs
 PRISM was handed    33270184 working-precision words and 12032 shell-pairs
 PRISM was handed    33270184 working-precision words and 12032 shell-pairs
 PRISM was handed    33270184 working-precision words and 12032 shell-pairs
 PRISM was handed    33270184 working-precision words and 12032 shell-pairs
 PRISM was handed    33270184 working-precision words and 12032 shell-pairs
 PRISM was handed    33270184 working-precision words and 12032 shell-pairs
 IPart= 17 NShTot=       13317 NBatch=         580 AvBLen=        23.0
 IPart=  5 NShTot=       14214 NBatch=         619 AvBLen=        23.0
 IPart= 19 NShTot=       13248 NBatch=         577 AvBLen=        23.0
 IPart=  2 NShTot=       14444 NBatch=         630 AvBLen=        22.9
 IPart=  7 NShTot=       13846 NBatch=         603 AvBLen=        23.0
 IPart=  3 NShTot=       14375 NBatch=         627 AvBLen=        22.9
 IPart= 11 NShTot=       13708 NBatch=         597 AvBLen=        23.0
 IPart= 14 NShTot=       13524 NBatch=         589 AvBLen=        23.0
 IPart= 16 NShTot=       13386 NBatch=         583 AvBLen=        23.0
 IPart=  8 NShTot=       13800 NBatch=         601 AvBLen=        23.0
 IPart=  6 NShTot=       14030 NBatch=         611 AvBLen=        23.0
 IPart= 10 NShTot=       13754 NBatch=         599 AvBLen=        23.0
 IPart=  0 NShTot=       14582 NBatch=         636 AvBLen=        22.9
 IPart= 18 NShTot=       13317 NBatch=         580 AvBLen=        23.0
 IPart= 12 NShTot=       13639 NBatch=         594 AvBLen=        23.0
 IPart=  9 NShTot=       13777 NBatch=         600 AvBLen=        23.0
 IPart= 13 NShTot=       13570 NBatch=         591 AvBLen=        23.0
 IPart=  4 NShTot=       14283 NBatch=         623 AvBLen=        22.9
 IPart=  1 NShTot=       14467 NBatch=         631 AvBLen=        22.9
 IPart= 15 NShTot=       13455 NBatch=         586 AvBLen=        23.0
 PrSmSu:  NxtVal=           2761.
 Polarizability after L701:
                1             2             3 
      1  0.000000D+00
      2  0.000000D+00  0.000000D+00
      3  0.000000D+00  0.000000D+00  0.000000D+00
 Dipole Derivatives after L701:
                 1             2             3             4             5 
      1  -0.342359D+00 -0.138800D-01 -0.597788D+00 -0.277901D+00  0.398375D+00
      2   0.395446D+00 -0.375903D+00 -0.192486D+00  0.603547D+00 -0.100151D+01
      3  -0.844633D-01 -0.300993D+00 -0.907397D+00  0.177311D+00  0.372890D+00
                 6             7             8             9            10 
      1   0.253562D+00 -0.667408D+00 -0.994683D+00  0.683957D-01  0.226529D+00
      2   0.273796D+00 -0.625497D+00 -0.986703D+00 -0.266227D+00 -0.188908D+00
      3  -0.745420D+00  0.139745D+00 -0.301878D+00 -0.765040D+00 -0.221222D+00
                11            12            13            14            15 
      1  -0.140244D+01  0.676599D+00 -0.274165D-01  0.559570D+00 -0.108893D+01
      2  -0.100832D+01  0.207575D+00 -0.299662D+00 -0.448431D+00  0.124469D+00
      3   0.344218D-01 -0.712860D+00 -0.139310D+00  0.231686D+00 -0.853503D+00
                16            17            18            19            20 
      1  -0.247316D+01  0.948380D+00 -0.170783D+00 -0.209563D+01  0.337810D+00
      2  -0.209178D+00 -0.815904D+00 -0.358067D-01  0.202306D+00 -0.103164D+01
      3   0.124913D+00 -0.934876D-01 -0.948648D+00 -0.114591D+00 -0.243047D-02
                21            22            23            24            25 
      1   0.768414D+00  0.146751D-01 -0.295550D-01 -0.529761D+00  0.366673D+00
      2  -0.149230D+00 -0.787403D-01  0.119879D+00 -0.212978D+00  0.164929D+00
      3  -0.881720D+00  0.116546D+00  0.414915D-01  0.614860D+00  0.312235D-02
                26            27            28            29            30 
      1   0.734198D+00  0.156196D+00  0.190374D+00 -0.126618D-02  0.159288D-01
      2   0.769525D+00  0.148929D+00 -0.330376D+00  0.448223D+00 -0.822388D-01
      3   0.347131D-02  0.113882D+00 -0.150198D+00  0.151592D+00  0.105792D+00
                31            32            33            34            35 
      1   0.273932D+00 -0.138388D-01  0.402714D+00  0.337822D+00 -0.145967D+00
      2   0.575789D-01  0.164825D+00  0.853290D-01 -0.293082D+00  0.411117D+00
      3   0.190902D+00 -0.705154D-01  0.722864D+00 -0.904224D-01  0.960589D-01
                36            37            38            39            40 
      1  -0.201504D+00  0.167950D+00  0.113263D-02  0.481732D-01  0.159907D+00
      2   0.357169D+00  0.410292D-01  0.438903D+00 -0.474196D+00 -0.352677D-01
      3   0.266709D+00 -0.857095D-02 -0.245748D+00  0.545591D+00 -0.903431D-02
                41            42            43            44            45 
      1   0.187071D+00  0.330854D+00  0.502341D+00  0.344003D+00 -0.404143D+00
      2   0.433961D+00  0.479968D+00  0.301232D+00  0.422827D+00 -0.369738D+00
      3   0.238797D+00  0.543248D+00 -0.907347D-01 -0.107302D+00  0.256010D+00
                46            47            48            49            50 
      1   0.388828D+00 -0.157298D-01  0.757216D+00 -0.834775D-01 -0.290326D+00
      2  -0.575342D-01  0.147948D+00 -0.668950D-01  0.308885D+00  0.462408D+00
      3   0.192228D+00  0.376328D-01  0.706980D+00 -0.969938D-01 -0.122303D+00
                51            52            53            54            55 
      1  -0.592701D-01  0.855497D-01 -0.802559D+00  0.606212D+00  0.118209D+01
      2   0.980511D-01  0.362332D-01  0.388303D+00 -0.240140D+00  0.176432D+00
      3   0.123666D+00 -0.401506D-01 -0.208679D+00  0.269843D+00  0.871023D-01
                56            57            58            59            60 
      1   0.896739D+00  0.522285D+00  0.438871D+00 -0.495307D+00 -0.108660D+01
      2   0.308919D+00  0.101027D+00 -0.555475D-01  0.161276D+00  0.152222D+00
      3   0.818738D-01  0.122827D+00 -0.994430D-01  0.164644D+00  0.553292D+00
                61            62            63            64            65 
      1   0.870807D+00  0.104997D+01 -0.202448D+00 -0.128630D+00 -0.257942D+00
      2   0.103564D+00  0.276275D+00 -0.720780D-04  0.110404D+00  0.196290D+00
      3  -0.800383D-01 -0.957781D-01  0.127561D+00  0.159572D+00  0.162923D+00
                66            67            68            69 
      1  -0.825515D+00  0.889627D+00 -0.993760D+00  0.560196D+00
      2   0.308067D+00 -0.327794D+00  0.517736D+00 -0.246593D+00
      3   0.590743D+00  0.337319D-01 -0.683669D-01  0.150721D+00
 Hessian after L701:
                1             2             3             4             5 
      1  0.149020D+02
      2 -0.922453D+00  0.173033D+02
      3  0.431670D+00 -0.313146D+00  0.177997D+02
      4 -0.534738D+01  0.168300D+01  0.393748D+00  0.150255D+02
      5  0.169258D+01 -0.332165D+01  0.686185D+00 -0.637346D+00  0.165663D+02
      6  0.395863D+00  0.687966D+00 -0.592310D+01 -0.559799D+00  0.136093D+00
      7  0.164194D+00  0.174073D+00  0.139801D+00 -0.264533D+01  0.122888D+00
      8  0.208370D+00  0.469950D-01  0.100907D+00  0.450604D-01 -0.600674D+01
      9  0.180393D+00  0.100352D+00 -0.820071D-01  0.126443D+01  0.444021D-01
     10 -0.373500D+01  0.862045D+00 -0.179791D+01  0.194142D+00  0.259201D+00
     11  0.812780D+00 -0.589429D+01 -0.584566D+00  0.306347D+00  0.203653D+00
     12 -0.176607D+01 -0.591093D+00 -0.485772D+01 -0.436077D-01 -0.434614D-01
     13  0.194045D+00 -0.663738D-01  0.482371D-01  0.147897D+00 -0.189433D+00
     14  0.947862D-01 -0.110994D+00  0.276278D-01 -0.162676D+00  0.819068D-01
     15  0.622993D-01 -0.245845D-01 -0.127265D+00  0.115860D+00 -0.897191D-01
     16  0.390337D+00 -0.127181D+00 -0.812971D-01  0.183243D+00  0.574356D-01
     17 -0.100863D+00 -0.129216D+00  0.153862D-01  0.191872D+00 -0.140482D+00
     18 -0.180917D+00  0.216217D-01 -0.142331D+00 -0.684943D-01 -0.584497D-02
     19  0.165559D+00 -0.469796D-01 -0.345401D-02  0.218503D+00 -0.158669D+00
     20 -0.449510D-02 -0.103647D+00 -0.329267D-02 -0.163789D+00 -0.835081D-01
     21  0.584422D-01 -0.143899D-01 -0.106983D+00  0.211511D-01 -0.195221D-02
     22  0.739137D-01 -0.155641D-01  0.150454D+00  0.670571D-02  0.131459D-01
     23 -0.201027D-01  0.102050D+00  0.631885D-01  0.306308D-01 -0.104805D-01
     24  0.110114D+00  0.219198D-01 -0.579972D-01 -0.412638D-01 -0.566762D-02
     25 -0.132200D-01 -0.916797D-01  0.496173D-01  0.218200D-01  0.104703D+00
     26 -0.860996D-01  0.861784D-01  0.608711D-01  0.127695D+00  0.114861D+00
     27  0.513570D-01  0.656035D-01  0.847140D-01 -0.680673D-02 -0.151436D-01
     28 -0.336244D+01 -0.138328D+01  0.422341D-01  0.194439D+00 -0.795120D-01
     29 -0.157000D+01 -0.323795D+01 -0.486915D-01 -0.292554D-01 -0.169242D+00
     30 -0.357715D-01  0.314441D-01 -0.470134D+01  0.115154D-01 -0.107582D+00
     31 -0.419677D+01 -0.415913D-02  0.718337D+00  0.851003D-01 -0.123953D+00
     32 -0.723285D-03 -0.438034D+01  0.758068D-01 -0.120465D+00 -0.445985D-01
     33  0.740898D+00  0.597760D-01 -0.209092D+01 -0.408164D-01 -0.137830D+00
     34  0.226788D+00 -0.493229D-01 -0.492320D-01 -0.368400D+01 -0.873521D+00
     35 -0.416051D-01 -0.177337D+00 -0.161495D+00 -0.985548D+00 -0.379692D+01
     36 -0.455210D-01 -0.134785D+00  0.143887D+00 -0.943536D+00  0.801297D+00
     37  0.989302D-01 -0.774891D-01  0.661378D-02 -0.445313D+01 -0.584915D-01
     38 -0.715251D-01 -0.962632D-01 -0.288413D-02 -0.574847D-01 -0.351734D+01
     39  0.110901D-02  0.104256D-01  0.186311D+00  0.356952D-01 -0.121132D+01
     40  0.237240D-01  0.625559D-01  0.575020D-01 -0.573026D-01 -0.590096D-01
     41  0.822635D-01  0.185639D-01  0.659552D-01 -0.756512D-01  0.117688D+00
     42  0.817514D-01  0.667546D-01  0.167447D-01 -0.128788D+00  0.546752D-02
     43  0.762768D-01  0.665767D-01  0.489492D-02 -0.979715D-01 -0.278245D-01
     44  0.852632D-01  0.656561D-02 -0.180411D-03 -0.588158D-01  0.126327D+00
     45 -0.902881D-02 -0.189586D-02 -0.330614D-01 -0.797937D-01 -0.424387D-01
     46  0.266917D-01 -0.151174D-03  0.347203D-01  0.439091D-01 -0.450682D-01
     47  0.227380D-02 -0.196286D-01  0.154251D-02 -0.446844D-01 -0.193236D-01
     48  0.536895D-01 -0.373686D-02  0.165869D-01  0.848493D-01 -0.381809D-01
     49 -0.504875D-02 -0.344843D-01 -0.334179D-01  0.394770D-02  0.297416D-01
     50 -0.856887D-01  0.373057D-01 -0.187820D-01 -0.853392D-02 -0.376262D-01
[...]
 -0.00014812,0.00047515,0.00052044,0.00000413,-0.00120394,0.00069794,-0
 .00097683,0.02145955,0.15926732,0.00071694,-0.00027970,0.00000026,0.00
 143698,0.01226465,-0.01912314,0.02333390,0.12509353,-0.20523680,0.0004
 2043,0.00006477,-0.00028830,-0.00157782,-0.00858297,0.00971007,-0.0000
 8893,0.00000186,0.00016370,-0.00000929,-0.00213297,-0.00027587,0.00098
 222,-0.00003018,0.00024896,0.00015325,-0.00007748,0.00032344,0.0000194
 4,-0.00002916,0.00005517,-0.00007841,-0.00002985,0.00007598,0.00034835
 ,-0.00024426,0.00038884,-0.00397300,-0.00108964,-0.00165066,-0.0236486
 6,-0.13393918,0.22617342,-0.00190801,-0.00198518,-0.00483143,-0.022930
 66,0.00640149,0.01165019,-0.23207484,0.05738728,0.10197649,0.00043171,
 0.00014307,-0.00054904,0.00263547,-0.00129119,-0.00123395,-0.00005100,
 0.00007769,0.00003422,0.00039525,0.00001712,-0.00055875,0.00018941,-0.
 00005567,-0.00004409,-0.00004415,-0.00002903,0.00006472,0.00017849,0.0
 0014340,-0.00000007,-0.00158574,0.00057685,0.00053003,0.00049612,-0.00
 060793,0.00026446,0.00102008,0.00053579,-0.00003423,-0.00323622,0.0002
 2729,0.00194987,0.25432262,-0.00066400,0.00047144,-0.00033947,-0.00323
 779,0.00046490,0.00234755,0.05679085,-0.06459411,-0.02947974,-0.000018
 75,0.00015268,0.00002029,0.02733965,-0.01129393,-0.01643826,0.00002362
 ,0.00003402,-0.00003149,0.00120999,0.00180381,-0.00090427,-0.00003236,
 -0.00018702,-0.00013351,-0.00007677,-0.00001588,-0.00009288,-0.0002984
 3,0.00011905,-0.00009825,-0.00011771,0.00015174,-0.00004700,-0.0000763
 7,0.00013968,0.00048011,0.00037710,0.00015509,-0.00012288,-0.01741516,
 0.00523065,0.00883787,-0.06151001,0.07171731,-0.00272433,-0.00115928,-
 0.00328615,-0.02145821,0.00625327,0.00962332,0.10280209,-0.02991080,-0
 .10230088,-0.00006054,-0.00012626,-0.00061328,0.00983985,-0.00405566,-
 0.00700602,0.00002590,-0.00000855,0.00014636,-0.00089715,0.00076187,0.
 00056727,0.00008538,0.00003382,0.00041998,0.00013575,0.00000129,0.0002
 3218,0.00007924,0.00012848,-0.00003886,-0.00125001,0.00037150,0.000353
 24,0.00090638,-0.00002746,0.00072868,0.00064765,0.00040544,0.00099330,
 0.02139493,-0.00681644,-0.01221491,-0.10862797,0.03673116,0.11208054,0
 .00019874,0.00033350,-0.00002192,0.00087373,-0.00060901,0.00038076,-0.
 00187032,0.00047798,-0.00031704,0.00006245,-0.00005148,-0.00009931,-0.
 21395221,-0.00710000,-0.12629951,-0.00007425,-0.00000431,0.00001827,0.
 00456398,0.00011459,0.00378482,-0.00005332,0.00005585,-0.00014309,-0.0
 0003160,-0.00001096,0.00001598,0.00023071,-0.00030788,0.00008129,-0.00
 000029,-0.00019875,-0.00006222,-0.00013878,0.00003032,-0.00023507,-0.0
 0000313,-0.00000794,-0.00004392,-0.00015490,-0.00046672,0.00014207,0.0
 0073821,-0.00029647,-0.00003161,0.22895604,0.00066201,-0.00036302,-0.0
 0002176,0.00105386,-0.00625026,-0.00086319,-0.02702444,-0.00308479,-0.
 02064610,-0.00006074,0.00008969,-0.00005889,-0.00679156,-0.04557850,-0
 .00597811,0.00002026,-0.00001802,0.00001978,0.01914820,-0.00128584,0.0
 1524239,0.00003273,-0.00001563,0.00004152,-0.00003499,-0.00002621,0.00
 006769,-0.00008078,0.00021023,0.00015242,-0.00009617,0.00013296,0.0000
 5330,-0.00137776,-0.00036037,-0.00138965,0.00011227,0.00004248,-0.0001
 8613,-0.00013444,0.00111039,0.00076443,0.00049015,0.00130682,0.0001624
 6,0.00883416,0.05585841,0.00037170,-0.00016634,0.00013458,0.00092794,-
 0.00269998,0.00063776,-0.00938681,-0.00120449,-0.00779693,-0.00005800,
 0.00002021,-0.00005413,-0.12511699,-0.00586645,-0.14464564,0.00003684,
 -0.00002278,0.00005365,-0.01997102,0.00082519,-0.01619964,0.00002393,-
 0.00005484,0.00007527,-0.00001850,-0.00000659,0.00004048,0.00003439,0.
 00023176,-0.00003660,-0.00005439,0.00012819,0.00003948,-0.00071421,-0.
 00012047,-0.00050497,0.00019804,0.00025039,0.00022451,0.00029560,-0.00
 004851,0.00065425,0.00013760,0.00034523,-0.00014051,0.13800996,0.00486
 372,0.15763376,-0.00094692,0.00015870,-0.00042156,0.00021752,0.0003243
 4,-0.00033269,0.00328788,0.00032154,-0.00193116,-0.00011774,-0.0001354
 0,-0.00005172,-0.21574504,0.05127652,0.11255255,-0.00003267,-0.0000472
 5,-0.00010845,-0.00240093,0.00018753,0.00164695,-0.00003637,-0.0002781
 9,0.00007340,-0.00006446,-0.00000363,-0.00006774,-0.00108328,-0.000827
 16,-0.00097027,0.00019596,-0.00016323,-0.00002849,0.00007450,0.0000961
 2,0.00022362,-0.00000731,-0.00008703,-0.00007929,0.00019985,0.00069119
 ,0.00012590,0.00127791,-0.00079132,-0.00083959,-0.02142128,0.00631723,
 0.01372308,0.23467915,-0.00044144,0.00028616,-0.00041369,0.00059527,0.
 00095766,0.00076369,0.02695891,-0.00962316,-0.01722743,-0.00046705,-0.
 00014461,-0.00044486,0.05101389,-0.06226865,-0.03518762,0.00026964,-0.
 00007784,0.00021469,-0.01949787,0.00495891,0.01380727,-0.00033378,-0.0
 0061604,0.00060192,0.00010897,0.00004902,0.00011588,-0.00042360,0.0001
 8675,-0.00016985,-0.00005177,0.00015862,0.00020926,-0.00003524,0.00008
 638,0.00018150,-0.00005941,-0.00004458,-0.00003411,0.00007457,0.001107
 92,0.00069483,-0.00113470,-0.00594110,-0.00242424,-0.00099173,-0.00036
 381,0.00100459,-0.05546482,0.07241193,-0.00011227,-0.00067608,-0.00013
 787,0.00097124,0.00022894,-0.00017088,0.00916639,-0.00323493,-0.006438
 18,-0.00004127,0.00022517,0.00025770,0.11061600,-0.03492024,-0.1232722
 9,0.00014368,0.00000322,-0.00004464,0.02052126,-0.00502885,-0.01517619
 ,0.00008904,0.00011743,0.00019223,0.00004224,0.00000211,0.00002175,-0.
 00103467,0.00020377,-0.00063634,0.00006394,0.00036528,0.00006779,-0.00
 022468,0.00008738,0.00012060,-0.00002879,-0.00005964,0.00003008,-0.000
 37280,0.00015077,0.00048874,-0.00034929,-0.00203063,0.00007109,-0.0157
 8259,0.00518590,0.01136942,-0.12349885,0.03619029,0.13481675,-0.000157
 60,0.00040077,0.00030719,-0.00050904,0.00029812,0.00098698,0.00014362,
 -0.00033266,0.00040024,0.00244191,-0.00006602,-0.00053255,-0.00004350,
 -0.00000991,-0.00005896,-0.27148251,0.08994696,0.03947247,-0.00000269,
 -0.00001841,-0.00002551,0.00060405,0.00054133,-0.00000002,0.00155731,-
 0.00080878,-0.00001988,0.00010101,0.00011009,-0.00017453,0.00001442,-0
 .00003446,0.00005706,-0.00019588,-0.00109489,0.00041217,0.00005900,-0.
 00028606,-0.00016513,0.00005444,0.00002353,-0.00030373,0.00001438,-0.0
 0000538,0.00003228,0.00001930,-0.00002480,-0.00001981,-0.00000847,-0.0
 0004031,-0.00002710,0.29426212,0.00049798,0.00110687,-0.00050974,-0.00
 005718,-0.00024395,0.00048079,-0.00015935,-0.00016694,0.00041758,0.032
 28347,-0.01261271,-0.00621362,0.00014801,-0.00004297,-0.00033655,0.088
 92469,-0.08216916,-0.01591324,-0.00000167,0.00014864,0.00012203,-0.000
 26456,0.00170731,-0.00015564,-0.00073935,-0.00689052,-0.00003735,-0.00
 023070,0.00017983,-0.00003724,-0.00007345,-0.00007194,0.00004051,-0.00
 044372,0.00005120,0.00086658,-0.00009718,0.00031382,-0.00004994,-0.000
 50494,-0.00019670,-0.00043158,0.00003762,0.00010045,-0.00010953,-0.000
 00510,0.00003435,0.00003440,-0.00002875,0.00005436,0.00004730,-0.09818
 540,0.09147253,-0.00072442,0.00009176,-0.00000165,0.00027415,0.0006002
 8,-0.00015007,0.00013681,-0.00024333,0.00022486,0.00186798,-0.00157803
 ,-0.00132560,-0.00008296,0.00005734,-0.00010904,0.04001475,-0.01596860
 ,-0.05434551,0.00002005,0.00000787,0.00001799,0.00038090,-0.00000602,0
 .00000866,-0.00015405,-0.00060156,0.00075815,0.00018918,-0.00011146,0.
 00001166,0.00000251,0.00004747,0.00002557,0.00062634,0.00083785,-0.001
 31308,-0.00014810,-0.00011286,0.00001069,-0.00016932,-0.00012026,0.000
 00749,0.00000277,0.00004770,-0.00006209,-0.00003255,-0.00005469,-0.000
 02181,0.00003540,-0.00001515,0.00000742,-0.04541821,0.01817981,0.05575
 896,0.00020958,0.00003938,-0.00020744,-0.00005431,-0.00025064,-0.00021
 645,-0.00004362,0.00019973,-0.00029050,-0.00025702,-0.00039121,0.00027
 736,0.00007138,-0.00006729,0.00019812,-0.14260404,-0.04617582,-0.11765
 675,-0.00003486,-0.00004372,-0.00004521,0.00124365,0.00005397,0.000122
 00,0.00041137,-0.00037298,0.00039261,0.00005872,0.00008169,0.00021601,
 -0.00006929,-0.00039721,0.00028050,-0.00030769,0.00021416,0.00003442,0
 .00002254,0.00004731,0.00008658,0.00024043,0.00003009,0.00018766,-0.00
 002059,-0.00005106,0.00005908,0.00001321,0.00002984,0.00000938,-0.0000
 1429,0.00001409,0.00000227,-0.01718135,-0.00899824,-0.02283903,0.15096
 335,-0.00036173,0.00195126,-0.00154007,-0.00009190,0.00003040,0.000258
 32,0.00009719,-0.00002091,-0.00009525,-0.02191957,-0.01155608,-0.02571
 173,0.00012851,-0.00010695,-0.00007960,-0.04594197,-0.06847870,-0.0570
 3490,-0.00008437,0.00005811,0.00002119,0.00033786,-0.00685442,-0.00002
 201,0.00046951,0.00127693,0.00002899,0.00045932,0.00035222,-0.00000079
 ,0.00045291,-0.00006456,0.00100433,-0.00018237,-0.00004374,0.00005429,
 -0.00005746,0.00004296,0.00003991,0.00006532,-0.00009979,-0.00002808,0
 .00001681,0.00000836,0.00007146,-0.00003182,0.00000996,0.00002755,-0.0
 0004543,0.00014581,0.00004670,0.00645643,0.00291275,0.00988405,0.05156
 008,0.07730255,0.00093787,0.00066081,0.00111748,-0.00007861,-0.0000606
 8,0.00022727,0.00002410,0.00013269,0.00006575,-0.00067175,-0.00084742,
 -0.00174258,0.00007341,0.00002987,-0.00002408,-0.11769764,-0.05742081,
 -0.19394264,0.00000337,0.00000762,0.00000855,0.00078805,-0.00000715,0.
 00108148,0.00014220,-0.00033502,-0.00015394,0.00009577,-0.00004812,0.0
 0010693,-0.00038805,-0.00041046,0.00043626,-0.00015042,-0.00025182,-0.
 00001457,-0.00006980,-0.00004780,0.00000340,-0.00000281,-0.00002618,-0
 .00001752,-0.00002804,-0.00001451,0.00001267,0.00000529,0.00000277,-0.
 00000402,0.00002653,0.00001886,-0.00000247,0.00396568,0.00267003,0.004
 61348,0.13029112,0.06424088,0.20803465,0.00038244,0.00047519,-0.000238
 15,0.00002318,0.00029737,0.00025511,0.00011491,-0.00003294,0.00000274,
 -0.00106479,0.00075469,-0.00083304,-0.00002868,0.00002709,0.00007021,-
 0.07929850,-0.03622711,0.07959419,0.00000638,-0.00005838,-0.00003913,-
 0.00020182,-0.00011608,0.00018548,0.00039301,-0.00005717,-0.00047684,0
 .00029757,0.00015727,0.00006537,0.00008886,-0.00014101,0.00035599,-0.0
 0004613,-0.00036717,-0.00029406,0.00001869,-0.00022276,-0.00004239,0.0
 0007895,0.00003505,0.00013560,-0.00000937,-0.00001538,0.00001426,-0.00
 002075,-0.00003082,-0.00001857,0.00003046,-0.00002598,-0.00000772,-0.0
 0968159,-0.01211898,0.02603362,0.00734630,0.00866518,-0.01725123,0.081
 59422,0.00024481,-0.00668445,-0.00283732,0.00066790,-0.00034178,-0.000
 66467,-0.00001719,0.00005468,0.00011152,-0.01133694,-0.01237377,0.0302
 6434,0.00005534,-0.00001395,-0.00001133,-0.03576849,-0.08559494,0.0883
 0592,0.00001698,0.00000536,0.00004772,-0.00043278,0.00108982,-0.000447
 72,0.00059410,0.00147577,0.00011480,-0.00055518,-0.00105854,0.00187694
 ,0.00017898,0.00010874,-0.00011493,-0.00003091,0.00043048,0.00009502,-
 0.00009011,0.00019593,0.00008831,-0.00000309,-0.00001202,-0.00005755,-
 0.00008164,-0.00000419,-0.00003976,-0.00004811,0.00000513,-0.00000046,
 0.00002347,0.00001938,0.00007365,0.00311328,0.00427730,-0.01096990,0.0
 0451281,0.00317605,-0.00829373,0.03899897,0.09521397,-0.00003825,-0.00
 031044,0.00084769,-0.00010624,-0.00023595,0.00003878,-0.00006012,0.000
 08121,-0.00005348,-0.00186255,-0.00232830,0.00346593,0.00003776,-0.000
 01914,0.00002865,0.07942027,0.08939300,-0.24561578,-0.00001207,0.00000
 960,0.00001180,0.00003669,0.00058167,0.00034756,-0.00031725,0.00052003
 ,0.00030870,0.00021334,-0.00003266,0.00005986,0.00011440,-0.00024326,0
 .00030768,-0.00017393,0.00014846,0.00014041,0.00000724,0.00010316,0.00
 000753,-0.00001181,0.00000836,-0.00001766,0.00003679,0.00000250,-0.000
 00055,0.00003096,0.00003048,0.00001478,-0.00000834,-0.00000899,-0.0000
 1861,0.00111892,0.00098379,-0.00408732,0.00906081,0.00878518,-0.019800
 68,-0.08750783,-0.09746262,0.26400415,-0.00006726,0.00034802,0.0000255
 4,-0.00012858,-0.00008844,0.00025567,0.00037316,0.00035575,-0.00010324
 ,0.00012671,-0.00016661,-0.00005269,-0.00297869,0.00036582,0.00226466,
 -0.00005154,-0.00000043,0.00004351,-0.20392484,0.05378541,0.11759808,-
 0.00000790,0.00001651,-0.00002844,0.00001587,0.00001491,-0.00002638,0.
 00027171,-0.00009224,-0.00007799,-0.00001423,-0.00008578,-0.00001369,0
 .00002429,-0.00003436,-0.00008740,-0.00031727,0.00004936,-0.00020447,0
 .00017517,-0.00008234,-0.00020302,-0.00005190,-0.00067032,0.00000554,0
 .00050669,-0.00042947,0.00008919,0.00139418,-0.00051899,0.00046776,0.0
 0001344,-0.00001286,0.00000460,-0.00000925,-0.00000939,-0.00000744,0.0
 0000461,-0.00003203,0.00000339,0.21906987,0.00000798,0.00003923,0.0001
 6815,-0.00000961,0.00002643,-0.00003371,-0.00119588,0.00189206,0.00044
 319,0.00003012,-0.00005309,0.00009616,-0.01887130,0.00518472,0.0135030
 8,-0.00005923,0.00001297,-0.00003946,0.05405537,-0.06548191,-0.0415653
 6,-0.00003485,0.00003455,-0.00009856,-0.00001857,-0.00001305,-0.000026
 43,0.00006538,-0.00003496,0.00004311,0.00003999,-0.00002213,-0.0000332
 8,0.00002386,0.00002535,-0.00006840,-0.00002269,0.00007596,-0.00016265
 ,0.00026792,0.00026686,-0.00010948,0.00067992,-0.00010007,-0.00030771,
 0.00039498,0.00068330,-0.00082943,-0.00079952,-0.00286684,0.00386638,0
 .00001073,-0.00002205,0.00000377,0.00000048,-0.00002882,-0.00000027,0.
 00001090,-0.00000052,-0.00000517,-0.05873209,0.06905470,-0.00010303,-0
 .00000300,0.00002925,0.00001798,0.00025481,0.00030550,-0.00042769,-0.0
 0150715,0.00101310,-0.00009298,-0.00006368,-0.00013328,0.02034985,-0.0
 0612999,-0.01576167,0.00003673,-0.00001313,0.00007037,0.11742721,-0.04
 124410,-0.13561836,-0.00000609,-0.00005649,0.00010240,0.00001770,0.000
 01056,0.00001633,0.00003141,0.00001646,-0.00011364,-0.00000797,0.00002
 783,0.00003680,0.00008854,0.00002529,0.00001926,0.00017734,0.00020358,
 -0.00012468,-0.00038875,-0.00015556,0.00007584,-0.00025086,0.00082473,
 0.00045440,-0.00036111,-0.00067933,0.00034437,-0.00019971,0.00385109,-
 0.00305660,-0.00000374,0.00000303,0.00000012,0.00000485,0.00003632,0.0
 0000768,0.00000200,-0.00000687,-0.00000634,-0.13124051,0.04184924,0.14
 817560,0.00021729,-0.00059605,-0.00001271,-0.00018428,-0.00044461,-0.0
 0103114,-0.00015643,0.00015699,-0.00058639,-0.00006950,0.00007329,0.00
 006599,0.00510494,0.00038991,0.00323588,-0.00000088,0.00000517,0.00000
 898,-0.22815678,0.01375333,-0.12425290,-0.00001093,-0.00001228,0.00003
 961,0.00000354,-0.00000735,0.00003962,-0.00010178,0.00021721,0.0002333
 8,0.00002051,0.00000582,-0.00001157,-0.00004353,-0.00007668,0.00030678
 ,-0.00013047,-0.00076650,0.00046629,0.00008709,0.00020078,0.00007074,0
 .00001891,-0.00006581,-0.00002102,0.00126634,-0.00105410,0.00129360,0.
 00068637,0.00054519,-0.00033166,-0.00000958,0.00001198,-0.00001405,0.0
 0001266,0.00001002,-0.00000149,-0.00001491,0.00000744,0.00000756,-0.01
 993553,0.00048555,-0.01437444,0.24601237,-0.00015108,-0.00012182,-0.00
 017497,-0.00020831,-0.00080061,-0.00002074,0.00082021,0.00083724,-0.00
 012376,0.00011227,0.00008051,0.00019637,0.01957640,-0.00105685,0.01248
 537,0.00000894,0.00001719,-0.00011992,0.01269190,-0.04777376,0.0084743
 8,-0.00003507,0.00000967,-0.00005911,0.00003411,0.00001784,-0.00006362
 ,-0.00030182,0.00017990,0.00021416,0.00002188,0.00004953,0.00000034,0.
 00005259,0.00023754,-0.00014559,-0.00047090,-0.00163749,-0.00076880,-0
 .00026998,0.00016083,-0.00017922,-0.00005523,-0.00007712,0.00003963,-0
 .00079126,-0.00279469,0.00349186,-0.00030034,0.00092848,-0.00089197,0.
 00001420,-0.00000879,0.00002069,-0.00001196,-0.00001432,0.00000859,0.0
 0001679,0.00004021,-0.00001962,0.00737004,-0.00159222,0.00550137,-0.01
 292763,0.05065908,-0.00000917,0.00040661,0.00010606,-0.00026830,-0.000
 12498,0.00008184,0.00012555,-0.00082281,0.00026681,0.00000722,-0.00022
 279,-0.00020653,-0.02082813,0.00123659,-0.01554442,-0.00004520,-0.0000
 0839,0.00014763,-0.12391927,0.00879710,-0.13206698,-0.00001817,0.00000
 478,0.00005457,0.00002665,0.00001762,0.00001046,0.00053930,0.00003726,
 -0.00021288,-0.00000688,-0.00016447,-0.00001729,0.00015602,-0.00012350
 ,0.00018949,-0.00014587,-0.00086158,0.00031016,0.00004818,-0.00000085,
 0.00004458,0.00004548,0.00003632,0.00002625,0.00128810,0.00401344,-0.0
 0304668,-0.00001840,-0.00082969,0.00070516,0.00000364,-0.00001997,-0.0
 0001275,0.00000933,0.00001369,-0.00000683,-0.00000842,-0.00005887,0.00
 001213,0.01603273,-0.00061286,0.01187268,0.13686953,-0.01164706,0.1448
 2235,0.00009396,0.00000114,0.00002685,0.00011941,0.00001316,-0.0002660
 4,0.00029046,0.00010319,0.00043708,0.00000333,-0.00003830,-0.00006759,
 -0.00189853,-0.00272851,-0.00171199,-0.00000661,-0.00001571,0.00006040
 ,-0.05665945,-0.04536258,-0.01889194,0.00002578,-0.00001178,0.00002765
 ,-0.00002266,-0.00000725,0.00002242,0.00010148,-0.00005539,-0.00009168
 ,-0.00000750,-0.00001834,0.00000171,-0.00001151,-0.00010104,0.00014838
 ,-0.00016175,-0.00003496,0.00035048,0.00033467,-0.00011233,-0.00014050
 ,0.00019391,-0.00039812,-0.00011790,0.00029142,0.00043937,0.00020704,-
 0.00016502,-0.00009384,-0.00027212,-0.00001279,0.00001766,-0.00000635,
 0.00000310,0.00000688,-0.00000612,-0.00001304,-0.00001760,0.00001028,0
 .00551128,0.02367057,0.00930323,-0.00461543,-0.02519575,-0.00988391,0.
 05660548,0.00006261,-0.00009364,-0.00005468,0.00042610,0.00034871,0.00
 047027,-0.00073696,-0.00126273,0.00494959,0.00000534,0.00002056,0.0000
 1254,-0.00316907,-0.01877278,-0.00922361,0.00002438,-0.00001923,-0.000
 00435,-0.04516375,-0.26782477,-0.09377764,0.00003986,-0.00003059,-0.00
 005045,-0.00006050,-0.00001099,0.00001057,0.00000851,0.00000447,0.0000
 2142,-0.00008811,0.00000663,0.00000397,-0.00004951,-0.00001168,-0.0000
 8198,0.00009628,0.00016632,-0.00005594,-0.00028763,-0.00144988,-0.0004
 8065,0.00001608,0.00035743,0.00002530,0.00068016,0.00065743,-0.0002027
 6,-0.00042458,0.00059524,0.00004806,-0.00000836,0.00006634,0.00000326,
 -0.00002349,0.00000092,-0.00000816,-0.00002474,-0.00000865,0.00001871,
 -0.00135051,-0.00708046,-0.00274503,0.00008832,0.00265964,0.00093443,0
 .04993956,0.29168171,0.00005726,-0.00003428,0.00011578,-0.00023403,-0.
 00005897,-0.00074793,0.00068719,0.00256010,-0.00448204,-0.00006536,0.0
 0001112,-0.00003787,0.00458547,0.02497708,0.01069873,-0.00001518,0.000
 01896,0.00004938,-0.01899439,-0.09494908,-0.08602493,-0.00001423,0.000
 01920,0.00003605,0.00000253,-0.00001132,0.00003281,0.00004490,-0.00004
 779,-0.00005668,0.00003637,-0.00002083,-0.00001324,0.00002133,-0.00012
 047,0.00024534,0.00003383,-0.00016937,0.00052020,0.00008469,0.00154287
 ,0.00041411,-0.00018492,0.00005942,-0.00004605,-0.00032753,-0.00072246
 ,0.00122861,0.00014882,-0.00089825,0.00080535,-0.00000745,-0.00003146,
 -0.00001613,0.00002330,-0.00000044,-0.00000626,0.00000283,-0.00001247,
 0.00000476,-0.00474542,-0.01608029,-0.00770913,-0.00200059,-0.01621837
 ,-0.00753580,0.02086061,0.10018710,0.09252494\\-0.00000031,-0.00000167
 ,0.00000051,0.00000021,-0.00000022,-0.00000002,0.00000031,0.00000122,-
 0.00000081,0.00000141,-0.00000220,0.00000137,-0.00000161,0.00000197,-0
 .00000090,0.00000372,-0.00000208,0.00000127,-0.00000330,0.00000233,-0.
 00000149,0.00000127,-0.00000101,0.00000042,0.00000097,-0.00000330,0.00
 000167,-0.00000185,-0.00000175,0.00000053,-0.00000045,-0.00000291,0.00
 000118,0.00000121,0.00000004,0.00000026,-0.00000121,0.00000019,-0.0000
 0024,0.00000175,0.00000198,-0.00000063,0.00000044,0.00000302,-0.000001
 03,-0.00000097,0.00000339,-0.00000156,-0.00000130,0.00000103,-0.000000
 60,0.00000374,-0.00000074,0.00000084,0.00000338,-0.00000317,0.00000173
 ,0.00000449,-0.00000246,0.00000162,-0.00000346,0.00000312,-0.00000174,
 -0.00000391,0.00000071,-0.00000081,-0.00000453,0.00000249,-0.00000159\
 \\@


      THE ONE-EYED VIEW OF OUR UNIVERSE SAYS YOU MUST NOT LOOK
      FAR AFIELD FOR PROBLEMS.  SUCH PROBLEMS MAY NEVER ARRIVE. 
      INSTEAD, TEND TO THE WOLF WITHIN YOUR FENCES.
      THE PACKS RANGING OUTSIDE MAY NOT EVEN EXIST.

                              -- THE AZHAR BOOK SHAMRA I:4
                                 CHILDREN OF DUNE, BY FRANK HERBERT
 Job cpu time:       0 days  7 hours 26 minutes 44.3 seconds.
 Elapsed time:       0 days  3 hours 43 minutes 25.3 seconds.
 File lengths (MBytes):  RWF=   1488 Int=      0 D2E=      0 Chk=     32 Scr=     32
 Normal termination of Gaussian 16 at Sun Sep 29 12:28:10 2019.
