 Entering Gaussian System, Link 0=g16
 Input=tight/species/CCCCCCC/conformers/CCCCCCC_343.com
 Output=tight/species/CCCCCCC/conformers/CCCCCCC_343.log
 Initial command:
 /shared/centos7/gaussian/g16/l1.exe "/scratch/harms.n/gauss_scrdir/Gau-1076.inp" -scrdir="/scratch/harms.n/gauss_scrdir/"
 Entering Link 1 = /shared/centos7/gaussian/g16/l1.exe PID=      1080.
  
 Copyright (c) 1988,1990,1992,1993,1995,1998,2003,2009,2016,
            Gaussian, Inc.  All Rights Reserved.
  
 This is part of the Gaussian(R) 16 program.  It is based on
 the Gaussian(R) 09 system (copyright 2009, Gaussian, Inc.),
 the Gaussian(R) 03 system (copyright 2003, Gaussian, Inc.),
 the Gaussian(R) 98 system (copyright 1998, Gaussian, Inc.),
 the Gaussian(R) 94 system (copyright 1995, Gaussian, Inc.),
 the Gaussian 92(TM) system (copyright 1992, Gaussian, Inc.),
 the Gaussian 90(TM) system (copyright 1990, Gaussian, Inc.),
 the Gaussian 88(TM) system (copyright 1988, Gaussian, Inc.),
 the Gaussian 86(TM) system (copyright 1986, Carnegie Mellon
 University), and the Gaussian 82(TM) system (copyright 1983,
 Carnegie Mellon University). Gaussian is a federally registered
 trademark of Gaussian, Inc.
  
 This software contains proprietary and confidential information,
 including trade secrets, belonging to Gaussian, Inc.
  
 This software is provided under written license and may be
 used, copied, transmitted, or stored only in accord with that
 written license.
  
 The following legend is applicable only to US Government
 contracts under FAR:
  
                    RESTRICTED RIGHTS LEGEND
  
 Use, reproduction and disclosure by the US Government is
 subject to restrictions as set forth in subparagraphs (a)
 and (c) of the Commercial Computer Software - Restricted
 Rights clause in FAR 52.227-19.
  
 Gaussian, Inc.
 340 Quinnipiac St., Bldg. 40, Wallingford CT 06492
  
  
 ---------------------------------------------------------------
 Warning -- This program may not be used in any manner that
 competes with the business of Gaussian, Inc. or will provide
 assistance to any competitor of Gaussian, Inc.  The licensee
 of this program is prohibited from giving any competitor of
 Gaussian, Inc. access to this program.  By using this program,
 the user acknowledges that Gaussian, Inc. is engaged in the
 business of creating and licensing software in the field of
 computational chemistry and represents and warrants to the
 licensee that it is not a competitor of Gaussian, Inc. and that
 it will not use this program in any manner prohibited above.
 ---------------------------------------------------------------
  

 Cite this work as:
 Gaussian 16, Revision A.03,
 M. J. Frisch, G. W. Trucks, H. B. Schlegel, G. E. Scuseria, 
 M. A. Robb, J. R. Cheeseman, G. Scalmani, V. Barone, 
 G. A. Petersson, H. Nakatsuji, X. Li, M. Caricato, A. V. Marenich, 
 J. Bloino, B. G. Janesko, R. Gomperts, B. Mennucci, H. P. Hratchian, 
 J. V. Ortiz, A. F. Izmaylov, J. L. Sonnenberg, D. Williams-Young, 
 F. Ding, F. Lipparini, F. Egidi, J. Goings, B. Peng, A. Petrone, 
 T. Henderson, D. Ranasinghe, V. G. Zakrzewski, J. Gao, N. Rega, 
 G. Zheng, W. Liang, M. Hada, M. Ehara, K. Toyota, R. Fukuda, 
 J. Hasegawa, M. Ishida, T. Nakajima, Y. Honda, O. Kitao, H. Nakai, 
 T. Vreven, K. Throssell, J. A. Montgomery, Jr., J. E. Peralta, 
 F. Ogliaro, M. J. Bearpark, J. J. Heyd, E. N. Brothers, K. N. Kudin, 
 V. N. Staroverov, T. A. Keith, R. Kobayashi, J. Normand, 
 K. Raghavachari, A. P. Rendell, J. C. Burant, S. S. Iyengar, 
 J. Tomasi, M. Cossi, J. M. Millam, M. Klene, C. Adamo, R. Cammi, 
 J. W. Ochterski, R. L. Martin, K. Morokuma, O. Farkas, 
 J. B. Foresman, and D. J. Fox, Gaussian, Inc., Wallingford CT, 2016.
 
 ******************************************
 Gaussian 16:  EM64L-G16RevA.03 25-Dec-2016
                28-Sep-2019 
 ******************************************
 %nprocshared=20
 Will use up to   20 processors via shared memory.
 %mem=5GB
 ----------------------------------------------------------------------
 #p m062x/cc-pVTZ opt=(calcfc,maxcycles=900,Tight) freq IOP(7/33=1,2/16
 =3) scf=(maxcycle=900)
 ----------------------------------------------------------------------
 1/6=900,7=10,10=4,18=20,19=15,26=3,38=1/1,3;
 2/9=110,12=2,16=3,17=6,18=5,40=1/2;
 3/5=16,6=1,11=2,25=1,30=1,71=2,74=-55,140=1/1,2,3;
 4//1;
 5/5=2,7=900,38=5/2;
 8/6=4,10=90,11=11/1;
 11/6=1,8=1,9=11,15=111,16=1/1,2,10;
 10/6=1,13=1/2;
 6/7=2,8=2,9=2,10=2,28=1/1;
 7/10=1,18=20,25=1,33=1/1,2,3,16;
 1/6=900,7=10,10=4,18=20,19=15,26=3/3(2);
 2/9=110,16=3/2;
 99//99;
 2/9=110,16=3/2;
 3/5=16,6=1,11=2,25=1,30=1,71=1,74=-55/1,2,3;
 4/5=5,16=3,69=1/1;
 5/5=2,7=900,38=5/2;
 7/33=1/1,2,3,16;
 1/6=900,7=10,18=20,19=15,26=3/3(-5);
 2/9=110,16=3/2;
 6/7=2,8=2,9=2,10=2,19=2,28=1/1;
 99/9=1/99;
 Leave Link    1 at Sat Sep 28 18:53:56 2019, MaxMem=   671088640 cpu:               4.2 elap:               2.1
 (Enter /shared/centos7/gaussian/g16/l101.exe)
 ------------------------------
 Gaussian input prepared by ASE
 ------------------------------
 Symbolic Z-matrix:
 Charge =  0 Multiplicity = 1
 C                     1.39131  -1.17222   0.52336 
 C                     0.16533  -0.43584   0.9437 
 C                    -0.6679   -1.14201   1.98391 
 C                     2.12946  -0.49076  -0.57926 
 C                    -1.88101  -0.33643   2.38528 
 C                     3.35965  -1.1745   -1.01369 
 C                    -1.53285   1.02101   2.93853 
 H                     2.37418   0.55928  -0.25265 
 H                     1.44081  -0.36644  -1.44878 
 H                     1.10881  -2.19626   0.19915 
 H                     2.0664   -1.30584   1.39344 
 H                    -0.46172  -0.23677   0.0606 
 H                     0.44476   0.56069   1.34631 
 H                    -0.04974  -1.35277   2.87306 
 H                    -1.00261  -2.12544   1.59407 
 H                    -2.54082  -0.2066    1.48789 
 H                    -2.47047  -0.90332   3.12585 
 H                     3.56496  -2.08685  -0.42265 
 H                     3.29572  -1.49442  -2.09587 
 H                     4.24741  -0.51336  -0.92271 
 H                    -0.64153   1.41558   2.44921 
 H                    -1.32929   0.96922   4.04385 
 H                    -2.37646   1.75274   2.78111 
 
 ITRead=  0  0  0  0  0  0  0  0  0  0  0  0  0  0  0  0  0  0  0  0
 ITRead=  0  0  0
 MicOpt= -1 -1 -1 -1 -1 -1 -1 -1 -1 -1 -1 -1 -1 -1 -1 -1 -1 -1 -1 -1
 MicOpt= -1 -1 -1
 NAtoms=     23 NQM=       23 NQMF=       0 NMMI=      0 NMMIF=      0
                NMic=       0 NMicF=      0.
                    Isotopes and Nuclear Properties:
 (Nuclear quadrupole moments (NQMom) in fm**2, nuclear magnetic moments (NMagM)
  in nuclear magnetons)

  Atom         1           2           3           4           5           6           7           8           9          10
 IAtWgt=          12          12          12          12          12          12          12           1           1           1
 AtmWgt=  12.0000000  12.0000000  12.0000000  12.0000000  12.0000000  12.0000000  12.0000000   1.0078250   1.0078250   1.0078250
 NucSpn=           0           0           0           0           0           0           0           1           1           1
 AtZEff=  -0.0000000  -0.0000000  -0.0000000  -0.0000000  -0.0000000  -0.0000000  -0.0000000  -0.0000000  -0.0000000  -0.0000000
 NQMom=    0.0000000   0.0000000   0.0000000   0.0000000   0.0000000   0.0000000   0.0000000   0.0000000   0.0000000   0.0000000
 NMagM=    0.0000000   0.0000000   0.0000000   0.0000000   0.0000000   0.0000000   0.0000000   2.7928460   2.7928460   2.7928460
 AtZNuc=   6.0000000   6.0000000   6.0000000   6.0000000   6.0000000   6.0000000   6.0000000   1.0000000   1.0000000   1.0000000

  Atom        11          12          13          14          15          16          17          18          19          20
 IAtWgt=           1           1           1           1           1           1           1           1           1           1
 AtmWgt=   1.0078250   1.0078250   1.0078250   1.0078250   1.0078250   1.0078250   1.0078250   1.0078250   1.0078250   1.0078250
 NucSpn=           1           1           1           1           1           1           1           1           1           1
 AtZEff=  -0.0000000  -0.0000000  -0.0000000  -0.0000000  -0.0000000  -0.0000000  -0.0000000  -0.0000000  -0.0000000  -0.0000000
 NQMom=    0.0000000   0.0000000   0.0000000   0.0000000   0.0000000   0.0000000   0.0000000   0.0000000   0.0000000   0.0000000
 NMagM=    2.7928460   2.7928460   2.7928460   2.7928460   2.7928460   2.7928460   2.7928460   2.7928460   2.7928460   2.7928460
 AtZNuc=   1.0000000   1.0000000   1.0000000   1.0000000   1.0000000   1.0000000   1.0000000   1.0000000   1.0000000   1.0000000

  Atom        21          22          23
 IAtWgt=           1           1           1
 AtmWgt=   1.0078250   1.0078250   1.0078250
 NucSpn=           1           1           1
 AtZEff=  -0.0000000  -0.0000000  -0.0000000
 NQMom=    0.0000000   0.0000000   0.0000000
 NMagM=    2.7928460   2.7928460   2.7928460
 AtZNuc=   1.0000000   1.0000000   1.0000000
 Leave Link  101 at Sat Sep 28 18:53:57 2019, MaxMem=   671088640 cpu:               2.4 elap:               1.2
 (Enter /shared/centos7/gaussian/g16/l103.exe)

 GradGradGradGradGradGradGradGradGradGradGradGradGradGradGradGradGradGrad
 Berny optimization.
 Initialization pass.
                           ----------------------------
                           !    Initial Parameters    !
                           ! (Angstroms and Degrees)  !
 --------------------------                            --------------------------
 ! Name  Definition              Value          Derivative Info.                !
 --------------------------------------------------------------------------------
 ! R1    R(1,2)                  1.4906         calculate D2E/DX2 analytically  !
 ! R2    R(1,4)                  1.4917         calculate D2E/DX2 analytically  !
 ! R3    R(1,10)                 1.1107         calculate D2E/DX2 analytically  !
 ! R4    R(1,11)                 1.1093         calculate D2E/DX2 analytically  !
 ! R5    R(2,3)                  1.5083         calculate D2E/DX2 analytically  !
 ! R6    R(2,12)                 1.1012         calculate D2E/DX2 analytically  !
 ! R7    R(2,13)                 1.1105         calculate D2E/DX2 analytically  !
 ! R8    R(3,5)                  1.5105         calculate D2E/DX2 analytically  !
 ! R9    R(3,14)                 1.1032         calculate D2E/DX2 analytically  !
 ! R10   R(3,15)                 1.1096         calculate D2E/DX2 analytically  !
 ! R11   R(4,6)                  1.473          calculate D2E/DX2 analytically  !
 ! R12   R(4,8)                  1.1266         calculate D2E/DX2 analytically  !
 ! R13   R(4,9)                  1.1161         calculate D2E/DX2 analytically  !
 ! R14   R(5,7)                  1.5066         calculate D2E/DX2 analytically  !
 ! R15   R(5,16)                 1.1214         calculate D2E/DX2 analytically  !
 ! R16   R(5,17)                 1.1033         calculate D2E/DX2 analytically  !
 ! R17   R(6,18)                 1.1063         calculate D2E/DX2 analytically  !
 ! R18   R(6,19)                 1.1303         calculate D2E/DX2 analytically  !
 ! R19   R(6,20)                 1.1106         calculate D2E/DX2 analytically  !
 ! R20   R(7,21)                 1.0907         calculate D2E/DX2 analytically  !
 ! R21   R(7,22)                 1.1251         calculate D2E/DX2 analytically  !
 ! R22   R(7,23)                 1.1278         calculate D2E/DX2 analytically  !
 ! A1    A(2,1,4)              112.9394         calculate D2E/DX2 analytically  !
 ! A2    A(2,1,10)             109.1836         calculate D2E/DX2 analytically  !
 ! A3    A(2,1,11)             109.8066         calculate D2E/DX2 analytically  !
 ! A4    A(4,1,10)             109.3482         calculate D2E/DX2 analytically  !
 ! A5    A(4,1,11)             109.4905         calculate D2E/DX2 analytically  !
 ! A6    A(10,1,11)            105.8232         calculate D2E/DX2 analytically  !
 ! A7    A(1,2,3)              114.6791         calculate D2E/DX2 analytically  !
 ! A8    A(1,2,12)             109.3591         calculate D2E/DX2 analytically  !
 ! A9    A(1,2,13)             109.7907         calculate D2E/DX2 analytically  !
 ! A10   A(3,2,12)             108.8524         calculate D2E/DX2 analytically  !
 ! A11   A(3,2,13)             108.005          calculate D2E/DX2 analytically  !
 ! A12   A(12,2,13)            105.7711         calculate D2E/DX2 analytically  !
 ! A13   A(2,3,5)              112.1616         calculate D2E/DX2 analytically  !
 ! A14   A(2,3,14)             109.6176         calculate D2E/DX2 analytically  !
 ! A15   A(2,3,15)             109.8344         calculate D2E/DX2 analytically  !
 ! A16   A(5,3,14)             109.7378         calculate D2E/DX2 analytically  !
 ! A17   A(5,3,15)             108.8914         calculate D2E/DX2 analytically  !
 ! A18   A(14,3,15)            106.4313         calculate D2E/DX2 analytically  !
 ! A19   A(1,4,6)              114.7871         calculate D2E/DX2 analytically  !
 ! A20   A(1,4,8)              108.6027         calculate D2E/DX2 analytically  !
 ! A21   A(1,4,9)              108.7492         calculate D2E/DX2 analytically  !
 ! A22   A(6,4,8)              109.6788         calculate D2E/DX2 analytically  !
 ! A23   A(6,4,9)              109.7087         calculate D2E/DX2 analytically  !
 ! A24   A(8,4,9)              104.837          calculate D2E/DX2 analytically  !
 ! A25   A(3,5,7)              113.1096         calculate D2E/DX2 analytically  !
 ! A26   A(3,5,16)             108.7623         calculate D2E/DX2 analytically  !
 ! A27   A(3,5,17)             109.4759         calculate D2E/DX2 analytically  !
 ! A28   A(7,5,16)             108.9965         calculate D2E/DX2 analytically  !
 ! A29   A(7,5,17)             109.8719         calculate D2E/DX2 analytically  !
 ! A30   A(16,5,17)            106.396          calculate D2E/DX2 analytically  !
 ! A31   A(4,6,18)             112.349          calculate D2E/DX2 analytically  !
 ! A32   A(4,6,19)             111.5023         calculate D2E/DX2 analytically  !
 ! A33   A(4,6,20)             111.537          calculate D2E/DX2 analytically  !
 ! A34   A(18,6,19)            106.7732         calculate D2E/DX2 analytically  !
 ! A35   A(18,6,20)            107.3865         calculate D2E/DX2 analytically  !
 ! A36   A(19,6,20)            106.9858         calculate D2E/DX2 analytically  !
 ! A37   A(5,7,21)             110.4902         calculate D2E/DX2 analytically  !
 ! A38   A(5,7,22)             111.167          calculate D2E/DX2 analytically  !
 ! A39   A(5,7,23)             111.1287         calculate D2E/DX2 analytically  !
 ! A40   A(21,7,22)            108.0315         calculate D2E/DX2 analytically  !
 ! A41   A(21,7,23)            108.2979         calculate D2E/DX2 analytically  !
 ! A42   A(22,7,23)            107.5981         calculate D2E/DX2 analytically  !
 ! D1    D(4,1,2,3)            175.581          calculate D2E/DX2 analytically  !
 ! D2    D(4,1,2,12)            53.0081         calculate D2E/DX2 analytically  !
 ! D3    D(4,1,2,13)           -62.6245         calculate D2E/DX2 analytically  !
 ! D4    D(10,1,2,3)            53.6999         calculate D2E/DX2 analytically  !
 ! D5    D(10,1,2,12)          -68.873          calculate D2E/DX2 analytically  !
 ! D6    D(10,1,2,13)          175.4944         calculate D2E/DX2 analytically  !
 ! D7    D(11,1,2,3)           -61.9047         calculate D2E/DX2 analytically  !
 ! D8    D(11,1,2,12)          175.5223         calculate D2E/DX2 analytically  !
 ! D9    D(11,1,2,13)           59.8898         calculate D2E/DX2 analytically  !
 ! D10   D(2,1,4,6)            179.1627         calculate D2E/DX2 analytically  !
 ! D11   D(2,1,4,8)             56.0149         calculate D2E/DX2 analytically  !
 ! D12   D(2,1,4,9)            -57.537          calculate D2E/DX2 analytically  !
 ! D13   D(10,1,4,6)           -59.0488         calculate D2E/DX2 analytically  !
 ! D14   D(10,1,4,8)           177.8034         calculate D2E/DX2 analytically  !
 ! D15   D(10,1,4,9)            64.2515         calculate D2E/DX2 analytically  !
 ! D16   D(11,1,4,6)            56.472          calculate D2E/DX2 analytically  !
 ! D17   D(11,1,4,8)           -66.6759         calculate D2E/DX2 analytically  !
 ! D18   D(11,1,4,9)           179.7722         calculate D2E/DX2 analytically  !
 ! D19   D(1,2,3,5)            179.0047         calculate D2E/DX2 analytically  !
 ! D20   D(1,2,3,14)            56.8434         calculate D2E/DX2 analytically  !
 ! D21   D(1,2,3,15)           -59.7591         calculate D2E/DX2 analytically  !
 ! D22   D(12,2,3,5)           -58.149          calculate D2E/DX2 analytically  !
 ! D23   D(12,2,3,14)          179.6897         calculate D2E/DX2 analytically  !
 ! D24   D(12,2,3,15)           63.0871         calculate D2E/DX2 analytically  !
 ! D25   D(13,2,3,5)            56.2424         calculate D2E/DX2 analytically  !
 ! D26   D(13,2,3,14)          -65.9189         calculate D2E/DX2 analytically  !
 ! D27   D(13,2,3,15)          177.4785         calculate D2E/DX2 analytically  !
 ! D28   D(2,3,5,7)            -58.5615         calculate D2E/DX2 analytically  !
 ! D29   D(2,3,5,16)            62.6856         calculate D2E/DX2 analytically  !
 ! D30   D(2,3,5,17)           178.5562         calculate D2E/DX2 analytically  !
 ! D31   D(14,3,5,7)            63.5313         calculate D2E/DX2 analytically  !
 ! D32   D(14,3,5,16)         -175.2216         calculate D2E/DX2 analytically  !
 ! D33   D(14,3,5,17)          -59.351          calculate D2E/DX2 analytically  !
 ! D34   D(15,3,5,7)           179.6617         calculate D2E/DX2 analytically  !
 ! D35   D(15,3,5,16)          -59.0912         calculate D2E/DX2 analytically  !
 ! D36   D(15,3,5,17)           56.7794         calculate D2E/DX2 analytically  !
 ! D37   D(1,4,6,18)            -1.8075         calculate D2E/DX2 analytically  !
 ! D38   D(1,4,6,19)           118.0159         calculate D2E/DX2 analytically  !
 ! D39   D(1,4,6,20)          -122.4439         calculate D2E/DX2 analytically  !
 ! D40   D(8,4,6,18)           120.7621         calculate D2E/DX2 analytically  !
 ! D41   D(8,4,6,19)          -119.4145         calculate D2E/DX2 analytically  !
 ! D42   D(8,4,6,20)             0.1256         calculate D2E/DX2 analytically  !
 ! D43   D(9,4,6,18)          -124.5932         calculate D2E/DX2 analytically  !
 ! D44   D(9,4,6,19)            -4.7698         calculate D2E/DX2 analytically  !
 ! D45   D(9,4,6,20)           114.7703         calculate D2E/DX2 analytically  !
 ! D46   D(3,5,7,21)            33.3151         calculate D2E/DX2 analytically  !
 ! D47   D(3,5,7,22)           -86.6221         calculate D2E/DX2 analytically  !
 ! D48   D(3,5,7,23)           153.562          calculate D2E/DX2 analytically  !
 ! D49   D(16,5,7,21)          -87.7997         calculate D2E/DX2 analytically  !
 ! D50   D(16,5,7,22)          152.2631         calculate D2E/DX2 analytically  !
 ! D51   D(16,5,7,23)           32.4473         calculate D2E/DX2 analytically  !
 ! D52   D(17,5,7,21)          155.9774         calculate D2E/DX2 analytically  !
 ! D53   D(17,5,7,22)           36.0402         calculate D2E/DX2 analytically  !
 ! D54   D(17,5,7,23)          -83.7756         calculate D2E/DX2 analytically  !
 --------------------------------------------------------------------------------
 Trust Radius=3.00D-01 FncErr=1.00D-07 GrdErr=1.00D-06 EigMax=2.50D+02 EigMin=1.00D-04
 Number of steps in this run=    138 maximum allowed number of steps=    138.
 GradGradGradGradGradGradGradGradGradGradGradGradGradGradGradGradGradGrad

 Leave Link  103 at Sat Sep 28 18:53:58 2019, MaxMem=   671088640 cpu:               1.5 elap:               0.8
 (Enter /shared/centos7/gaussian/g16/l202.exe)
                          Input orientation:                          
 ---------------------------------------------------------------------
 Center     Atomic      Atomic             Coordinates (Angstroms)
 Number     Number       Type             X           Y           Z
 ---------------------------------------------------------------------
      1          6           0        1.391310   -1.172217    0.523360
      2          6           0        0.165329   -0.435840    0.943696
      3          6           0       -0.667897   -1.142008    1.983910
      4          6           0        2.129461   -0.490760   -0.579263
      5          6           0       -1.881009   -0.336428    2.385285
      6          6           0        3.359649   -1.174496   -1.013693
      7          6           0       -1.532855    1.021009    2.938530
      8          1           0        2.374178    0.559276   -0.252654
      9          1           0        1.440810   -0.366445   -1.448781
     10          1           0        1.108812   -2.196258    0.199152
     11          1           0        2.066402   -1.305842    1.393439
     12          1           0       -0.461721   -0.236775    0.060595
     13          1           0        0.444755    0.560694    1.346308
     14          1           0       -0.049742   -1.352768    2.873060
     15          1           0       -1.002610   -2.125440    1.594072
     16          1           0       -2.540823   -0.206597    1.487894
     17          1           0       -2.470469   -0.903319    3.125846
     18          1           0        3.564964   -2.086851   -0.422649
     19          1           0        3.295722   -1.494422   -2.095865
     20          1           0        4.247407   -0.513360   -0.922712
     21          1           0       -0.641531    1.415582    2.449212
     22          1           0       -1.329285    0.969217    4.043852
     23          1           0       -2.376464    1.752738    2.781113
 ---------------------------------------------------------------------
                    Distance matrix (angstroms):
                    1          2          3          4          5
     1  C    0.000000
     2  C    1.490625   0.000000
     3  C    2.524767   1.508304   0.000000
     4  C    1.491652   2.486008   3.849570   0.000000
     5  C    3.856602   2.505106   1.510531   4.989612   0.000000
     6  C    2.497378   3.818464   5.020737   1.472952   6.302373
     7  C    4.381099   2.997599   2.517557   5.298384   1.506627
     8  H    2.136889   2.701949   4.141353   1.126559   5.086022
     9  H    2.130975   2.712123   4.102622   1.116134   5.073011
    10  H    1.110665   2.131568   2.730110   2.134567   4.144536
    11  H    1.109344   2.138517   2.802121   2.135390   4.183966
    12  H    2.126717   1.101220   2.135672   2.681073   2.725525
    13  H    2.139203   1.110520   2.131601   2.766155   2.700644
    14  H    2.762304   2.146965   1.103233   4.172592   2.150444
    15  H    2.790325   2.154488   1.109570   4.147943   2.144334
    16  H    4.162261   2.769831   2.151483   5.115217   1.121392
    17  H    4.664609   3.453656   2.147151   5.920928   1.103295
    18  H    2.540917   4.018738   4.959976   2.152371   6.372369
    19  H    3.254373   4.489866   5.699038   2.160460   6.944077
    20  H    3.268410   4.489193   5.744898   2.145731   6.966464
    21  H    3.812880   2.519001   2.599705   4.525947   2.147075
    22  H    4.937737   3.717395   3.022924   5.955472   2.181732
    23  H    5.277208   3.824485   3.454604   6.052171   2.183293
                    6          7          8          9         10
     6  C    0.000000
     7  C    6.661599   0.000000
     8  H    2.134549   5.065744   0.000000
     9  H    2.127015   5.478705   1.777316   0.000000
    10  H    2.753408   4.983313   3.065656   2.484778   0.000000
    11  H    2.735695   4.555896   2.506595   3.058112   1.770915
    12  H    4.078761   3.318412   2.962119   2.432006   2.515025
    13  H    4.132444   2.580311   2.505864   3.108735   3.059040
    14  H    5.173257   2.799772   4.393335   4.676846   3.033729
    15  H    5.170497   3.462494   4.692632   4.280574   2.531585
    16  H    6.481539   2.151130   5.270039   4.950052   4.351948
    17  H    7.155389   2.148778   6.084739   6.042644   4.800884
    18  H    1.106291   6.851574   2.906691   2.919721   2.535998
    19  H    1.130281   7.415368   2.909355   2.265337   3.246884
    20  H    1.110627   7.118630   2.260201   2.859251   3.733832
    21  H    5.891490   1.090678   4.138580   4.765093   4.601289
    22  H    7.222214   1.125104   5.687149   6.294953   5.544932
    23  H    7.474774   1.127778   5.761657   6.079022   5.865854
                   11         12         13         14         15
    11  H    0.000000
    12  H    3.051358   0.000000
    13  H    2.473038   1.763721   0.000000
    14  H    2.582546   3.053707   2.497366   0.000000
    15  H    3.182896   2.492221   3.061302   1.772227   0.000000
    16  H    4.737487   2.522054   3.085849   3.072113   2.461571
    17  H    4.873033   3.724931   3.715996   2.475040   2.448371
    18  H    2.480693   4.457634   4.458072   4.946380   4.993134
    19  H    3.704327   4.511140   4.919357   5.991863   5.699955
    20  H    3.278623   4.818639   4.556556   5.794651   6.041165
    21  H    3.981671   2.910001   1.768403   2.862451   3.660666
    22  H    4.871475   4.251284   3.254360   2.898206   3.960434
    23  H    5.569525   3.876289   3.382146   3.881527   4.282149
                   16         17         18         19         20
    16  H    0.000000
    17  H    1.781364   0.000000
    18  H    6.668296   7.100635   0.000000
    19  H    6.969010   7.801579   1.795304   0.000000
    20  H    7.210076   7.853200   1.786523   1.801243   0.000000
    21  H    2.676360   3.029876   6.181361   6.680406   6.244389
    22  H    3.063214   2.377273   7.296770   8.071948   7.613428
    23  H    2.353385   2.679984   7.765764   8.154917   7.920175
                   21         22         23
    21  H    0.000000
    22  H    1.793077   0.000000
    23  H    1.798283   1.817965   0.000000
 Stoichiometry    C7H16
 Framework group  C1[X(C7H16)]
 Deg. of freedom    63
 Full point group                 C1      NOp   1
 Largest Abelian subgroup         C1      NOp   1
 Largest concise Abelian subgroup C1      NOp   1
                         Standard orientation:                         
 ---------------------------------------------------------------------
 Center     Atomic      Atomic             Coordinates (Angstroms)
 Number     Number       Type             X           Y           Z
 ---------------------------------------------------------------------
      1          6           0       -1.172583   -0.410493   -0.209067
      2          6           0        0.182508    0.027776    0.230948
      3          6           0        1.302395   -0.906380   -0.154002
      4          6           0       -2.260664    0.484575    0.280789
      5          6           0        2.650500   -0.396562    0.298106
      6          6           0       -3.616530    0.099566   -0.146975
      7          6           0        2.988217    0.960216   -0.263167
      8          1           0       -2.040457    1.536330   -0.057524
      9          1           0       -2.215511    0.527447    1.395185
     10          1           0       -1.356613   -1.444764    0.151481
     11          1           0       -1.208776   -0.465266   -1.316466
     12          1           0        0.187106    0.157186    1.324528
     13          1           0        0.409792    1.028951   -0.192425
     14          1           0        1.305894   -1.049458   -1.247912
     15          1           0        1.128401   -1.906977    0.292849
     16          1           0        2.657814   -0.340417    1.418068
     17          1           0        3.431638   -1.123479    0.017615
     18          1           0       -3.613644   -0.791491   -0.802633
     19          1           0       -4.275220   -0.148370    0.737442
     20          1           0       -4.116630    0.919930   -0.704106
     21          1           0        2.085862    1.562609   -0.374770
     22          1           0        3.475324    0.872134   -1.273527
     23          1           0        3.701959    1.513449    0.412400
 ---------------------------------------------------------------------
 Rotational constants (GHZ):           7.8400393           0.8741981           0.8315854
 Leave Link  202 at Sat Sep 28 18:54:01 2019, MaxMem=   671088640 cpu:               4.9 elap:               2.7
 (Enter /shared/centos7/gaussian/g16/l301.exe)
 Standard basis: CC-pVTZ (5D, 7F)
 Ernie: Thresh=  0.10000D-02 Tol=  0.10000D-05 Strict=F.
 Ernie:  21 primitive shells out of 310 were deleted.
 There are   485 symmetry adapted cartesian basis functions of A   symmetry.
 There are   434 symmetry adapted basis functions of A   symmetry.
   434 basis functions,   636 primitive gaussians,   485 cartesian basis functions
    29 alpha electrons       29 beta electrons
       nuclear repulsion energy       316.2485534310 Hartrees.
 IExCor= 4336 DFT=T Ex+Corr=M062X ExCW=0 ScaHFX=  0.540000
 ScaDFX=  1.000000  1.000000  1.000000  1.000000 ScalE2=  1.000000  1.000000
 IRadAn=      5 IRanWt=     -1 IRanGd=            0 ICorTp=0 IEmpDi=  4
 NAtoms=   23 NActive=   23 NUniq=   23 SFac= 1.00D+00 NAtFMM=   60 NAOKFM=F Big=F
 Integral buffers will be    131072 words long.
 Raffenetti 2 integral format.
 Two-electron integral symmetry is turned on.
 Leave Link  301 at Sat Sep 28 18:54:02 2019, MaxMem=   671088640 cpu:               1.6 elap:               0.8
 (Enter /shared/centos7/gaussian/g16/l302.exe)
 NPDir=0 NMtPBC=     1 NCelOv=     1 NCel=       1 NClECP=     1 NCelD=      1
         NCelK=      1 NCelE2=     1 NClLst=     1 CellRange=     0.0.
 One-electron integrals computed using PRISM.
 One-electron integral symmetry used in STVInt
 NBasis=   434 RedAO= T EigKep=  2.39D-04  NBF=   434
 NBsUse=   434 1.00D-06 EigRej= -1.00D+00 NBFU=   434
 Precomputing XC quadrature grid using
 IXCGrd= 4 IRadAn=           5 IRanWt=          -1 IRanGd=           0 AccXCQ= 0.00D+00.
 Generated NRdTot=       0 NPtTot=           0 NUsed=           0 NTot=          32
 NSgBfM=   485   485   485   485   485 MxSgAt=    23 MxSgA2=    23.
 Leave Link  302 at Sat Sep 28 18:55:10 2019, MaxMem=   671088640 cpu:             136.7 elap:              68.4
 (Enter /shared/centos7/gaussian/g16/l303.exe)
 DipDrv:  MaxL=1.
 Leave Link  303 at Sat Sep 28 18:55:14 2019, MaxMem=   671088640 cpu:               7.5 elap:               3.8
 (Enter /shared/centos7/gaussian/g16/l401.exe)
 ExpMin= 1.03D-01 ExpMax= 8.24D+03 ExpMxC= 2.81D+02 IAcc=3 IRadAn=         5 AccDes= 0.00D+00
 Harris functional with IExCor= 1009 and IRadAn=       5 diagonalized for initial guess.
 HarFok:  IExCor= 1009 AccDes= 0.00D+00 IRadAn=         5 IDoV= 1 UseB2=F ITyADJ=14
 ICtDFT=  3500011 ScaDFX=  1.000000  1.000000  1.000000  1.000000
 FoFCou: FMM=F IPFlag=           0 FMFlag=      100000 FMFlg1=           0
         NFxFlg=           0 DoJE=T BraDBF=F KetDBF=T FulRan=T
         wScrn=  0.000000 ICntrl=       500 IOpCl=  0 I1Cent=   200000004 NGrid=           0
         NMat0=    1 NMatS0=      1 NMatT0=    0 NMatD0=    1 NMtDS0=    0 NMtDT0=    0
 Petite list used in FoFCou.
 Harris En= -276.329914738243    
 JPrj=0 DoOrth=F DoCkMO=F.
 Leave Link  401 at Sat Sep 28 18:55:56 2019, MaxMem=   671088640 cpu:              84.2 elap:              42.1
 (Enter /shared/centos7/gaussian/g16/l502.exe)
 Integral symmetry usage will be decided dynamically.
 Closed shell SCF:
 Using DIIS extrapolation, IDIIS=  1040.
 NGot=   671088640 LenX=   670604095 LenY=   670368385
 Requested convergence on RMS density matrix=1.00D-08 within 900 cycles.
 Requested convergence on MAX density matrix=1.00D-06.
 Requested convergence on             energy=1.00D-06.
 No special actions if energy rises.
 Fock matrices will be formed incrementally for  20 cycles.
 Integral accuracy reduced to 1.0D-05 until final iterations.

 Cycle   1  Pass 0  IDiag  1:
 FoFJK:  IHMeth= 1 ICntrl=       0 DoSepK=F KAlg= 0 I1Cent=           0 FoldK=F
 IRaf= 900000000 NMat=       1 IRICut=       1 DoRegI=T DoRafI=F ISym2E= 0 IDoP0=0 IntGTp=1.
 FoFCou: FMM=F IPFlag=           0 FMFlag=      100000 FMFlg1=           0
         NFxFlg=           0 DoJE=F BraDBF=F KetDBF=F FulRan=T
         wScrn=  0.000000 ICntrl=         0 IOpCl=  0 I1Cent=           0 NGrid=           0
         NMat0=    1 NMatS0=      1 NMatT0=    0 NMatD0=    1 NMtDS0=    0 NMtDT0=    0
 Symmetry not used in FoFCou.
 E= -275.962234681458    
 DIIS: error= 2.62D-02 at cycle   1 NSaved=   1.
 NSaved= 1 IEnMin= 1 EnMin= -275.962234681458     IErMin= 1 ErrMin= 2.62D-02
 ErrMax= 2.62D-02  0.00D+00 EMaxC= 1.00D-01 BMatC= 3.71D-01 BMatP= 3.71D-01
 IDIUse=3 WtCom= 7.38D-01 WtEn= 2.62D-01
 Coeff-Com:  0.100D+01
 Coeff-En:   0.100D+01
 Coeff:      0.100D+01
 Gap=     0.383 Goal=   None    Shift=    0.000
 GapD=    0.383 DampG=1.000 DampE=0.500 DampFc=0.5000 IDamp=-1.
 Damping current iteration by 5.00D-01
 RMSDP=1.88D-03 MaxDP=7.55D-02              OVMax= 1.67D-01

 Cycle   2  Pass 0  IDiag  1:
 RMSU=  9.37D-04    CP:  9.90D-01
 E= -276.143365973199     Delta-E=       -0.181131291741 Rises=F Damp=T
 DIIS: error= 4.47D-03 at cycle   2 NSaved=   2.
 NSaved= 2 IEnMin= 2 EnMin= -276.143365973199     IErMin= 2 ErrMin= 4.47D-03
 ErrMax= 4.47D-03  0.00D+00 EMaxC= 1.00D-01 BMatC= 1.75D-02 BMatP= 3.71D-01
 IDIUse=3 WtCom= 9.55D-01 WtEn= 4.47D-02
 Coeff-Com: -0.679D-01 0.107D+01
 Coeff-En:   0.000D+00 0.100D+01
 Coeff:     -0.649D-01 0.106D+01
 Gap=     0.449 Goal=   None    Shift=    0.000
 RMSDP=4.85D-04 MaxDP=1.56D-02 DE=-1.81D-01 OVMax= 8.79D-02

 Cycle   3  Pass 0  IDiag  1:
 RMSU=  4.76D-04    CP:  9.96D-01  9.13D-01
 E= -276.319745938968     Delta-E=       -0.176379965769 Rises=F Damp=F
 DIIS: error= 1.53D-03 at cycle   3 NSaved=   3.
 NSaved= 3 IEnMin= 3 EnMin= -276.319745938968     IErMin= 3 ErrMin= 1.53D-03
 ErrMax= 1.53D-03  0.00D+00 EMaxC= 1.00D-01 BMatC= 1.47D-03 BMatP= 1.75D-02
 IDIUse=3 WtCom= 9.85D-01 WtEn= 1.53D-02
 Coeff-Com: -0.457D-01 0.182D+00 0.864D+00
 Coeff-En:   0.000D+00 0.000D+00 0.100D+01
 Coeff:     -0.450D-01 0.179D+00 0.866D+00
 Gap=     0.426 Goal=   None    Shift=    0.000
 RMSDP=6.67D-05 MaxDP=2.34D-03 DE=-1.76D-01 OVMax= 7.44D-03

 Cycle   4  Pass 0  IDiag  1:
 RMSU=  5.40D-05    CP:  9.95D-01  9.52D-01  9.73D-01
 E= -276.321088537028     Delta-E=       -0.001342598060 Rises=F Damp=F
 DIIS: error= 3.95D-04 at cycle   4 NSaved=   4.
 NSaved= 4 IEnMin= 4 EnMin= -276.321088537028     IErMin= 4 ErrMin= 3.95D-04
 ErrMax= 3.95D-04  0.00D+00 EMaxC= 1.00D-01 BMatC= 1.22D-04 BMatP= 1.47D-03
 IDIUse=3 WtCom= 9.96D-01 WtEn= 3.95D-03
 Coeff-Com: -0.101D-01 0.258D-01 0.258D+00 0.726D+00
 Coeff-En:   0.000D+00 0.000D+00 0.000D+00 0.100D+01
 Coeff:     -0.100D-01 0.257D-01 0.257D+00 0.727D+00
 Gap=     0.426 Goal=   None    Shift=    0.000
 RMSDP=2.24D-05 MaxDP=1.03D-03 DE=-1.34D-03 OVMax= 2.07D-03

 Cycle   5  Pass 0  IDiag  1:
 RMSU=  1.55D-05    CP:  9.95D-01  9.45D-01  9.98D-01  8.25D-01
 E= -276.321197719986     Delta-E=       -0.000109182958 Rises=F Damp=F
 DIIS: error= 1.12D-04 at cycle   5 NSaved=   5.
 NSaved= 5 IEnMin= 5 EnMin= -276.321197719986     IErMin= 5 ErrMin= 1.12D-04
 ErrMax= 1.12D-04  0.00D+00 EMaxC= 1.00D-01 BMatC= 1.07D-05 BMatP= 1.22D-04
 IDIUse=3 WtCom= 9.99D-01 WtEn= 1.12D-03
 Coeff-Com: -0.341D-03-0.166D-02 0.380D-01 0.255D+00 0.709D+00
 Coeff-En:   0.000D+00 0.000D+00 0.000D+00 0.000D+00 0.100D+01
 Coeff:     -0.341D-03-0.166D-02 0.380D-01 0.255D+00 0.709D+00
 Gap=     0.426 Goal=   None    Shift=    0.000
 RMSDP=5.25D-06 MaxDP=3.34D-04 DE=-1.09D-04 OVMax= 5.69D-04

 Initial convergence to 1.0D-05 achieved.  Increase integral accuracy.
 Cycle   6  Pass 1  IDiag  1:
 E= -276.321198485862     Delta-E=       -0.000000765877 Rises=F Damp=F
 DIIS: error= 7.11D-05 at cycle   1 NSaved=   1.
 NSaved= 1 IEnMin= 1 EnMin= -276.321198485862     IErMin= 1 ErrMin= 7.11D-05
 ErrMax= 7.11D-05  0.00D+00 EMaxC= 1.00D-01 BMatC= 1.73D-06 BMatP= 1.73D-06
 IDIUse=1 WtCom= 1.00D+00 WtEn= 0.00D+00
 Coeff-Com:  0.100D+01
 Coeff:      0.100D+01
 Gap=     0.426 Goal=   None    Shift=    0.000
 RMSDP=5.25D-06 MaxDP=3.34D-04 DE=-7.66D-07 OVMax= 2.53D-04

 Cycle   7  Pass 1  IDiag  1:
 RMSU=  1.89D-05    CP:  1.00D+00
 E= -276.321199523001     Delta-E=       -0.000001037139 Rises=F Damp=F
 DIIS: error= 1.69D-05 at cycle   2 NSaved=   2.
 NSaved= 2 IEnMin= 2 EnMin= -276.321199523001     IErMin= 2 ErrMin= 1.69D-05
 ErrMax= 1.69D-05  0.00D+00 EMaxC= 1.00D-01 BMatC= 3.00D-07 BMatP= 1.73D-06
 IDIUse=1 WtCom= 1.00D+00 WtEn= 0.00D+00
 Coeff-Com:  0.224D+00 0.776D+00
 Coeff:      0.224D+00 0.776D+00
 Gap=     0.426 Goal=   None    Shift=    0.000
 RMSDP=1.23D-06 MaxDP=6.09D-05 DE=-1.04D-06 OVMax= 1.23D-04

 Cycle   8  Pass 1  IDiag  1:
 RMSU=  1.15D-06    CP:  1.00D+00  1.02D+00
 E= -276.321199732213     Delta-E=       -0.000000209212 Rises=F Damp=F
 DIIS: error= 1.00D-05 at cycle   3 NSaved=   3.
 NSaved= 3 IEnMin= 3 EnMin= -276.321199732213     IErMin= 3 ErrMin= 1.00D-05
 ErrMax= 1.00D-05  0.00D+00 EMaxC= 1.00D-01 BMatC= 8.81D-08 BMatP= 3.00D-07
 IDIUse=1 WtCom= 1.00D+00 WtEn= 0.00D+00
 Coeff-Com: -0.787D-02 0.345D+00 0.662D+00
 Coeff:     -0.787D-02 0.345D+00 0.662D+00
 Gap=     0.426 Goal=   None    Shift=    0.000
 RMSDP=4.78D-07 MaxDP=2.15D-05 DE=-2.09D-07 OVMax= 4.80D-05

 Cycle   9  Pass 1  IDiag  1:
 RMSU=  2.80D-07    CP:  1.00D+00  1.03D+00  7.11D-01
 E= -276.321199817114     Delta-E=       -0.000000084901 Rises=F Damp=F
 DIIS: error= 1.51D-06 at cycle   4 NSaved=   4.
 NSaved= 4 IEnMin= 4 EnMin= -276.321199817114     IErMin= 4 ErrMin= 1.51D-06
 ErrMax= 1.51D-06  0.00D+00 EMaxC= 1.00D-01 BMatC= 1.14D-09 BMatP= 8.81D-08
 IDIUse=1 WtCom= 1.00D+00 WtEn= 0.00D+00
 Coeff-Com: -0.749D-02 0.969D-01 0.216D+00 0.694D+00
 Coeff:     -0.749D-02 0.969D-01 0.216D+00 0.694D+00
 Gap=     0.426 Goal=   None    Shift=    0.000
 RMSDP=6.51D-08 MaxDP=2.81D-06 DE=-8.49D-08 OVMax= 6.09D-06

 Cycle  10  Pass 1  IDiag  1:
 RMSU=  6.33D-08    CP:  1.00D+00  1.03D+00  7.19D-01  9.95D-01
 E= -276.321199818215     Delta-E=       -0.000000001101 Rises=F Damp=F
 DIIS: error= 3.72D-07 at cycle   5 NSaved=   5.
 NSaved= 5 IEnMin= 5 EnMin= -276.321199818215     IErMin= 5 ErrMin= 3.72D-07
 ErrMax= 3.72D-07  0.00D+00 EMaxC= 1.00D-01 BMatC= 6.60D-11 BMatP= 1.14D-09
 IDIUse=1 WtCom= 1.00D+00 WtEn= 0.00D+00
 Coeff-Com: -0.646D-03-0.139D-01-0.217D-01 0.118D+00 0.918D+00
 Coeff:     -0.646D-03-0.139D-01-0.217D-01 0.118D+00 0.918D+00
 Gap=     0.426 Goal=   None    Shift=    0.000
 RMSDP=2.60D-08 MaxDP=8.22D-07 DE=-1.10D-09 OVMax= 2.13D-06

 Cycle  11  Pass 1  IDiag  1:
 RMSU=  1.53D-08    CP:  1.00D+00  1.03D+00  7.20D-01  1.07D+00  1.05D+00
 E= -276.321199818295     Delta-E=       -0.000000000079 Rises=F Damp=F
 DIIS: error= 1.37D-07 at cycle   6 NSaved=   6.
 NSaved= 6 IEnMin= 6 EnMin= -276.321199818295     IErMin= 6 ErrMin= 1.37D-07
 ErrMax= 1.37D-07  0.00D+00 EMaxC= 1.00D-01 BMatC= 1.38D-11 BMatP= 6.60D-11
 IDIUse=1 WtCom= 1.00D+00 WtEn= 0.00D+00
 Coeff-Com:  0.460D-03-0.149D-01-0.296D-01-0.197D-01 0.378D+00 0.686D+00
 Coeff:      0.460D-03-0.149D-01-0.296D-01-0.197D-01 0.378D+00 0.686D+00
 Gap=     0.426 Goal=   None    Shift=    0.000
 RMSDP=7.03D-09 MaxDP=3.00D-07 DE=-7.95D-11 OVMax= 5.95D-07

 SCF Done:  E(RM062X) =  -276.321199818     A.U. after   11 cycles
            NFock= 11  Conv=0.70D-08     -V/T= 2.0068
 KE= 2.744678050980D+02 PE=-1.270891103204D+03 EE= 4.038535448562D+02
 Leave Link  502 at Sat Sep 28 19:09:58 2019, MaxMem=   671088640 cpu:            1684.1 elap:             842.2
 (Enter /shared/centos7/gaussian/g16/l801.exe)
 DoSCS=F DFT=T ScalE2(SS,OS)=  1.000000  1.000000
 Range of M.O.s used for correlation:     1   434
 NBasis=   434 NAE=    29 NBE=    29 NFC=     0 NFV=     0
 NROrb=    434 NOA=    29 NOB=    29 NVA=   405 NVB=   405

 **** Warning!!: The largest alpha MO coefficient is  0.15479435D+02

 Leave Link  801 at Sat Sep 28 19:09:59 2019, MaxMem=   671088640 cpu:               1.5 elap:               0.8
 (Enter /shared/centos7/gaussian/g16/l1101.exe)
 Using compressed storage, NAtomX=    23.
 Will process     24 centers per pass.
 Leave Link 1101 at Sat Sep 28 19:10:34 2019, MaxMem=   671088640 cpu:              68.9 elap:              34.5
 (Enter /shared/centos7/gaussian/g16/l1102.exe)
 Symmetrizing basis deriv contribution to polar:
 IMax=3 JMax=2 DiffMx= 0.00D+00
 Leave Link 1102 at Sat Sep 28 19:10:36 2019, MaxMem=   671088640 cpu:               4.2 elap:               2.1
 (Enter /shared/centos7/gaussian/g16/l1110.exe)
 Forming Gx(P) for the SCF density, NAtomX=    23.
 Integral derivatives from FoFJK, PRISM(SPDF).
 Do as many integral derivatives as possible in FoFJK.
 G2DrvN: MDV=     671086848.
 G2DrvN: will do    24 centers at a time, making    1 passes.
 Calling FoFCou, ICntrl=  3107 FMM=F I1Cent=   0 AccDes= 0.00D+00.
 FoFJK:  IHMeth= 1 ICntrl=    3107 DoSepK=F KAlg= 0 I1Cent=           0 FoldK=F
 IRaf=         0 NMat=       1 IRICut=       1 DoRegI=T DoRafI=F ISym2E= 0 IDoP0=0 IntGTp=1.
 FoFCou: FMM=F IPFlag=           0 FMFlag=      100000 FMFlg1=           0
         NFxFlg=           0 DoJE=F BraDBF=F KetDBF=F FulRan=T
         wScrn=  0.000000 ICntrl=      3107 IOpCl=  0 I1Cent=           0 NGrid=           0
         NMat0=    1 NMatS0=      1 NMatT0=    0 NMatD0=    1 NMtDS0=    0 NMtDT0=    0
 Symmetry not used in FoFCou.
 End of G2Drv F.D. properties file   721 does not exist.
 End of G2Drv F.D. properties file   722 does not exist.
 End of G2Drv F.D. properties file   788 does not exist.
 Leave Link 1110 at Sat Sep 28 19:46:07 2019, MaxMem=   671088640 cpu:            4262.2 elap:            2131.3
 (Enter /shared/centos7/gaussian/g16/l1002.exe)
 Minotr:  Closed shell wavefunction.
          IDoAtm=11111111111111111111111
          Direct CPHF calculation.
          Differentiating once with respect to nuclear coordinates.
          Requested convergence is 1.0D-08 RMS, and 1.0D-07 maximum.
          Secondary convergence is 1.0D-12 RMS, and 1.0D-12 maximum.
          NewPWx=T KeepS1=F KeepF1=F KeepIn=T MapXYZ=F SortEE=F KeepMc=T.
         6953 words used for storage of precomputed grid.
 Two-electron integrals replicated using symmetry.
          MDV=     671088640 using IRadAn=       1.
          Solving linear equations simultaneously, MaxMat=     380.
 FoF2E skips out because all densities are zero.
 CalDSu exits because no D1Ps are significant.
 FoFJK:  IHMeth= 1 ICntrl=       0 DoSepK=F KAlg= 0 I1Cent=           0 FoldK=F
 IRaf= 870000000 NMat=      69 IRICut=     172 DoRegI=T DoRafI=T ISym2E= 2 IDoP0=3 IntGTp=3.
 FoFCou: FMM=F IPFlag=           0 FMFlag=      100000 FMFlg1=           0
         NFxFlg=           0 DoJE=F BraDBF=F KetDBF=F FulRan=T
         wScrn=  0.000000 ICntrl=         0 IOpCl=  0 I1Cent=           0 NGrid=           0
         NMat0=   69 NMatS0=     69 NMatT0=    0 NMatD0=   69 NMtDS0=    0 NMtDT0=    0
 Integrals replicated using symmetry in FoFCou.
 Raff kept on since  83.88% of shell-pairs survive, threshold=   0.20 IRatSp=84.
          There are    72 degrees of freedom in the 1st order CPHF.  IDoFFX=6 NUNeed=     0.
     66 vectors produced by pass  0 Test12= 1.63D-14 1.39D-09 XBig12= 5.66D-02 4.23D-02.
 AX will form    66 AO Fock derivatives at one time.
     66 vectors produced by pass  1 Test12= 1.63D-14 1.39D-09 XBig12= 3.72D-03 7.30D-03.
     66 vectors produced by pass  2 Test12= 1.63D-14 1.39D-09 XBig12= 5.75D-05 1.07D-03.
     66 vectors produced by pass  3 Test12= 1.63D-14 1.39D-09 XBig12= 4.68D-07 7.12D-05.
     66 vectors produced by pass  4 Test12= 1.63D-14 1.39D-09 XBig12= 2.43D-09 5.68D-06.
     66 vectors produced by pass  5 Test12= 1.63D-14 1.39D-09 XBig12= 1.24D-11 3.01D-07.
     24 vectors produced by pass  6 Test12= 1.63D-14 1.39D-09 XBig12= 5.02D-14 1.91D-08.
 InvSVY:  IOpt=1 It=  1 EMax= 3.05D-16
 Solved reduced A of dimension   420 with    72 vectors.
 End of Minotr F.D. properties file   721 does not exist.
 End of Minotr F.D. properties file   722 does not exist.
 End of Minotr F.D. properties file   788 does not exist.
 Leave Link 1002 at Sat Sep 28 20:57:21 2019, MaxMem=   671088640 cpu:            8546.1 elap:            4273.6
 (Enter /shared/centos7/gaussian/g16/l601.exe)
 Copying SCF densities to generalized density rwf, IOpCl= 0 IROHF=0.

 **********************************************************************

            Population analysis using the SCF density.

 **********************************************************************

 Orbital symmetries:
       Occupied  (A) (A) (A) (A) (A) (A) (A) (A) (A) (A) (A) (A)
                 (A) (A) (A) (A) (A) (A) (A) (A) (A) (A) (A) (A)
                 (A) (A) (A) (A) (A)
       Virtual   (A) (A) (A) (A) (A) (A) (A) (A) (A) (A) (A) (A)
                 (A) (A) (A) (A) (A) (A) (A) (A) (A) (A) (A) (A)
                 (A) (A) (A) (A) (A) (A) (A) (A) (A) (A) (A) (A)
                 (A) (A) (A) (A) (A) (A) (A) (A) (A) (A) (A) (A)
                 (A) (A) (A) (A) (A) (A) (A) (A) (A) (A) (A) (A)
                 (A) (A) (A) (A) (A) (A) (A) (A) (A) (A) (A) (A)
                 (A) (A) (A) (A) (A) (A) (A) (A) (A) (A) (A) (A)
                 (A) (A) (A) (A) (A) (A) (A) (A) (A) (A) (A) (A)
                 (A) (A) (A) (A) (A) (A) (A) (A) (A) (A) (A) (A)
                 (A) (A) (A) (A) (A) (A) (A) (A) (A) (A) (A) (A)
                 (A) (A) (A) (A) (A) (A) (A) (A) (A) (A) (A) (A)
                 (A) (A) (A) (A) (A) (A) (A) (A) (A) (A) (A) (A)
                 (A) (A) (A) (A) (A) (A) (A) (A) (A) (A) (A) (A)
                 (A) (A) (A) (A) (A) (A) (A) (A) (A) (A) (A) (A)
                 (A) (A) (A) (A) (A) (A) (A) (A) (A) (A) (A) (A)
                 (A) (A) (A) (A) (A) (A) (A) (A) (A) (A) (A) (A)
                 (A) (A) (A) (A) (A) (A) (A) (A) (A) (A) (A) (A)
                 (A) (A) (A) (A) (A) (A) (A) (A) (A) (A) (A) (A)
                 (A) (A) (A) (A) (A) (A) (A) (A) (A) (A) (A) (A)
                 (A) (A) (A) (A) (A) (A) (A) (A) (A) (A) (A) (A)
                 (A) (A) (A) (A) (A) (A) (A) (A) (A) (A) (A) (A)
                 (A) (A) (A) (A) (A) (A) (A) (A) (A) (A) (A) (A)
                 (A) (A) (A) (A) (A) (A) (A) (A) (A) (A) (A) (A)
                 (A) (A) (A) (A) (A) (A) (A) (A) (A) (A) (A) (A)
                 (A) (A) (A) (A) (A) (A) (A) (A) (A) (A) (A) (A)
                 (A) (A) (A) (A) (A) (A) (A) (A) (A) (A) (A) (A)
                 (A) (A) (A) (A) (A) (A) (A) (A) (A) (A) (A) (A)
                 (A) (A) (A) (A) (A) (A) (A) (A) (A) (A) (A) (A)
                 (A) (A) (A) (A) (A) (A) (A) (A) (A) (A) (A) (A)
                 (A) (A) (A) (A) (A) (A) (A) (A) (A) (A) (A) (A)
                 (A) (A) (A) (A) (A) (A) (A) (A) (A) (A) (A) (A)
                 (A) (A) (A) (A) (A) (A) (A) (A) (A) (A) (A) (A)
                 (A) (A) (A) (A) (A) (A) (A) (A) (A) (A) (A) (A)
                 (A) (A) (A) (A) (A) (A) (A) (A) (A)
 The electronic state is 1-A.
 Alpha  occ. eigenvalues --  -10.52802 -10.52579 -10.52556 -10.52446 -10.52367
 Alpha  occ. eigenvalues --  -10.52272 -10.52267  -0.92157  -0.88615  -0.82708
 Alpha  occ. eigenvalues --   -0.76252  -0.70128  -0.65393  -0.63797  -0.55467
 Alpha  occ. eigenvalues --   -0.52737  -0.51725  -0.49513  -0.47210  -0.47011
 Alpha  occ. eigenvalues --   -0.45091  -0.42837  -0.41134  -0.40233  -0.38998
 Alpha  occ. eigenvalues --   -0.37558  -0.37265  -0.36639  -0.35888
 Alpha virt. eigenvalues --    0.06737   0.07687   0.08807   0.09121   0.10345
 Alpha virt. eigenvalues --    0.11487   0.11760   0.13718   0.14734   0.14940
 Alpha virt. eigenvalues --    0.15649   0.17128   0.17809   0.18310   0.19482
 Alpha virt. eigenvalues --    0.21067   0.22699   0.23477   0.25074   0.25761
 Alpha virt. eigenvalues --    0.26505   0.28651   0.29951   0.30481   0.31014
 Alpha virt. eigenvalues --    0.32000   0.32582   0.35086   0.35818   0.36844
 Alpha virt. eigenvalues --    0.38092   0.39753   0.40079   0.41054   0.42331
 Alpha virt. eigenvalues --    0.43676   0.45181   0.45944   0.47023   0.47313
 Alpha virt. eigenvalues --    0.48833   0.49524   0.50051   0.50835   0.51093
 Alpha virt. eigenvalues --    0.51472   0.52025   0.53163   0.53457   0.53629
 Alpha virt. eigenvalues --    0.54204   0.54706   0.55213   0.56623   0.57130
 Alpha virt. eigenvalues --    0.58229   0.59218   0.61299   0.62377   0.65727
 Alpha virt. eigenvalues --    0.66136   0.70341   0.71682   0.74908   0.75966
 Alpha virt. eigenvalues --    0.77612   0.78353   0.82035   0.82530   0.83798
 Alpha virt. eigenvalues --    0.84925   0.86449   0.86723   0.88424   0.90845
 Alpha virt. eigenvalues --    0.93281   0.93801   0.95031   0.96600   0.97336
 Alpha virt. eigenvalues --    0.98009   0.98910   1.01341   1.02824   1.03956
 Alpha virt. eigenvalues --    1.05340   1.06653   1.08087   1.09162   1.09917
 Alpha virt. eigenvalues --    1.10678   1.11606   1.12726   1.13935   1.14291
 Alpha virt. eigenvalues --    1.14762   1.15812   1.17247   1.17905   1.19118
 Alpha virt. eigenvalues --    1.20427   1.20880   1.21560   1.22197   1.24415
 Alpha virt. eigenvalues --    1.25661   1.26184   1.27217   1.27667   1.28643
 Alpha virt. eigenvalues --    1.29581   1.30503   1.31297   1.31686   1.32838
 Alpha virt. eigenvalues --    1.33370   1.35030   1.35548   1.36721   1.37665
 Alpha virt. eigenvalues --    1.38336   1.39653   1.40156   1.41549   1.42709
 Alpha virt. eigenvalues --    1.44377   1.45229   1.46388   1.47859   1.49753
 Alpha virt. eigenvalues --    1.50471   1.51786   1.52719   1.53721   1.55023
 Alpha virt. eigenvalues --    1.56107   1.57738   1.59398   1.60986   1.63412
 Alpha virt. eigenvalues --    1.64487   1.65491   1.65979   1.68781   1.72190
 Alpha virt. eigenvalues --    1.76722   1.80025   1.80985   1.86780   2.21595
 Alpha virt. eigenvalues --    2.22121   2.27029   2.30493   2.32679   2.34832
 Alpha virt. eigenvalues --    2.36249   2.36853   2.39501   2.42033   2.42172
 Alpha virt. eigenvalues --    2.45360   2.46247   2.48516   2.50355   2.51181
 Alpha virt. eigenvalues --    2.52861   2.54689   2.56190   2.57622   2.59619
 Alpha virt. eigenvalues --    2.60899   2.61632   2.62298   2.63690   2.65850
 Alpha virt. eigenvalues --    2.66930   2.67598   2.68237   2.69603   2.71630
 Alpha virt. eigenvalues --    2.72214   2.73788   2.74324   2.75788   2.77799
 Alpha virt. eigenvalues --    2.78848   2.80346   2.82747   2.83512   2.84376
 Alpha virt. eigenvalues --    2.85313   2.85992   2.88096   2.90691   2.92388
 Alpha virt. eigenvalues --    2.94754   2.97268   2.97820   2.98572   2.99044
 Alpha virt. eigenvalues --    3.01251   3.02003   3.02417   3.02664   3.03844
 Alpha virt. eigenvalues --    3.04531   3.05664   3.07569   3.08006   3.08862
 Alpha virt. eigenvalues --    3.09668   3.09758   3.10734   3.11031   3.11446
 Alpha virt. eigenvalues --    3.13097   3.14001   3.15667   3.15803   3.17317
 Alpha virt. eigenvalues --    3.18106   3.19574   3.19847   3.21767   3.23252
 Alpha virt. eigenvalues --    3.23863   3.24403   3.25766   3.27827   3.28690
 Alpha virt. eigenvalues --    3.29537   3.29871   3.30614   3.34122   3.34426
 Alpha virt. eigenvalues --    3.34868   3.36013   3.37762   3.38881   3.39017
 Alpha virt. eigenvalues --    3.40800   3.42256   3.43310   3.46459   3.47635
 Alpha virt. eigenvalues --    3.48815   3.49992   3.51530   3.52724   3.54241
 Alpha virt. eigenvalues --    3.55144   3.56642   3.56970   3.57640   3.59520
 Alpha virt. eigenvalues --    3.60551   3.60910   3.64113   3.65141   3.67299
 Alpha virt. eigenvalues --    3.68842   3.69882   3.70313   3.72265   3.72401
 Alpha virt. eigenvalues --    3.73935   3.74469   3.75646   3.76460   3.78874
 Alpha virt. eigenvalues --    3.79594   3.81354   3.83034   3.84015   3.84250
 Alpha virt. eigenvalues --    3.84843   3.85604   3.87563   3.88542   3.89685
 Alpha virt. eigenvalues --    3.90572   3.91803   3.92290   3.93201   3.94606
 Alpha virt. eigenvalues --    3.95257   3.96347   3.97060   3.97769   3.98482
 Alpha virt. eigenvalues --    3.99769   4.01441   4.02706   4.04150   4.05291
 Alpha virt. eigenvalues --    4.05877   4.07567   4.07966   4.09644   4.11732
 Alpha virt. eigenvalues --    4.12761   4.13572   4.14556   4.15150   4.15751
 Alpha virt. eigenvalues --    4.17832   4.18526   4.19262   4.20914   4.21999
 Alpha virt. eigenvalues --    4.23121   4.24469   4.25705   4.26734   4.27627
 Alpha virt. eigenvalues --    4.28894   4.30641   4.31987   4.32716   4.36115
 Alpha virt. eigenvalues --    4.37848   4.38265   4.42902   4.44018   4.45488
 Alpha virt. eigenvalues --    4.47833   4.50543   4.53339   4.55081   4.55332
 Alpha virt. eigenvalues --    4.57956   4.59272   4.63022   4.64189   4.65914
 Alpha virt. eigenvalues --    4.66795   4.68641   4.71828   4.73548   4.73885
 Alpha virt. eigenvalues --    4.75253   4.77420   4.77579   4.80363   4.81794
 Alpha virt. eigenvalues --    4.83237   4.85325   4.86245   4.89171   4.91096
 Alpha virt. eigenvalues --    4.91994   4.92288   4.94117   4.96912   4.98448
 Alpha virt. eigenvalues --    4.99916   5.01770   5.02746   5.04105   5.07777
 Alpha virt. eigenvalues --    5.09324   5.10831   5.14398   5.15727   5.18310
 Alpha virt. eigenvalues --    5.19563   5.21659   5.25241   5.25953   5.26907
 Alpha virt. eigenvalues --    5.27955   5.29824   5.32820   5.33901   5.34424
 Alpha virt. eigenvalues --    5.36751   5.39319   5.40758   5.41969   5.45763
 Alpha virt. eigenvalues --    5.48795   5.48924   5.50557   5.51464   5.56059
 Alpha virt. eigenvalues --    5.59222   5.61892   5.65942   5.69625   5.73534
 Alpha virt. eigenvalues --    5.78642   5.80963   5.81837   5.85976   5.93316
 Alpha virt. eigenvalues --    5.93855   5.96277   6.04331  11.57983  12.12320
 Alpha virt. eigenvalues --   12.75647  12.80369  13.24666  13.53695  13.92719
          Condensed to atoms (all electrons):
               1          2          3          4          5          6
     1  C    5.046272   0.326921  -0.051165   0.321062   0.005356  -0.045090
     2  C    0.326921   5.106686   0.315704  -0.062947  -0.050284   0.008781
     3  C   -0.051165   0.315704   5.062538   0.007212   0.331846  -0.000448
     4  C    0.321062  -0.062947   0.007212   5.053020  -0.000586   0.287541
     5  C    0.005356  -0.050284   0.331846  -0.000586   5.026332   0.000014
     6  C   -0.045090   0.008781  -0.000448   0.287541   0.000014   4.964365
     7  C    0.001244  -0.013486  -0.053268   0.000031   0.303560   0.000002
     8  H   -0.046947  -0.001759   0.000172   0.408910   0.000054  -0.042368
     9  H   -0.044986  -0.004644   0.000153   0.410090   0.000005  -0.041068
    10  H    0.409568  -0.043275  -0.003942  -0.043600   0.000318  -0.003784
    11  H    0.406193  -0.039864  -0.003510  -0.038823   0.000128  -0.004673
    12  H   -0.036639   0.404091  -0.047468  -0.002789  -0.000712   0.000318
    13  H   -0.045278   0.415270  -0.037370  -0.004437  -0.003974  -0.000029
    14  H   -0.001513  -0.052044   0.406250   0.000084  -0.037319   0.000012
    15  H   -0.004808  -0.043139   0.413747   0.000055  -0.040376  -0.000009
    16  H    0.000386  -0.007502  -0.045014   0.000004   0.412871   0.000001
    17  H   -0.000329   0.010064  -0.043309   0.000025   0.413874  -0.000000
    18  H   -0.001688   0.000840   0.000032  -0.062332   0.000005   0.409749
    19  H    0.004025  -0.000563   0.000019  -0.045115  -0.000001   0.405541
    20  H    0.004893  -0.000589   0.000015  -0.045233  -0.000001   0.407777
    21  H    0.001281  -0.002896  -0.004730   0.000232  -0.049424  -0.000002
    22  H   -0.000019  -0.000446   0.000592  -0.000005  -0.042199  -0.000000
    23  H   -0.000037   0.000226   0.007438  -0.000004  -0.038175  -0.000000
               7          8          9         10         11         12
     1  C    0.001244  -0.046947  -0.044986   0.409568   0.406193  -0.036639
     2  C   -0.013486  -0.001759  -0.004644  -0.043275  -0.039864   0.404091
     3  C   -0.053268   0.000172   0.000153  -0.003942  -0.003510  -0.047468
     4  C    0.000031   0.408910   0.410090  -0.043600  -0.038823  -0.002789
     5  C    0.303560   0.000054   0.000005   0.000318   0.000128  -0.000712
     6  C    0.000002  -0.042368  -0.041068  -0.003784  -0.004673   0.000318
     7  C    4.981232  -0.000054   0.000003  -0.000126   0.000065  -0.000372
     8  H   -0.000054   0.620337  -0.041960   0.008508  -0.006791  -0.000349
     9  H    0.000003  -0.041960   0.613405  -0.007182   0.008245   0.002884
    10  H   -0.000126   0.008508  -0.007182   0.591079  -0.041048  -0.004977
    11  H    0.000065  -0.006791   0.008245  -0.041048   0.589519   0.007861
    12  H   -0.000372  -0.000349   0.002884  -0.004977   0.007861   0.581627
    13  H   -0.009321   0.002679  -0.000294   0.008468  -0.007884  -0.042238
    14  H   -0.002812   0.000070  -0.000071   0.000089   0.001970   0.008214
    15  H    0.008089  -0.000057   0.000106   0.002538   0.000317  -0.005606
    16  H   -0.047065   0.000008  -0.000033   0.000057  -0.000043   0.003435
    17  H   -0.040290   0.000000   0.000001  -0.000049   0.000029   0.000182
    18  H   -0.000000   0.005776   0.006120   0.000891   0.001296   0.000043
    19  H   -0.000000   0.006740  -0.018841   0.001071  -0.000198  -0.000013
    20  H   -0.000000  -0.018567   0.006112  -0.000188   0.000881  -0.000020
    21  H    0.409981  -0.000022   0.000035  -0.000141   0.000313   0.001380
    22  H    0.400542   0.000002  -0.000000   0.000011  -0.000012   0.000034
    23  H    0.403462   0.000001  -0.000000   0.000004  -0.000006  -0.000169
              13         14         15         16         17         18
     1  C   -0.045278  -0.001513  -0.004808   0.000386  -0.000329  -0.001688
     2  C    0.415270  -0.052044  -0.043139  -0.007502   0.010064   0.000840
     3  C   -0.037370   0.406250   0.413747  -0.045014  -0.043309   0.000032
     4  C   -0.004437   0.000084   0.000055   0.000004   0.000025  -0.062332
     5  C   -0.003974  -0.037319  -0.040376   0.412871   0.413874   0.000005
     6  C   -0.000029   0.000012  -0.000009   0.000001  -0.000000   0.409749
     7  C   -0.009321  -0.002812   0.008089  -0.047065  -0.040290  -0.000000
     8  H    0.002679   0.000070  -0.000057   0.000008   0.000000   0.005776
     9  H   -0.000294  -0.000071   0.000106  -0.000033   0.000001   0.006120
    10  H    0.008468   0.000089   0.002538   0.000057  -0.000049   0.000891
    11  H   -0.007884   0.001970   0.000317  -0.000043   0.000029   0.001296
    12  H   -0.042238   0.008214  -0.005606   0.003435   0.000182   0.000043
    13  H    0.596916  -0.005194   0.007366   0.000181  -0.000306   0.000008
    14  H   -0.005194   0.579334  -0.033130   0.008603  -0.006454  -0.000002
    15  H    0.007366  -0.033130   0.581639  -0.006303  -0.006338  -0.000002
    16  H    0.000181   0.008603  -0.006303   0.606015  -0.033936   0.000000
    17  H   -0.000306  -0.006454  -0.006338  -0.033936   0.587714  -0.000000
    18  H    0.000008  -0.000002  -0.000002   0.000000  -0.000000   0.600921
    19  H   -0.000018   0.000001  -0.000002   0.000000   0.000000  -0.035125
    20  H    0.000003  -0.000001   0.000001  -0.000000   0.000000  -0.035505
    21  H   -0.008933   0.000273  -0.000192   0.000293   0.007034   0.000000
    22  H    0.001049   0.002636  -0.000222   0.008293  -0.013002   0.000000
    23  H    0.000330  -0.000227  -0.000380  -0.012693   0.000601   0.000000
              19         20         21         22         23
     1  C    0.004025   0.004893   0.001281  -0.000019  -0.000037
     2  C   -0.000563  -0.000589  -0.002896  -0.000446   0.000226
     3  C    0.000019   0.000015  -0.004730   0.000592   0.007438
     4  C   -0.045115  -0.045233   0.000232  -0.000005  -0.000004
     5  C   -0.000001  -0.000001  -0.049424  -0.042199  -0.038175
     6  C    0.405541   0.407777  -0.000002  -0.000000  -0.000000
     7  C   -0.000000  -0.000000   0.409981   0.400542   0.403462
     8  H    0.006740  -0.018567  -0.000022   0.000002   0.000001
     9  H   -0.018841   0.006112   0.000035  -0.000000  -0.000000
    10  H    0.001071  -0.000188  -0.000141   0.000011   0.000004
    11  H   -0.000198   0.000881   0.000313  -0.000012  -0.000006
    12  H   -0.000013  -0.000020   0.001380   0.000034  -0.000169
    13  H   -0.000018   0.000003  -0.008933   0.001049   0.000330
    14  H    0.000001  -0.000001   0.000273   0.002636  -0.000227
    15  H   -0.000002   0.000001  -0.000192  -0.000222  -0.000380
    16  H    0.000000  -0.000000   0.000293   0.008293  -0.012693
    17  H    0.000000   0.000000   0.007034  -0.013002   0.000601
    18  H   -0.035125  -0.035505   0.000000   0.000000   0.000000
    19  H    0.615255  -0.032419   0.000000  -0.000000  -0.000000
    20  H   -0.032419   0.606584   0.000000   0.000000   0.000000
    21  H    0.000000   0.000000   0.598635  -0.038878  -0.033368
    22  H   -0.000000   0.000000  -0.038878   0.605991  -0.029121
    23  H   -0.000000   0.000000  -0.033368  -0.029121   0.598214
 Mulliken charges:
               1
     1  C   -0.248703
     2  C   -0.265143
     3  C   -0.255495
     4  C   -0.182395
     5  C   -0.231315
     6  C   -0.346630
     7  C   -0.341415
     8  H    0.105616
     9  H    0.111920
    10  H    0.125712
    11  H    0.126034
    12  H    0.131285
    13  H    0.133005
    14  H    0.131229
    15  H    0.126707
    16  H    0.112442
    17  H    0.124489
    18  H    0.108973
    19  H    0.099642
    20  H    0.106257
    21  H    0.119127
    22  H    0.104754
    23  H    0.103905
 Sum of Mulliken charges =  -0.00000
 Mulliken charges with hydrogens summed into heavy atoms:
               1
     1  C    0.003044
     2  C   -0.000853
     3  C    0.002441
     4  C    0.035141
     5  C    0.005615
     6  C   -0.031758
     7  C   -0.013630
 APT charges:
               1
     1  C   -0.619263
     2  C   -0.469907
     3  C   -0.618155
     4  C   -0.328916
     5  C   -0.866860
     6  C   -1.568710
     7  C   -1.133519
     8  H    0.278217
     9  H    0.314931
    10  H    0.333992
    11  H    0.310235
    12  H    0.299506
    13  H    0.300325
    14  H    0.313577
    15  H    0.348118
    16  H    0.320615
    17  H    0.529262
    18  H    0.284544
    19  H    0.489435
    20  H    0.469162
    21  H    0.043302
    22  H    0.440791
    23  H    0.529317
 Sum of APT charges =  -0.00000
 APT charges with hydrogens summed into heavy atoms:
               1
     1  C    0.024965
     2  C    0.129925
     3  C    0.043539
     4  C    0.264231
     5  C   -0.016982
     6  C   -0.325569
     7  C   -0.120109
 Electronic spatial extent (au):  <R**2>=           1482.7329
 Charge=             -0.0000 electrons
 Dipole moment (field-independent basis, Debye):
    X=              0.0178    Y=             -0.0429    Z=              0.0413  Tot=              0.0622
 Quadrupole moment (field-independent basis, Debye-Ang):
   XX=            -50.2667   YY=            -49.3785   ZZ=            -48.4890
   XY=             -0.5320   XZ=             -0.2364   YZ=             -0.3185
 Traceless Quadrupole moment (field-independent basis, Debye-Ang):
   XX=             -0.8887   YY=             -0.0005   ZZ=              0.8891
   XY=             -0.5320   XZ=             -0.2364   YZ=             -0.3185
 Octapole moment (field-independent basis, Debye-Ang**2):
  XXX=              4.2325  YYY=             -0.7260  ZZZ=              0.7543  XYY=             -1.1735
  XXY=             -0.5845  XXZ=              1.0777  XZZ=             -0.0704  YZZ=             -0.3461
  YYZ=             -0.1281  XYZ=              2.0120
 Hexadecapole moment (field-independent basis, Debye-Ang**3):
 XXXX=          -1802.7523 YYYY=           -220.7044 ZZZZ=           -123.5672 XXXY=             -9.2775
 XXXZ=             -7.1063 YYYX=             -5.2397 YYYZ=             -2.6194 ZZZX=             -2.9999
 ZZZY=              0.6006 XXYY=           -332.0987 XXZZ=           -308.9757 YYZZ=            -59.2089
 XXYZ=              1.9858 YYXZ=              4.1361 ZZXY=              0.4541
 N-N= 3.162485534310D+02 E-N=-1.270891097126D+03  KE= 2.744678050980D+02
  Exact polarizability:   0.000   0.000   0.000   0.000   0.000   0.000
 Approx polarizability:  97.714   0.867  98.692  -0.349   0.192  99.753
 No NMR shielding tensors so no spin-rotation constants.
 Leave Link  601 at Sat Sep 28 20:57:47 2019, MaxMem=   671088640 cpu:              52.2 elap:              26.1
 (Enter /shared/centos7/gaussian/g16/l701.exe)
 SCFChk:  SCF convergence  7.03D-09 required  1.00D-08
 ... and contract with generalized density number  0.
 Compute integral second derivatives.
 Entering OneElI...
 Calculate overlap and kinetic energy integrals
    NBasis = 485  MinDer = 2  MaxDer = 2
 Requested accuracy = 0.1000D-12
 PrmmSu-InSpLW:  IPartL=    0 NPrtUS=   20 NPrtUL=    1 DoSpLW=F IThBeg=    0 IThEnd=   19 NThAct=   20.
 PrsmSu:  NPrtUS=  20 ThrOK=T IAlg=1 NPAlg=1 LenDen=           0 ISkipM=0 DoSpLW=F IThBeg=    0 IThEnd=   19.
 Prism:   IPart=     0 DynPar=F LinDyn=F Incr=           6.
 PRISM was handed    33211681 working-precision words and 13349 shell-pairs
 PRISM was handed    33211681 working-precision words and 13349 shell-pairs
 PRISM was handed    33211681 working-precision words and 13349 shell-pairs
 PRISM was handed    33211681 working-precision words and 13349 shell-pairs
 PRISM was handed    33211681 working-precision words and 13349 shell-pairs
 PRISM was handed    33211681 working-precision words and 13349 shell-pairs
 IPart=  1 NShTot=         699 NBatch=          76 AvBLen=         9.2
 PRISM was handed    33211681 working-precision words and 13349 shell-pairs
 PRISM was handed    33211681 working-precision words and 13349 shell-pairs
 PRISM was handed    33211681 working-precision words and 13349 shell-pairs
 PRISM was handed    33211681 working-precision words and 13349 shell-pairs
 PRISM was handed    33211681 working-precision words and 13349 shell-pairs
 PRISM was handed    33211681 working-precision words and 13349 shell-pairs
 PRISM was handed    33211681 working-precision words and 13349 shell-pairs
 PRISM was handed    33211681 working-precision words and 13349 shell-pairs
 PRISM was handed    33211681 working-precision words and 13349 shell-pairs
 PRISM was handed    33211681 working-precision words and 13349 shell-pairs
 PRISM was handed    33211681 working-precision words and 13349 shell-pairs
 IPart=  0 NShTot=         704 NBatch=          80 AvBLen=         8.8
 IPart=  2 NShTot=         696 NBatch=          75 AvBLen=         9.3
 PRISM was handed    33211681 working-precision words and 13349 shell-pairs
 PRISM was handed    33211681 working-precision words and 13349 shell-pairs
 IPart=  6 NShTot=         680 NBatch=          67 AvBLen=        10.1
 PRISM was handed    33211681 working-precision words and 13349 shell-pairs
 IPart=  7 NShTot=         673 NBatch=          61 AvBLen=        11.0
 IPart= 10 NShTot=         661 NBatch=          56 AvBLen=        11.8
 IPart= 12 NShTot=         657 NBatch=          54 AvBLen=        12.2
 IPart= 13 NShTot=         656 NBatch=          53 AvBLen=        12.4
 IPart=  5 NShTot=         683 NBatch=          69 AvBLen=         9.9
 IPart= 17 NShTot=         643 NBatch=          48 AvBLen=        13.4
 IPart= 16 NShTot=         645 NBatch=          49 AvBLen=        13.2
 IPart= 18 NShTot=         640 NBatch=          45 AvBLen=        14.2
 IPart= 19 NShTot=         640 NBatch=          45 AvBLen=        14.2
 IPart=  8 NShTot=         666 NBatch=          59 AvBLen=        11.3
 IPart=  3 NShTot=         693 NBatch=          74 AvBLen=         9.4
 IPart= 11 NShTot=         661 NBatch=          56 AvBLen=        11.8
 IPart= 15 NShTot=         648 NBatch=          52 AvBLen=        12.5
 IPart=  4 NShTot=         692 NBatch=          73 AvBLen=         9.5
 IPart= 14 NShTot=         649 NBatch=          52 AvBLen=        12.5
 IPart=  9 NShTot=         663 NBatch=          57 AvBLen=        11.6
 PrSmSu:  NxtVal=            121.
 Entering OneElI...
 Calculate potential energy integrals
    NBasis = 485  MinDer = 2  MaxDer = 2
 Requested accuracy = 0.1000D-12
 PrmmSu-InSpLW:  IPartL=    0 NPrtUS=   20 NPrtUL=    1 DoSpLW=F IThBeg=    0 IThEnd=   19 NThAct=   20.
 PrsmSu:  NPrtUS=  20 ThrOK=T IAlg=1 NPAlg=1 LenDen=           0 ISkipM=0 DoSpLW=F IThBeg=    0 IThEnd=   19.
 Prism:   IPart=     0 DynPar=F LinDyn=F Incr=         133.
 PRISM was handed    33276297 working-precision words and 11652 shell-pairs
 PRISM was handed    33276297 working-precision words and 11652 shell-pairs
 PRISM was handed    33276297 working-precision words and 11652 shell-pairs
 PRISM was handed    33276297 working-precision words and 11652 shell-pairs
 PRISM was handed    33276297 working-precision words and 11652 shell-pairs
 PRISM was handed    33276297 working-precision words and 11652 shell-pairs
 PRISM was handed    33276297 working-precision words and 11652 shell-pairs
 PRISM was handed    33276297 working-precision words and 11652 shell-pairs
 PRISM was handed    33276297 working-precision words and 11652 shell-pairs
 PRISM was handed    33276297 working-precision words and 11652 shell-pairs
 PRISM was handed    33276297 working-precision words and 11652 shell-pairs
 PRISM was handed    33276297 working-precision words and 11652 shell-pairs
 PRISM was handed    33276297 working-precision words and 11652 shell-pairs
 PRISM was handed    33276297 working-precision words and 11652 shell-pairs
 PRISM was handed    33276297 working-precision words and 11652 shell-pairs
 PRISM was handed    33276297 working-precision words and 11652 shell-pairs
 PRISM was handed    33276297 working-precision words and 11652 shell-pairs
 PRISM was handed    33276297 working-precision words and 11652 shell-pairs
 PRISM was handed    33276297 working-precision words and 11652 shell-pairs
 PRISM was handed    33276297 working-precision words and 11652 shell-pairs
 IPart= 16 NShTot=       12880 NBatch=         561 AvBLen=        23.0
 IPart= 14 NShTot=       13041 NBatch=         568 AvBLen=        23.0
 IPart=  6 NShTot=       13731 NBatch=         598 AvBLen=        23.0
 IPart=  0 NShTot=       14122 NBatch=         616 AvBLen=        22.9
 IPart=  1 NShTot=       14099 NBatch=         615 AvBLen=        22.9
 IPart= 13 NShTot=       13064 NBatch=         569 AvBLen=        23.0
 IPart=  3 NShTot=       13984 NBatch=         610 AvBLen=        22.9
 IPart=  2 NShTot=       14053 NBatch=         613 AvBLen=        22.9
 IPart= 18 NShTot=       12834 NBatch=         559 AvBLen=        23.0
 IPart= 10 NShTot=       13225 NBatch=         576 AvBLen=        23.0
 IPart= 12 NShTot=       13133 NBatch=         572 AvBLen=        23.0
 IPart=  9 NShTot=       13386 NBatch=         583 AvBLen=        23.0
 IPart=  5 NShTot=       13892 NBatch=         605 AvBLen=        23.0
 IPart= 19 NShTot=       12811 NBatch=         558 AvBLen=        23.0
 IPart= 15 NShTot=       12949 NBatch=         564 AvBLen=        23.0
 IPart= 17 NShTot=       12834 NBatch=         559 AvBLen=        23.0
 IPart= 11 NShTot=       13179 NBatch=         574 AvBLen=        23.0
 IPart=  8 NShTot=       13409 NBatch=         584 AvBLen=        23.0
 IPart=  4 NShTot=       13892 NBatch=         605 AvBLen=        23.0
 IPart=  7 NShTot=       13478 NBatch=         587 AvBLen=        23.0
 PrSmSu:  NxtVal=           2661.
 Polarizability after L701:
                1             2             3 
      1  0.000000D+00
      2  0.000000D+00  0.000000D+00
      3  0.000000D+00  0.000000D+00  0.000000D+00
 Dipole Derivatives after L701:
                 1             2             3             4             5 
      1  -0.319734D+00 -0.777213D+00 -0.439441D+00 -0.561356D-01 -0.204195D+00
      2  -0.184243D+00 -0.737390D+00  0.562657D-01 -0.894318D-01 -0.547886D+00
      3  -0.410058D-01  0.927573D-01 -0.800663D+00  0.231936D-01  0.551423D-01
                 6             7             8             9            10 
      1  -0.523496D-01  0.102364D-01  0.611230D+00  0.472932D+00  0.589474D+00
      2   0.175445D+00 -0.143025D+00 -0.107762D+01 -0.117731D+00 -0.105334D+00
      3  -0.805698D+00  0.590563D-01  0.692574D-01 -0.787081D+00  0.542824D-01
                11            12            13            14            15 
      1   0.129501D+01  0.104902D+01 -0.141010D+01  0.121193D+01 -0.100708D+01
      2  -0.797529D+00 -0.118458D-01  0.436996D+00 -0.353164D+00 -0.140324D-01
      3   0.268825D-01 -0.778694D+00 -0.925424D-02 -0.596786D-01 -0.837318D+00
                16            17            18            19            20 
      1  -0.284452D+01 -0.539208D+00 -0.555605D+00 -0.140173D+01 -0.152784D+01
      2   0.192648D+00 -0.909509D+00  0.706171D-01 -0.693469D-01 -0.106388D+01
      3   0.423642D-01  0.228595D-01 -0.952102D+00  0.607159D-02 -0.678027D-01
                21            22            23            24            25 
      1   0.692877D+00  0.461631D-01 -0.667976D+00  0.199396D+00  0.162932D+00
      2   0.347952D-01  0.684290D-01  0.646015D+00 -0.187845D+00  0.345832D-02
      3  -0.934945D+00  0.265461D-02 -0.587783D-01  0.142473D+00 -0.186463D-01
                26            27            28            29            30 
      1  -0.456058D-01 -0.769784D+00  0.210916D+00  0.432810D+00 -0.134496D+00
      2   0.128306D+00  0.154473D+00  0.908023D-01  0.618424D+00 -0.177817D+00
      3   0.436106D-02  0.653554D+00 -0.158422D-01 -0.860965D-01  0.172636D+00
                31            32            33            34            35 
      1   0.151186D+00  0.385521D-01  0.401468D+00  0.124172D+00  0.829496D-02
      2   0.110893D-01  0.145534D+00  0.132123D+00 -0.306009D-02  0.136536D+00
      3   0.177097D-01  0.101857D-01  0.633987D+00 -0.615581D-02  0.519026D-01
                36            37            38            39            40 
      1   0.558492D-01  0.212167D+00  0.154005D+00 -0.595507D-01  0.139783D+00
      2   0.280760D-01  0.135307D+00  0.495691D+00 -0.165687D+00 -0.177237D-01
      3   0.637811D+00 -0.307176D-01 -0.101240D+00  0.193116D+00 -0.559872D-02
                41            42            43            44            45 
      1  -0.924124D-01 -0.449011D+00  0.865047D-01 -0.354353D+00  0.155555D+00
      2   0.182294D+00  0.348506D+00  0.960031D-01  0.768789D+00 -0.307295D+00
      3   0.639836D-01  0.618653D+00 -0.205972D-01 -0.124102D+00  0.189060D+00
                46            47            48            49            50 
      1   0.165781D+00  0.938377D-01  0.934353D+00  0.102757D+01 -0.803617D+00
      2   0.203478D-01  0.130898D+00 -0.108708D+00 -0.296740D+00  0.418732D+00
      3   0.100012D-01  0.488659D-01  0.665167D+00 -0.204466D-01  0.401156D-02
                51            52            53            54            55 
      1  -0.367492D+00  0.188729D+00  0.972679D+00  0.715838D+00  0.973179D+00
      2   0.121090D+00 -0.935082D-02  0.378737D+00  0.213325D+00  0.423809D-01
      3   0.141485D+00  0.128977D-02  0.275300D+00  0.286167D+00 -0.162719D+00
                56            57            58            59            60 
      1   0.346178D+00 -0.122817D+01  0.742979D+00 -0.109087D+01  0.753343D+00
      2   0.949784D-01 -0.494773D-01 -0.142283D+00  0.431262D+00 -0.206523D+00
      3  -0.646293D-01  0.400148D+00  0.121700D+00 -0.228174D+00  0.233245D+00
                61            62            63            64            65 
      1  -0.409838D+00  0.361127D+00 -0.131135D+00  0.653351D+00 -0.125621D+00
      2  -0.517060D+00  0.420679D+00 -0.878745D-01  0.116955D+00  0.103476D+00
      3   0.105820D+00 -0.714741D-01  0.119066D+00 -0.244094D+00  0.567508D-01
                66            67            68            69 
      1  -0.113627D+01  0.956929D+00  0.703262D+00  0.899756D+00
      2  -0.256699D+00  0.363181D+00  0.386633D+00  0.356817D+00
      3   0.565546D+00  0.130934D+00  0.797154D-01  0.244390D+00
 Hessian after L701:
                1             2             3             4             5 
      1  0.137763D+02
      2  0.527057D+00  0.177376D+02
      3 -0.121373D+00 -0.216939D+00  0.178757D+02
      4 -0.277557D+01  0.972622D+00  0.109712D+01  0.139251D+02
      5  0.968945D+00 -0.607820D+01  0.225991D+00  0.472267D+00  0.178049D+02
      6  0.109588D+01  0.228795D+00 -0.590304D+01 -0.711767D-01 -0.246558D-01
      7  0.350040D+00 -0.155117D+00 -0.406633D-01 -0.353726D+01 -0.193575D+01
      8 -0.349674D-01 -0.100079D+00  0.338458D-01 -0.198459D+01 -0.473497D+01
      9  0.208393D-01  0.191415D-01 -0.145798D+00 -0.720310D+00  0.445850D+00
     10 -0.365369D+01 -0.181047D+01 -0.990631D+00  0.363821D+00 -0.166249D+00
     11 -0.178770D+01 -0.484514D+01  0.622323D+00 -0.398726D-01 -0.678222D-01
     12 -0.969770D+00  0.619367D+00 -0.571598D+01  0.420143D-01  0.159924D-01
     13  0.248129D+00 -0.108683D-01  0.518010D-01  0.495042D+00 -0.107821D+00
     14  0.115754D-01 -0.127344D+00 -0.193980D-02 -0.121754D+00 -0.868717D-01
     15  0.433716D-01  0.386983D-02 -0.120957D+00 -0.795753D-01  0.217995D-01
     16  0.372584D+00 -0.203147D-01  0.580450D-01  0.289786D+00 -0.147996D-01
     17 -0.136467D+00 -0.163378D+00  0.118427D-01 -0.105892D-01 -0.139480D+00
     18 -0.173529D-01  0.240226D-01 -0.189133D+00  0.451002D-01  0.963619D-03
     19  0.121445D+00  0.550522D-01 -0.191185D-01  0.171787D+00  0.194289D+00
     20  0.490729D-01 -0.575104D-01 -0.415620D-03  0.375908D-01 -0.131735D+00
     21  0.735703D-02 -0.233161D-03 -0.818660D-01 -0.381535D-01 -0.207186D-01
     22  0.692827D-01  0.129435D+00  0.754371D-02  0.172419D-01 -0.274037D-01
     23  0.848388D-01 -0.448809D-01 -0.617425D-01 -0.535760D-01  0.147575D-01
     24  0.662601D-02 -0.552305D-01  0.106141D+00  0.175645D-01 -0.157376D-01
     25  0.438434D-01  0.655153D-01  0.107205D+00  0.142932D-01 -0.920135D-02
     26  0.472091D-01  0.318870D-01 -0.908868D-01 -0.412058D-02 -0.189671D-01
     27  0.663505D-01 -0.929567D-01  0.464110D-01 -0.427781D-01  0.186752D-01
     28 -0.438309D+01  0.461160D+00 -0.125560D+00 -0.386222D-01 -0.119038D+00
     29  0.413227D+00 -0.203341D+01 -0.682336D+00 -0.917347D-01  0.728630D-01
     30 -0.107570D+00 -0.656993D+00 -0.413922D+01 -0.278125D-01 -0.476429D-01
     31 -0.445609D+01  0.357525D-01  0.132253D+00 -0.103557D-01 -0.584770D-01
     32  0.317170D-01 -0.431864D+01  0.267246D+00 -0.478981D-01  0.572728D-01
     33  0.849216D-01  0.241080D+00 -0.181833D+01 -0.806197D-01 -0.602132D-01
     34 -0.224688D-01 -0.530089D-01 -0.949667D-01 -0.462949D+01  0.210606D-01
     35 -0.384003D-01  0.455810D-01 -0.276381D-01  0.197174D-01 -0.441698D+01
     36 -0.688735D-01 -0.434999D-01  0.927869D-01 -0.873589D-02  0.453660D+00
     37 -0.177485D-01 -0.120487D+00 -0.390878D-01 -0.459720D+01  0.563378D+00
     38 -0.987491D-01  0.593928D-01 -0.659392D-01  0.640324D+00 -0.224758D+01
     39 -0.382175D-01 -0.559754D-01  0.120285D+00 -0.218943D+00 -0.839017D+00
     40  0.271663D-01 -0.157681D-01 -0.195183D-01  0.530234D-01  0.972216D-01
     41 -0.127206D-01 -0.239951D-01  0.590651D-02  0.926748D-01  0.322050D-01
     42 -0.448982D-01  0.216489D-01 -0.162723D-02  0.102416D+00 -0.117058D+00
     43  0.139221D-02 -0.128771D-01  0.393504D-02  0.538784D-01  0.128836D+00
     44 -0.284833D-01  0.162959D-01 -0.377052D-02  0.987588D-01 -0.355182D-01
     45  0.176628D-01 -0.178964D-01 -0.151584D-01 -0.139787D-02 -0.342319D-01
     46  0.223240D-01 -0.232138D-02  0.128525D-01 -0.702083D-02  0.609440D-02
     47  0.147273D-02 -0.129627D-01  0.753662D-03 -0.157427D-02 -0.896461D-02
     48  0.297270D-01 -0.660007D-02 -0.263226D-02  0.290029D-01  0.899085D-02
     49  0.150555D-01 -0.889296D-02 -0.242826D-02  0.167223D+00 -0.684901D-01
     50 -0.101965D-01 -0.213231D-03  0.270716D-02 -0.912134D-01 -0.306093D-01
[...]
 0.00002518,-0.00002016,-0.00006493,0.00992472,-0.00429502,0.01345284,-
 0.00004404,0.00000530,-0.00006356,0.00005917,0.00076483,0.00170056,-0.
 00000420,-0.00005118,0.00001233,0.00003789,0.00001635,-0.00012874,-0.0
 0009705,0.00002331,-0.00005677,-0.00019442,0.00043468,-0.00014676,-0.0
 0197722,-0.00110947,0.00273699,0.00076079,0.00041906,-0.00037829,-0.02
 936745,0.06088117,-0.00150717,0.00027354,0.00026727,-0.01122620,0.0047
 5486,-0.01997915,-0.11300000,0.03899989,-0.21912744,0.00046702,-0.0000
 9598,0.00025181,0.00494774,-0.00244882,0.00693655,0.00006519,0.0000265
 0,0.00000403,0.00051465,0.00036710,0.00113381,-0.00001617,0.00002733,-
 0.00002819,-0.00010373,-0.00014700,0.00029997,0.00002634,0.00005155,-0
 .00001506,0.00102748,-0.00043152,0.00011400,0.00330755,0.00224377,-0.0
 0169365,0.00011159,-0.00003065,0.00122575,0.12110724,-0.04526779,0.240
 09374,0.00083549,-0.00121505,-0.00117543,-0.00749764,-0.01732276,-0.00
 678891,-0.06515456,-0.06024668,-0.02982822,-0.00008805,0.00013172,0.00
 014488,0.00681602,0.02640517,0.01278459,0.00001054,0.00005553,0.000024
 99,-0.00513001,0.00186357,0.00088058,0.00013592,0.00022291,-0.00001384
 ,0.00002120,0.00000553,-0.00006096,-0.00017314,0.00048330,0.00065313,-
 0.00010242,0.00002249,-0.00012376,0.00062675,0.00063110,0.00011778,-0.
 00154910,-0.00161499,0.00339284,-0.00515510,-0.01551637,-0.00678395,0.
 07386228,0.00113082,0.00062617,-0.00086140,-0.00636140,-0.01655281,-0.
 00634584,-0.05964702,-0.24508073,-0.09011391,0.00015440,0.00038985,0.0
 0031466,-0.00435066,-0.01456547,-0.00691195,-0.00001495,0.00001307,0.0
 0004964,0.00396306,0.00010268,-0.00037118,0.00025089,0.00012741,-0.000
 15623,-0.00000882,-0.00005040,-0.00000535,-0.00056815,0.00077784,0.000
 40076,-0.00010026,-0.00002036,0.00014202,0.00047035,0.00017692,0.00003
 091,-0.00144037,-0.00081331,0.00275705,0.00136439,0.00597912,0.0021946
 7,0.06576675,0.26845495,-0.00058703,0.00091172,0.00112656,0.00807481,0
 .02053766,0.00834691,-0.02928347,-0.09069447,-0.09020973,-0.00003023,0
 .00028702,0.00003691,-0.00273731,-0.00651345,-0.00430128,-0.00007435,-
 0.00011723,0.00000555,0.00224746,-0.00072558,0.00013156,-0.00003447,-0
 .00014054,-0.00010516,-0.00000419,0.00003378,-0.00001494,-0.00014457,-
 0.00037958,-0.00010360,-0.00002434,-0.00019966,-0.00003213,-0.00077140
 ,-0.00037245,0.00090359,0.00315256,0.00249021,-0.00234247,-0.00676747,
 -0.02352347,-0.01100985,0.02661212,0.09870150,0.09683780,0.00005951,0.
 00010140,0.00035368,0.00112976,-0.00001568,-0.00202900,-0.01782093,0.0
 0608323,-0.02304386,0.00004848,-0.00002710,0.00007121,-0.12552315,0.02
 264845,-0.11451698,0.00001014,0.00000223,-0.00000239,-0.00368516,0.000
 34572,-0.00527560,-0.00000367,0.00000170,-0.00000306,-0.00003216,-0.00
 002473,0.00006645,-0.00001601,0.00002588,-0.00002395,0.00030163,-0.000
 16566,0.00006929,-0.00010248,-0.00043262,0.00108030,-0.00002646,0.0000
 1438,0.00007461,-0.00413152,0.00293626,0.00189391,0.00104903,-0.000151
 61,0.00026396,0.13759538,-0.00006951,0.00000492,-0.00000863,-0.0010983
 8,0.00008030,0.00005389,0.01064567,-0.00413926,0.01414321,-0.00003771,
 -0.00002265,-0.00004844,0.02326946,-0.05433571,0.03712725,0.00000425,0
 .00001745,0.00000233,-0.01761390,0.00363669,-0.02633241,-0.00000088,0.
 00000306,0.00000122,0.00001824,0.00001770,-0.00001381,0.00001415,-0.00
 004989,-0.00000775,-0.00012000,0.00002395,-0.00000478,-0.00001594,0.00
 035520,-0.00036366,0.00000370,0.00003362,-0.00005409,0.00307794,-0.001
 09257,-0.00148281,-0.00052382,0.00011159,0.00027801,-0.02767521,0.0618
 9452,0.00019009,-0.00022501,0.00028339,0.00024250,-0.00032000,0.001344
 90,0.00538209,-0.00113486,0.00685691,-0.00008862,0.00006205,-0.0000314
 2,-0.11556140,0.03635658,-0.22080465,-0.00001713,-0.00002556,0.0000218
 2,-0.00798587,0.00174314,-0.01255901,0.00000286,0.00000070,0.00000080,
 0.00000849,0.00000774,-0.00000177,-0.00001979,0.00001847,-0.00001184,0
 .00006381,0.00000401,-0.00016959,-0.00059492,-0.00013339,0.00015973,0.
 00008340,0.00005168,-0.00001683,0.00220760,-0.00069191,0.00080226,-0.0
 0063367,0.00056752,0.00049421,0.12687811,-0.03654210,0.23938724,-0.000
 47774,-0.00147753,0.00115247,-0.00346288,0.00503132,-0.00015147,-0.016
 60659,-0.01626032,0.01870960,-0.00040494,0.00058465,0.00003478,-0.1237
 1009,-0.08151854,0.08453334,-0.00009270,-0.00019477,0.00016057,-0.0032
 6619,-0.00361741,0.00350161,0.00000841,-0.00001240,-0.00002630,0.00002
 851,0.00000001,0.00001153,0.00001333,0.00006240,0.00005880,-0.00003470
 ,-0.00001758,-0.00009145,0.00021251,0.00001934,0.00012809,0.00017308,-
 0.00007028,-0.00025242,0.00054983,-0.00058313,-0.00070941,0.00125656,0
 .00006634,-0.00013691,0.01022827,0.01075885,-0.01072196,0.13464314,0.0
 0046076,0.00070887,-0.00053545,0.00277614,-0.00174042,-0.00035078,0.01
 038952,0.00991549,-0.01206949,0.00022853,-0.00028286,-0.00006079,-0.08
 184636,-0.13368743,0.09385208,0.00005470,0.00007877,-0.00007779,-0.015
 50458,-0.02005499,0.01764990,0.00000261,0.00000290,0.00002085,-0.00001
 578,-0.00000480,-0.00000534,-0.00004394,-0.00000093,-0.00001349,0.0000
 0116,0.00001163,0.00003504,-0.00009850,-0.00010446,-0.00007742,0.00027
 355,0.00011254,-0.00001212,-0.00070188,0.00043955,0.00032858,-0.000675
 16,0.00086925,-0.00001768,-0.00244050,-0.00372084,0.00345987,0.0876112
 9,0.14999266,0.00032195,0.00073042,-0.00001390,0.00161980,-0.00190525,
 0.00032221,0.00338812,0.00451856,-0.00575395,0.00012682,-0.00025382,0.
 00000835,0.08560195,0.09398150,-0.14757382,0.00003626,0.00009623,-0.00
 007135,-0.00924696,-0.01116446,0.01030296,0.00000051,0.00000569,0.0000
 1208,-0.00001186,0.00000841,-0.00000444,-0.00003513,-0.00002550,-0.000
 04284,0.00010673,-0.00005445,-0.00000363,-0.00020408,-0.00028938,0.000
 53713,0.00013898,0.00007389,0.00005586,0.00005098,-0.00029973,0.000590
 77,-0.00008637,-0.00014840,-0.00027695,0.01451319,0.01511630,-0.016794
 32,-0.09543863,-0.09851838,0.15794641,0.00103887,0.00002720,-0.0018880
 1,0.00003780,0.00000987,0.00036622,0.00003568,-0.00000956,0.00006556,-
 0.01605105,0.00705890,-0.02035832,0.00000546,-0.00000086,0.00000107,-0
 .13123136,0.03936393,-0.11685017,0.00000520,0.00000760,-0.00001070,0.0
 0113149,-0.00031254,0.00028598,-0.00324294,0.00309561,0.00249064,-0.00
 006868,-0.00003965,0.00002121,-0.00015570,-0.00029794,0.00099332,0.000
 28962,-0.00015826,0.00006013,0.00000168,0.00000058,-0.00004504,-0.0000
 2729,-0.00001781,0.00006572,-0.00001335,-0.00000380,-0.00000429,0.0000
 1392,-0.00000242,-0.00000004,-0.00000410,-0.00000105,-0.00000094,0.143
 31505,-0.00104702,0.00030320,0.00032695,-0.00011762,-0.00002929,-0.000
 08518,-0.00004064,-0.00000330,-0.00004999,0.01195053,-0.00627516,0.015
 77216,-0.00000981,0.00000684,0.00000722,0.03928996,-0.06639936,0.05578
 848,0.00000666,-0.00000557,0.00000778,-0.00067014,0.00022836,0.0004953
 3,0.00323164,-0.00153157,-0.00174301,-0.00000824,0.00000510,-0.0001451
 8,0.00004526,0.00047267,-0.00041182,-0.00016005,0.00003001,0.00000095,
 0.00002157,-0.00005762,0.00000765,0.00002129,0.00002041,-0.00002130,-0
 .00000377,0.00000015,-0.00000326,-0.00000306,-0.00000614,0.00000054,0.
 00000679,-0.00000067,-0.00000478,-0.04729434,0.06983300,0.00013110,-0.
 00042012,0.00133895,0.00017130,-0.00020834,0.00028458,-0.00009285,0.00
 007832,-0.00004028,0.00695364,-0.00264207,0.00888967,-0.00001060,-0.00
 002965,0.00002137,-0.11768506,0.05626146,-0.20958552,-0.00000814,0.000
 00385,-0.00000480,-0.00059540,0.00057966,0.00065149,0.00254796,-0.0012
 1936,0.00042904,-0.00007219,0.00011280,-0.00006712,-0.00049738,-0.0000
 9488,0.00005050,0.00004452,0.00000830,-0.00016792,-0.00000839,-0.00000
 042,-0.00000159,0.00001036,0.00001335,-0.00000494,-0.00000038,-0.00000
 240,-0.00000494,0.00000006,0.00000238,0.00000003,-0.00001944,0.0000053
 0,0.00001064,0.12783519,-0.06087523,0.22554096,0.00182898,0.00098293,-
 0.00040812,-0.00005959,0.00022564,-0.00001977,0.00000691,-0.00013591,-
 0.00006887,0.00876862,0.02295034,0.01336949,0.00000944,0.00001794,-0.0
 0001967,-0.07666595,-0.07492130,-0.04109323,0.00000976,0.00000956,-0.0
 0000489,-0.00391110,0.00324182,0.00223947,0.00124775,-0.00065056,-0.00
 055571,-0.00021081,-0.00055579,-0.00023625,-0.00004708,-0.00015597,0.0
 0001153,0.00000245,0.00002114,-0.00001010,-0.00006362,-0.00020942,-0.0
 0009017,0.00000116,0.00000105,-0.00000396,-0.00003364,-0.00002972,0.00
 003466,-0.00000184,0.00000004,0.00000140,0.00001131,-0.00000425,-0.000
 00622,-0.00678465,-0.01530186,-0.00694783,0.08261313,-0.00088532,0.000
 65230,0.00080176,0.00017959,0.00031537,0.00016252,0.00005900,0.0000006
 7,0.00002935,-0.00597643,-0.01695755,-0.00889718,-0.00000538,0.0000224
 8,-0.00001966,-0.07406589,-0.22813696,-0.09905287,0.00000061,-0.000012
 12,0.00000815,0.00368100,-0.00092677,-0.00073991,-0.00018871,0.0002754
 7,0.00055848,0.00053682,0.00063942,-0.00045802,0.00010276,-0.00000711,
 -0.00001040,0.00001593,-0.00005438,0.00000513,-0.00018420,0.00013122,0
 .00016393,-0.00000248,0.00000048,-0.00000350,0.00002933,0.00002045,-0.
 00002351,0.00000268,-0.00000683,0.00000678,0.00001719,-0.00000137,-0.0
 0001191,0.00308741,0.00849221,0.00420545,0.07859394,0.24884309,-0.0011
 2230,-0.00061162,0.00016285,0.00024886,0.00018697,0.00002929,0.0000188
 1,0.00000340,-0.00000637,-0.00310546,-0.00800528,-0.00519489,0.0000129
 0,0.00000967,0.00000273,-0.04056827,-0.09895654,-0.10221179,-0.0000150
 5,-0.00000190,0.00000201,0.00191801,-0.00084208,0.00047470,0.00028053,
 0.00054822,0.00049711,0.00060066,0.00028007,-0.00007298,-0.00002977,-0
 .00005161,-0.00007278,-0.00003886,0.00000724,-0.00001108,-0.00008471,0
 .00017049,0.00008125,-0.00000049,-0.00000280,-0.00000705,0.00003771,0.
 00002524,-0.00000555,-0.00000269,0.00000051,0.,0.00000225,0.00000015,-
 0.00000197,-0.00808367,-0.02173995,-0.01142912,0.04314156,0.11076379,0
 .10700979,-0.00335741,0.00487653,0.00043324,-0.00025160,-0.00130479,0.
 00125373,-0.00040706,0.00055548,0.00000451,-0.01403102,-0.01460247,0.0
 1570064,-0.00003799,-0.00019183,0.00015077,-0.13427457,-0.07825660,0.0
 9861567,-0.00003702,-0.00000297,-0.00001534,0.00107003,0.00011188,-0.0
 0016769,0.00041106,-0.00056435,-0.00070806,0.00025455,0.00023204,-0.00
 027913,0.00018334,-0.00002019,0.00022131,-0.00002282,-0.00003115,-0.00
 010108,0.00000700,0.00007304,0.00005799,0.00002211,0.00000129,0.000023
 02,0.00000961,-0.00001470,-0.00002657,-0.00000092,0.00001180,-0.000016
 59,-0.00009539,0.00004025,0.00004783,0.01170564,0.01008140,-0.01175738
 ,-0.00672008,-0.00499736,0.00678927,0.14556468,0.00251316,-0.00251151,
 -0.00059396,0.00070423,0.00090258,-0.00066143,0.00029398,-0.00031204,-
 0.00005634,0.01174024,0.01119560,-0.01431303,0.00004933,0.00009168,-0.
 00008993,-0.07923739,-0.11740535,0.08932313,0.00000549,0.00000941,0.00
 000357,-0.00087951,0.00077453,0.00012052,-0.00080150,0.00066498,0.0004
 6575,0.00034712,0.00024894,0.00008328,-0.00006572,-0.00013731,-0.00011
 225,-0.00001246,0.00002376,0.00003828,-0.00010884,0.00003615,0.0000096
 9,-0.00001554,-0.00000550,-0.00000932,0.00000309,0.00000017,0.00002118
 ,-0.00000230,0.00000017,0.00000450,0.00004322,-0.00002074,-0.00001846,
 -0.00450529,-0.00508885,0.00422532,-0.01407252,-0.01329970,0.01821092,
 0.08400689,0.12484025,0.00150054,-0.00232728,0.00021367,0.00030883,0.0
 0082097,-0.00000316,0.00016324,-0.00026439,0.00001741,0.00381148,0.004
 91650,-0.00655231,0.00000740,0.00009990,-0.00007137,0.09905230,0.08858
 929,-0.15965433,0.00002285,-0.00000059,0.00000620,-0.00024982,-0.00004
 267,-0.00019678,-0.00006720,-0.00027510,0.00057738,0.00008458,0.000233
 89,0.00004604,-0.00017887,-0.00021049,0.00050328,0.00010820,-0.0000610
 7,-0.00000587,-0.00006491,-0.00001452,-0.00002038,-0.00000948,0.000010
 53,-0.00000924,-0.00000263,0.00000596,0.00000903,-0.00000264,-0.000009
 00,0.00000774,0.00004868,-0.00002155,-0.00003145,0.01504733,0.01268031
 ,-0.01591755,-0.00933455,-0.00748484,0.01075043,-0.11024282,-0.0966498
 9,0.17033854,0.00006243,0.00015442,-0.00009696,-0.00050068,0.00012895,
 0.00037961,0.00009286,0.00032089,-0.00052445,0.00005227,-0.00003109,0.
 00001965,-0.00385168,-0.00460148,0.00353527,0.00000103,0.00001481,-0.0
 0001988,-0.10027608,-0.07627513,0.07458904,-0.00001089,-0.00000879,0.0
 0000210,-0.00000543,-0.00000313,-0.00001409,-0.00001714,0.00000814,0.0
 0000722,-0.00000970,0.00002115,0.00000225,0.00001880,-0.00017935,-0.00
 011456,-0.00108718,0.00128979,0.00108030,0.00001779,0.00003288,0.00000
 315,-0.00000209,-0.00012693,0.00005787,-0.00006261,0.00003809,0.000106
 04,0.00068415,-0.00114710,-0.00105162,-0.00000276,0.00000107,0.0000020
 0,0.00000044,-0.00000683,-0.00000051,0.00001464,-0.00000227,-0.0000080
 5,0.10722614,0.00040031,0.00044222,-0.00000068,-0.00030776,-0.00038137
 ,-0.00019604,-0.00070779,0.00064381,0.00093440,0.00005094,0.00000869,-
 0.00006653,-0.01329151,-0.01891703,0.01880538,0.00000672,-0.00001331,0
 .00000868,-0.07574753,-0.15660045,0.10754903,0.00002926,0.00000616,-0.
 00000552,0.00000660,-0.00000323,-0.00000892,-0.00019107,0.00015049,0.0
 0012013,-0.00009152,0.00002471,-0.00001299,0.00005059,-0.00009859,-0.0
 0015495,0.00120704,0.00026930,-0.00029408,0.00004698,-0.00003714,-0.00
 009020,0.00011307,0.00023340,-0.00020853,0.00019771,0.00143837,-0.0000
 7987,-0.00076552,-0.00450503,-0.00356623,-0.00000460,0.00000478,-0.000
 00609,-0.00000141,0.00001030,0.00000219,-0.00001907,-0.00000227,0.0000
 1277,0.08510804,0.17138594,-0.00025894,-0.00023201,-0.00014785,0.00124
 371,0.00033502,0.00025259,0.00023248,0.00080914,0.00032107,-0.00000420
 ,0.00004206,0.00002827,-0.00846842,-0.01094612,0.01149714,-0.00001389,
 -0.00001581,-0.00000235,0.07456338,0.10882988,-0.15301230,-0.00001678,
 -0.00001464,0.00000382,-0.00000111,-0.00000404,-0.00001137,0.00006541,
 -0.00008781,-0.00002858,-0.00003895,0.00004009,0.00001469,-0.00022278,
 0.00015416,-0.00027725,0.00068876,-0.00114510,-0.00069977,0.00007152,-
 0.00003554,-0.00002286,-0.00012744,0.00016407,0.00003779,-0.00001499,0
 .00086441,0.00106964,-0.00063810,-0.00387489,-0.00061671,0.00000011,0.
 00000426,0.00000046,0.00000338,-0.00000391,-0.00000276,-0.00000386,0.0
 0000276,0.00000577,-0.08289405,-0.11602599,0.16435290,-0.00003984,0.00
 002352,-0.00007790,0.00016473,-0.00001752,-0.00002434,0.00093186,0.000
 31967,0.00122607,0.00000458,-0.00003384,0.00000512,-0.00461746,0.00087
 020,-0.00527849,0.00000402,0.00001639,-0.00001233,-0.14250079,0.023681
 20,-0.12400831,0.00000198,0.00000303,0.00000255,-0.00000040,-0.0000005
 5,-0.00000359,0.00002059,-0.00001158,-0.00000795,-0.00000305,0.0000063
 4,0.00000145,-0.00002016,-0.00005504,-0.00004313,-0.00002561,-0.000233
 25,-0.00020222,0.00050649,-0.00024696,-0.00028008,0.00002633,-0.000057
 91,0.00016237,0.00068085,-0.00130039,0.00009136,-0.00027866,-0.0000232
 6,0.00003311,0.00000079,-0.00000211,0.00000416,-0.00000198,-0.00000195
 ,0.00000068,0.00001200,-0.00000177,-0.00000781,0.00967470,-0.00160856,
 0.01234545,0.15138104,0.00005040,0.00001741,-0.00002409,0.00016727,0.0
 0007180,0.00005906,-0.00114632,0.00205834,-0.00020812,0.00001102,0.000
 01074,0.00000548,-0.01796302,0.00391566,-0.02524110,-0.00000197,-0.000
 00698,-0.00000076,0.02409055,-0.05254936,0.03231981,-0.00000080,-0.000
 00683,0.00000501,-0.00000540,-0.00000657,-0.00000288,-0.00000974,0.000
 00312,0.00000024,0.00001262,0.00000638,-0.00000735,-0.00012765,-0.0001
 1205,0.00009206,0.00004863,-0.00002347,0.00002579,0.00058430,-0.000156
 24,0.00063907,-0.00014810,0.00018594,0.00045300,-0.00111398,-0.0052647
 6,-0.00314619,0.00005184,0.00112205,0.00076455,-0.00000053,0.00000435,
 -0.00000124,-0.00000001,0.00000069,-0.00000183,-0.00000349,-0.00000025
 ,0.00000401,0.01372501,-0.00350845,0.01523762,-0.02503693,0.05713100,0
 .00003391,0.00007362,0.00001469,0.00016388,-0.00020865,-0.00015946,-0.
 00054700,0.00110282,0.00047714,0.00000699,-0.00003846,-0.00001912,-0.0
 0894585,0.00150125,-0.01307431,0.00000682,0.00000968,-0.00000428,-0.12
 392976,0.03199398,-0.21016814,0.00000713,0.00001896,-0.00000833,0.0000
 0140,0.00000164,0.00002468,-0.00002085,0.00001212,0.00001821,0.0000618
 2,-0.00006019,0.00000383,-0.00001976,0.00008009,0.00028081,0.00005486,
 0.00016219,-0.00029637,0.00070602,-0.00059767,-0.00000579,0.00018324,0
 .00005170,0.00041592,-0.00054188,-0.00327698,0.00007815,0.00019393,-0.
 00019553,0.00065351,0.00000753,-0.00000675,0.00000163,-0.00000087,0.00
 000545,0.00000286,0.00000057,-0.00000280,-0.00000064,-0.01254233,0.002
 55369,-0.01571506,0.13837744,-0.03186869,0.22786835,0.00017734,0.00015
 211,0.00001726,-0.00017675,-0.00032366,-0.00016949,0.00022692,-0.00125
 939,-0.00062386,0.00001421,0.00002166,-0.00003563,0.00772115,-0.004445
 56,-0.00324609,0.00000186,-0.00001395,0.00001215,-0.24279122,0.0961131
 9,0.07449593,0.00001417,0.00000677,-0.00000635,0.00000383,-0.00000126,
 0.00000578,-0.00007681,0.00006140,0.00004945,-0.00001393,-0.00001459,-
 0.00000554,0.00002444,0.00004385,0.00005870,0.00026747,0.00029488,-0.0
 0002058,0.00015226,-0.00025173,0.00007007,0.00024938,-0.00029066,0.000
 02078,0.00028996,0.00061598,0.00038226,0.00062487,0.00066386,0.0000955
 9,0.00000069,0.00000250,-0.00000527,0.00000041,0.00000830,0.00000055,-
 0.00001878,-0.00000165,0.00001334,-0.01201900,0.00551907,0.00348932,-0
 .01592201,0.00681631,0.00674275,0.26124953,0.00023432,0.00027414,-0.00
 009726,-0.00081544,-0.00047206,0.00029322,-0.00347985,-0.00484959,-0.0
 0285101,0.00004500,-0.00005308,0.00001277,0.02615706,-0.01236715,-0.00
 827864,0.00001451,0.00003269,-0.00001907,0.09490584,-0.09218671,-0.035
 63977,0.00002842,0.00002139,-0.00000777,-0.00000040,0.00000211,-0.0000
 1193,-0.00007890,0.00011106,0.00007386,-0.00003365,-0.00000048,0.00000
 923,0.00004707,0.00001103,-0.00008493,0.00027352,0.00039585,0.00020390
 ,-0.00033072,0.00023293,0.00012205,0.00153316,-0.00098588,-0.00079468,
 -0.00030716,0.00102112,0.00001532,0.00026426,0.00087084,0.00096521,-0.
 00000246,-0.00000358,0.00000362,-0.00000568,-0.00000137,0.00000475,0.0
 0001837,-0.00000467,-0.00001274,-0.01846112,0.00944869,0.00590238,0.00
 371128,-0.00289251,-0.00131150,-0.10371741,0.10139524,-0.00013701,-0.0
 0008805,-0.00010568,0.00008735,-0.00005664,0.00038869,-0.00173341,-0.0
 0209933,-0.00091809,0.00000404,-0.00003576,0.00004143,0.01315408,-0.00
 521049,-0.00537575,0.00000210,0.00002320,-0.00001886,0.07403154,-0.035
 89114,-0.07539443,-0.00000071,0.00001193,-0.00000387,-0.00000324,0.000
 00401,-0.00000389,0.00008320,-0.00002068,-0.00001226,0.00002378,-0.000
 02261,0.00000964,-0.00003707,0.00007346,0.00000667,-0.00021081,-0.0001
 4545,-0.00016201,0.00024262,-0.00020548,0.00018325,0.00079369,-0.00048
 905,0.00006079,0.00019227,0.00055495,-0.00011736,-0.00034954,0.0004789
 2,0.00074540,0.00000119,-0.00000517,0.00000447,-0.00000128,-0.00000505
 ,0.00000334,0.00001997,-0.00000149,-0.00001240,0.01748199,-0.00926965,
 -0.00704729,-0.02230362,0.01089656,0.00961172,-0.08134112,0.04150301,0
 .07811649\\-0.00000033,0.,-0.00000034,0.00000005,0.00000029,0.00000002
 ,-0.00000067,-0.00000029,-0.00000105,0.00000081,0.00000065,0.00000081,
 -0.00000049,0.00000026,-0.00000085,0.00000018,0.00000030,0.00000018,0.
 00000027,-0.00000090,0.00000083,0.00000107,-0.00000020,0.00000184,0.00
 000115,0.00000184,0.00000092,-0.00000063,0.00000077,-0.00000153,-0.000
 00075,-0.00000124,-0.00000056,0.00000068,0.00000165,0.00000016,0.00000
 061,-0.00000050,0.00000130,-0.00000124,-0.00000168,-0.00000113,-0.0000
 0121,0.00000043,-0.00000231,0.,0.00000148,-0.00000073,-0.00000102,-0.0
 0000021,-0.00000161,-0.00000031,-0.00000110,0.00000015,-0.00000008,0.0
 0000114,-0.00000094,0.00000090,0.00000070,0.00000119,0.00000087,-0.000
 00044,0.00000176,-0.00000023,-0.00000226,0.00000093,0.00000036,-0.0000
 0070,0.00000097\\\@


 DIATOMIC MOLECULES ARE PECULIAR BECAUSE THEY ONLY HAVE TWO ENDS,
 AND THESE ENDS ARE VERY CLOSE TOGETHER.
 KLAUS RUEDENBERG, REV.MOD.PHYS. PG 176, 32, (1960)
 Job cpu time:       0 days  4 hours 57 minutes 48.1 seconds.
 Elapsed time:       0 days  2 hours 28 minutes 55.2 seconds.
 File lengths (MBytes):  RWF=   1488 Int=      0 D2E=      0 Chk=     32 Scr=     32
 Normal termination of Gaussian 16 at Sun Sep 29 06:32:59 2019.
