 Entering Gaussian System, Link 0=g16
 Input=tight/species/CCCCCCC/conformers/CCCCCCC_803.com
 Output=tight/species/CCCCCCC/conformers/CCCCCCC_803.log
 Initial command:
 /shared/centos7/gaussian/g16/l1.exe "/scratch/harms.n/gauss_scrdir/Gau-48547.inp" -scrdir="/scratch/harms.n/gauss_scrdir/"
 Entering Link 1 = /shared/centos7/gaussian/g16/l1.exe PID=     48548.
  
 Copyright (c) 1988,1990,1992,1993,1995,1998,2003,2009,2016,
            Gaussian, Inc.  All Rights Reserved.
  
 This is part of the Gaussian(R) 16 program.  It is based on
 the Gaussian(R) 09 system (copyright 2009, Gaussian, Inc.),
 the Gaussian(R) 03 system (copyright 2003, Gaussian, Inc.),
 the Gaussian(R) 98 system (copyright 1998, Gaussian, Inc.),
 the Gaussian(R) 94 system (copyright 1995, Gaussian, Inc.),
 the Gaussian 92(TM) system (copyright 1992, Gaussian, Inc.),
 the Gaussian 90(TM) system (copyright 1990, Gaussian, Inc.),
 the Gaussian 88(TM) system (copyright 1988, Gaussian, Inc.),
 the Gaussian 86(TM) system (copyright 1986, Carnegie Mellon
 University), and the Gaussian 82(TM) system (copyright 1983,
 Carnegie Mellon University). Gaussian is a federally registered
 trademark of Gaussian, Inc.
  
 This software contains proprietary and confidential information,
 including trade secrets, belonging to Gaussian, Inc.
  
 This software is provided under written license and may be
 used, copied, transmitted, or stored only in accord with that
 written license.
  
 The following legend is applicable only to US Government
 contracts under FAR:
  
                    RESTRICTED RIGHTS LEGEND
  
 Use, reproduction and disclosure by the US Government is
 subject to restrictions as set forth in subparagraphs (a)
 and (c) of the Commercial Computer Software - Restricted
 Rights clause in FAR 52.227-19.
  
 Gaussian, Inc.
 340 Quinnipiac St., Bldg. 40, Wallingford CT 06492
  
  
 ---------------------------------------------------------------
 Warning -- This program may not be used in any manner that
 competes with the business of Gaussian, Inc. or will provide
 assistance to any competitor of Gaussian, Inc.  The licensee
 of this program is prohibited from giving any competitor of
 Gaussian, Inc. access to this program.  By using this program,
 the user acknowledges that Gaussian, Inc. is engaged in the
 business of creating and licensing software in the field of
 computational chemistry and represents and warrants to the
 licensee that it is not a competitor of Gaussian, Inc. and that
 it will not use this program in any manner prohibited above.
 ---------------------------------------------------------------
  

 Cite this work as:
 Gaussian 16, Revision A.03,
 M. J. Frisch, G. W. Trucks, H. B. Schlegel, G. E. Scuseria, 
 M. A. Robb, J. R. Cheeseman, G. Scalmani, V. Barone, 
 G. A. Petersson, H. Nakatsuji, X. Li, M. Caricato, A. V. Marenich, 
 J. Bloino, B. G. Janesko, R. Gomperts, B. Mennucci, H. P. Hratchian, 
 J. V. Ortiz, A. F. Izmaylov, J. L. Sonnenberg, D. Williams-Young, 
 F. Ding, F. Lipparini, F. Egidi, J. Goings, B. Peng, A. Petrone, 
 T. Henderson, D. Ranasinghe, V. G. Zakrzewski, J. Gao, N. Rega, 
 G. Zheng, W. Liang, M. Hada, M. Ehara, K. Toyota, R. Fukuda, 
 J. Hasegawa, M. Ishida, T. Nakajima, Y. Honda, O. Kitao, H. Nakai, 
 T. Vreven, K. Throssell, J. A. Montgomery, Jr., J. E. Peralta, 
 F. Ogliaro, M. J. Bearpark, J. J. Heyd, E. N. Brothers, K. N. Kudin, 
 V. N. Staroverov, T. A. Keith, R. Kobayashi, J. Normand, 
 K. Raghavachari, A. P. Rendell, J. C. Burant, S. S. Iyengar, 
 J. Tomasi, M. Cossi, J. M. Millam, M. Klene, C. Adamo, R. Cammi, 
 J. W. Ochterski, R. L. Martin, K. Morokuma, O. Farkas, 
 J. B. Foresman, and D. J. Fox, Gaussian, Inc., Wallingford CT, 2016.
 
 ******************************************
 Gaussian 16:  EM64L-G16RevA.03 25-Dec-2016
                28-Sep-2019 
 ******************************************
 %nprocshared=20
 Will use up to   20 processors via shared memory.
 %mem=5GB
 ----------------------------------------------------------------------
 #p m062x/cc-pVTZ opt=(calcfc,maxcycles=900,Tight) freq IOP(7/33=1,2/16
 =3) scf=(maxcycle=900)
 ----------------------------------------------------------------------
 1/6=900,7=10,10=4,18=20,19=15,26=3,38=1/1,3;
 2/9=110,12=2,16=3,17=6,18=5,40=1/2;
 3/5=16,6=1,11=2,25=1,30=1,71=2,74=-55,140=1/1,2,3;
 4//1;
 5/5=2,7=900,38=5/2;
 8/6=4,10=90,11=11/1;
 11/6=1,8=1,9=11,15=111,16=1/1,2,10;
 10/6=1,13=1/2;
 6/7=2,8=2,9=2,10=2,28=1/1;
 7/10=1,18=20,25=1,33=1/1,2,3,16;
 1/6=900,7=10,10=4,18=20,19=15,26=3/3(2);
 2/9=110,16=3/2;
 99//99;
 2/9=110,16=3/2;
 3/5=16,6=1,11=2,25=1,30=1,71=1,74=-55/1,2,3;
 4/5=5,16=3,69=1/1;
 5/5=2,7=900,38=5/2;
 7/33=1/1,2,3,16;
 1/6=900,7=10,18=20,19=15,26=3/3(-5);
 2/9=110,16=3/2;
 6/7=2,8=2,9=2,10=2,19=2,28=1/1;
 99/9=1/99;
 Leave Link    1 at Sat Sep 28 19:45:19 2019, MaxMem=   671088640 cpu:               4.1 elap:               2.1
 (Enter /shared/centos7/gaussian/g16/l101.exe)
 ------------------------------
 Gaussian input prepared by ASE
 ------------------------------
 Symbolic Z-matrix:
 Charge =  0 Multiplicity = 1
 C                     1.37821  -1.13131   0.52121 
 C                     0.16013  -0.44604   1.03952 
 C                    -1.11854  -1.19049   0.74665 
 C                     2.15603  -0.49693  -0.58223 
 C                    -2.38329  -0.46085   1.1336 
 C                     1.66436   0.75475  -1.18319 
 C                    -2.56498   0.8822    0.47548 
 H                     2.28029  -1.26034  -1.40131 
 H                     3.19702  -0.32808  -0.21671 
 H                     1.09655  -2.1548    0.19455 
 H                     2.07291  -1.29751   1.36999 
 H                     0.07416   0.57465   0.63518 
 H                     0.25433  -0.32096   2.13895 
 H                    -1.10502  -2.15931   1.27421 
 H                    -1.15849  -1.42836  -0.33639 
 H                    -3.25581  -1.11193   0.86468 
 H                    -2.42227  -0.33292   2.22876 
 H                     0.69245   1.08324  -0.76924 
 H                     2.39228   1.60282  -1.01453 
 H                     1.53911   0.65608  -2.28232 
 H                    -2.32901   0.83846  -0.58847 
 H                    -1.90437   1.66      0.94928 
 H                    -3.63254   1.22924   0.58393 
 
 ITRead=  0  0  0  0  0  0  0  0  0  0  0  0  0  0  0  0  0  0  0  0
 ITRead=  0  0  0
 MicOpt= -1 -1 -1 -1 -1 -1 -1 -1 -1 -1 -1 -1 -1 -1 -1 -1 -1 -1 -1 -1
 MicOpt= -1 -1 -1
 NAtoms=     23 NQM=       23 NQMF=       0 NMMI=      0 NMMIF=      0
                NMic=       0 NMicF=      0.
                    Isotopes and Nuclear Properties:
 (Nuclear quadrupole moments (NQMom) in fm**2, nuclear magnetic moments (NMagM)
  in nuclear magnetons)

  Atom         1           2           3           4           5           6           7           8           9          10
 IAtWgt=          12          12          12          12          12          12          12           1           1           1
 AtmWgt=  12.0000000  12.0000000  12.0000000  12.0000000  12.0000000  12.0000000  12.0000000   1.0078250   1.0078250   1.0078250
 NucSpn=           0           0           0           0           0           0           0           1           1           1
 AtZEff=  -0.0000000  -0.0000000  -0.0000000  -0.0000000  -0.0000000  -0.0000000  -0.0000000  -0.0000000  -0.0000000  -0.0000000
 NQMom=    0.0000000   0.0000000   0.0000000   0.0000000   0.0000000   0.0000000   0.0000000   0.0000000   0.0000000   0.0000000
 NMagM=    0.0000000   0.0000000   0.0000000   0.0000000   0.0000000   0.0000000   0.0000000   2.7928460   2.7928460   2.7928460
 AtZNuc=   6.0000000   6.0000000   6.0000000   6.0000000   6.0000000   6.0000000   6.0000000   1.0000000   1.0000000   1.0000000

  Atom        11          12          13          14          15          16          17          18          19          20
 IAtWgt=           1           1           1           1           1           1           1           1           1           1
 AtmWgt=   1.0078250   1.0078250   1.0078250   1.0078250   1.0078250   1.0078250   1.0078250   1.0078250   1.0078250   1.0078250
 NucSpn=           1           1           1           1           1           1           1           1           1           1
 AtZEff=  -0.0000000  -0.0000000  -0.0000000  -0.0000000  -0.0000000  -0.0000000  -0.0000000  -0.0000000  -0.0000000  -0.0000000
 NQMom=    0.0000000   0.0000000   0.0000000   0.0000000   0.0000000   0.0000000   0.0000000   0.0000000   0.0000000   0.0000000
 NMagM=    2.7928460   2.7928460   2.7928460   2.7928460   2.7928460   2.7928460   2.7928460   2.7928460   2.7928460   2.7928460
 AtZNuc=   1.0000000   1.0000000   1.0000000   1.0000000   1.0000000   1.0000000   1.0000000   1.0000000   1.0000000   1.0000000

  Atom        21          22          23
 IAtWgt=           1           1           1
 AtmWgt=   1.0078250   1.0078250   1.0078250
 NucSpn=           1           1           1
 AtZEff=  -0.0000000  -0.0000000  -0.0000000
 NQMom=    0.0000000   0.0000000   0.0000000
 NMagM=    2.7928460   2.7928460   2.7928460
 AtZNuc=   1.0000000   1.0000000   1.0000000
 Leave Link  101 at Sat Sep 28 19:45:20 2019, MaxMem=   671088640 cpu:               2.4 elap:               1.2
 (Enter /shared/centos7/gaussian/g16/l103.exe)

 GradGradGradGradGradGradGradGradGradGradGradGradGradGradGradGradGradGrad
 Berny optimization.
 Initialization pass.
                           ----------------------------
                           !    Initial Parameters    !
                           ! (Angstroms and Degrees)  !
 --------------------------                            --------------------------
 ! Name  Definition              Value          Derivative Info.                !
 --------------------------------------------------------------------------------
 ! R1    R(1,2)                  1.4906         calculate D2E/DX2 analytically  !
 ! R2    R(1,4)                  1.4917         calculate D2E/DX2 analytically  !
 ! R3    R(1,10)                 1.1107         calculate D2E/DX2 analytically  !
 ! R4    R(1,11)                 1.1093         calculate D2E/DX2 analytically  !
 ! R5    R(2,3)                  1.5083         calculate D2E/DX2 analytically  !
 ! R6    R(2,12)                 1.1012         calculate D2E/DX2 analytically  !
 ! R7    R(2,13)                 1.1105         calculate D2E/DX2 analytically  !
 ! R8    R(3,5)                  1.5105         calculate D2E/DX2 analytically  !
 ! R9    R(3,14)                 1.1032         calculate D2E/DX2 analytically  !
 ! R10   R(3,15)                 1.1096         calculate D2E/DX2 analytically  !
 ! R11   R(4,6)                  1.473          calculate D2E/DX2 analytically  !
 ! R12   R(4,8)                  1.1266         calculate D2E/DX2 analytically  !
 ! R13   R(4,9)                  1.1161         calculate D2E/DX2 analytically  !
 ! R14   R(5,7)                  1.5066         calculate D2E/DX2 analytically  !
 ! R15   R(5,16)                 1.1214         calculate D2E/DX2 analytically  !
 ! R16   R(5,17)                 1.1033         calculate D2E/DX2 analytically  !
 ! R17   R(6,18)                 1.1063         calculate D2E/DX2 analytically  !
 ! R18   R(6,19)                 1.1303         calculate D2E/DX2 analytically  !
 ! R19   R(6,20)                 1.1106         calculate D2E/DX2 analytically  !
 ! R20   R(7,21)                 1.0907         calculate D2E/DX2 analytically  !
 ! R21   R(7,22)                 1.1251         calculate D2E/DX2 analytically  !
 ! R22   R(7,23)                 1.1278         calculate D2E/DX2 analytically  !
 ! A1    A(2,1,4)              119.1967         calculate D2E/DX2 analytically  !
 ! A2    A(2,1,10)             108.5832         calculate D2E/DX2 analytically  !
 ! A3    A(2,1,11)             108.3341         calculate D2E/DX2 analytically  !
 ! A4    A(4,1,10)             107.853          calculate D2E/DX2 analytically  !
 ! A5    A(4,1,11)             107.6479         calculate D2E/DX2 analytically  !
 ! A6    A(10,1,11)            104.2278         calculate D2E/DX2 analytically  !
 ! A7    A(1,2,3)              113.4737         calculate D2E/DX2 analytically  !
 ! A8    A(1,2,12)             111.2374         calculate D2E/DX2 analytically  !
 ! A9    A(1,2,13)             109.0692         calculate D2E/DX2 analytically  !
 ! A10   A(3,2,12)             108.6623         calculate D2E/DX2 analytically  !
 ! A11   A(3,2,13)             108.6466         calculate D2E/DX2 analytically  !
 ! A12   A(12,2,13)            105.4105         calculate D2E/DX2 analytically  !
 ! A13   A(2,3,5)              114.9396         calculate D2E/DX2 analytically  !
 ! A14   A(2,3,14)             109.281          calculate D2E/DX2 analytically  !
 ! A15   A(2,3,15)             109.018          calculate D2E/DX2 analytically  !
 ! A16   A(5,3,14)             108.1765         calculate D2E/DX2 analytically  !
 ! A17   A(5,3,15)             108.8717         calculate D2E/DX2 analytically  !
 ! A18   A(14,3,15)            106.1966         calculate D2E/DX2 analytically  !
 ! A19   A(1,4,6)              119.2852         calculate D2E/DX2 analytically  !
 ! A20   A(1,4,8)              107.8884         calculate D2E/DX2 analytically  !
 ! A21   A(1,4,9)              107.9642         calculate D2E/DX2 analytically  !
 ! A22   A(6,4,8)              108.4224         calculate D2E/DX2 analytically  !
 ! A23   A(6,4,9)              108.4445         calculate D2E/DX2 analytically  !
 ! A24   A(8,4,9)              103.7531         calculate D2E/DX2 analytically  !
 ! A25   A(3,5,7)              114.8135         calculate D2E/DX2 analytically  !
 ! A26   A(3,5,16)             108.0345         calculate D2E/DX2 analytically  !
 ! A27   A(3,5,17)             109.8691         calculate D2E/DX2 analytically  !
 ! A28   A(7,5,16)             108.6014         calculate D2E/DX2 analytically  !
 ! A29   A(7,5,17)             109.0248         calculate D2E/DX2 analytically  !
 ! A30   A(16,5,17)            106.1328         calculate D2E/DX2 analytically  !
 ! A31   A(4,6,18)             113.1356         calculate D2E/DX2 analytically  !
 ! A32   A(4,6,19)             111.2074         calculate D2E/DX2 analytically  !
 ! A33   A(4,6,20)             111.4649         calculate D2E/DX2 analytically  !
 ! A34   A(18,6,19)            106.688          calculate D2E/DX2 analytically  !
 ! A35   A(18,6,20)            107.3136         calculate D2E/DX2 analytically  !
 ! A36   A(19,6,20)            106.6764         calculate D2E/DX2 analytically  !
 ! A37   A(5,7,21)             111.3628         calculate D2E/DX2 analytically  !
 ! A38   A(5,7,22)             111.1918         calculate D2E/DX2 analytically  !
 ! A39   A(5,7,23)             110.2706         calculate D2E/DX2 analytically  !
 ! A40   A(21,7,22)            108.1491         calculate D2E/DX2 analytically  !
 ! A41   A(21,7,23)            108.1163         calculate D2E/DX2 analytically  !
 ! A42   A(22,7,23)            107.6129         calculate D2E/DX2 analytically  !
 ! D1    D(4,1,2,3)            113.0902         calculate D2E/DX2 analytically  !
 ! D2    D(4,1,2,12)            -9.801          calculate D2E/DX2 analytically  !
 ! D3    D(4,1,2,13)          -125.6491         calculate D2E/DX2 analytically  !
 ! D4    D(10,1,2,3)           -10.8542         calculate D2E/DX2 analytically  !
 ! D5    D(10,1,2,12)         -133.7454         calculate D2E/DX2 analytically  !
 ! D6    D(10,1,2,13)          110.4065         calculate D2E/DX2 analytically  !
 ! D7    D(11,1,2,3)          -123.4716         calculate D2E/DX2 analytically  !
 ! D8    D(11,1,2,12)          113.6372         calculate D2E/DX2 analytically  !
 ! D9    D(11,1,2,13)           -2.2109         calculate D2E/DX2 analytically  !
 ! D10   D(2,1,4,6)             -3.2283         calculate D2E/DX2 analytically  !
 ! D11   D(2,1,4,8)           -127.4054         calculate D2E/DX2 analytically  !
 ! D12   D(2,1,4,9)            121.0474         calculate D2E/DX2 analytically  !
 ! D13   D(10,1,4,6)           121.0709         calculate D2E/DX2 analytically  !
 ! D14   D(10,1,4,8)            -3.1062         calculate D2E/DX2 analytically  !
 ! D15   D(10,1,4,9)          -114.6535         calculate D2E/DX2 analytically  !
 ! D16   D(11,1,4,6)          -127.0018         calculate D2E/DX2 analytically  !
 ! D17   D(11,1,4,8)           108.8211         calculate D2E/DX2 analytically  !
 ! D18   D(11,1,4,9)            -2.7261         calculate D2E/DX2 analytically  !
 ! D19   D(1,2,3,5)           -174.1461         calculate D2E/DX2 analytically  !
 ! D20   D(1,2,3,14)            64.0412         calculate D2E/DX2 analytically  !
 ! D21   D(1,2,3,15)           -51.6262         calculate D2E/DX2 analytically  !
 ! D22   D(12,2,3,5)           -49.8476         calculate D2E/DX2 analytically  !
 ! D23   D(12,2,3,14)         -171.6602         calculate D2E/DX2 analytically  !
 ! D24   D(12,2,3,15)           72.6723         calculate D2E/DX2 analytically  !
 ! D25   D(13,2,3,5)            64.3565         calculate D2E/DX2 analytically  !
 ! D26   D(13,2,3,14)          -57.4561         calculate D2E/DX2 analytically  !
 ! D27   D(13,2,3,15)         -173.1236         calculate D2E/DX2 analytically  !
 ! D28   D(2,3,5,7)             58.5124         calculate D2E/DX2 analytically  !
 ! D29   D(2,3,5,16)           179.8525         calculate D2E/DX2 analytically  !
 ! D30   D(2,3,5,17)           -64.7827         calculate D2E/DX2 analytically  !
 ! D31   D(14,3,5,7)          -179.0783         calculate D2E/DX2 analytically  !
 ! D32   D(14,3,5,16)          -57.7381         calculate D2E/DX2 analytically  !
 ! D33   D(14,3,5,17)           57.6267         calculate D2E/DX2 analytically  !
 ! D34   D(15,3,5,7)           -64.0862         calculate D2E/DX2 analytically  !
 ! D35   D(15,3,5,16)           57.254          calculate D2E/DX2 analytically  !
 ! D36   D(15,3,5,17)          172.6188         calculate D2E/DX2 analytically  !
 ! D37   D(1,4,6,18)            -3.1734         calculate D2E/DX2 analytically  !
 ! D38   D(1,4,6,19)           116.8761         calculate D2E/DX2 analytically  !
 ! D39   D(1,4,6,20)          -124.2212         calculate D2E/DX2 analytically  !
 ! D40   D(8,4,6,18)           120.7445         calculate D2E/DX2 analytically  !
 ! D41   D(8,4,6,19)          -119.206          calculate D2E/DX2 analytically  !
 ! D42   D(8,4,6,20)            -0.3032         calculate D2E/DX2 analytically  !
 ! D43   D(9,4,6,18)          -127.2164         calculate D2E/DX2 analytically  !
 ! D44   D(9,4,6,19)            -7.1668         calculate D2E/DX2 analytically  !
 ! D45   D(9,4,6,20)           111.7359         calculate D2E/DX2 analytically  !
 ! D46   D(3,5,7,21)            44.4651         calculate D2E/DX2 analytically  !
 ! D47   D(3,5,7,22)           -76.2242         calculate D2E/DX2 analytically  !
 ! D48   D(3,5,7,23)           164.4911         calculate D2E/DX2 analytically  !
 ! D49   D(16,5,7,21)          -76.5649         calculate D2E/DX2 analytically  !
 ! D50   D(16,5,7,22)          162.7458         calculate D2E/DX2 analytically  !
 ! D51   D(16,5,7,23)           43.461          calculate D2E/DX2 analytically  !
 ! D52   D(17,5,7,21)          168.2103         calculate D2E/DX2 analytically  !
 ! D53   D(17,5,7,22)           47.521          calculate D2E/DX2 analytically  !
 ! D54   D(17,5,7,23)          -71.7638         calculate D2E/DX2 analytically  !
 --------------------------------------------------------------------------------
 Trust Radius=3.00D-01 FncErr=1.00D-07 GrdErr=1.00D-06 EigMax=2.50D+02 EigMin=1.00D-04
 Number of steps in this run=    138 maximum allowed number of steps=    138.
 GradGradGradGradGradGradGradGradGradGradGradGradGradGradGradGradGradGrad

 Leave Link  103 at Sat Sep 28 19:45:21 2019, MaxMem=   671088640 cpu:               1.4 elap:               0.7
 (Enter /shared/centos7/gaussian/g16/l202.exe)
                          Input orientation:                          
 ---------------------------------------------------------------------
 Center     Atomic      Atomic             Coordinates (Angstroms)
 Number     Number       Type             X           Y           Z
 ---------------------------------------------------------------------
      1          6           0        1.378213   -1.131311    0.521214
      2          6           0        0.160135   -0.446035    1.039524
      3          6           0       -1.118536   -1.190487    0.746650
      4          6           0        2.156033   -0.496927   -0.582226
      5          6           0       -2.383288   -0.460848    1.133601
      6          6           0        1.664363    0.754746   -1.183194
      7          6           0       -2.564979    0.882205    0.475479
      8          1           0        2.280295   -1.260338   -1.401311
      9          1           0        3.197016   -0.328081   -0.216714
     10          1           0        1.096554   -2.154802    0.194550
     11          1           0        2.072906   -1.297514    1.369991
     12          1           0        0.074156    0.574652    0.635185
     13          1           0        0.254326   -0.320955    2.138950
     14          1           0       -1.105023   -2.159314    1.274207
     15          1           0       -1.158485   -1.428358   -0.336386
     16          1           0       -3.255810   -1.111930    0.864684
     17          1           0       -2.422272   -0.332923    2.228761
     18          1           0        0.692450    1.083237   -0.769241
     19          1           0        2.392281    1.602817   -1.014529
     20          1           0        1.539106    0.656082   -2.282316
     21          1           0       -2.329014    0.838464   -0.588468
     22          1           0       -1.904366    1.659997    0.949281
     23          1           0       -3.632542    1.229237    0.583933
 ---------------------------------------------------------------------
                    Distance matrix (angstroms):
                    1          2          3          4          5
     1  C    0.000000
     2  C    1.490625   0.000000
     3  C    2.507604   1.508304   0.000000
     4  C    1.491652   2.572211   3.601352   0.000000
     5  C    3.869551   2.545205   1.510531   4.852916   0.000000
     6  C    2.558144   2.940247   3.905478   1.472952   4.819615
     7  C    4.427765   3.083604   2.542004   5.030775   1.506627
     8  H    2.127558   3.334043   4.021276   1.126559   5.367864
     9  H    2.120792   3.288570   4.505086   1.116134   5.742888
    10  H    1.110665   2.123852   2.478173   2.115284   3.982537
    11  H    1.109344   2.119651   3.253507   2.111635   4.540215
    12  H    2.150318   1.101220   2.133226   2.639050   2.712878
    13  H    2.129993   1.110520   2.139938   3.324493   2.826181
    14  H    2.791102   2.142667   1.103233   4.104187   2.130380
    15  H    2.694171   2.144025   1.109570   3.451670   2.144080
    16  H    4.646776   3.484633   2.141973   5.635585   1.121392
    17  H    4.242268   2.845331   2.152162   5.374889   1.103295
    18  H    2.653256   2.427687   3.278325   2.161936   3.932578
    19  H    3.295799   3.660520   4.819765   2.156762   5.628431
    20  H    3.328730   3.761761   4.432551   2.144839   5.319887
    21  H    4.342228   3.239777   2.713751   4.679631   2.157935
    22  H    4.330124   2.950539   2.963756   4.846099   2.182046
    23  H    5.539295   4.171150   3.493103   6.152005   2.172363
                    6          7          8          9         10
     6  C    0.000000
     7  C    4.544753   0.000000
     8  H    2.118374   5.620455   0.000000
     9  H    2.110835   5.928281   1.764299   0.000000
    10  H    3.268954   4.765413   2.179009   2.813892   0.000000
    11  H    3.301126   5.202048   2.779300   2.172799   1.752104
    12  H    2.422333   2.661790   3.518743   3.360493   2.947776
    13  H    3.765897   3.487579   4.185742   3.769433   2.802327
    14  H    4.711694   3.467026   4.407599   4.907524   2.452065
    15  H    3.667629   2.824190   3.603818   4.493920   2.427925
    16  H    5.646804   2.145996   5.983746   6.589598   4.525455
    17  H    5.433697   2.137966   6.012625   6.128358   4.454145
    18  H    1.106291   3.492934   2.900535   2.927449   3.402513
    19  H    1.130281   5.226264   2.891331   2.238856   4.154573
    20  H    1.110627   4.949756   2.235664   2.825590   3.772504
    21  H    4.038288   1.090678   5.129465   5.660038   4.615981
    22  H    4.254734   1.125104   5.618276   5.597865   4.912010
    23  H    5.604024   1.127778   6.715714   7.050471   5.828181
                   11         12         13         14         15
    11  H    0.000000
    12  H    2.835481   0.000000
    13  H    2.202771   1.759513   0.000000
    14  H    3.294101   3.045223   2.444416   0.000000
    15  H    3.656601   2.544681   3.057722   1.769509   0.000000
    16  H    5.355838   3.739773   3.817126   2.427058   2.437513
    17  H    4.677024   3.097633   2.678131   2.445818   3.062208
    18  H    3.485677   1.616588   3.259031   4.233287   3.149831
    19  H    3.768269   3.025291   4.268042   5.623439   4.717610
    20  H    4.176222   3.265658   4.706682   5.250402   3.925370
    21  H    5.270186   2.709639   3.931502   3.735557   2.563624
    22  H    4.974190   2.278416   3.162189   3.915567   3.427421
    23  H    6.289236   3.764401   4.464181   4.283353   3.745765
                   16         17         18         19         20
    16  H    0.000000
    17  H    1.778298   0.000000
    18  H    4.803877   4.549178   0.000000
    19  H    6.542341   6.119309   1.794312   0.000000
    20  H    6.001725   6.084445   1.785689   1.797637   0.000000
    21  H    2.602814   3.052479   3.036747   4.801707   4.226669
    22  H    3.084986   2.424259   3.166926   4.724510   4.827894
    23  H    2.387847   2.571100   4.534088   6.244449   5.940525
                   21         22         23
    21  H    0.000000
    22  H    1.794412   0.000000
    23  H    1.796223   1.818138   0.000000
 Stoichiometry    C7H16
 Framework group  C1[X(C7H16)]
 Deg. of freedom    63
 Full point group                 C1      NOp   1
 Largest Abelian subgroup         C1      NOp   1
 Largest concise Abelian subgroup C1      NOp   1
                         Standard orientation:                         
 ---------------------------------------------------------------------
 Center     Atomic      Atomic             Coordinates (Angstroms)
 Number     Number       Type             X           Y           Z
 ---------------------------------------------------------------------
      1          6           0        1.374909   -1.058589    0.128886
      2          6           0        0.028151   -0.594203    0.567692
      3          6           0       -1.061521   -0.877455   -0.435983
      4          6           0        2.432709   -0.048790   -0.165042
      5          6           0       -2.413144   -0.299216   -0.088911
      6          6           0        2.102805    1.384492   -0.084711
      7          6           0       -2.434910    1.197172    0.085080
      8          1           0        2.839749   -0.263335   -1.193353
      9          1           0        3.298190   -0.250332    0.510294
     10          1           0        1.253153   -1.696326   -0.772249
     11          1           0        1.774161   -1.749234    0.899762
     12          1           0        0.030931    0.484376    0.789831
     13          1           0       -0.233060   -1.092066    1.525376
     14          1           0       -1.173903   -1.968643   -0.553470
     15          1           0       -0.749297   -0.489922   -1.427688
     16          1           0       -3.129024   -0.574666   -0.906935
     17          1           0       -2.799447   -0.773696    0.829184
     18          1           0        1.037221    1.573040    0.145200
     19          1           0        2.704785    1.898004    0.722421
     20          1           0        2.333351    1.908558   -1.036391
     21          1           0       -1.875099    1.697336   -0.706137
     22          1           0       -1.989670    1.498219    1.073509
     23          1           0       -3.496036    1.578216    0.058578
 ---------------------------------------------------------------------
 Rotational constants (GHZ):           4.2641619           1.2667841           1.0593948
 Leave Link  202 at Sat Sep 28 19:45:23 2019, MaxMem=   671088640 cpu:               4.2 elap:               2.1
 (Enter /shared/centos7/gaussian/g16/l301.exe)
 Standard basis: CC-pVTZ (5D, 7F)
 Ernie: Thresh=  0.10000D-02 Tol=  0.10000D-05 Strict=F.
 Ernie:  21 primitive shells out of 310 were deleted.
 There are   485 symmetry adapted cartesian basis functions of A   symmetry.
 There are   434 symmetry adapted basis functions of A   symmetry.
   434 basis functions,   636 primitive gaussians,   485 cartesian basis functions
    29 alpha electrons       29 beta electrons
       nuclear repulsion energy       324.6981462107 Hartrees.
 IExCor= 4336 DFT=T Ex+Corr=M062X ExCW=0 ScaHFX=  0.540000
 ScaDFX=  1.000000  1.000000  1.000000  1.000000 ScalE2=  1.000000  1.000000
 IRadAn=      5 IRanWt=     -1 IRanGd=            0 ICorTp=0 IEmpDi=  4
 NAtoms=   23 NActive=   23 NUniq=   23 SFac= 1.00D+00 NAtFMM=   60 NAOKFM=F Big=F
 Integral buffers will be    131072 words long.
 Raffenetti 2 integral format.
 Two-electron integral symmetry is turned on.
 Leave Link  301 at Sat Sep 28 19:45:24 2019, MaxMem=   671088640 cpu:               1.6 elap:               0.8
 (Enter /shared/centos7/gaussian/g16/l302.exe)
 NPDir=0 NMtPBC=     1 NCelOv=     1 NCel=       1 NClECP=     1 NCelD=      1
         NCelK=      1 NCelE2=     1 NClLst=     1 CellRange=     0.0.
 One-electron integrals computed using PRISM.
 One-electron integral symmetry used in STVInt
 NBasis=   434 RedAO= T EigKep=  2.17D-04  NBF=   434
 NBsUse=   434 1.00D-06 EigRej= -1.00D+00 NBFU=   434
 Precomputing XC quadrature grid using
 IXCGrd= 4 IRadAn=           5 IRanWt=          -1 IRanGd=           0 AccXCQ= 0.00D+00.
 Generated NRdTot=       0 NPtTot=           0 NUsed=           0 NTot=          32
 NSgBfM=   485   485   485   485   485 MxSgAt=    23 MxSgA2=    23.
 Leave Link  302 at Sat Sep 28 19:46:33 2019, MaxMem=   671088640 cpu:             137.5 elap:              68.8
 (Enter /shared/centos7/gaussian/g16/l303.exe)
 DipDrv:  MaxL=1.
 Leave Link  303 at Sat Sep 28 19:46:38 2019, MaxMem=   671088640 cpu:              11.1 elap:               5.6
 (Enter /shared/centos7/gaussian/g16/l401.exe)
 ExpMin= 1.03D-01 ExpMax= 8.24D+03 ExpMxC= 2.81D+02 IAcc=3 IRadAn=         5 AccDes= 0.00D+00
 Harris functional with IExCor= 1009 and IRadAn=       5 diagonalized for initial guess.
 HarFok:  IExCor= 1009 AccDes= 0.00D+00 IRadAn=         5 IDoV= 1 UseB2=F ITyADJ=14
 ICtDFT=  3500011 ScaDFX=  1.000000  1.000000  1.000000  1.000000
 FoFCou: FMM=F IPFlag=           0 FMFlag=      100000 FMFlg1=           0
         NFxFlg=           0 DoJE=T BraDBF=F KetDBF=T FulRan=T
         wScrn=  0.000000 ICntrl=       500 IOpCl=  0 I1Cent=   200000004 NGrid=           0
         NMat0=    1 NMatS0=      1 NMatT0=    0 NMatD0=    1 NMtDS0=    0 NMtDT0=    0
 Petite list used in FoFCou.
 Harris En= -276.315603726861    
 JPrj=0 DoOrth=F DoCkMO=F.
 Leave Link  401 at Sat Sep 28 19:47:21 2019, MaxMem=   671088640 cpu:              85.0 elap:              42.5
 (Enter /shared/centos7/gaussian/g16/l502.exe)
 Integral symmetry usage will be decided dynamically.
 Closed shell SCF:
 Using DIIS extrapolation, IDIIS=  1040.
 NGot=   671088640 LenX=   670604095 LenY=   670368385
 Requested convergence on RMS density matrix=1.00D-08 within 900 cycles.
 Requested convergence on MAX density matrix=1.00D-06.
 Requested convergence on             energy=1.00D-06.
 No special actions if energy rises.
 Fock matrices will be formed incrementally for  20 cycles.
 Integral accuracy reduced to 1.0D-05 until final iterations.

 Cycle   1  Pass 0  IDiag  1:
 FoFJK:  IHMeth= 1 ICntrl=       0 DoSepK=F KAlg= 0 I1Cent=           0 FoldK=F
 IRaf= 930000000 NMat=       1 IRICut=       1 DoRegI=T DoRafI=F ISym2E= 0 IDoP0=0 IntGTp=1.
 FoFCou: FMM=F IPFlag=           0 FMFlag=      100000 FMFlg1=           0
         NFxFlg=           0 DoJE=F BraDBF=F KetDBF=F FulRan=T
         wScrn=  0.000000 ICntrl=         0 IOpCl=  0 I1Cent=           0 NGrid=           0
         NMat0=    1 NMatS0=      1 NMatT0=    0 NMatD0=    1 NMtDS0=    0 NMtDT0=    0
 Symmetry not used in FoFCou.
 E= -275.944282347238    
 DIIS: error= 2.38D-02 at cycle   1 NSaved=   1.
 NSaved= 1 IEnMin= 1 EnMin= -275.944282347238     IErMin= 1 ErrMin= 2.38D-02
 ErrMax= 2.38D-02  0.00D+00 EMaxC= 1.00D-01 BMatC= 3.74D-01 BMatP= 3.74D-01
 IDIUse=3 WtCom= 7.62D-01 WtEn= 2.38D-01
 Coeff-Com:  0.100D+01
 Coeff-En:   0.100D+01
 Coeff:      0.100D+01
 Gap=     0.355 Goal=   None    Shift=    0.000
 GapD=    0.355 DampG=1.000 DampE=0.500 DampFc=0.5000 IDamp=-1.
 Damping current iteration by 5.00D-01
 RMSDP=1.92D-03 MaxDP=7.14D-02              OVMax= 1.64D-01

 Cycle   2  Pass 0  IDiag  1:
 RMSU=  9.56D-04    CP:  9.90D-01
 E= -276.122907672903     Delta-E=       -0.178625325665 Rises=F Damp=T
 DIIS: error= 4.22D-03 at cycle   2 NSaved=   2.
 NSaved= 2 IEnMin= 2 EnMin= -276.122907672903     IErMin= 2 ErrMin= 4.22D-03
 ErrMax= 4.22D-03  0.00D+00 EMaxC= 1.00D-01 BMatC= 1.85D-02 BMatP= 3.74D-01
 IDIUse=3 WtCom= 9.58D-01 WtEn= 4.22D-02
 Coeff-Com: -0.545D-01 0.105D+01
 Coeff-En:   0.000D+00 0.100D+01
 Coeff:     -0.522D-01 0.105D+01
 Gap=     0.438 Goal=   None    Shift=    0.000
 RMSDP=5.40D-04 MaxDP=2.01D-02 DE=-1.79D-01 OVMax= 8.80D-02

 Cycle   3  Pass 0  IDiag  1:
 RMSU=  5.32D-04    CP:  9.98D-01  9.23D-01
 E= -276.301204707009     Delta-E=       -0.178297034106 Rises=F Damp=F
 DIIS: error= 2.86D-03 at cycle   3 NSaved=   3.
 NSaved= 3 IEnMin= 3 EnMin= -276.301204707009     IErMin= 3 ErrMin= 2.86D-03
 ErrMax= 2.86D-03  0.00D+00 EMaxC= 1.00D-01 BMatC= 2.60D-03 BMatP= 1.85D-02
 IDIUse=3 WtCom= 9.71D-01 WtEn= 2.86D-02
 Coeff-Com: -0.512D-01 0.240D+00 0.811D+00
 Coeff-En:   0.000D+00 0.000D+00 0.100D+01
 Coeff:     -0.497D-01 0.233D+00 0.816D+00
 Gap=     0.402 Goal=   None    Shift=    0.000
 RMSDP=9.62D-05 MaxDP=3.39D-03 DE=-1.78D-01 OVMax= 1.08D-02

 Cycle   4  Pass 0  IDiag  1:
 RMSU=  7.67D-05    CP:  9.97D-01  9.68D-01  9.29D-01
 E= -276.303516452254     Delta-E=       -0.002311745245 Rises=F Damp=F
 DIIS: error= 6.57D-04 at cycle   4 NSaved=   4.
 NSaved= 4 IEnMin= 4 EnMin= -276.303516452254     IErMin= 4 ErrMin= 6.57D-04
 ErrMax= 6.57D-04  0.00D+00 EMaxC= 1.00D-01 BMatC= 2.18D-04 BMatP= 2.60D-03
 IDIUse=3 WtCom= 9.93D-01 WtEn= 6.57D-03
 Coeff-Com: -0.119D-01 0.314D-01 0.260D+00 0.721D+00
 Coeff-En:   0.000D+00 0.000D+00 0.000D+00 0.100D+01
 Coeff:     -0.118D-01 0.312D-01 0.258D+00 0.723D+00
 Gap=     0.402 Goal=   None    Shift=    0.000
 RMSDP=3.13D-05 MaxDP=9.65D-04 DE=-2.31D-03 OVMax= 2.85D-03

 Cycle   5  Pass 0  IDiag  1:
 RMSU=  1.70D-05    CP:  9.97D-01  9.63D-01  9.63D-01  7.63D-01
 E= -276.303724899461     Delta-E=       -0.000208447206 Rises=F Damp=F
 DIIS: error= 1.35D-04 at cycle   5 NSaved=   5.
 NSaved= 5 IEnMin= 5 EnMin= -276.303724899461     IErMin= 5 ErrMin= 1.35D-04
 ErrMax= 1.35D-04  0.00D+00 EMaxC= 1.00D-01 BMatC= 1.20D-05 BMatP= 2.18D-04
 IDIUse=3 WtCom= 9.99D-01 WtEn= 1.35D-03
 Coeff-Com: -0.114D-02 0.104D-03 0.471D-01 0.240D+00 0.714D+00
 Coeff-En:   0.000D+00 0.000D+00 0.000D+00 0.000D+00 0.100D+01
 Coeff:     -0.114D-02 0.104D-03 0.470D-01 0.239D+00 0.715D+00
 Gap=     0.402 Goal=   None    Shift=    0.000
 RMSDP=5.99D-06 MaxDP=2.59D-04 DE=-2.08D-04 OVMax= 6.23D-04

 Initial convergence to 1.0D-05 achieved.  Increase integral accuracy.
 Cycle   6  Pass 1  IDiag  1:
 E= -276.303680125012     Delta-E=        0.000044774449 Rises=F Damp=F
 DIIS: error= 4.29D-05 at cycle   1 NSaved=   1.
 NSaved= 1 IEnMin= 1 EnMin= -276.303680125012     IErMin= 1 ErrMin= 4.29D-05
 ErrMax= 4.29D-05  0.00D+00 EMaxC= 1.00D-01 BMatC= 1.76D-06 BMatP= 1.76D-06
 IDIUse=1 WtCom= 1.00D+00 WtEn= 0.00D+00
 Coeff-Com:  0.100D+01
 Coeff:      0.100D+01
 Gap=     0.402 Goal=   None    Shift=    0.000
 RMSDP=5.99D-06 MaxDP=2.59D-04 DE= 4.48D-05 OVMax= 3.35D-04

 Cycle   7  Pass 1  IDiag  1:
 RMSU=  1.15D-05    CP:  1.00D+00
 E= -276.303680833378     Delta-E=       -0.000000708367 Rises=F Damp=F
 DIIS: error= 3.57D-05 at cycle   2 NSaved=   2.
 NSaved= 2 IEnMin= 2 EnMin= -276.303680833378     IErMin= 2 ErrMin= 3.57D-05
 ErrMax= 3.57D-05  0.00D+00 EMaxC= 1.00D-01 BMatC= 7.16D-07 BMatP= 1.76D-06
 IDIUse=1 WtCom= 1.00D+00 WtEn= 0.00D+00
 Coeff-Com:  0.364D+00 0.636D+00
 Coeff:      0.364D+00 0.636D+00
 Gap=     0.402 Goal=   None    Shift=    0.000
 RMSDP=1.56D-06 MaxDP=5.92D-05 DE=-7.08D-07 OVMax= 1.84D-04

 Cycle   8  Pass 1  IDiag  1:
 RMSU=  1.55D-06    CP:  1.00D+00  9.97D-01
 E= -276.303681480163     Delta-E=       -0.000000646785 Rises=F Damp=F
 DIIS: error= 8.55D-06 at cycle   3 NSaved=   3.
 NSaved= 3 IEnMin= 3 EnMin= -276.303681480163     IErMin= 3 ErrMin= 8.55D-06
 ErrMax= 8.55D-06  0.00D+00 EMaxC= 1.00D-01 BMatC= 5.87D-08 BMatP= 7.16D-07
 IDIUse=1 WtCom= 1.00D+00 WtEn= 0.00D+00
 Coeff-Com: -0.641D-02 0.212D+00 0.794D+00
 Coeff:     -0.641D-02 0.212D+00 0.794D+00
 Gap=     0.402 Goal=   None    Shift=    0.000
 RMSDP=4.33D-07 MaxDP=1.40D-05 DE=-6.47D-07 OVMax= 4.26D-05

 Cycle   9  Pass 1  IDiag  1:
 RMSU=  2.93D-07    CP:  1.00D+00  1.01D+00  8.42D-01
 E= -276.303681537156     Delta-E=       -0.000000056992 Rises=F Damp=F
 DIIS: error= 1.98D-06 at cycle   4 NSaved=   4.
 NSaved= 4 IEnMin= 4 EnMin= -276.303681537156     IErMin= 4 ErrMin= 1.98D-06
 ErrMax= 1.98D-06  0.00D+00 EMaxC= 1.00D-01 BMatC= 1.80D-09 BMatP= 5.87D-08
 IDIUse=1 WtCom= 1.00D+00 WtEn= 0.00D+00
 Coeff-Com: -0.113D-01 0.595D-01 0.280D+00 0.671D+00
 Coeff:     -0.113D-01 0.595D-01 0.280D+00 0.671D+00
 Gap=     0.402 Goal=   None    Shift=    0.000
 RMSDP=8.41D-08 MaxDP=3.17D-06 DE=-5.70D-08 OVMax= 8.03D-06

 Cycle  10  Pass 1  IDiag  1:
 RMSU=  7.68D-08    CP:  1.00D+00  1.02D+00  8.41D-01  9.00D-01
 E= -276.303681539004     Delta-E=       -0.000000001849 Rises=F Damp=F
 DIIS: error= 3.38D-07 at cycle   5 NSaved=   5.
 NSaved= 5 IEnMin= 5 EnMin= -276.303681539004     IErMin= 5 ErrMin= 3.38D-07
 ErrMax= 3.38D-07  0.00D+00 EMaxC= 1.00D-01 BMatC= 6.62D-11 BMatP= 1.80D-09
 IDIUse=1 WtCom= 1.00D+00 WtEn= 0.00D+00
 Coeff-Com: -0.771D-03-0.117D-01-0.365D-01 0.720D-01 0.977D+00
 Coeff:     -0.771D-03-0.117D-01-0.365D-01 0.720D-01 0.977D+00
 Gap=     0.402 Goal=   None    Shift=    0.000
 RMSDP=2.96D-08 MaxDP=9.41D-07 DE=-1.85D-09 OVMax= 2.46D-06

 Cycle  11  Pass 1  IDiag  1:
 RMSU=  1.62D-08    CP:  1.00D+00  1.02D+00  8.43D-01  9.78D-01  1.12D+00
 E= -276.303681539069     Delta-E=       -0.000000000065 Rises=F Damp=F
 DIIS: error= 1.70D-07 at cycle   6 NSaved=   6.
 NSaved= 6 IEnMin= 6 EnMin= -276.303681539069     IErMin= 6 ErrMin= 1.70D-07
 ErrMax= 1.70D-07  0.00D+00 EMaxC= 1.00D-01 BMatC= 1.72D-11 BMatP= 6.62D-11
 IDIUse=1 WtCom= 1.00D+00 WtEn= 0.00D+00
 Coeff-Com:  0.490D-03-0.953D-02-0.367D-01-0.178D-01 0.431D+00 0.633D+00
 Coeff:      0.490D-03-0.953D-02-0.367D-01-0.178D-01 0.431D+00 0.633D+00
 Gap=     0.402 Goal=   None    Shift=    0.000
 RMSDP=6.92D-09 MaxDP=3.06D-07 DE=-6.50D-11 OVMax= 6.94D-07

 SCF Done:  E(RM062X) =  -276.303681539     A.U. after   11 cycles
            NFock= 11  Conv=0.69D-08     -V/T= 2.0065
 KE= 2.745079568214D+02 PE=-1.287839499696D+03 EE= 4.123297151245D+02
 Leave Link  502 at Sat Sep 28 20:03:48 2019, MaxMem=   671088640 cpu:            1974.3 elap:             987.3
 (Enter /shared/centos7/gaussian/g16/l801.exe)
 DoSCS=F DFT=T ScalE2(SS,OS)=  1.000000  1.000000
 Range of M.O.s used for correlation:     1   434
 NBasis=   434 NAE=    29 NBE=    29 NFC=     0 NFV=     0
 NROrb=    434 NOA=    29 NOB=    29 NVA=   405 NVB=   405

 **** Warning!!: The largest alpha MO coefficient is  0.12588619D+02

 Leave Link  801 at Sat Sep 28 20:03:49 2019, MaxMem=   671088640 cpu:               1.6 elap:               0.8
 (Enter /shared/centos7/gaussian/g16/l1101.exe)
 Using compressed storage, NAtomX=    23.
 Will process     24 centers per pass.
 Leave Link 1101 at Sat Sep 28 20:04:33 2019, MaxMem=   671088640 cpu:              86.9 elap:              43.5
 (Enter /shared/centos7/gaussian/g16/l1102.exe)
 Symmetrizing basis deriv contribution to polar:
 IMax=3 JMax=2 DiffMx= 0.00D+00
 Leave Link 1102 at Sat Sep 28 20:04:37 2019, MaxMem=   671088640 cpu:               8.2 elap:               4.2
 (Enter /shared/centos7/gaussian/g16/l1110.exe)
 Forming Gx(P) for the SCF density, NAtomX=    23.
 Integral derivatives from FoFJK, PRISM(SPDF).
 Do as many integral derivatives as possible in FoFJK.
 G2DrvN: MDV=     671086848.
 G2DrvN: will do    24 centers at a time, making    1 passes.
 Calling FoFCou, ICntrl=  3107 FMM=F I1Cent=   0 AccDes= 0.00D+00.
 FoFJK:  IHMeth= 1 ICntrl=    3107 DoSepK=F KAlg= 0 I1Cent=           0 FoldK=F
 IRaf=         0 NMat=       1 IRICut=       1 DoRegI=T DoRafI=F ISym2E= 0 IDoP0=0 IntGTp=1.
 FoFCou: FMM=F IPFlag=           0 FMFlag=      100000 FMFlg1=           0
         NFxFlg=           0 DoJE=F BraDBF=F KetDBF=F FulRan=T
         wScrn=  0.000000 ICntrl=      3107 IOpCl=  0 I1Cent=           0 NGrid=           0
         NMat0=    1 NMatS0=      1 NMatT0=    0 NMatD0=    1 NMtDS0=    0 NMtDT0=    0
 Symmetry not used in FoFCou.
 End of G2Drv F.D. properties file   721 does not exist.
 End of G2Drv F.D. properties file   722 does not exist.
 End of G2Drv F.D. properties file   788 does not exist.
 Leave Link 1110 at Sat Sep 28 20:51:49 2019, MaxMem=   671088640 cpu:            5664.3 elap:            2832.6
 (Enter /shared/centos7/gaussian/g16/l1002.exe)
 Minotr:  Closed shell wavefunction.
          IDoAtm=11111111111111111111111
          Direct CPHF calculation.
          Differentiating once with respect to nuclear coordinates.
          Requested convergence is 1.0D-08 RMS, and 1.0D-07 maximum.
          Secondary convergence is 1.0D-12 RMS, and 1.0D-12 maximum.
          NewPWx=T KeepS1=F KeepF1=F KeepIn=T MapXYZ=F SortEE=F KeepMc=T.
         6932 words used for storage of precomputed grid.
 Two-electron integrals replicated using symmetry.
          MDV=     671088640 using IRadAn=       1.
          Solving linear equations simultaneously, MaxMat=     380.
 FoF2E skips out because all densities are zero.
 CalDSu exits because no D1Ps are significant.
 FoFJK:  IHMeth= 1 ICntrl=       0 DoSepK=F KAlg= 0 I1Cent=           0 FoldK=F
 IRaf= 920000000 NMat=      69 IRICut=     172 DoRegI=T DoRafI=T ISym2E= 2 IDoP0=3 IntGTp=3.
 FoFCou: FMM=F IPFlag=           0 FMFlag=      100000 FMFlg1=           0
         NFxFlg=           0 DoJE=F BraDBF=F KetDBF=F FulRan=T
         wScrn=  0.000000 ICntrl=         0 IOpCl=  0 I1Cent=           0 NGrid=           0
         NMat0=   69 NMatS0=     69 NMatT0=    0 NMatD0=   69 NMtDS0=    0 NMtDT0=    0
 Integrals replicated using symmetry in FoFCou.
 Raff kept on since  87.74% of shell-pairs survive, threshold=   0.20 IRatSp=88.
          There are    72 degrees of freedom in the 1st order CPHF.  IDoFFX=6 NUNeed=     0.
     66 vectors produced by pass  0 Test12= 1.63D-14 1.39D-09 XBig12= 5.72D-02 4.46D-02.
 AX will form    66 AO Fock derivatives at one time.
     66 vectors produced by pass  1 Test12= 1.63D-14 1.39D-09 XBig12= 3.91D-03 7.08D-03.
     66 vectors produced by pass  2 Test12= 1.63D-14 1.39D-09 XBig12= 6.49D-05 1.30D-03.
     66 vectors produced by pass  3 Test12= 1.63D-14 1.39D-09 XBig12= 5.35D-07 7.57D-05.
     66 vectors produced by pass  4 Test12= 1.63D-14 1.39D-09 XBig12= 2.16D-09 4.91D-06.
     66 vectors produced by pass  5 Test12= 1.63D-14 1.39D-09 XBig12= 1.00D-11 3.02D-07.
     22 vectors produced by pass  6 Test12= 1.63D-14 1.39D-09 XBig12= 3.64D-14 2.11D-08.
 InvSVY:  IOpt=1 It=  1 EMax= 3.61D-16
 Solved reduced A of dimension   418 with    72 vectors.
 End of Minotr F.D. properties file   721 does not exist.
 End of Minotr F.D. properties file   722 does not exist.
 End of Minotr F.D. properties file   788 does not exist.
 Leave Link 1002 at Sat Sep 28 22:05:10 2019, MaxMem=   671088640 cpu:            8799.5 elap:            4400.3
 (Enter /shared/centos7/gaussian/g16/l601.exe)
 Copying SCF densities to generalized density rwf, IOpCl= 0 IROHF=0.

 **********************************************************************

            Population analysis using the SCF density.

 **********************************************************************

 Orbital symmetries:
       Occupied  (A) (A) (A) (A) (A) (A) (A) (A) (A) (A) (A) (A)
                 (A) (A) (A) (A) (A) (A) (A) (A) (A) (A) (A) (A)
                 (A) (A) (A) (A) (A)
       Virtual   (A) (A) (A) (A) (A) (A) (A) (A) (A) (A) (A) (A)
                 (A) (A) (A) (A) (A) (A) (A) (A) (A) (A) (A) (A)
                 (A) (A) (A) (A) (A) (A) (A) (A) (A) (A) (A) (A)
                 (A) (A) (A) (A) (A) (A) (A) (A) (A) (A) (A) (A)
                 (A) (A) (A) (A) (A) (A) (A) (A) (A) (A) (A) (A)
                 (A) (A) (A) (A) (A) (A) (A) (A) (A) (A) (A) (A)
                 (A) (A) (A) (A) (A) (A) (A) (A) (A) (A) (A) (A)
                 (A) (A) (A) (A) (A) (A) (A) (A) (A) (A) (A) (A)
                 (A) (A) (A) (A) (A) (A) (A) (A) (A) (A) (A) (A)
                 (A) (A) (A) (A) (A) (A) (A) (A) (A) (A) (A) (A)
                 (A) (A) (A) (A) (A) (A) (A) (A) (A) (A) (A) (A)
                 (A) (A) (A) (A) (A) (A) (A) (A) (A) (A) (A) (A)
                 (A) (A) (A) (A) (A) (A) (A) (A) (A) (A) (A) (A)
                 (A) (A) (A) (A) (A) (A) (A) (A) (A) (A) (A) (A)
                 (A) (A) (A) (A) (A) (A) (A) (A) (A) (A) (A) (A)
                 (A) (A) (A) (A) (A) (A) (A) (A) (A) (A) (A) (A)
                 (A) (A) (A) (A) (A) (A) (A) (A) (A) (A) (A) (A)
                 (A) (A) (A) (A) (A) (A) (A) (A) (A) (A) (A) (A)
                 (A) (A) (A) (A) (A) (A) (A) (A) (A) (A) (A) (A)
                 (A) (A) (A) (A) (A) (A) (A) (A) (A) (A) (A) (A)
                 (A) (A) (A) (A) (A) (A) (A) (A) (A) (A) (A) (A)
                 (A) (A) (A) (A) (A) (A) (A) (A) (A) (A) (A) (A)
                 (A) (A) (A) (A) (A) (A) (A) (A) (A) (A) (A) (A)
                 (A) (A) (A) (A) (A) (A) (A) (A) (A) (A) (A) (A)
                 (A) (A) (A) (A) (A) (A) (A) (A) (A) (A) (A) (A)
                 (A) (A) (A) (A) (A) (A) (A) (A) (A) (A) (A) (A)
                 (A) (A) (A) (A) (A) (A) (A) (A) (A) (A) (A) (A)
                 (A) (A) (A) (A) (A) (A) (A) (A) (A) (A) (A) (A)
                 (A) (A) (A) (A) (A) (A) (A) (A) (A) (A) (A) (A)
                 (A) (A) (A) (A) (A) (A) (A) (A) (A) (A) (A) (A)
                 (A) (A) (A) (A) (A) (A) (A) (A) (A) (A) (A) (A)
                 (A) (A) (A) (A) (A) (A) (A) (A) (A) (A) (A) (A)
                 (A) (A) (A) (A) (A) (A) (A) (A) (A) (A) (A) (A)
                 (A) (A) (A) (A) (A) (A) (A) (A) (A)
 The electronic state is 1-A.
 Alpha  occ. eigenvalues --  -10.52815 -10.52658 -10.52550 -10.52433 -10.52119
 Alpha  occ. eigenvalues --  -10.52069 -10.52023  -0.92056  -0.88291  -0.82491
 Alpha  occ. eigenvalues --   -0.76526  -0.71807  -0.64842  -0.62373  -0.55155
 Alpha  occ. eigenvalues --   -0.53200  -0.51448  -0.50385  -0.48402  -0.45755
 Alpha  occ. eigenvalues --   -0.44837  -0.42933  -0.41138  -0.40319  -0.39427
 Alpha  occ. eigenvalues --   -0.37616  -0.36737  -0.36545  -0.34183
 Alpha virt. eigenvalues --    0.06026   0.07351   0.08567   0.08886   0.10347
 Alpha virt. eigenvalues --    0.11794   0.12383   0.13232   0.14174   0.14682
 Alpha virt. eigenvalues --    0.16477   0.17279   0.17698   0.18135   0.20935
 Alpha virt. eigenvalues --    0.21146   0.22837   0.23636   0.24768   0.25877
 Alpha virt. eigenvalues --    0.26881   0.27637   0.28678   0.31319   0.32168
 Alpha virt. eigenvalues --    0.32980   0.34126   0.35253   0.36602   0.37066
 Alpha virt. eigenvalues --    0.39044   0.40420   0.41211   0.42500   0.43604
 Alpha virt. eigenvalues --    0.44567   0.45624   0.45951   0.46838   0.47799
 Alpha virt. eigenvalues --    0.48611   0.49157   0.49549   0.50263   0.51167
 Alpha virt. eigenvalues --    0.51783   0.51996   0.52873   0.53152   0.53980
 Alpha virt. eigenvalues --    0.54167   0.54261   0.55500   0.55863   0.56299
 Alpha virt. eigenvalues --    0.57774   0.59446   0.60382   0.61587   0.63740
 Alpha virt. eigenvalues --    0.65094   0.66340   0.71789   0.74216   0.76863
 Alpha virt. eigenvalues --    0.79019   0.79750   0.81523   0.82996   0.84610
 Alpha virt. eigenvalues --    0.87928   0.88243   0.89648   0.91617   0.92432
 Alpha virt. eigenvalues --    0.94162   0.94663   0.95084   0.97861   0.98547
 Alpha virt. eigenvalues --    1.00372   1.01037   1.04066   1.05106   1.05242
 Alpha virt. eigenvalues --    1.05981   1.07441   1.08133   1.09289   1.10027
 Alpha virt. eigenvalues --    1.11157   1.11711   1.12777   1.13531   1.14010
 Alpha virt. eigenvalues --    1.14967   1.16092   1.16400   1.17734   1.18427
 Alpha virt. eigenvalues --    1.19807   1.20501   1.20997   1.21506   1.22701
 Alpha virt. eigenvalues --    1.23718   1.25459   1.26817   1.27361   1.28102
 Alpha virt. eigenvalues --    1.29895   1.30500   1.30976   1.31819   1.33622
 Alpha virt. eigenvalues --    1.34813   1.35109   1.35919   1.36899   1.37655
 Alpha virt. eigenvalues --    1.39366   1.41872   1.42601   1.43008   1.45086
 Alpha virt. eigenvalues --    1.45937   1.46514   1.47124   1.49020   1.49460
 Alpha virt. eigenvalues --    1.51970   1.52647   1.54880   1.55565   1.55689
 Alpha virt. eigenvalues --    1.56890   1.58141   1.59728   1.62110   1.62874
 Alpha virt. eigenvalues --    1.65200   1.66814   1.68383   1.71651   1.72468
 Alpha virt. eigenvalues --    1.76191   1.79501   1.82942   1.95300   2.14972
 Alpha virt. eigenvalues --    2.23315   2.23821   2.25662   2.31009   2.32020
 Alpha virt. eigenvalues --    2.35166   2.39338   2.40912   2.41830   2.43569
 Alpha virt. eigenvalues --    2.45519   2.46616   2.48202   2.50975   2.51664
 Alpha virt. eigenvalues --    2.54252   2.54584   2.57415   2.59301   2.60528
 Alpha virt. eigenvalues --    2.61055   2.62303   2.63454   2.65593   2.66241
 Alpha virt. eigenvalues --    2.67183   2.68891   2.69795   2.71551   2.72532
 Alpha virt. eigenvalues --    2.72987   2.73602   2.76408   2.76922   2.78883
 Alpha virt. eigenvalues --    2.80950   2.81989   2.83539   2.84188   2.85432
 Alpha virt. eigenvalues --    2.87129   2.87880   2.89805   2.90570   2.92476
 Alpha virt. eigenvalues --    2.93929   2.94832   2.96180   2.98221   2.98406
 Alpha virt. eigenvalues --    2.99840   3.01106   3.01641   3.02728   3.03216
 Alpha virt. eigenvalues --    3.03534   3.05259   3.07223   3.08332   3.08579
 Alpha virt. eigenvalues --    3.09774   3.10457   3.11397   3.11742   3.13013
 Alpha virt. eigenvalues --    3.14684   3.15250   3.16015   3.16404   3.17485
 Alpha virt. eigenvalues --    3.17837   3.19441   3.19577   3.21216   3.22715
 Alpha virt. eigenvalues --    3.23104   3.24299   3.25859   3.28196   3.29425
 Alpha virt. eigenvalues --    3.29999   3.31335   3.33213   3.34102   3.35469
 Alpha virt. eigenvalues --    3.36571   3.38399   3.39400   3.40437   3.41343
 Alpha virt. eigenvalues --    3.42842   3.43729   3.45031   3.46317   3.47847
 Alpha virt. eigenvalues --    3.48472   3.49673   3.51682   3.53247   3.53299
 Alpha virt. eigenvalues --    3.54970   3.55780   3.56631   3.58670   3.60235
 Alpha virt. eigenvalues --    3.62375   3.63231   3.64692   3.65757   3.66621
 Alpha virt. eigenvalues --    3.67591   3.69874   3.72034   3.72430   3.73511
 Alpha virt. eigenvalues --    3.74430   3.75137   3.75313   3.76921   3.77624
 Alpha virt. eigenvalues --    3.80078   3.81230   3.82712   3.83787   3.85238
 Alpha virt. eigenvalues --    3.85488   3.87124   3.87259   3.88804   3.90520
 Alpha virt. eigenvalues --    3.91258   3.92422   3.93949   3.95249   3.96994
 Alpha virt. eigenvalues --    3.97745   3.98542   3.99277   4.00177   4.01255
 Alpha virt. eigenvalues --    4.01904   4.02872   4.03651   4.04026   4.05648
 Alpha virt. eigenvalues --    4.06769   4.07392   4.08570   4.09697   4.11165
 Alpha virt. eigenvalues --    4.13238   4.13597   4.14428   4.15149   4.15967
 Alpha virt. eigenvalues --    4.17688   4.18303   4.20578   4.21398   4.22561
 Alpha virt. eigenvalues --    4.24048   4.24812   4.25597   4.28378   4.28898
 Alpha virt. eigenvalues --    4.30471   4.33377   4.34031   4.35019   4.36535
 Alpha virt. eigenvalues --    4.37843   4.40191   4.44089   4.45405   4.45766
 Alpha virt. eigenvalues --    4.47850   4.50992   4.52859   4.54733   4.55998
 Alpha virt. eigenvalues --    4.59131   4.60442   4.62451   4.64447   4.65376
 Alpha virt. eigenvalues --    4.66035   4.68652   4.72390   4.73034   4.74405
 Alpha virt. eigenvalues --    4.75821   4.78731   4.80185   4.80369   4.81265
 Alpha virt. eigenvalues --    4.84776   4.84960   4.86370   4.90010   4.91227
 Alpha virt. eigenvalues --    4.93330   4.94517   4.95892   4.97122   4.99448
 Alpha virt. eigenvalues --    5.00748   5.03198   5.03867   5.06434   5.09136
 Alpha virt. eigenvalues --    5.10405   5.12240   5.12639   5.15415   5.17930
 Alpha virt. eigenvalues --    5.19656   5.22221   5.23581   5.25522   5.27509
 Alpha virt. eigenvalues --    5.27923   5.29046   5.30108   5.31468   5.34657
 Alpha virt. eigenvalues --    5.36436   5.40253   5.44075   5.45916   5.47959
 Alpha virt. eigenvalues --    5.50310   5.51203   5.54085   5.55045   5.56751
 Alpha virt. eigenvalues --    5.59146   5.63702   5.64954   5.74915   5.80033
 Alpha virt. eigenvalues --    5.80898   5.84522   5.87214   5.88142   5.90242
 Alpha virt. eigenvalues --    5.93729   6.02344   6.06739  11.05079  12.14442
 Alpha virt. eigenvalues --   12.44263  12.95176  13.27298  13.32502  14.08970
          Condensed to atoms (all electrons):
               1          2          3          4          5          6
     1  C    5.083374   0.296405  -0.050705   0.290892   0.008467  -0.039890
     2  C    0.296405   5.191559   0.298744  -0.036171  -0.056879  -0.029900
     3  C   -0.050705   0.298744   5.081193   0.004006   0.332874   0.000379
     4  C    0.290892  -0.036171   0.004006   5.036949  -0.000474   0.282214
     5  C    0.008467  -0.056879   0.332874  -0.000474   5.033145   0.000154
     6  C   -0.039890  -0.029900   0.000379   0.282214   0.000154   5.001669
     7  C   -0.000575   0.000058  -0.052949   0.000122   0.302593  -0.000331
     8  H   -0.052550   0.007523  -0.000102   0.422624  -0.000024  -0.048979
     9  H   -0.049587   0.004538  -0.000483   0.423134   0.000033  -0.047149
    10  H    0.426365  -0.065597  -0.007827  -0.050999   0.001286   0.005744
    11  H    0.419165  -0.046000   0.006778  -0.046377  -0.000641   0.006326
    12  H   -0.044425   0.416493  -0.047618  -0.008523  -0.006958  -0.018333
    13  H   -0.032973   0.400567  -0.041664   0.004367   0.000003   0.002141
    14  H   -0.006563  -0.040785   0.416265   0.000404  -0.041187  -0.000203
    15  H   -0.000627  -0.053668   0.407949  -0.001063  -0.037740   0.001048
    16  H   -0.000455   0.009771  -0.048390   0.000044   0.417043  -0.000009
    17  H   -0.000033  -0.006030  -0.038086  -0.000022   0.403184   0.000002
    18  H   -0.010120  -0.008533  -0.000976  -0.050068  -0.000184   0.409318
    19  H    0.006358   0.000003   0.000137  -0.047856  -0.000016   0.409716
    20  H    0.006658   0.000576  -0.000097  -0.046447   0.000013   0.408443
    21  H   -0.000039  -0.003971   0.004844   0.000000  -0.054767  -0.000082
    22  H    0.000314   0.001371  -0.005992   0.000059  -0.037781   0.000005
    23  H    0.000021   0.000043   0.007812  -0.000006  -0.039361   0.000008
               7          8          9         10         11         12
     1  C   -0.000575  -0.052550  -0.049587   0.426365   0.419165  -0.044425
     2  C    0.000058   0.007523   0.004538  -0.065597  -0.046000   0.416493
     3  C   -0.052949  -0.000102  -0.000483  -0.007827   0.006778  -0.047618
     4  C    0.000122   0.422624   0.423134  -0.050999  -0.046377  -0.008523
     5  C    0.302593  -0.000024   0.000033   0.001286  -0.000641  -0.006958
     6  C   -0.000331  -0.048979  -0.047149   0.005744   0.006326  -0.018333
     7  C    4.996777   0.000004  -0.000005  -0.000031   0.000024   0.005203
     8  H    0.000004   0.636581  -0.044214  -0.022119   0.007346   0.000404
     9  H   -0.000005  -0.044214   0.631763   0.008116  -0.023276   0.000004
    10  H   -0.000031  -0.022119   0.008116   0.614853  -0.040944   0.006615
    11  H    0.000024   0.007346  -0.023276  -0.040944   0.613065   0.005089
    12  H    0.005203   0.000404   0.000004   0.006615   0.005089   0.594752
    13  H   -0.001242  -0.000512   0.000235   0.005664  -0.019209  -0.040475
    14  H    0.008684   0.000012  -0.000024   0.001932   0.000564   0.007967
    15  H   -0.007078  -0.000154   0.000000  -0.000369   0.000009  -0.004544
    16  H   -0.042505  -0.000003  -0.000001  -0.000119   0.000028  -0.000270
    17  H   -0.044403   0.000000   0.000000   0.000025   0.000012  -0.000153
    18  H    0.000197   0.005048   0.006289   0.000247   0.000185  -0.008889
    19  H    0.000015   0.008012  -0.021883  -0.000604   0.000163   0.000187
    20  H   -0.000011  -0.021109   0.006982   0.000222  -0.000575   0.000621
    21  H    0.404340  -0.000006   0.000001  -0.000001  -0.000001  -0.000773
    22  H    0.400197  -0.000003  -0.000002  -0.000034  -0.000011  -0.006291
    23  H    0.406043   0.000000   0.000000   0.000006   0.000000   0.000243
              13         14         15         16         17         18
     1  C   -0.032973  -0.006563  -0.000627  -0.000455  -0.000033  -0.010120
     2  C    0.400567  -0.040785  -0.053668   0.009771  -0.006030  -0.008533
     3  C   -0.041664   0.416265   0.407949  -0.048390  -0.038086  -0.000976
     4  C    0.004367   0.000404  -0.001063   0.000044  -0.000022  -0.050068
     5  C    0.000003  -0.041187  -0.037740   0.417043   0.403184  -0.000184
     6  C    0.002141  -0.000203   0.001048  -0.000009   0.000002   0.409318
     7  C   -0.001242   0.008684  -0.007078  -0.042505  -0.044403   0.000197
     8  H   -0.000512   0.000012  -0.000154  -0.000003   0.000000   0.005048
     9  H    0.000235  -0.000024   0.000000  -0.000001   0.000000   0.006289
    10  H    0.005664   0.001932  -0.000369  -0.000119   0.000025   0.000247
    11  H   -0.019209   0.000564   0.000009   0.000028   0.000012   0.000185
    12  H   -0.040475   0.007967  -0.004544  -0.000270  -0.000153  -0.008889
    13  H    0.583558  -0.008649   0.008576  -0.000066   0.003594   0.001128
    14  H   -0.008649   0.571556  -0.033251  -0.006564  -0.005651  -0.000187
    15  H    0.008576  -0.033251   0.581607  -0.007029   0.008151  -0.000039
    16  H   -0.000066  -0.006564  -0.007029   0.601825  -0.033520   0.000004
    17  H    0.003594  -0.005651   0.008151  -0.033520   0.590659   0.000012
    18  H    0.001128  -0.000187  -0.000039   0.000004   0.000012   0.619192
    19  H   -0.000116   0.000002   0.000005   0.000000   0.000001  -0.036161
    20  H   -0.000005   0.000014   0.000026  -0.000001   0.000001  -0.037514
    21  H    0.000332   0.000247   0.003136  -0.002426   0.008232   0.000228
    22  H    0.000813  -0.000619   0.000302   0.007888  -0.009747   0.000169
    23  H   -0.000087  -0.000353  -0.000025  -0.011047  -0.001599   0.000031
              19         20         21         22         23
     1  C    0.006358   0.006658  -0.000039   0.000314   0.000021
     2  C    0.000003   0.000576  -0.003971   0.001371   0.000043
     3  C    0.000137  -0.000097   0.004844  -0.005992   0.007812
     4  C   -0.047856  -0.046447   0.000000   0.000059  -0.000006
     5  C   -0.000016   0.000013  -0.054767  -0.037781  -0.039361
     6  C    0.409716   0.408443  -0.000082   0.000005   0.000008
     7  C    0.000015  -0.000011   0.404340   0.400197   0.406043
     8  H    0.008012  -0.021109  -0.000006  -0.000003   0.000000
     9  H   -0.021883   0.006982   0.000001  -0.000002   0.000000
    10  H   -0.000604   0.000222  -0.000001  -0.000034   0.000006
    11  H    0.000163  -0.000575  -0.000001  -0.000011   0.000000
    12  H    0.000187   0.000621  -0.000773  -0.006291   0.000243
    13  H   -0.000116  -0.000005   0.000332   0.000813  -0.000087
    14  H    0.000002   0.000014   0.000247  -0.000619  -0.000353
    15  H    0.000005   0.000026   0.003136   0.000302  -0.000025
    16  H    0.000000  -0.000001  -0.002426   0.007888  -0.011047
    17  H    0.000001   0.000001   0.008232  -0.009747  -0.001599
    18  H   -0.036161  -0.037514   0.000228   0.000169   0.000031
    19  H    0.612597  -0.033235  -0.000003   0.000011  -0.000001
    20  H   -0.033235   0.607530   0.000083  -0.000014  -0.000001
    21  H   -0.000003   0.000083   0.581412  -0.041938  -0.026680
    22  H    0.000011  -0.000014  -0.041938   0.608975  -0.028866
    23  H   -0.000001  -0.000001  -0.026680  -0.028866   0.580907
 Mulliken charges:
               1
     1  C   -0.249477
     2  C   -0.280114
     3  C   -0.266093
     4  C   -0.176808
     5  C   -0.222784
     6  C   -0.342292
     7  C   -0.375129
     8  H    0.102218
     9  H    0.105528
    10  H    0.117569
    11  H    0.118279
    12  H    0.149672
    13  H    0.134018
    14  H    0.136387
    15  H    0.134779
    16  H    0.115802
    17  H    0.125373
    18  H    0.110624
    19  H    0.102668
    20  H    0.107840
    21  H    0.127830
    22  H    0.111196
    23  H    0.112912
 Sum of Mulliken charges =  -0.00000
 Mulliken charges with hydrogens summed into heavy atoms:
               1
     1  C   -0.013629
     2  C    0.003576
     3  C    0.005074
     4  C    0.030938
     5  C    0.018391
     6  C   -0.021160
     7  C   -0.023191
 APT charges:
               1
     1  C   -0.767642
     2  C   -0.437846
     3  C   -0.647394
     4  C   -0.965717
     5  C   -0.907462
     6  C   -1.001072
     7  C   -1.058090
     8  H    0.398803
     9  H    0.491931
    10  H    0.323362
    11  H    0.433083
    12  H    0.264382
    13  H    0.374699
    14  H    0.416202
    15  H    0.267731
    16  H    0.484882
    17  H    0.392237
    18  H    0.062196
    19  H    0.474931
    20  H    0.404558
    21  H    0.187131
    22  H    0.191118
    23  H    0.617979
 Sum of APT charges =  -0.00000
 APT charges with hydrogens summed into heavy atoms:
               1
     1  C   -0.011197
     2  C    0.201234
     3  C    0.036538
     4  C   -0.074982
     5  C   -0.030343
     6  C   -0.059388
     7  C   -0.061862
 Electronic spatial extent (au):  <R**2>=           1209.8683
 Charge=              0.0000 electrons
 Dipole moment (field-independent basis, Debye):
    X=             -0.0108    Y=             -0.1397    Z=              0.0200  Tot=              0.1415
 Quadrupole moment (field-independent basis, Debye-Ang):
   XX=            -49.1416   YY=            -49.9430   ZZ=            -48.3425
   XY=              0.0222   XZ=              0.3109   YZ=             -0.3385
 Traceless Quadrupole moment (field-independent basis, Debye-Ang):
   XX=              0.0008   YY=             -0.8007   ZZ=              0.7999
   XY=              0.0222   XZ=              0.3109   YZ=             -0.3385
 Octapole moment (field-independent basis, Debye-Ang**2):
  XXX=             -1.8142  YYY=             -3.4277  ZZZ=             -0.4319  XYY=             -0.2638
  XXY=             -0.1493  XXZ=              0.7412  XZZ=              1.6322  YZZ=             -0.3087
  YYZ=              0.4359  XYZ=              0.0605
 Hexadecapole moment (field-independent basis, Debye-Ang**3):
 XXXX=          -1206.0456 YYYY=           -388.1359 ZZZZ=           -133.1884 XXXY=             -3.4668
 XXXZ=              9.8662 YYYX=              2.1910 YYYZ=             -1.7626 ZZZX=             -1.8052
 ZZZY=             -2.3526 XXYY=           -268.4230 XXZZ=           -217.6759 YYZZ=            -82.8378
 XXYZ=             -0.9598 YYXZ=              0.8948 ZZXY=              1.3948
 N-N= 3.246981462107D+02 E-N=-1.287839459138D+03  KE= 2.745079568214D+02
  Exact polarizability:   0.000   0.000   0.000   0.000   0.000   0.000
 Approx polarizability:  98.595   0.190  96.951  -0.004   0.058  98.732
 No NMR shielding tensors so no spin-rotation constants.
 Leave Link  601 at Sat Sep 28 22:05:38 2019, MaxMem=   671088640 cpu:              57.3 elap:              28.7
 (Enter /shared/centos7/gaussian/g16/l701.exe)
 SCFChk:  SCF convergence  6.92D-09 required  1.00D-08
 ... and contract with generalized density number  0.
 Compute integral second derivatives.
 Entering OneElI...
 Calculate overlap and kinetic energy integrals
    NBasis = 485  MinDer = 2  MaxDer = 2
 Requested accuracy = 0.1000D-12
 PrmmSu-InSpLW:  IPartL=    0 NPrtUS=   20 NPrtUL=    1 DoSpLW=F IThBeg=    0 IThEnd=   19 NThAct=   20.
 PrsmSu:  NPrtUS=  20 ThrOK=T IAlg=1 NPAlg=1 LenDen=           0 ISkipM=0 DoSpLW=F IThBeg=    0 IThEnd=   19.
 Prism:   IPart=     0 DynPar=F LinDyn=F Incr=           6.
 PRISM was handed    33203227 working-precision words and 13633 shell-pairs
 PRISM was handed    33203227 working-precision words and 13633 shell-pairs
 PRISM was handed    33203227 working-precision words and 13633 shell-pairs
 PRISM was handed    33203227 working-precision words and 13633 shell-pairs
 PRISM was handed    33203227 working-precision words and 13633 shell-pairs
 PRISM was handed    33203227 working-precision words and 13633 shell-pairs
 PRISM was handed    33203227 working-precision words and 13633 shell-pairs
 PRISM was handed    33203227 working-precision words and 13633 shell-pairs
 PRISM was handed    33203227 working-precision words and 13633 shell-pairs
 PRISM was handed    33203227 working-precision words and 13633 shell-pairs
 PRISM was handed    33203227 working-precision words and 13633 shell-pairs
 PRISM was handed    33203227 working-precision words and 13633 shell-pairs
 PRISM was handed    33203227 working-precision words and 13633 shell-pairs
 PRISM was handed    33203227 working-precision words and 13633 shell-pairs
 PRISM was handed    33203227 working-precision words and 13633 shell-pairs
 PRISM was handed    33203227 working-precision words and 13633 shell-pairs
 IPart=  6 NShTot=         697 NBatch=          68 AvBLen=        10.3
 PRISM was handed    33203227 working-precision words and 13633 shell-pairs
 IPart= 18 NShTot=         657 NBatch=          50 AvBLen=        13.1
 IPart=  8 NShTot=         683 NBatch=          60 AvBLen=        11.4
 IPart= 10 NShTot=         674 NBatch=          57 AvBLen=        11.8
 PRISM was handed    33203227 working-precision words and 13633 shell-pairs
 IPart=  4 NShTot=         703 NBatch=          72 AvBLen=         9.8
 PRISM was handed    33203227 working-precision words and 13633 shell-pairs
 IPart=  0 NShTot=         717 NBatch=          81 AvBLen=         8.9
 PRISM was handed    33203227 working-precision words and 13633 shell-pairs
 IPart= 19 NShTot=         654 NBatch=          48 AvBLen=        13.6
 IPart= 17 NShTot=         659 NBatch=          51 AvBLen=        12.9
 IPart=  3 NShTot=         705 NBatch=          72 AvBLen=         9.8
 IPart=  5 NShTot=         701 NBatch=          71 AvBLen=         9.9
 IPart= 15 NShTot=         664 NBatch=          52 AvBLen=        12.8
 IPart=  1 NShTot=         714 NBatch=          79 AvBLen=         9.0
 IPart=  9 NShTot=         677 NBatch=          59 AvBLen=        11.5
 IPart= 14 NShTot=         665 NBatch=          52 AvBLen=        12.8
 IPart= 12 NShTot=         668 NBatch=          53 AvBLen=        12.6
 IPart= 16 NShTot=         659 NBatch=          51 AvBLen=        12.9
 IPart= 11 NShTot=         671 NBatch=          56 AvBLen=        12.0
 IPart= 13 NShTot=         666 NBatch=          52 AvBLen=        12.8
 IPart=  2 NShTot=         709 NBatch=          76 AvBLen=         9.3
 IPart=  7 NShTot=         690 NBatch=          62 AvBLen=        11.1
 PrSmSu:  NxtVal=            121.
 Entering OneElI...
 Calculate potential energy integrals
    NBasis = 485  MinDer = 2  MaxDer = 2
 Requested accuracy = 0.1000D-12
 PrmmSu-InSpLW:  IPartL=    0 NPrtUS=   20 NPrtUL=    1 DoSpLW=F IThBeg=    0 IThEnd=   19 NThAct=   20.
 PrsmSu:  NPrtUS=  20 ThrOK=T IAlg=1 NPAlg=1 LenDen=           0 ISkipM=0 DoSpLW=F IThBeg=    0 IThEnd=   19.
 Prism:   IPart=     0 DynPar=F LinDyn=F Incr=         140.
 PRISM was handed    33267837 working-precision words and 12182 shell-pairs
 PRISM was handed    33267837 working-precision words and 12182 shell-pairs
 PRISM was handed    33267837 working-precision words and 12182 shell-pairs
 PRISM was handed    33267837 working-precision words and 12182 shell-pairs
 PRISM was handed    33267837 working-precision words and 12182 shell-pairs
 PRISM was handed    33267837 working-precision words and 12182 shell-pairs
 PRISM was handed    33267837 working-precision words and 12182 shell-pairs
 PRISM was handed    33267837 working-precision words and 12182 shell-pairs
 PRISM was handed    33267837 working-precision words and 12182 shell-pairs
 PRISM was handed    33267837 working-precision words and 12182 shell-pairs
 PRISM was handed    33267837 working-precision words and 12182 shell-pairs
 PRISM was handed    33267837 working-precision words and 12182 shell-pairs
 PRISM was handed    33267837 working-precision words and 12182 shell-pairs
 PRISM was handed    33267837 working-precision words and 12182 shell-pairs
 PRISM was handed    33267837 working-precision words and 12182 shell-pairs
 PRISM was handed    33267837 working-precision words and 12182 shell-pairs
 PRISM was handed    33267837 working-precision words and 12182 shell-pairs
 PRISM was handed    33267837 working-precision words and 12182 shell-pairs
 PRISM was handed    33267837 working-precision words and 12182 shell-pairs
 PRISM was handed    33267837 working-precision words and 12182 shell-pairs
 IPart=  4 NShTot=       14421 NBatch=         629 AvBLen=        22.9
 IPart=  3 NShTot=       14513 NBatch=         633 AvBLen=        22.9
 IPart=  8 NShTot=       14053 NBatch=         612 AvBLen=        23.0
 IPart= 18 NShTot=       13409 NBatch=         584 AvBLen=        23.0
 IPart= 10 NShTot=       13961 NBatch=         608 AvBLen=        23.0
 IPart= 19 NShTot=       13363 NBatch=         582 AvBLen=        23.0
 IPart= 17 NShTot=       13455 NBatch=         586 AvBLen=        23.0
 IPart=  5 NShTot=       14421 NBatch=         629 AvBLen=        22.9
 IPart=  2 NShTot=       14536 NBatch=         634 AvBLen=        22.9
 IPart= 14 NShTot=       13731 NBatch=         598 AvBLen=        23.0
 IPart= 12 NShTot=       13823 NBatch=         602 AvBLen=        23.0
 IPart= 11 NShTot=       13869 NBatch=         604 AvBLen=        23.0
 IPart=  0 NShTot=       14674 NBatch=         640 AvBLen=        22.9
 IPart= 13 NShTot=       13777 NBatch=         600 AvBLen=        23.0
 IPart= 16 NShTot=       13501 NBatch=         588 AvBLen=        23.0
 IPart=  9 NShTot=       14053 NBatch=         612 AvBLen=        23.0
 IPart=  7 NShTot=       14099 NBatch=         614 AvBLen=        23.0
 IPart= 15 NShTot=       13616 NBatch=         593 AvBLen=        23.0
 IPart=  1 NShTot=       14605 NBatch=         637 AvBLen=        22.9
 IPart=  6 NShTot=       14306 NBatch=         624 AvBLen=        22.9
 PrSmSu:  NxtVal=           2801.
 Polarizability after L701:
                1             2             3 
      1  0.000000D+00
      2  0.000000D+00  0.000000D+00
      3  0.000000D+00  0.000000D+00  0.000000D+00
 Dipole Derivatives after L701:
                 1             2             3             4             5 
      1  -0.187402D+00  0.111520D+01 -0.152301D+00 -0.533078D-01 -0.130571D+00
      2   0.244121D+00 -0.133446D+01 -0.843087D-01 -0.232975D+00 -0.461012D+00
      3  -0.248533D+00  0.667847D-01 -0.781062D+00  0.150972D+00 -0.774918D-02
                 6             7             8             9            10 
      1   0.772259D-01 -0.689697D-01 -0.415438D+00 -0.404446D+00 -0.228618D+01
      2   0.482889D+00 -0.216536D-01 -0.109293D+01 -0.284037D+00  0.160379D+00
      3  -0.799219D+00  0.170449D+00  0.298513D-01 -0.780287D+00  0.500064D-01
                11            12            13            14            15 
      1   0.667151D+00  0.398062D+00 -0.172139D+01 -0.112089D+01 -0.862264D-02
      2   0.205748D+00 -0.345737D-01 -0.312072D+00 -0.199243D+00  0.103826D+00
      3  -0.700854D-01 -0.816716D+00 -0.152457D+00  0.635800D-01 -0.801755D+00
                16            17            18            19            20 
      1  -0.598188D+00 -0.161481D+01 -0.129048D+00 -0.993212D+00  0.146101D+01
      2   0.193788D-01 -0.145124D+01 -0.232954D-01  0.284803D-01 -0.117753D+01
      3  -0.584890D-01  0.810125D-01 -0.953788D+00 -0.154563D-01  0.191222D-01
                21            22            23            24            25 
      1   0.181761D+00  0.464700D+00 -0.164179D+00 -0.894028D+00  0.101955D+01
      2  -0.349902D-01 -0.125127D-01  0.177825D+00  0.846856D-01 -0.539338D-01
      3  -0.100353D+01 -0.146621D+00  0.789261D-01  0.553885D+00  0.168462D+00
                26            27            28            29            30 
      1  -0.191355D+00  0.723650D+00  0.138422D+00 -0.214608D+00 -0.357327D+00
      2   0.183444D+00 -0.630959D-01  0.366526D-01  0.431165D+00  0.493116D+00
      3  -0.418883D-01  0.272801D+00  0.578527D-02  0.156612D+00  0.400499D+00
                31            32            33            34            35 
      1   0.413495D+00 -0.370526D+00  0.436029D+00  0.185276D+00  0.409476D-01
      2  -0.214407D+00  0.493804D+00 -0.443250D+00  0.367402D-01  0.419528D+00
      3   0.128638D+00 -0.217395D+00  0.391950D+00  0.218981D-02  0.276536D+00
                36            37            38            39            40 
      1  -0.134714D-01  0.172497D+00  0.341718D-01 -0.665825D-01  0.213075D+00
      2   0.114806D-01  0.569627D-01  0.342126D+00 -0.359895D+00  0.101248D+00
      3   0.188341D+00 -0.807472D-01 -0.291369D+00  0.609475D+00  0.346709D-01
                41            42            43            44            45 
      1   0.413142D+00  0.450863D-01  0.925327D-01 -0.726251D-01  0.227580D+00
      2   0.879789D+00  0.547970D-01 -0.358814D-01  0.974861D-01  0.116443D+00
      3   0.184078D+00  0.155741D+00 -0.136050D+00 -0.189343D+00  0.613174D+00
                46            47            48            49            50 
      1   0.871514D+00  0.227706D+00  0.829522D+00  0.485756D+00  0.392514D+00
      2   0.114684D+00  0.187526D+00  0.163153D+00  0.968403D-01  0.267042D+00
      3   0.230597D+00  0.859458D-01  0.395607D+00 -0.123335D+00 -0.131018D+00
                51            52            53            54            55 
      1  -0.825852D+00 -0.135152D+00  0.895913D-01  0.584980D-01  0.685709D+00
      2  -0.238591D+00 -0.512476D+00  0.209800D+00  0.126132D+00  0.379372D+00
      3   0.423912D+00 -0.826181D-01 -0.371701D-02  0.111939D+00  0.201860D+00
                56            57            58            59            60 
      1   0.392852D+00  0.751014D+00  0.269679D+00  0.359623D+00 -0.751309D+00
      2   0.413079D+00  0.495444D+00  0.137688D+00  0.432658D+00 -0.589529D+00
      3   0.114605D+00  0.326005D+00 -0.115134D+00 -0.167777D+00  0.511337D+00
                61            62            63            64            65 
      1  -0.220286D+00 -0.311479D+00  0.367877D+00 -0.200700D+00 -0.183282D+00
      2   0.332199D+00  0.417663D+00 -0.403912D+00  0.241196D+00  0.255089D+00
      3  -0.174224D+00 -0.147878D+00  0.364016D+00  0.204022D+00  0.940033D-01
                66            67            68            69 
      1  -0.548694D+00  0.145259D+01 -0.404159D+00  0.553773D-01
      2   0.438218D+00 -0.590031D+00  0.302639D+00 -0.107064D-01
      3   0.518965D+00 -0.139878D-01  0.171627D-01  0.987113D-01
 Hessian after L701:
                1             2             3             4             5 
      1  0.147593D+02
      2 -0.421894D+00  0.163894D+02
      3  0.389921D+00  0.240823D+00  0.174847D+02
      4 -0.274093D+01 -0.926902D+00 -0.105325D+01  0.144379D+02
      5 -0.919950D+00 -0.602134D+01  0.196795D+00  0.766849D-01  0.177890D+02
      6 -0.104775D+01  0.191759D+00 -0.575268D+01 -0.413435D+00 -0.805855D-01
      7  0.391307D+00 -0.297507D-02  0.168516D+00 -0.365175D+01  0.521776D+00
      8 -0.141824D+00 -0.137579D+00 -0.764773D-02  0.573106D+00 -0.594724D+01
      9  0.688217D-01  0.171490D-01 -0.101861D+00  0.198626D+01  0.316789D+00
     10 -0.400865D+01  0.182179D+01 -0.474096D+00  0.326822D+00  0.921330D-01
     11  0.188934D+01 -0.422362D+01 -0.534583D+00  0.615847D-01 -0.757766D-01
     12 -0.457415D+00 -0.501626D+00 -0.557427D+01 -0.172036D+00 -0.284115D-01
     13  0.284777D+00 -0.646460D-01  0.118848D-01  0.295115D+00 -0.704060D-01
     14 -0.983389D-01 -0.124489D+00 -0.626022D-02 -0.103755D+00 -0.568204D-01
     15  0.117988D-01 -0.173179D-02 -0.141412D+00  0.207082D+00 -0.114136D-01
     16 -0.857163D-01  0.107077D+00 -0.237602D-01  0.434582D-01  0.186587D+00
     17  0.851267D-01  0.321863D+00 -0.248209D-01  0.300575D-01 -0.275951D-01
     18 -0.249767D-01 -0.354870D-01 -0.158412D+00 -0.369442D-01 -0.434759D-01
     19  0.654185D-01 -0.635983D-01  0.587506D-02  0.163442D+00 -0.300708D+00
     20 -0.588329D-01 -0.296976D-01 -0.261752D-02 -0.200262D+00 -0.483308D-01
     21 -0.184715D-04 -0.252986D-03 -0.746560D-01  0.728878D-01 -0.482626D-01
     22 -0.491747D-01 -0.112346D+00  0.873455D-01  0.892680D-01  0.296037D-01
     23 -0.911416D-01  0.763165D-01  0.626804D-01  0.131499D-01 -0.467007D-01
     24  0.748966D-01  0.760089D-01  0.141461D+00 -0.100132D+00 -0.231804D-01
     25 -0.172039D-01 -0.122930D+00  0.453524D-01  0.120888D+00  0.310342D-01
     26 -0.101915D+00  0.542802D-01 -0.669099D-02  0.101353D-01 -0.377633D-01
     27  0.549314D-01 -0.101754D-01  0.146873D+00  0.148673D-01  0.437298D-02
     28 -0.450993D+01  0.622515D-01  0.887611D-01  0.195653D-01  0.151417D+00
     29  0.151361D+00 -0.342263D+01  0.133291D+01  0.157294D+00  0.996088D-01
     30  0.196305D+00  0.126137D+01 -0.282282D+01  0.162395D+00 -0.788711D-01
     31 -0.402438D+01 -0.618520D+00  0.589873D+00 -0.647131D-01  0.992234D-01
     32 -0.593455D+00 -0.317016D+01 -0.107764D+01  0.923977D-01  0.623558D-01
     33  0.559991D+00 -0.105824D+01 -0.328386D+01  0.311761D-01 -0.324327D-01
     34 -0.221215D-01  0.159105D+00  0.912650D-01 -0.497663D+01 -0.229633D-01
     35  0.118651D+00  0.992379D-01 -0.668436D-01 -0.122222D-01 -0.212529D+01
     36  0.974177D-01 -0.897926D-01  0.635262D-01 -0.192793D-01  0.785825D+00
     37 -0.806521D-01  0.543941D-01  0.320504D-01 -0.434277D+01  0.220308D+00
     38  0.529444D-01  0.850991D-01 -0.681859D-01  0.243475D+00 -0.394827D+01
     39  0.235047D-01 -0.792551D-01  0.147911D+00 -0.533267D+00 -0.882294D+00
     40 -0.126938D-01 -0.349437D-02  0.236766D-01  0.284594D-01 -0.567254D-01
     41  0.740816D-02  0.894714D-02  0.152547D-01 -0.249686D-01  0.130477D+00
     42  0.132311D-01  0.329991D-02 -0.136039D-02 -0.741743D-01 -0.668228D-01
     43  0.335116D-01  0.147611D-01  0.215717D-01  0.104305D+00  0.828878D-02
     44 -0.612813D-02 -0.421475D-01 -0.480005D-02 -0.444637D-02  0.168195D+00
     45  0.559034D-01  0.193021D-01 -0.250450D-03 -0.138088D+00 -0.431744D-01
     46  0.113171D-01  0.554468D-02  0.557096D-02  0.153001D+00 -0.877433D-02
     47  0.186995D-02 -0.510602D-02  0.120529D-02  0.841978D-02 -0.544769D-01
     48  0.111544D-01  0.490918D-02 -0.209130D-02  0.106758D+00 -0.683760D-02
     49  0.241265D-01  0.628594D-02 -0.630135D-02  0.193733D-01 -0.258099D-02
     50  0.529664D-02 -0.788316D-02 -0.893752D-03  0.160228D-01 -0.127794D-01
[...]
 .01145529,0.00085551,-0.02290876,-0.29941937,0.03329280,0.00023291,0.0
 0033573,0.00020895,-0.00126217,-0.01389326,0.00259804,0.00007820,-0.00
 023852,0.00000446,0.00330287,0.00046956,-0.00174976,-0.00006227,0.0000
 0796,0.00004315,0.00017889,0.00008644,-0.00019075,-0.00051097,0.000638
 85,0.00047344,-0.00004473,0.00025301,0.00013422,-0.00157037,0.00070018
 ,-0.00141134,0.00012445,0.00064415,-0.00042095,0.02456264,0.32650767,0
 .00082893,0.00028522,-0.00011831,-0.00378301,-0.01703227,0.00096307,0.
 00378672,0.03446482,-0.05315441,-0.00005909,-0.00008097,-0.00017316,-0
 .00064633,-0.01344207,0.00097807,0.00006677,0.00059301,0.00001117,0.00
 176943,-0.00016597,-0.00067662,0.00005136,-0.00000233,0.00008281,0.000
 05450,0.00004955,0.00002952,0.00032262,0.00019617,0.00006563,0.0000379
 2,-0.00008622,-0.00009387,-0.00298723,-0.00130428,-0.00079098,0.000802
 97,-0.00028494,0.00070836,-0.00204663,-0.03465211,0.05471987,0.0017677
 4,-0.00022503,-0.00016408,-0.00015261,0.00596664,-0.02945644,-0.046493
 56,-0.00238866,0.01580790,-0.00024067,0.00010004,-0.00018953,-0.003476
 98,-0.00358551,0.02857709,-0.00108244,-0.00055667,0.00045991,0.0011453
 8,-0.00151542,0.00012701,0.00006311,-0.00005591,0.00010920,0.00009139,
 0.00002000,0.00008273,0.00018974,0.00038419,0.00038004,0.00036062,0.00
 008501,0.00018863,0.00113621,-0.00008853,0.00097045,-0.00493301,-0.002
 30875,-0.00297216,-0.00092206,-0.00048774,0.00273342,0.05693470,0.0003
 6548,0.00038227,0.00048147,0.00035471,0.00174696,-0.01103867,-0.002798
 76,-0.05659058,0.04539312,-0.00001859,0.00003203,-0.00020238,0.0017479
 7,0.00143822,-0.01562300,-0.00062670,0.00008616,0.00069924,-0.00050881
 ,0.00120246,-0.00149377,0.00002587,-0.00005770,0.00007262,-0.00002476,
 -0.00001652,-0.00001250,0.00001177,-0.00026016,0.00016450,0.00005546,-
 0.00015632,-0.00007883,0.00077405,0.00036300,-0.00006836,-0.00178568,0
 .00024248,-0.00152270,-0.00196227,-0.00560673,0.03192870,0.00312947,0.
 05899812,0.00042629,-0.00060658,0.00055787,-0.00016711,0.00272938,-0.0
 1557629,0.01406010,0.04377397,-0.29625350,-0.00063791,0.00005974,-0.00
 005808,0.00202889,0.00177379,-0.01272024,0.00104388,0.00154173,-0.0010
 6149,-0.00083719,0.00056474,0.00077780,-0.00002243,-0.00013153,0.00017
 043,0.00003452,0.00006698,-0.00001119,-0.00037454,0.00028312,0.0002410
 7,0.00009928,0.00010670,0.00019090,0.00022007,-0.00014743,0.00036006,-
 0.00265491,-0.00130746,-0.00000908,0.00032851,0.00128118,-0.00389106,-
 0.01811582,-0.04839847,0.32585165,-0.00092066,-0.00083992,-0.00117590,
 -0.00281001,0.00386051,0.00415494,-0.02333808,-0.01131319,-0.01203950,
 -0.00012997,0.00027710,-0.00007198,-0.21722761,-0.09397555,-0.08308103
 ,-0.00001602,-0.00007453,-0.00001122,0.00196503,0.00134309,0.00105633,
 -0.00006987,-0.00006800,0.00013293,0.00001920,-0.00002240,0.00000257,0
 .00003545,0.00005320,0.00004007,-0.00049668,0.00018158,0.00018223,0.00
 030811,-0.00012979,0.00014090,0.00029978,0.00012559,0.00001063,0.00102
 243,0.00031785,-0.00056019,0.00064502,-0.00046241,0.00043737,0.2377853
 1,0.00063222,0.00049764,0.00041686,0.00252863,-0.00115762,-0.00176370,
 0.01376797,0.00595951,0.00708934,0.00007977,-0.00014076,0.00000189,-0.
 09392434,-0.09653171,-0.04516646,0.00004961,-0.00000570,0.00000794,-0.
 02680674,-0.01814482,-0.01385042,0.00002251,0.00003719,-0.00006669,0.0
 0000833,0.00000542,0.00001243,-0.00005067,-0.00002235,-0.00002451,0.00
 019409,-0.00009068,-0.00006956,0.00022930,0.00014023,-0.00003746,-0.00
 019372,-0.00012031,-0.00011790,-0.00018034,0.00075421,0.00059728,-0.00
 067967,0.00021039,-0.00001858,0.09929057,0.11089796,0.00050098,-0.0000
 7976,0.00059210,0.00100965,-0.00098257,-0.00093801,0.01214714,0.005824
 33,0.00494508,-0.00006578,0.00003073,0.00005936,-0.08410232,-0.0454207
 8,-0.09084453,-0.00001094,0.00001378,0.00000430,0.00660883,0.00390674,
 0.00307761,-0.00001783,-0.00001057,0.00000456,0.00000059,0.00000082,-0
 .00000877,-0.00004234,-0.00000946,0.00000544,0.00018438,-0.00008789,-0
 .00009864,-0.00000572,0.00003004,-0.00008529,0.00028390,-0.00007500,0.
 00046259,-0.00074875,0.00035936,0.00041038,-0.00046188,0.00054172,0.00
 032431,0.09027221,0.04973613,0.09361598,0.00007725,0.00032355,-0.00024
 208,0.00175877,-0.00057755,0.00138836,-0.00286463,-0.00341256,0.028812
 10,0.00016958,-0.00013377,0.00003994,-0.04869808,-0.00215432,0.0078619
 5,-0.00004152,-0.00006439,0.00012919,-0.00034191,-0.00013767,-0.000842
 42,0.00002765,0.00004111,-0.00006051,-0.00002886,-0.00000469,-0.000015
 17,0.00007790,-0.00012050,-0.00007033,-0.00003466,-0.00004819,-0.00005
 168,-0.00010667,-0.00010234,-0.00005359,-0.00027894,0.00021985,-0.0007
 5915,0.00081627,-0.00012042,-0.00066236,-0.00423769,0.00264381,0.00211
 766,0.00113683,0.00398240,-0.02634752,0.05175906,-0.00015652,-0.000146
 59,0.00001965,-0.00079161,0.00015980,0.00010222,0.00120000,0.00172088,
 -0.01585269,-0.00007289,0.00001597,0.00000843,-0.00229620,-0.05144143,
 0.03292810,0.00007121,0.00000892,-0.00011722,-0.00101822,-0.00643885,0
 .03461283,0.00000054,-0.00000161,-0.00000928,0.00000703,0.00000215,0.0
 0001319,-0.00000237,0.00002205,-0.00003345,0.00001720,0.00003220,0.000
 02242,0.00006674,-0.00000479,0.00012928,0.00000111,0.00012585,0.000358
 93,-0.00067944,0.00018634,0.00005469,0.00287089,-0.00085215,-0.0008510
 1,0.00118393,0.00147906,-0.01440051,-0.00067460,0.05910110,-0.00000180
 ,-0.00031833,0.00036266,-0.00112466,0.00032539,0.00085296,0.00140874,0
 .00082689,-0.01353554,-0.00013855,0.00010276,0.00001920,0.00869391,0.0
 3412601,-0.29972945,-0.00005554,0.00005445,-0.00006920,0.00000174,0.00
 120655,-0.00560967,0.00000141,-0.00004425,0.00004514,0.00001701,0.0000
 1189,0.00001122,-0.00008756,0.00008238,-0.00000595,0.00012000,-0.00001
 171,-0.00000127,0.00014628,-0.00002626,-0.00003166,0.00090241,0.000199
 22,0.00057231,0.00011804,-0.00044685,0.00016706,0.00190642,-0.00173355
 ,0.00063557,-0.00000572,0.00124556,-0.01281884,-0.01177596,-0.03734597
 ,0.32686368,0.00089117,0.00002698,0.00110417,0.00004641,0.00034360,0.0
 0018918,0.00007425,0.00013895,0.00021193,-0.00769994,-0.01656962,-0.00
 941399,-0.00004033,0.00008600,-0.00009736,-0.08082508,-0.07654404,-0.0
 4320368,-0.00000080,0.00000496,0.00001693,0.00007675,-0.00031469,0.000
 66075,-0.00154735,0.00166372,-0.00318132,0.00036966,0.00049238,-0.0002
 6343,-0.00008391,0.00009846,0.00027657,-0.00011171,-0.00011341,-0.0000
 1421,-0.00002265,-0.00015722,-0.00002726,0.00001795,-0.00001842,-0.000
 08774,-0.00032229,0.00020626,0.00015411,0.00000077,-0.00001674,0.00001
 037,0.00004431,-0.00003736,-0.00002476,0.08602741,0.00025825,0.0015267
 0,-0.00003688,-0.00016008,-0.00035265,-0.00008821,-0.00038201,0.000205
 66,-0.00060850,0.00322599,0.00819522,0.00488642,0.00010336,-0.00010414
 ,0.00025665,-0.07639335,-0.22158136,-0.09991455,-0.00000126,-0.0000333
 0,-0.00002675,-0.00049352,0.00050819,-0.00057670,0.00121112,0.00078350
 ,0.00232874,0.00006167,-0.00005177,-0.00072331,0.00010935,0.00015211,-
 0.00015503,0.00006084,0.00013482,0.00004232,0.00008316,0.00011658,0.00
 003177,0.00002241,-0.00002288,0.00003879,0.00001345,-0.00011737,0.0003
 6851,0.00003926,0.00001235,-0.00001823,-0.00008812,0.00006152,0.000063
 22,0.08403950,0.23853915,0.00022685,-0.00169336,0.00129723,-0.00005116
 ,-0.00018130,-0.00030277,-0.00019141,0.00012219,-0.00050353,-0.0094739
 1,-0.02195860,-0.01378201,0.00014137,-0.00007624,0.00020997,-0.0427807
 7,-0.09924360,-0.10325862,-0.00003561,-0.00003751,0.00000752,0.0003301
 1,0.00035003,0.00092874,-0.00346808,0.00209307,-0.00362029,0.00034937,
 0.00088312,-0.00012335,0.00007102,0.00022789,0.00047348,-0.00013970,0.
 00021028,0.00011778,0.00010256,0.00012864,0.00002227,0.00004577,0.0000
 3392,0.00003613,0.00049859,-0.00025713,0.00009887,0.00001157,0.0000046
 9,-0.00001276,-0.00009423,0.00006271,0.00006458,0.05094035,0.10878095,
 0.11262512,0.00011666,-0.00054606,0.00042576,0.00019525,0.00041445,-0.
 00003844,-0.00037122,-0.00072252,0.00020816,-0.01561149,0.01062858,0.0
 0528069,0.00002397,-0.00009253,0.00015736,-0.20420942,0.11633705,0.061
 01045,0.00007739,-0.00006206,0.00007687,-0.00098018,0.00067037,-0.0036
 8623,0.00034658,-0.00043110,0.00030329,0.00001593,-0.00001197,-0.00009
 094,0.00005768,-0.00006472,-0.00004103,0.00015216,-0.00015923,-0.00024
 268,0.00002724,-0.00025148,-0.00004387,-0.00011729,-0.00006207,0.00011
 351,-0.00073523,-0.00107929,0.00096264,0.00001117,-0.00002183,0.000002
 20,-0.00003737,0.00002863,0.00001332,0.00982374,-0.00710654,-0.0034894
 7,0.22461741,0.00077295,-0.00007276,-0.00070954,0.00009444,0.00000288,
 0.00014353,-0.00006745,-0.00002387,0.00094631,0.00592685,-0.00529213,-
 0.00227993,-0.00025034,0.00013585,-0.00019601,0.11517074,-0.13249363,-
 0.04463936,0.00008768,-0.00001224,0.00015574,0.00064355,0.00081559,0.0
 0156249,-0.00048289,0.00060701,0.00037603,0.00000620,0.00000153,0.0000
 4783,-0.00017634,0.00010969,0.00008627,-0.00001322,0.00010399,0.000157
 17,-0.00016104,0.00010991,-0.00012193,0.00007460,0.00014587,-0.0003657
 4,-0.00094250,-0.00089756,-0.00020044,0.00001333,-0.00001131,0.0000197
 3,0.00011996,-0.00007726,-0.00010398,0.02063968,-0.01463547,-0.0073220
 2,-0.12741116,0.14075498,0.00038827,-0.00021214,0.00110673,0.00033864,
 0.00096424,-0.00032424,0.00064579,0.00014652,-0.00009037,-0.02198268,0
 .01588066,0.00931513,0.00006606,0.00010116,-0.00021155,0.06154745,-0.0
 4571536,-0.07026815,-0.00001441,0.00008008,0.00021369,-0.00340164,0.00
 194597,-0.00424275,0.00076312,-0.00054772,0.00129448,0.00003405,-0.000
 00730,-0.00009686,0.00006092,-0.00032228,0.00015970,0.00004935,-0.0003
 5957,-0.00081252,-0.00008281,-0.00021694,0.00013460,-0.00009834,-0.000
 04705,-0.00006369,0.00046969,0.00051250,-0.00038761,-0.00003046,-0.000
 01682,0.00001046,0.00004341,-0.00000315,-0.00001682,0.01164164,-0.0070
 7302,-0.00527617,-0.06557295,0.04790093,0.07644900,-0.00269113,0.00065
 238,-0.00294445,-0.00024333,0.00005138,-0.00016604,-0.00030219,-0.0001
 0761,-0.00068868,0.01179759,0.01218460,-0.01428378,0.00016336,-0.00011
 194,0.00024703,-0.12695825,-0.07832170,0.09702586,-0.00006107,0.000024
 85,-0.00006439,0.00099514,-0.00005233,0.00077086,0.00061093,-0.0004458
 8,0.00077681,-0.00007358,0.00008235,0.00006795,0.00042212,0.00071673,-
 0.00090379,0.00003692,-0.00013184,-0.00012349,0.00012670,-0.00009580,0
 .00008254,-0.00006529,-0.00008156,0.00021460,0.00014029,-0.00004033,0.
 00073740,-0.00000524,-0.00000800,-0.00001171,-0.00011085,0.00006357,0.
 00007475,-0.00675735,-0.00459023,0.00700703,-0.01337768,-0.01397909,0.
 01521518,0.13630713,0.00234136,0.00040458,0.00127089,0.00006312,-0.000
 00693,-0.00009658,-0.00010121,0.00022622,-0.00020138,-0.00462801,-0.00
 551184,0.00468070,0.00002358,-0.00003559,0.00004599,-0.07773902,-0.122
 31509,0.09196666,0.00000581,-0.00003587,0.00005869,-0.00006708,-0.0001
 6230,-0.00021580,0.00031982,0.00044152,-0.00008157,0.00013200,0.000431
 69,-0.00029251,-0.00037618,-0.00014097,0.00070466,-0.00001726,0.000130
 11,0.00017546,-0.00007004,0.00012219,0.00001845,0.00003765,0.00005414,
 -0.00008267,0.00000188,-0.00013831,-0.00000763,-0.00001401,0.00000747,
 -0.00000488,-0.00001168,0.00002166,0.00001223,-0.01394664,-0.01336681,
 0.01782086,0.00985367,0.01068618,-0.01288522,0.08422161,0.12914634,-0.
 00471619,0.00021769,-0.00308536,-0.00046176,0.00005732,0.00038092,-0.0
 0023440,-0.00000015,-0.00006798,0.01528811,0.01331196,-0.01642642,0.00
 001564,0.00002476,0.00012142,0.09585029,0.09177748,-0.16128062,0.00003
 157,-0.00002803,-0.00001353,-0.00001111,-0.00001407,0.00126902,0.00045
 200,-0.00072697,0.00034725,-0.00002235,0.00009583,0.00018108,0.0007873
 8,0.00113793,-0.00111168,0.00002127,-0.00006561,0.00019599,0.00004155,
 0.00001211,-0.00001921,0.00002368,0.00001499,-0.00005406,0.00002377,-0
 .00005821,0.00002706,0.00005553,-0.00001708,-0.00000389,-0.00002912,0.
 00000404,0.00001210,-0.00887081,-0.00760765,0.01098842,0.00484799,0.00
 467277,-0.00678910,-0.10309758,-0.10284632,0.17532466,0.00006603,0.000
 03789,0.00000435,-0.00020915,-0.00007571,0.00015687,0.00047016,0.00019
 393,-0.00122104,0.00000683,-0.00002955,-0.00007894,-0.00070941,0.00037
 996,-0.00066109,-0.00018141,0.00014239,0.00008254,-0.04931060,-0.00327
 383,0.01895562,0.00003417,-0.00002898,0.00004045,-0.00000247,0.0000067
 3,0.00000712,-0.00001371,0.00001577,0.00000705,0.00000963,-0.00001256,
 0.00001681,0.00005259,-0.00012550,-0.00006371,0.00006004,-0.00013905,0
 .00006662,-0.00003839,-0.00008280,0.00006364,0.00012959,0.00011492,0.0
 0013736,-0.00011941,0.00001277,0.00046088,0.00079776,0.00032570,-0.000
 17409,0.00004347,-0.00003728,-0.00000850,-0.00008225,-0.00001363,0.000
 01967,0.00005628,-0.00002937,-0.00001427,0.04772373,0.00007496,0.00004
 404,0.00000155,0.00016075,-0.00002520,-0.00009899,-0.00101791,0.002065
 29,0.00129350,0.00000376,-0.00001855,0.00001936,-0.00158559,-0.0063865
 9,0.03440385,0.00001676,-0.00002302,-0.00002081,-0.00303553,-0.0512422
 9,0.03599297,-0.00000762,0.00000746,-0.00001294,-0.00000833,-0.0000005
 9,-0.00001572,0.00001040,-0.00000387,0.00000853,0.00000172,-0.00000277
 ,-0.00000818,0.00004735,-0.00000587,0.00000008,-0.00018564,-0.00003165
 ,-0.00013149,-0.00034586,0.00033038,-0.00030159,0.00044392,-0.00007444
 ,-0.00094362,-0.00036627,0.00131240,-0.00046681,0.00031643,-0.00675737
 ,0.00112933,0.00002181,-0.00003508,-0.00001554,0.00006443,0.00010237,-
 0.00000046,-0.00003779,0.00000971,0.00000889,0.00301072,0.05792458,0.0
 0004288,0.00003184,-0.00005472,-0.00022259,0.00009346,0.00008130,0.000
 16391,-0.00083007,0.00082414,0.00000161,0.00002986,-0.00010938,0.00058
 863,0.00155441,-0.00700129,-0.00012211,0.00010643,0.00005424,0.0191081
 6,0.03665682,-0.30408996,0.00001636,-0.00003369,0.00006199,-0.00000304
 ,-0.00000227,0.00001070,-0.00002004,0.00000983,0.00001236,-0.00003989,
 -0.00000377,0.00002855,-0.00005569,0.00015740,-0.00024981,0.00008035,-
 0.00007901,0.00007974,-0.00003188,-0.00005976,0.00036322,-0.00069063,0
 .00050234,0.00026854,0.00021585,0.00038146,0.00043979,0.00037988,0.001
 34908,0.00147523,0.00002444,-0.00003827,-0.00002292,-0.00006424,-0.000
 02570,0.00003274,0.00004179,-0.00003590,-0.00000285,-0.02136299,-0.042
 45075,0.33054746,0.00014049,0.00018879,0.00008750,-0.00090079,-0.00020
 337,-0.00016213,0.00012872,-0.00024059,0.00046702,0.00002129,-0.000004
 91,-0.00001646,0.00171874,0.00032088,0.00160796,-0.00005050,0.00003190
 ,-0.00001575,-0.19651108,-0.09836181,-0.09089301,0.00000784,0.00000108
 ,-0.00000504,-0.00000100,0.00000400,-0.00000064,-0.00007026,0.00005432
 ,0.00002293,0.00005144,-0.00001522,-0.00000884,-0.00156941,0.00212559,
 0.00002683,0.00002446,-0.00000459,-0.00009393,0.00004884,-0.00016338,-
 0.00007483,-0.00001614,0.00000415,0.00003873,0.00117742,0.00071753,0.0
 0040212,0.00017980,-0.00050089,0.00029357,0.00000770,0.00000290,0.0000
 0453,0.00007469,-0.00008543,-0.00003857,0.00002538,-0.00000593,-0.0000
 1027,0.00252949,0.00268226,0.00172001,0.21358323,0.00029375,0.00032945
 ,0.00007395,-0.00000375,-0.00042791,0.00000732,-0.00087978,0.00108288,
 -0.00023367,0.00002423,0.00003658,-0.00004199,-0.02569210,-0.01605169,
 -0.01540219,0.00001400,-0.00002476,-0.00001488,-0.09736882,-0.11034682
 ,-0.05922750,-0.00003186,-0.00000131,0.00003262,0.00003643,-0.00000221
 ,-0.00000336,-0.00019256,0.00011958,0.00008409,-0.00001012,0.00002255,
 0.00000080,0.00152645,0.00017424,-0.00008335,0.00001805,-0.00000630,0.
 00004120,0.00017696,0.00021171,0.00015321,0.00013650,-0.00007214,0.000
 00553,0.00094838,-0.00638130,0.00180640,0.00010928,0.00158935,0.000212
 55,-0.00001450,0.00003129,0.00002531,0.00002349,-0.00001745,-0.0000938
 6,-0.00000431,0.00000605,0.00003236,0.00440178,0.00171601,0.00176838,0
 .10717809,0.12173259,0.00009248,0.00018603,-0.00003446,-0.00038143,-0.
 00061239,0.00023549,-0.00054007,-0.00054234,-0.00014557,0.00002860,-0.
 00002996,-0.00001450,0.00733649,0.00417370,0.00352259,0.00015310,-0.00
 007600,-0.00000731,-0.09087214,-0.06002702,-0.10335883,-0.00001755,0.0
 0003380,-0.00000599,0.00004271,0.00000606,0.00001746,-0.00006103,0.000
 07372,0.00003027,-0.00001500,0.00001561,-0.00000622,0.00007939,0.00046
 836,0.00034549,0.00005589,0.00016850,-0.00023197,0.00016381,-0.0000372
 6,0.00001373,-0.00005759,-0.00001037,0.00002779,0.00006442,0.00221316,
 0.00076005,0.00055802,-0.00054076,0.00056130,-0.00005722,0.00007555,0.
 00003499,-0.00009224,-0.00003576,-0.00011244,-0.00002194,0.00001994,0.
 00001380,-0.02488449,-0.01571051,-0.01368174,0.10022212,0.06391553,0.1
 0740371,0.00013805,0.00015447,0.00003092,0.00003467,-0.00037242,0.0001
 0264,0.00089477,-0.00012331,-0.00036088,0.00001987,0.00002775,-0.00002
 826,0.00093498,-0.00155119,-0.00073369,0.00006561,-0.00006527,-0.00001
 016,-0.24975173,0.09192676,0.07316791,-0.00003451,0.00001334,0.0000208
 1,0.00002286,-0.00000962,-0.00000102,-0.00009282,0.00004838,0.00003280
 ,-0.00003368,0.00002079,-0.00000277,0.00029636,0.00035015,0.00001808,-
 0.00000819,0.00010632,-0.00006105,-0.00009878,-0.00007223,0.00006103,0
 .00000889,-0.00012631,-0.00001690,0.00072702,0.00036636,-0.00006847,-0
 .00006400,0.00039355,-0.00030898,-0.00001217,0.00002111,0.00000371,-0.
 00001775,0.00003313,-0.00006138,-0.00003587,0.00000592,0.00002909,-0.0
 0131300,-0.00026474,0.00022924,-0.02060035,0.00931042,0.00820367,0.268
 91976,0.00015594,0.00014370,0.00001696,-0.00071218,-0.00048238,-0.0002
 6743,-0.00196076,-0.00643639,0.00265857,0.00001497,-0.00002284,0.00005
 875,0.02928058,-0.01237531,-0.01166925,0.00006334,-0.00002774,-0.00004
 578,0.09062823,-0.08672898,-0.03265926,0.00000851,0.00001878,-0.000030
 33,0.00002747,0.00002631,-0.00000904,-0.00007928,0.00011828,0.00005785
 ,0.00007871,0.00001585,0.00000142,0.00015384,0.00040596,0.00000205,0.0
 0006230,0.00005598,0.00002144,0.00179965,-0.00105346,-0.00056029,-0.00
 031759,0.00013790,0.00005738,-0.00036830,0.00129273,-0.00071330,-0.000
 10560,0.00119322,0.00043247,-0.00002964,0.00003372,0.00004164,0.000001
 89,-0.00004214,-0.00003117,0.00001095,0.00002584,-0.00000402,-0.004794
 30,0.00109507,0.00091789,-0.01372538,0.00627962,0.00627242,-0.10019336
 ,0.09632626,0.00004452,0.00012086,0.00001189,-0.00010129,-0.00006142,0
 .00016659,0.00015592,0.00096742,-0.00012388,0.00002163,-0.00001733,-0.
 00008913,-0.00752971,0.00297660,0.00158975,-0.00010026,0.00009781,0.00
 005511,0.07327559,-0.03313926,-0.07376981,0.00002066,-0.00001272,0.000
 03816,0.00000638,-0.00000055,0.00001532,-0.00007138,0.00000643,-0.0000
 0062,-0.00001076,-0.00000496,0.00001310,0.00009209,0.00019064,-0.00011
 414,0.00002367,0.00002534,-0.00001146,-0.00011756,0.00010478,0.0004671
 3,-0.00022673,0.00020173,0.00043661,0.00019845,-0.00055757,0.00009871,
 -0.00032641,-0.00051150,0.00017539,0.00001133,-0.00000583,-0.00000268,
 -0.00004016,-0.00006838,-0.00002425,0.00004405,-0.00002406,-0.00000701
 ,0.02845015,-0.01268064,-0.00906735,-0.01357387,0.00694158,0.00463237,
 -0.08024634,0.03545104,0.07551019\\0.00000015,0.00000029,-0.00000031,0
 .00000066,0.00000007,-0.00000023,0.00000036,-0.00000017,0.00000082,-0.
 00000009,0.00000043,-0.00000080,0.00000053,-0.00000014,0.00000123,-0.0
 0000143,-0.00000018,-0.00000144,0.00000019,-0.00000019,0.00000102,-0.0
 0000034,0.00000036,-0.00000165,-0.00000011,0.00000026,-0.00000156,0.00
 000038,0.00000022,-0.00000035,0.00000068,0.00000048,-0.00000093,0.0000
 0047,0.00000039,-0.00000046,0.00000133,0.00000071,-0.00000003,0.000000
 47,-0.00000001,0.00000107,-0.00000024,-0.00000029,0.00000044,0.0000003
 2,-0.00000040,0.00000182,0.00000107,0.00000009,0.00000131,-0.00000119,
 -0.00000029,-0.00000065,-0.00000106,-0.00000036,-0.00000037,-0.0000017
 7,-0.00000031,-0.00000142,-0.00000060,-0.00000051,0.00000079,0.0000000
 1,-0.00000007,0.00000036,0.00000021,-0.00000039,0.00000135\\\@


 Just remember, when you're over the hill, you begin to pick up speed.
 -- Charles Schulz
 Job cpu time:       0 days  5 hours 32 minutes  4.6 seconds.
 Elapsed time:       0 days  2 hours 46 minutes  3.7 seconds.
 File lengths (MBytes):  RWF=   1488 Int=      0 D2E=      0 Chk=     32 Scr=     32
 Normal termination of Gaussian 16 at Sun Sep 29 11:33:22 2019.
