 Entering Gaussian System, Link 0=g16
 Input=tight/species/CCCCCCC/conformers/CCCCCCC_810.com
 Output=tight/species/CCCCCCC/conformers/CCCCCCC_810.log
 Initial command:
 /shared/centos7/gaussian/g16/l1.exe "/scratch/harms.n/gauss_scrdir/Gau-13536.inp" -scrdir="/scratch/harms.n/gauss_scrdir/"
 Entering Link 1 = /shared/centos7/gaussian/g16/l1.exe PID=     13537.
  
 Copyright (c) 1988,1990,1992,1993,1995,1998,2003,2009,2016,
            Gaussian, Inc.  All Rights Reserved.
  
 This is part of the Gaussian(R) 16 program.  It is based on
 the Gaussian(R) 09 system (copyright 2009, Gaussian, Inc.),
 the Gaussian(R) 03 system (copyright 2003, Gaussian, Inc.),
 the Gaussian(R) 98 system (copyright 1998, Gaussian, Inc.),
 the Gaussian(R) 94 system (copyright 1995, Gaussian, Inc.),
 the Gaussian 92(TM) system (copyright 1992, Gaussian, Inc.),
 the Gaussian 90(TM) system (copyright 1990, Gaussian, Inc.),
 the Gaussian 88(TM) system (copyright 1988, Gaussian, Inc.),
 the Gaussian 86(TM) system (copyright 1986, Carnegie Mellon
 University), and the Gaussian 82(TM) system (copyright 1983,
 Carnegie Mellon University). Gaussian is a federally registered
 trademark of Gaussian, Inc.
  
 This software contains proprietary and confidential information,
 including trade secrets, belonging to Gaussian, Inc.
  
 This software is provided under written license and may be
 used, copied, transmitted, or stored only in accord with that
 written license.
  
 The following legend is applicable only to US Government
 contracts under FAR:
  
                    RESTRICTED RIGHTS LEGEND
  
 Use, reproduction and disclosure by the US Government is
 subject to restrictions as set forth in subparagraphs (a)
 and (c) of the Commercial Computer Software - Restricted
 Rights clause in FAR 52.227-19.
  
 Gaussian, Inc.
 340 Quinnipiac St., Bldg. 40, Wallingford CT 06492
  
  
 ---------------------------------------------------------------
 Warning -- This program may not be used in any manner that
 competes with the business of Gaussian, Inc. or will provide
 assistance to any competitor of Gaussian, Inc.  The licensee
 of this program is prohibited from giving any competitor of
 Gaussian, Inc. access to this program.  By using this program,
 the user acknowledges that Gaussian, Inc. is engaged in the
 business of creating and licensing software in the field of
 computational chemistry and represents and warrants to the
 licensee that it is not a competitor of Gaussian, Inc. and that
 it will not use this program in any manner prohibited above.
 ---------------------------------------------------------------
  

 Cite this work as:
 Gaussian 16, Revision A.03,
 M. J. Frisch, G. W. Trucks, H. B. Schlegel, G. E. Scuseria, 
 M. A. Robb, J. R. Cheeseman, G. Scalmani, V. Barone, 
 G. A. Petersson, H. Nakatsuji, X. Li, M. Caricato, A. V. Marenich, 
 J. Bloino, B. G. Janesko, R. Gomperts, B. Mennucci, H. P. Hratchian, 
 J. V. Ortiz, A. F. Izmaylov, J. L. Sonnenberg, D. Williams-Young, 
 F. Ding, F. Lipparini, F. Egidi, J. Goings, B. Peng, A. Petrone, 
 T. Henderson, D. Ranasinghe, V. G. Zakrzewski, J. Gao, N. Rega, 
 G. Zheng, W. Liang, M. Hada, M. Ehara, K. Toyota, R. Fukuda, 
 J. Hasegawa, M. Ishida, T. Nakajima, Y. Honda, O. Kitao, H. Nakai, 
 T. Vreven, K. Throssell, J. A. Montgomery, Jr., J. E. Peralta, 
 F. Ogliaro, M. J. Bearpark, J. J. Heyd, E. N. Brothers, K. N. Kudin, 
 V. N. Staroverov, T. A. Keith, R. Kobayashi, J. Normand, 
 K. Raghavachari, A. P. Rendell, J. C. Burant, S. S. Iyengar, 
 J. Tomasi, M. Cossi, J. M. Millam, M. Klene, C. Adamo, R. Cammi, 
 J. W. Ochterski, R. L. Martin, K. Morokuma, O. Farkas, 
 J. B. Foresman, and D. J. Fox, Gaussian, Inc., Wallingford CT, 2016.
 
 ******************************************
 Gaussian 16:  EM64L-G16RevA.03 25-Dec-2016
                28-Sep-2019 
 ******************************************
 %nprocshared=20
 Will use up to   20 processors via shared memory.
 %mem=5GB
 ----------------------------------------------------------------------
 #p m062x/cc-pVTZ opt=(calcfc,maxcycles=900,Tight) freq IOP(7/33=1,2/16
 =3) scf=(maxcycle=900)
 ----------------------------------------------------------------------
 1/6=900,7=10,10=4,18=20,19=15,26=3,38=1/1,3;
 2/9=110,12=2,16=3,17=6,18=5,40=1/2;
 3/5=16,6=1,11=2,25=1,30=1,71=2,74=-55,140=1/1,2,3;
 4//1;
 5/5=2,7=900,38=5/2;
 8/6=4,10=90,11=11/1;
 11/6=1,8=1,9=11,15=111,16=1/1,2,10;
 10/6=1,13=1/2;
 6/7=2,8=2,9=2,10=2,28=1/1;
 7/10=1,18=20,25=1,33=1/1,2,3,16;
 1/6=900,7=10,10=4,18=20,19=15,26=3/3(2);
 2/9=110,16=3/2;
 99//99;
 2/9=110,16=3/2;
 3/5=16,6=1,11=2,25=1,30=1,71=1,74=-55/1,2,3;
 4/5=5,16=3,69=1/1;
 5/5=2,7=900,38=5/2;
 7/33=1/1,2,3,16;
 1/6=900,7=10,18=20,19=15,26=3/3(-5);
 2/9=110,16=3/2;
 6/7=2,8=2,9=2,10=2,19=2,28=1/1;
 99/9=1/99;
 Leave Link    1 at Sat Sep 28 19:15:23 2019, MaxMem=   671088640 cpu:               4.1 elap:               2.1
 (Enter /shared/centos7/gaussian/g16/l101.exe)
 ------------------------------
 Gaussian input prepared by ASE
 ------------------------------
 Symbolic Z-matrix:
 Charge =  0 Multiplicity = 1
 C                     1.38593  -1.15571   0.51396 
 C                     0.16224  -0.40697   0.91884 
 C                    -0.6298   -1.0823    2.01043 
 C                     2.1535   -0.52229  -0.59719 
 C                    -0.72302  -0.29196   3.29432 
 C                     2.64223   0.83954  -0.32124 
 C                    -0.1185   -0.97137   4.49552 
 H                     1.50916  -0.51268  -1.52124 
 H                     3.01204  -1.187    -0.85569 
 H                     1.09745  -2.18242   0.20378 
 H                     2.04703  -1.28232   1.39575 
 H                    -0.4843   -0.26998   0.03799 
 H                     0.45265   0.61747   1.23419 
 H                    -0.20034  -2.07747   2.21618 
 H                    -1.65492  -1.28191   1.6357 
 H                    -0.22964   0.70562   3.15672 
 H                    -1.78149  -0.06746   3.50998 
 H                     2.32107   1.20182   0.67349 
 H                     3.77126   0.88588  -0.34716 
 H                     2.27099   1.56781  -1.0731 
 H                     0.76121  -1.56042   4.2334 
 H                    -0.86479  -1.65833   4.98235 
 H                     0.19011  -0.20514   5.26334 
 
 ITRead=  0  0  0  0  0  0  0  0  0  0  0  0  0  0  0  0  0  0  0  0
 ITRead=  0  0  0
 MicOpt= -1 -1 -1 -1 -1 -1 -1 -1 -1 -1 -1 -1 -1 -1 -1 -1 -1 -1 -1 -1
 MicOpt= -1 -1 -1
 NAtoms=     23 NQM=       23 NQMF=       0 NMMI=      0 NMMIF=      0
                NMic=       0 NMicF=      0.
                    Isotopes and Nuclear Properties:
 (Nuclear quadrupole moments (NQMom) in fm**2, nuclear magnetic moments (NMagM)
  in nuclear magnetons)

  Atom         1           2           3           4           5           6           7           8           9          10
 IAtWgt=          12          12          12          12          12          12          12           1           1           1
 AtmWgt=  12.0000000  12.0000000  12.0000000  12.0000000  12.0000000  12.0000000  12.0000000   1.0078250   1.0078250   1.0078250
 NucSpn=           0           0           0           0           0           0           0           1           1           1
 AtZEff=  -0.0000000  -0.0000000  -0.0000000  -0.0000000  -0.0000000  -0.0000000  -0.0000000  -0.0000000  -0.0000000  -0.0000000
 NQMom=    0.0000000   0.0000000   0.0000000   0.0000000   0.0000000   0.0000000   0.0000000   0.0000000   0.0000000   0.0000000
 NMagM=    0.0000000   0.0000000   0.0000000   0.0000000   0.0000000   0.0000000   0.0000000   2.7928460   2.7928460   2.7928460
 AtZNuc=   6.0000000   6.0000000   6.0000000   6.0000000   6.0000000   6.0000000   6.0000000   1.0000000   1.0000000   1.0000000

  Atom        11          12          13          14          15          16          17          18          19          20
 IAtWgt=           1           1           1           1           1           1           1           1           1           1
 AtmWgt=   1.0078250   1.0078250   1.0078250   1.0078250   1.0078250   1.0078250   1.0078250   1.0078250   1.0078250   1.0078250
 NucSpn=           1           1           1           1           1           1           1           1           1           1
 AtZEff=  -0.0000000  -0.0000000  -0.0000000  -0.0000000  -0.0000000  -0.0000000  -0.0000000  -0.0000000  -0.0000000  -0.0000000
 NQMom=    0.0000000   0.0000000   0.0000000   0.0000000   0.0000000   0.0000000   0.0000000   0.0000000   0.0000000   0.0000000
 NMagM=    2.7928460   2.7928460   2.7928460   2.7928460   2.7928460   2.7928460   2.7928460   2.7928460   2.7928460   2.7928460
 AtZNuc=   1.0000000   1.0000000   1.0000000   1.0000000   1.0000000   1.0000000   1.0000000   1.0000000   1.0000000   1.0000000

  Atom        21          22          23
 IAtWgt=           1           1           1
 AtmWgt=   1.0078250   1.0078250   1.0078250
 NucSpn=           1           1           1
 AtZEff=  -0.0000000  -0.0000000  -0.0000000
 NQMom=    0.0000000   0.0000000   0.0000000
 NMagM=    2.7928460   2.7928460   2.7928460
 AtZNuc=   1.0000000   1.0000000   1.0000000
 Leave Link  101 at Sat Sep 28 19:15:25 2019, MaxMem=   671088640 cpu:               5.5 elap:               2.8
 (Enter /shared/centos7/gaussian/g16/l103.exe)

 GradGradGradGradGradGradGradGradGradGradGradGradGradGradGradGradGradGrad
 Berny optimization.
 Initialization pass.
                           ----------------------------
                           !    Initial Parameters    !
                           ! (Angstroms and Degrees)  !
 --------------------------                            --------------------------
 ! Name  Definition              Value          Derivative Info.                !
 --------------------------------------------------------------------------------
 ! R1    R(1,2)                  1.4906         calculate D2E/DX2 analytically  !
 ! R2    R(1,4)                  1.4917         calculate D2E/DX2 analytically  !
 ! R3    R(1,10)                 1.1107         calculate D2E/DX2 analytically  !
 ! R4    R(1,11)                 1.1093         calculate D2E/DX2 analytically  !
 ! R5    R(2,3)                  1.5083         calculate D2E/DX2 analytically  !
 ! R6    R(2,12)                 1.1012         calculate D2E/DX2 analytically  !
 ! R7    R(2,13)                 1.1105         calculate D2E/DX2 analytically  !
 ! R8    R(3,5)                  1.5105         calculate D2E/DX2 analytically  !
 ! R9    R(3,14)                 1.1032         calculate D2E/DX2 analytically  !
 ! R10   R(3,15)                 1.1096         calculate D2E/DX2 analytically  !
 ! R11   R(4,6)                  1.473          calculate D2E/DX2 analytically  !
 ! R12   R(4,8)                  1.1266         calculate D2E/DX2 analytically  !
 ! R13   R(4,9)                  1.1161         calculate D2E/DX2 analytically  !
 ! R14   R(5,7)                  1.5066         calculate D2E/DX2 analytically  !
 ! R15   R(5,16)                 1.1214         calculate D2E/DX2 analytically  !
 ! R16   R(5,17)                 1.1033         calculate D2E/DX2 analytically  !
 ! R17   R(6,18)                 1.1063         calculate D2E/DX2 analytically  !
 ! R18   R(6,19)                 1.1303         calculate D2E/DX2 analytically  !
 ! R19   R(6,20)                 1.1106         calculate D2E/DX2 analytically  !
 ! R20   R(7,21)                 1.0907         calculate D2E/DX2 analytically  !
 ! R21   R(7,22)                 1.1251         calculate D2E/DX2 analytically  !
 ! R22   R(7,23)                 1.1278         calculate D2E/DX2 analytically  !
 ! A1    A(2,1,4)              114.2968         calculate D2E/DX2 analytically  !
 ! A2    A(2,1,10)             109.0845         calculate D2E/DX2 analytically  !
 ! A3    A(2,1,11)             109.3076         calculate D2E/DX2 analytically  !
 ! A4    A(4,1,10)             108.5522         calculate D2E/DX2 analytically  !
 ! A5    A(4,1,11)             109.5076         calculate D2E/DX2 analytically  !
 ! A6    A(10,1,11)            105.7396         calculate D2E/DX2 analytically  !
 ! A7    A(1,2,3)              113.7509         calculate D2E/DX2 analytically  !
 ! A8    A(1,2,12)             109.0989         calculate D2E/DX2 analytically  !
 ! A9    A(1,2,13)             109.0154         calculate D2E/DX2 analytically  !
 ! A10   A(3,2,12)             109.0434         calculate D2E/DX2 analytically  !
 ! A11   A(3,2,13)             110.1722         calculate D2E/DX2 analytically  !
 ! A12   A(12,2,13)            105.4217         calculate D2E/DX2 analytically  !
 ! A13   A(2,3,5)              114.4105         calculate D2E/DX2 analytically  !
 ! A14   A(2,3,14)             109.5387         calculate D2E/DX2 analytically  !
 ! A15   A(2,3,15)             108.7405         calculate D2E/DX2 analytically  !
 ! A16   A(5,3,14)             109.7234         calculate D2E/DX2 analytically  !
 ! A17   A(5,3,15)             108.9147         calculate D2E/DX2 analytically  !
 ! A18   A(14,3,15)            105.0913         calculate D2E/DX2 analytically  !
 ! A19   A(1,4,6)              115.0738         calculate D2E/DX2 analytically  !
 ! A20   A(1,4,8)              108.6818         calculate D2E/DX2 analytically  !
 ! A21   A(1,4,9)              108.3878         calculate D2E/DX2 analytically  !
 ! A22   A(6,4,8)              109.6063         calculate D2E/DX2 analytically  !
 ! A23   A(6,4,9)              109.8029         calculate D2E/DX2 analytically  !
 ! A24   A(8,4,9)              104.7776         calculate D2E/DX2 analytically  !
 ! A25   A(3,5,7)              114.6417         calculate D2E/DX2 analytically  !
 ! A26   A(3,5,16)             109.5122         calculate D2E/DX2 analytically  !
 ! A27   A(3,5,17)             109.3789         calculate D2E/DX2 analytically  !
 ! A28   A(7,5,16)             108.811          calculate D2E/DX2 analytically  !
 ! A29   A(7,5,17)             108.7144         calculate D2E/DX2 analytically  !
 ! A30   A(16,5,17)            105.3716         calculate D2E/DX2 analytically  !
 ! A31   A(4,6,18)             112.0183         calculate D2E/DX2 analytically  !
 ! A32   A(4,6,19)             111.4103         calculate D2E/DX2 analytically  !
 ! A33   A(4,6,20)             111.6249         calculate D2E/DX2 analytically  !
 ! A34   A(18,6,19)            107.2878         calculate D2E/DX2 analytically  !
 ! A35   A(18,6,20)            107.273          calculate D2E/DX2 analytically  !
 ! A36   A(19,6,20)            106.947          calculate D2E/DX2 analytically  !
 ! A37   A(5,7,21)             112.0594         calculate D2E/DX2 analytically  !
 ! A38   A(5,7,22)             110.7431         calculate D2E/DX2 analytically  !
 ! A39   A(5,7,23)             110.2566         calculate D2E/DX2 analytically  !
 ! A40   A(21,7,22)            108.013          calculate D2E/DX2 analytically  !
 ! A41   A(21,7,23)            108.0496         calculate D2E/DX2 analytically  !
 ! A42   A(22,7,23)            107.5624         calculate D2E/DX2 analytically  !
 ! D1    D(4,1,2,3)            178.013          calculate D2E/DX2 analytically  !
 ! D2    D(4,1,2,12)            56.0343         calculate D2E/DX2 analytically  !
 ! D3    D(4,1,2,13)           -58.6101         calculate D2E/DX2 analytically  !
 ! D4    D(10,1,2,3)            56.3055         calculate D2E/DX2 analytically  !
 ! D5    D(10,1,2,12)          -65.6733         calculate D2E/DX2 analytically  !
 ! D6    D(10,1,2,13)          179.6824         calculate D2E/DX2 analytically  !
 ! D7    D(11,1,2,3)           -58.8679         calculate D2E/DX2 analytically  !
 ! D8    D(11,1,2,12)          179.1533         calculate D2E/DX2 analytically  !
 ! D9    D(11,1,2,13)           64.5089         calculate D2E/DX2 analytically  !
 ! D10   D(2,1,4,6)             59.6375         calculate D2E/DX2 analytically  !
 ! D11   D(2,1,4,8)            -63.6797         calculate D2E/DX2 analytically  !
 ! D12   D(2,1,4,9)           -177.0168         calculate D2E/DX2 analytically  !
 ! D13   D(10,1,4,6)          -178.363          calculate D2E/DX2 analytically  !
 ! D14   D(10,1,4,8)            58.3198         calculate D2E/DX2 analytically  !
 ! D15   D(10,1,4,9)           -55.0173         calculate D2E/DX2 analytically  !
 ! D16   D(11,1,4,6)           -63.3733         calculate D2E/DX2 analytically  !
 ! D17   D(11,1,4,8)           173.3095         calculate D2E/DX2 analytically  !
 ! D18   D(11,1,4,9)            59.9724         calculate D2E/DX2 analytically  !
 ! D19   D(1,2,3,5)            116.9616         calculate D2E/DX2 analytically  !
 ! D20   D(1,2,3,14)            -6.7018         calculate D2E/DX2 analytically  !
 ! D21   D(1,2,3,15)          -121.0407         calculate D2E/DX2 analytically  !
 ! D22   D(12,2,3,5)          -121.029          calculate D2E/DX2 analytically  !
 ! D23   D(12,2,3,14)          115.3076         calculate D2E/DX2 analytically  !
 ! D24   D(12,2,3,15)            0.9687         calculate D2E/DX2 analytically  !
 ! D25   D(13,2,3,5)            -5.7826         calculate D2E/DX2 analytically  !
 ! D26   D(13,2,3,14)         -129.446          calculate D2E/DX2 analytically  !
 ! D27   D(13,2,3,15)          116.2151         calculate D2E/DX2 analytically  !
 ! D28   D(2,3,5,7)           -118.5765         calculate D2E/DX2 analytically  !
 ! D29   D(2,3,5,16)             4.0336         calculate D2E/DX2 analytically  !
 ! D30   D(2,3,5,17)           119.0426         calculate D2E/DX2 analytically  !
 ! D31   D(14,3,5,7)             4.9878         calculate D2E/DX2 analytically  !
 ! D32   D(14,3,5,16)          127.5979         calculate D2E/DX2 analytically  !
 ! D33   D(14,3,5,17)         -117.3931         calculate D2E/DX2 analytically  !
 ! D34   D(15,3,5,7)           119.5211         calculate D2E/DX2 analytically  !
 ! D35   D(15,3,5,16)         -117.8689         calculate D2E/DX2 analytically  !
 ! D36   D(15,3,5,17)           -2.8599         calculate D2E/DX2 analytically  !
 ! D37   D(1,4,6,18)            -2.3511         calculate D2E/DX2 analytically  !
 ! D38   D(1,4,6,19)           117.8394         calculate D2E/DX2 analytically  !
 ! D39   D(1,4,6,20)          -122.6726         calculate D2E/DX2 analytically  !
 ! D40   D(8,4,6,18)           120.4733         calculate D2E/DX2 analytically  !
 ! D41   D(8,4,6,19)          -119.3362         calculate D2E/DX2 analytically  !
 ! D42   D(8,4,6,20)             0.1518         calculate D2E/DX2 analytically  !
 ! D43   D(9,4,6,18)          -124.9414         calculate D2E/DX2 analytically  !
 ! D44   D(9,4,6,19)            -4.7509         calculate D2E/DX2 analytically  !
 ! D45   D(9,4,6,20)           114.7371         calculate D2E/DX2 analytically  !
 ! D46   D(3,5,7,21)            34.6223         calculate D2E/DX2 analytically  !
 ! D47   D(3,5,7,22)           -86.0588         calculate D2E/DX2 analytically  !
 ! D48   D(3,5,7,23)           155.0137         calculate D2E/DX2 analytically  !
 ! D49   D(16,5,7,21)          -88.3659         calculate D2E/DX2 analytically  !
 ! D50   D(16,5,7,22)          150.953          calculate D2E/DX2 analytically  !
 ! D51   D(16,5,7,23)           32.0255         calculate D2E/DX2 analytically  !
 ! D52   D(17,5,7,21)          157.3625         calculate D2E/DX2 analytically  !
 ! D53   D(17,5,7,22)           36.6814         calculate D2E/DX2 analytically  !
 ! D54   D(17,5,7,23)          -82.2461         calculate D2E/DX2 analytically  !
 --------------------------------------------------------------------------------
 Trust Radius=3.00D-01 FncErr=1.00D-07 GrdErr=1.00D-06 EigMax=2.50D+02 EigMin=1.00D-04
 Number of steps in this run=    138 maximum allowed number of steps=    138.
 GradGradGradGradGradGradGradGradGradGradGradGradGradGradGradGradGradGrad

 Leave Link  103 at Sat Sep 28 19:15:26 2019, MaxMem=   671088640 cpu:               1.5 elap:               0.8
 (Enter /shared/centos7/gaussian/g16/l202.exe)
                          Input orientation:                          
 ---------------------------------------------------------------------
 Center     Atomic      Atomic             Coordinates (Angstroms)
 Number     Number       Type             X           Y           Z
 ---------------------------------------------------------------------
      1          6           0        1.385935   -1.155709    0.513956
      2          6           0        0.162244   -0.406967    0.918839
      3          6           0       -0.629799   -1.082301    2.010431
      4          6           0        2.153503   -0.522293   -0.597192
      5          6           0       -0.723024   -0.291955    3.294318
      6          6           0        2.642228    0.839539   -0.321241
      7          6           0       -0.118504   -0.971367    4.495518
      8          1           0        1.509158   -0.512680   -1.521239
      9          1           0        3.012043   -1.187003   -0.855692
     10          1           0        1.097451   -2.182424    0.203781
     11          1           0        2.047028   -1.282323    1.395755
     12          1           0       -0.484302   -0.269979    0.037988
     13          1           0        0.452648    0.617471    1.234192
     14          1           0       -0.200342   -2.077467    2.216184
     15          1           0       -1.654923   -1.281906    1.635699
     16          1           0       -0.229636    0.705620    3.156722
     17          1           0       -1.781491   -0.067462    3.509980
     18          1           0        2.321070    1.201823    0.673489
     19          1           0        3.771261    0.885879   -0.347157
     20          1           0        2.270987    1.567814   -1.073097
     21          1           0        0.761206   -1.560418    4.233397
     22          1           0       -0.864786   -1.658327    4.982354
     23          1           0        0.190108   -0.205145    5.263337
 ---------------------------------------------------------------------
                    Distance matrix (angstroms):
                    1          2          3          4          5
     1  C    0.000000
     2  C    1.490625   0.000000
     3  C    2.511575   1.508304   0.000000
     4  C    1.491652   2.505346   3.854877   0.000000
     5  C    3.595023   2.537682   1.510531   4.844720   0.000000
     6  C    2.501368   3.040049   4.453799   1.472952   5.067294
     7  C    4.260300   3.631804   2.539564   5.594585   1.506627
     8  H    2.137917   2.789146   4.168010   1.126559   5.312340
     9  H    2.126298   3.446560   4.635584   1.116134   5.654593
    10  H    1.110665   2.130298   2.730870   2.124344   4.054556
    11  H    1.109344   2.132160   2.753768   2.135607   3.501223
    12  H    2.123405   1.101220   2.138123   2.724908   3.265143
    13  H    2.129303   1.110520   2.159505   2.746986   2.540350
    14  H    2.502697   2.145959   1.103233   3.984248   2.150261
    15  H    3.243617   2.140444   1.109570   4.479611   2.144634
    16  H    3.613700   2.529731   2.161197   4.612915   1.121392
    17  H    4.493665   3.256897   2.145912   5.706129   1.103295
    18  H    2.541237   2.703504   3.963870   2.148321   4.285631
    19  H    3.255669   4.037227   5.366683   2.159308   5.903070
    20  H    3.274085   3.509183   4.994579   2.146819   5.612233
    21  H    3.793193   3.560267   2.665533   5.133301   2.166519
    22  H    5.028414   4.374111   3.036338   6.444531   2.176358
    23  H    4.989007   4.349273   3.467427   6.188805   2.172184
                    6          7          8          9         10
     6  C    0.000000
     7  C    5.839708   0.000000
     8  H    2.133621   6.249884   0.000000
     9  H    2.128210   6.203409   1.776606   0.000000
    10  H    3.434275   4.622144   2.435825   2.403957   0.000000
    11  H    2.793678   3.794043   3.064394   2.451398   1.769938
    12  H    3.336954   4.527177   2.542435   3.723443   2.487343
    13  H    2.694985   3.672447   3.160041   3.764870   3.052365
    14  H    4.798714   2.534861   4.397645   4.533074   2.396883
    15  H    5.176451   3.261224   4.535347   5.291182   3.230617
    16  H    4.512401   2.148723   5.137215   5.494540   4.338412
    17  H    5.922009   2.133977   6.028246   6.579547   4.867476
    18  H    1.106291   5.028140   2.900957   2.919303   3.629187
    19  H    1.130281   6.483143   2.907155   2.265362   4.106980
    20  H    1.110627   6.570129   2.260458   2.861022   4.131814
    21  H    5.481128   1.090678   5.896866   5.577144   4.091181
    22  H    6.831296   1.125104   7.017467   7.023869   5.192284
    23  H    6.188034   1.127778   6.918450   6.809543   5.507451
                   11         12         13         14         15
    11  H    0.000000
    12  H    3.045653   0.000000
    13  H    2.485431   1.759644   0.000000
    14  H    2.521117   2.844676   2.941665   0.000000
    15  H    3.709719   2.224192   2.865431   1.756612   0.000000
    16  H    3.498017   3.277675   2.041911   2.937864   2.880141
    17  H    4.539096   3.711932   3.261858   2.866018   2.236922
    18  H    2.601490   3.231126   2.036383   4.414881   4.785737
    19  H    3.272892   4.426529   3.685906   5.579047   6.170453
    20  H    3.777389   3.493366   3.087571   5.496809   5.556190
    21  H    3.127761   4.562672   3.719360   2.293701   3.558550
    22  H    4.635055   5.149664   4.578603   2.875563   3.459206
    23  H    4.423422   5.269090   4.120635   3.597664   4.209907
                   16         17         18         19         20
    16  H    0.000000
    17  H    1.769379   0.000000
    18  H    3.594268   5.146628   0.000000
    19  H    5.321357   6.827842   1.801275   0.000000
    20  H    4.988774   6.332559   1.785223   1.800791   0.000000
    21  H    2.697392   3.036043   4.768238   6.002190   6.342252
    22  H    3.053619   2.353526   6.074245   7.507970   7.543842
    23  H    2.333132   2.642050   5.252358   6.744823   6.901003
                   21         22         23
    21  H    0.000000
    22  H    1.792867   0.000000
    23  H    1.795465   1.817551   0.000000
 Stoichiometry    C7H16
 Framework group  C1[X(C7H16)]
 Deg. of freedom    63
 Full point group                 C1      NOp   1
 Largest Abelian subgroup         C1      NOp   1
 Largest concise Abelian subgroup C1      NOp   1
                         Standard orientation:                         
 ---------------------------------------------------------------------
 Center     Atomic      Atomic             Coordinates (Angstroms)
 Number     Number       Type             X           Y           Z
 ---------------------------------------------------------------------
      1          6           0        1.065949   -0.509596    0.669149
      2          6           0        0.184400   -0.572405   -0.531222
      3          6           0       -1.254387   -0.893457   -0.212160
      4          6           0        2.500651   -0.238958    0.363516
      5          6           0       -2.232579    0.199848   -0.572058
      6          6           0        2.760838    1.029666   -0.338256
      7          6           0       -2.997821    0.767298    0.595131
      8          1           0        2.908556   -1.096674   -0.242348
      9          1           0        3.075690   -0.266986    1.319707
     10          1           0        0.997436   -1.471176    1.220735
     11          1           0        0.683059    0.264608    1.365316
     12          1           0        0.576143   -1.331077   -1.226664
     13          1           0        0.249344    0.391610   -1.078682
     14          1           0       -1.348696   -1.139589    0.859124
     15          1           0       -1.539730   -1.822133   -0.748149
     16          1           0       -1.688861    1.034011   -1.087872
     17          1           0       -2.952757   -0.183247   -1.314918
     18          1           0        1.826450    1.574953   -0.569471
     19          1           0        3.407419    1.719020    0.281631
     20          1           0        3.292543    0.864263   -1.299205
     21          1           0       -2.396034    0.796359    1.504299
     22          1           0       -3.916729    0.153163    0.805617
     23          1           0       -3.336139    1.818511    0.366274
 ---------------------------------------------------------------------
 Rotational constants (GHZ):           5.2229369           1.0126057           0.9711349
 Leave Link  202 at Sat Sep 28 19:15:28 2019, MaxMem=   671088640 cpu:               4.6 elap:               2.3
 (Enter /shared/centos7/gaussian/g16/l301.exe)
 Standard basis: CC-pVTZ (5D, 7F)
 Ernie: Thresh=  0.10000D-02 Tol=  0.10000D-05 Strict=F.
 Ernie:  21 primitive shells out of 310 were deleted.
 There are   485 symmetry adapted cartesian basis functions of A   symmetry.
 There are   434 symmetry adapted basis functions of A   symmetry.
   434 basis functions,   636 primitive gaussians,   485 cartesian basis functions
    29 alpha electrons       29 beta electrons
       nuclear repulsion energy       319.6950785710 Hartrees.
 IExCor= 4336 DFT=T Ex+Corr=M062X ExCW=0 ScaHFX=  0.540000
 ScaDFX=  1.000000  1.000000  1.000000  1.000000 ScalE2=  1.000000  1.000000
 IRadAn=      5 IRanWt=     -1 IRanGd=            0 ICorTp=0 IEmpDi=  4
 NAtoms=   23 NActive=   23 NUniq=   23 SFac= 1.00D+00 NAtFMM=   60 NAOKFM=F Big=F
 Integral buffers will be    131072 words long.
 Raffenetti 2 integral format.
 Two-electron integral symmetry is turned on.
 Leave Link  301 at Sat Sep 28 19:15:29 2019, MaxMem=   671088640 cpu:               1.7 elap:               0.9
 (Enter /shared/centos7/gaussian/g16/l302.exe)
 NPDir=0 NMtPBC=     1 NCelOv=     1 NCel=       1 NClECP=     1 NCelD=      1
         NCelK=      1 NCelE2=     1 NClLst=     1 CellRange=     0.0.
 One-electron integrals computed using PRISM.
 One-electron integral symmetry used in STVInt
 NBasis=   434 RedAO= T EigKep=  3.12D-04  NBF=   434
 NBsUse=   434 1.00D-06 EigRej= -1.00D+00 NBFU=   434
 Precomputing XC quadrature grid using
 IXCGrd= 4 IRadAn=           5 IRanWt=          -1 IRanGd=           0 AccXCQ= 0.00D+00.
 Generated NRdTot=       0 NPtTot=           0 NUsed=           0 NTot=          32
 NSgBfM=   485   485   485   485   485 MxSgAt=    23 MxSgA2=    23.
 Leave Link  302 at Sat Sep 28 19:16:45 2019, MaxMem=   671088640 cpu:             151.3 elap:              75.7
 (Enter /shared/centos7/gaussian/g16/l303.exe)
 DipDrv:  MaxL=1.
 Leave Link  303 at Sat Sep 28 19:16:49 2019, MaxMem=   671088640 cpu:               8.7 elap:               4.3
 (Enter /shared/centos7/gaussian/g16/l401.exe)
 ExpMin= 1.03D-01 ExpMax= 8.24D+03 ExpMxC= 2.81D+02 IAcc=3 IRadAn=         5 AccDes= 0.00D+00
 Harris functional with IExCor= 1009 and IRadAn=       5 diagonalized for initial guess.
 HarFok:  IExCor= 1009 AccDes= 0.00D+00 IRadAn=         5 IDoV= 1 UseB2=F ITyADJ=14
 ICtDFT=  3500011 ScaDFX=  1.000000  1.000000  1.000000  1.000000
 FoFCou: FMM=F IPFlag=           0 FMFlag=      100000 FMFlg1=           0
         NFxFlg=           0 DoJE=T BraDBF=F KetDBF=T FulRan=T
         wScrn=  0.000000 ICntrl=       500 IOpCl=  0 I1Cent=   200000004 NGrid=           0
         NMat0=    1 NMatS0=      1 NMatT0=    0 NMatD0=    1 NMtDS0=    0 NMtDT0=    0
 Petite list used in FoFCou.
 Harris En= -276.322620624514    
 JPrj=0 DoOrth=F DoCkMO=F.
 Leave Link  401 at Sat Sep 28 19:17:42 2019, MaxMem=   671088640 cpu:             104.8 elap:              52.4
 (Enter /shared/centos7/gaussian/g16/l502.exe)
 Integral symmetry usage will be decided dynamically.
 Closed shell SCF:
 Using DIIS extrapolation, IDIIS=  1040.
 NGot=   671088640 LenX=   670604095 LenY=   670368385
 Requested convergence on RMS density matrix=1.00D-08 within 900 cycles.
 Requested convergence on MAX density matrix=1.00D-06.
 Requested convergence on             energy=1.00D-06.
 No special actions if energy rises.
 Fock matrices will be formed incrementally for  20 cycles.
 Integral accuracy reduced to 1.0D-05 until final iterations.

 Cycle   1  Pass 0  IDiag  1:
 FoFJK:  IHMeth= 1 ICntrl=       0 DoSepK=F KAlg= 0 I1Cent=           0 FoldK=F
 IRaf= 910000000 NMat=       1 IRICut=       1 DoRegI=T DoRafI=F ISym2E= 0 IDoP0=0 IntGTp=1.
 FoFCou: FMM=F IPFlag=           0 FMFlag=      100000 FMFlg1=           0
         NFxFlg=           0 DoJE=F BraDBF=F KetDBF=F FulRan=T
         wScrn=  0.000000 ICntrl=         0 IOpCl=  0 I1Cent=           0 NGrid=           0
         NMat0=    1 NMatS0=      1 NMatT0=    0 NMatD0=    1 NMtDS0=    0 NMtDT0=    0
 Symmetry not used in FoFCou.
 E= -275.947827033438    
 DIIS: error= 3.10D-02 at cycle   1 NSaved=   1.
 NSaved= 1 IEnMin= 1 EnMin= -275.947827033438     IErMin= 1 ErrMin= 3.10D-02
 ErrMax= 3.10D-02  0.00D+00 EMaxC= 1.00D-01 BMatC= 3.76D-01 BMatP= 3.76D-01
 IDIUse=3 WtCom= 6.90D-01 WtEn= 3.10D-01
 Coeff-Com:  0.100D+01
 Coeff-En:   0.100D+01
 Coeff:      0.100D+01
 Gap=     0.369 Goal=   None    Shift=    0.000
 GapD=    0.369 DampG=1.000 DampE=0.500 DampFc=0.5000 IDamp=-1.
 Damping current iteration by 5.00D-01
 RMSDP=1.91D-03 MaxDP=6.93D-02              OVMax= 1.70D-01

 Cycle   2  Pass 0  IDiag  1:
 RMSU=  9.51D-04    CP:  9.90D-01
 E= -276.129009613508     Delta-E=       -0.181182580070 Rises=F Damp=T
 DIIS: error= 3.73D-03 at cycle   2 NSaved=   2.
 NSaved= 2 IEnMin= 2 EnMin= -276.129009613508     IErMin= 2 ErrMin= 3.73D-03
 ErrMax= 3.73D-03  0.00D+00 EMaxC= 1.00D-01 BMatC= 1.80D-02 BMatP= 3.76D-01
 IDIUse=3 WtCom= 9.63D-01 WtEn= 3.73D-02
 Coeff-Com: -0.576D-01 0.106D+01
 Coeff-En:   0.000D+00 0.100D+01
 Coeff:     -0.554D-01 0.106D+01
 Gap=     0.443 Goal=   None    Shift=    0.000
 RMSDP=5.06D-04 MaxDP=1.58D-02 DE=-1.81D-01 OVMax= 9.02D-02

 Cycle   3  Pass 0  IDiag  1:
 RMSU=  4.97D-04    CP:  9.98D-01  9.17D-01
 E= -276.308571175664     Delta-E=       -0.179561562156 Rises=F Damp=F
 DIIS: error= 1.97D-03 at cycle   3 NSaved=   3.
 NSaved= 3 IEnMin= 3 EnMin= -276.308571175664     IErMin= 3 ErrMin= 1.97D-03
 ErrMax= 1.97D-03  0.00D+00 EMaxC= 1.00D-01 BMatC= 2.08D-03 BMatP= 1.80D-02
 IDIUse=3 WtCom= 9.80D-01 WtEn= 1.97D-02
 Coeff-Com: -0.485D-01 0.214D+00 0.834D+00
 Coeff-En:   0.000D+00 0.000D+00 0.100D+01
 Coeff:     -0.476D-01 0.210D+00 0.838D+00
 Gap=     0.418 Goal=   None    Shift=    0.000
 RMSDP=8.57D-05 MaxDP=2.75D-03 DE=-1.80D-01 OVMax= 9.06D-03

 Cycle   4  Pass 0  IDiag  1:
 RMSU=  6.97D-05    CP:  9.97D-01  9.60D-01  9.44D-01
 E= -276.310415282156     Delta-E=       -0.001844106492 Rises=F Damp=F
 DIIS: error= 5.22D-04 at cycle   4 NSaved=   4.
 NSaved= 4 IEnMin= 4 EnMin= -276.310415282156     IErMin= 4 ErrMin= 5.22D-04
 ErrMax= 5.22D-04  0.00D+00 EMaxC= 1.00D-01 BMatC= 1.94D-04 BMatP= 2.08D-03
 IDIUse=3 WtCom= 9.95D-01 WtEn= 5.22D-03
 Coeff-Com: -0.119D-01 0.312D-01 0.271D+00 0.709D+00
 Coeff-En:   0.000D+00 0.000D+00 0.000D+00 0.100D+01
 Coeff:     -0.119D-01 0.310D-01 0.270D+00 0.711D+00
 Gap=     0.418 Goal=   None    Shift=    0.000
 RMSDP=2.86D-05 MaxDP=1.01D-03 DE=-1.84D-03 OVMax= 2.54D-03

 Cycle   5  Pass 0  IDiag  1:
 RMSU=  1.64D-05    CP:  9.97D-01  9.55D-01  9.76D-01  7.63D-01
 E= -276.310597656532     Delta-E=       -0.000182374377 Rises=F Damp=F
 DIIS: error= 1.24D-04 at cycle   5 NSaved=   5.
 NSaved= 5 IEnMin= 5 EnMin= -276.310597656532     IErMin= 5 ErrMin= 1.24D-04
 ErrMax= 1.24D-04  0.00D+00 EMaxC= 1.00D-01 BMatC= 1.22D-05 BMatP= 1.94D-04
 IDIUse=3 WtCom= 9.99D-01 WtEn= 1.24D-03
 Coeff-Com: -0.928D-03-0.432D-03 0.449D-01 0.239D+00 0.718D+00
 Coeff-En:   0.000D+00 0.000D+00 0.000D+00 0.000D+00 0.100D+01
 Coeff:     -0.927D-03-0.432D-03 0.448D-01 0.238D+00 0.718D+00
 Gap=     0.418 Goal=   None    Shift=    0.000
 RMSDP=5.80D-06 MaxDP=3.00D-04 DE=-1.82D-04 OVMax= 6.32D-04

 Initial convergence to 1.0D-05 achieved.  Increase integral accuracy.
 Cycle   6  Pass 1  IDiag  1:
 E= -276.310541640886     Delta-E=        0.000056015646 Rises=F Damp=F
 DIIS: error= 3.22D-05 at cycle   1 NSaved=   1.
 NSaved= 1 IEnMin= 1 EnMin= -276.310541640886     IErMin= 1 ErrMin= 3.22D-05
 ErrMax= 3.22D-05  0.00D+00 EMaxC= 1.00D-01 BMatC= 1.73D-06 BMatP= 1.73D-06
 IDIUse=1 WtCom= 1.00D+00 WtEn= 0.00D+00
 Coeff-Com:  0.100D+01
 Coeff:      0.100D+01
 Gap=     0.418 Goal=   None    Shift=    0.000
 RMSDP=5.80D-06 MaxDP=3.00D-04 DE= 5.60D-05 OVMax= 2.73D-04

 Cycle   7  Pass 1  IDiag  1:
 RMSU=  9.73D-06    CP:  1.00D+00
 E= -276.310542342037     Delta-E=       -0.000000701151 Rises=F Damp=F
 DIIS: error= 2.69D-05 at cycle   2 NSaved=   2.
 NSaved= 2 IEnMin= 2 EnMin= -276.310542342037     IErMin= 2 ErrMin= 2.69D-05
 ErrMax= 2.69D-05  0.00D+00 EMaxC= 1.00D-01 BMatC= 5.75D-07 BMatP= 1.73D-06
 IDIUse=1 WtCom= 1.00D+00 WtEn= 0.00D+00
 Coeff-Com:  0.332D+00 0.668D+00
 Coeff:      0.332D+00 0.668D+00
 Gap=     0.418 Goal=   None    Shift=    0.000
 RMSDP=1.41D-06 MaxDP=7.02D-05 DE=-7.01D-07 OVMax= 1.54D-04

 Cycle   8  Pass 1  IDiag  1:
 RMSU=  1.40D-06    CP:  1.00D+00  9.90D-01
 E= -276.310542841062     Delta-E=       -0.000000499025 Rises=F Damp=F
 DIIS: error= 9.37D-06 at cycle   3 NSaved=   3.
 NSaved= 3 IEnMin= 3 EnMin= -276.310542841062     IErMin= 3 ErrMin= 9.37D-06
 ErrMax= 9.37D-06  0.00D+00 EMaxC= 1.00D-01 BMatC= 6.49D-08 BMatP= 5.75D-07
 IDIUse=1 WtCom= 1.00D+00 WtEn= 0.00D+00
 Coeff-Com: -0.477D-02 0.242D+00 0.762D+00
 Coeff:     -0.477D-02 0.242D+00 0.762D+00
 Gap=     0.418 Goal=   None    Shift=    0.000
 RMSDP=4.30D-07 MaxDP=1.93D-05 DE=-4.99D-07 OVMax= 4.33D-05

 Cycle   9  Pass 1  IDiag  1:
 RMSU=  2.88D-07    CP:  1.00D+00  1.01D+00  8.13D-01
 E= -276.310542903424     Delta-E=       -0.000000062363 Rises=F Damp=F
 DIIS: error= 1.80D-06 at cycle   4 NSaved=   4.
 NSaved= 4 IEnMin= 4 EnMin= -276.310542903424     IErMin= 4 ErrMin= 1.80D-06
 ErrMax= 1.80D-06  0.00D+00 EMaxC= 1.00D-01 BMatC= 1.73D-09 BMatP= 6.49D-08
 IDIUse=1 WtCom= 1.00D+00 WtEn= 0.00D+00
 Coeff-Com: -0.102D-01 0.681D-01 0.266D+00 0.676D+00
 Coeff:     -0.102D-01 0.681D-01 0.266D+00 0.676D+00
 Gap=     0.418 Goal=   None    Shift=    0.000
 RMSDP=8.06D-08 MaxDP=3.37D-06 DE=-6.24D-08 OVMax= 7.31D-06

 Cycle  10  Pass 1  IDiag  1:
 RMSU=  7.51D-08    CP:  1.00D+00  1.01D+00  8.15D-01  9.14D-01
 E= -276.310542905171     Delta-E=       -0.000000001747 Rises=F Damp=F
 DIIS: error= 3.20D-07 at cycle   5 NSaved=   5.
 NSaved= 5 IEnMin= 5 EnMin= -276.310542905171     IErMin= 5 ErrMin= 3.20D-07
 ErrMax= 3.20D-07  0.00D+00 EMaxC= 1.00D-01 BMatC= 6.28D-11 BMatP= 1.73D-09
 IDIUse=1 WtCom= 1.00D+00 WtEn= 0.00D+00
 Coeff-Com: -0.935D-03-0.107D-01-0.277D-01 0.772D-01 0.962D+00
 Coeff:     -0.935D-03-0.107D-01-0.277D-01 0.772D-01 0.962D+00
 Gap=     0.418 Goal=   None    Shift=    0.000
 RMSDP=2.85D-08 MaxDP=8.30D-07 DE=-1.75D-09 OVMax= 2.23D-06

 Cycle  11  Pass 1  IDiag  1:
 RMSU=  1.59D-08    CP:  1.00D+00  1.01D+00  8.16D-01  9.91D-01  1.09D+00
 E= -276.310542905254     Delta-E=       -0.000000000083 Rises=F Damp=F
 DIIS: error= 1.34D-07 at cycle   6 NSaved=   6.
 NSaved= 6 IEnMin= 6 EnMin= -276.310542905254     IErMin= 6 ErrMin= 1.34D-07
 ErrMax= 1.34D-07  0.00D+00 EMaxC= 1.00D-01 BMatC= 1.55D-11 BMatP= 6.28D-11
 IDIUse=1 WtCom= 1.00D+00 WtEn= 0.00D+00
 Coeff-Com:  0.438D-03-0.997D-02-0.332D-01-0.235D-01 0.407D+00 0.659D+00
 Coeff:      0.438D-03-0.997D-02-0.332D-01-0.235D-01 0.407D+00 0.659D+00
 Gap=     0.418 Goal=   None    Shift=    0.000
 RMSDP=6.69D-09 MaxDP=2.84D-07 DE=-8.34D-11 OVMax= 6.60D-07

 SCF Done:  E(RM062X) =  -276.310542905     A.U. after   11 cycles
            NFock= 11  Conv=0.67D-08     -V/T= 2.0066
 KE= 2.744986971985D+02 PE=-1.277826143850D+03 EE= 4.073218251752D+02
 Leave Link  502 at Sat Sep 28 19:38:56 2019, MaxMem=   671088640 cpu:            2547.7 elap:            1274.3
 (Enter /shared/centos7/gaussian/g16/l801.exe)
 DoSCS=F DFT=T ScalE2(SS,OS)=  1.000000  1.000000
 Range of M.O.s used for correlation:     1   434
 NBasis=   434 NAE=    29 NBE=    29 NFC=     0 NFV=     0
 NROrb=    434 NOA=    29 NOB=    29 NVA=   405 NVB=   405

 **** Warning!!: The largest alpha MO coefficient is  0.14460518D+02

 Leave Link  801 at Sat Sep 28 19:38:57 2019, MaxMem=   671088640 cpu:               1.9 elap:               1.0
 (Enter /shared/centos7/gaussian/g16/l1101.exe)
 Using compressed storage, NAtomX=    23.
 Will process     24 centers per pass.
 Leave Link 1101 at Sat Sep 28 19:39:47 2019, MaxMem=   671088640 cpu:              99.8 elap:              50.0
 (Enter /shared/centos7/gaussian/g16/l1102.exe)
 Symmetrizing basis deriv contribution to polar:
 IMax=3 JMax=2 DiffMx= 0.00D+00
 Leave Link 1102 at Sat Sep 28 19:39:50 2019, MaxMem=   671088640 cpu:               4.9 elap:               2.5
 (Enter /shared/centos7/gaussian/g16/l1110.exe)
 Forming Gx(P) for the SCF density, NAtomX=    23.
 Integral derivatives from FoFJK, PRISM(SPDF).
 Do as many integral derivatives as possible in FoFJK.
 G2DrvN: MDV=     671086848.
 G2DrvN: will do    24 centers at a time, making    1 passes.
 Calling FoFCou, ICntrl=  3107 FMM=F I1Cent=   0 AccDes= 0.00D+00.
 FoFJK:  IHMeth= 1 ICntrl=    3107 DoSepK=F KAlg= 0 I1Cent=           0 FoldK=F
 IRaf=         0 NMat=       1 IRICut=       1 DoRegI=T DoRafI=F ISym2E= 0 IDoP0=0 IntGTp=1.
 FoFCou: FMM=F IPFlag=           0 FMFlag=      100000 FMFlg1=           0
         NFxFlg=           0 DoJE=F BraDBF=F KetDBF=F FulRan=T
         wScrn=  0.000000 ICntrl=      3107 IOpCl=  0 I1Cent=           0 NGrid=           0
         NMat0=    1 NMatS0=      1 NMatT0=    0 NMatD0=    1 NMtDS0=    0 NMtDT0=    0
 Symmetry not used in FoFCou.
 End of G2Drv F.D. properties file   721 does not exist.
 End of G2Drv F.D. properties file   722 does not exist.
 End of G2Drv F.D. properties file   788 does not exist.
 Leave Link 1110 at Sat Sep 28 20:31:55 2019, MaxMem=   671088640 cpu:            6249.3 elap:            3125.5
 (Enter /shared/centos7/gaussian/g16/l1002.exe)
 Minotr:  Closed shell wavefunction.
          IDoAtm=11111111111111111111111
          Direct CPHF calculation.
          Differentiating once with respect to nuclear coordinates.
          Requested convergence is 1.0D-08 RMS, and 1.0D-07 maximum.
          Secondary convergence is 1.0D-12 RMS, and 1.0D-12 maximum.
          NewPWx=T KeepS1=F KeepF1=F KeepIn=T MapXYZ=F SortEE=F KeepMc=T.
         6946 words used for storage of precomputed grid.
 Two-electron integrals replicated using symmetry.
          MDV=     671088640 using IRadAn=       1.
          Solving linear equations simultaneously, MaxMat=     380.
 FoF2E skips out because all densities are zero.
 CalDSu exits because no D1Ps are significant.
 FoFJK:  IHMeth= 1 ICntrl=       0 DoSepK=F KAlg= 0 I1Cent=           0 FoldK=F
 IRaf= 890000000 NMat=      69 IRICut=     172 DoRegI=T DoRafI=T ISym2E= 2 IDoP0=3 IntGTp=3.
 FoFCou: FMM=F IPFlag=           0 FMFlag=      100000 FMFlg1=           0
         NFxFlg=           0 DoJE=F BraDBF=F KetDBF=F FulRan=T
         wScrn=  0.000000 ICntrl=         0 IOpCl=  0 I1Cent=           0 NGrid=           0
         NMat0=   69 NMatS0=     69 NMatT0=    0 NMatD0=   69 NMtDS0=    0 NMtDT0=    0
 Integrals replicated using symmetry in FoFCou.
 Raff kept on since  85.60% of shell-pairs survive, threshold=   0.20 IRatSp=86.
          There are    72 degrees of freedom in the 1st order CPHF.  IDoFFX=6 NUNeed=     0.
     66 vectors produced by pass  0 Test12= 1.63D-14 1.39D-09 XBig12= 5.73D-02 3.88D-02.
 AX will form    66 AO Fock derivatives at one time.
     66 vectors produced by pass  1 Test12= 1.63D-14 1.39D-09 XBig12= 3.29D-03 6.49D-03.
     66 vectors produced by pass  2 Test12= 1.63D-14 1.39D-09 XBig12= 4.98D-05 1.06D-03.
     66 vectors produced by pass  3 Test12= 1.63D-14 1.39D-09 XBig12= 4.16D-07 6.78D-05.
     66 vectors produced by pass  4 Test12= 1.63D-14 1.39D-09 XBig12= 2.24D-09 4.31D-06.
     66 vectors produced by pass  5 Test12= 1.63D-14 1.39D-09 XBig12= 1.06D-11 2.76D-07.
     22 vectors produced by pass  6 Test12= 1.63D-14 1.39D-09 XBig12= 3.85D-14 1.80D-08.
 InvSVY:  IOpt=1 It=  1 EMax= 3.61D-16
 Solved reduced A of dimension   418 with    72 vectors.
 End of Minotr F.D. properties file   721 does not exist.
 End of Minotr F.D. properties file   722 does not exist.
 End of Minotr F.D. properties file   788 does not exist.
 Leave Link 1002 at Sat Sep 28 21:59:04 2019, MaxMem=   671088640 cpu:           10455.2 elap:            5229.1
 (Enter /shared/centos7/gaussian/g16/l601.exe)
 Copying SCF densities to generalized density rwf, IOpCl= 0 IROHF=0.

 **********************************************************************

            Population analysis using the SCF density.

 **********************************************************************

 Orbital symmetries:
       Occupied  (A) (A) (A) (A) (A) (A) (A) (A) (A) (A) (A) (A)
                 (A) (A) (A) (A) (A) (A) (A) (A) (A) (A) (A) (A)
                 (A) (A) (A) (A) (A)
       Virtual   (A) (A) (A) (A) (A) (A) (A) (A) (A) (A) (A) (A)
                 (A) (A) (A) (A) (A) (A) (A) (A) (A) (A) (A) (A)
                 (A) (A) (A) (A) (A) (A) (A) (A) (A) (A) (A) (A)
                 (A) (A) (A) (A) (A) (A) (A) (A) (A) (A) (A) (A)
                 (A) (A) (A) (A) (A) (A) (A) (A) (A) (A) (A) (A)
                 (A) (A) (A) (A) (A) (A) (A) (A) (A) (A) (A) (A)
                 (A) (A) (A) (A) (A) (A) (A) (A) (A) (A) (A) (A)
                 (A) (A) (A) (A) (A) (A) (A) (A) (A) (A) (A) (A)
                 (A) (A) (A) (A) (A) (A) (A) (A) (A) (A) (A) (A)
                 (A) (A) (A) (A) (A) (A) (A) (A) (A) (A) (A) (A)
                 (A) (A) (A) (A) (A) (A) (A) (A) (A) (A) (A) (A)
                 (A) (A) (A) (A) (A) (A) (A) (A) (A) (A) (A) (A)
                 (A) (A) (A) (A) (A) (A) (A) (A) (A) (A) (A) (A)
                 (A) (A) (A) (A) (A) (A) (A) (A) (A) (A) (A) (A)
                 (A) (A) (A) (A) (A) (A) (A) (A) (A) (A) (A) (A)
                 (A) (A) (A) (A) (A) (A) (A) (A) (A) (A) (A) (A)
                 (A) (A) (A) (A) (A) (A) (A) (A) (A) (A) (A) (A)
                 (A) (A) (A) (A) (A) (A) (A) (A) (A) (A) (A) (A)
                 (A) (A) (A) (A) (A) (A) (A) (A) (A) (A) (A) (A)
                 (A) (A) (A) (A) (A) (A) (A) (A) (A) (A) (A) (A)
                 (A) (A) (A) (A) (A) (A) (A) (A) (A) (A) (A) (A)
                 (A) (A) (A) (A) (A) (A) (A) (A) (A) (A) (A) (A)
                 (A) (A) (A) (A) (A) (A) (A) (A) (A) (A) (A) (A)
                 (A) (A) (A) (A) (A) (A) (A) (A) (A) (A) (A) (A)
                 (A) (A) (A) (A) (A) (A) (A) (A) (A) (A) (A) (A)
                 (A) (A) (A) (A) (A) (A) (A) (A) (A) (A) (A) (A)
                 (A) (A) (A) (A) (A) (A) (A) (A) (A) (A) (A) (A)
                 (A) (A) (A) (A) (A) (A) (A) (A) (A) (A) (A) (A)
                 (A) (A) (A) (A) (A) (A) (A) (A) (A) (A) (A) (A)
                 (A) (A) (A) (A) (A) (A) (A) (A) (A) (A) (A) (A)
                 (A) (A) (A) (A) (A) (A) (A) (A) (A) (A) (A) (A)
                 (A) (A) (A) (A) (A) (A) (A) (A) (A) (A) (A) (A)
                 (A) (A) (A) (A) (A) (A) (A) (A) (A) (A) (A) (A)
                 (A) (A) (A) (A) (A) (A) (A) (A) (A)
 The electronic state is 1-A.
 Alpha  occ. eigenvalues --  -10.52647 -10.52538 -10.52527 -10.52423 -10.52311
 Alpha  occ. eigenvalues --  -10.52254 -10.52156  -0.92140  -0.88389  -0.82712
 Alpha  occ. eigenvalues --   -0.76367  -0.70344  -0.65415  -0.63780  -0.54675
 Alpha  occ. eigenvalues --   -0.52604  -0.52104  -0.48902  -0.48083  -0.47229
 Alpha  occ. eigenvalues --   -0.44326  -0.42659  -0.42053  -0.40237  -0.38416
 Alpha  occ. eigenvalues --   -0.38248  -0.37246  -0.35852  -0.35291
 Alpha virt. eigenvalues --    0.06482   0.07585   0.08261   0.08757   0.11026
 Alpha virt. eigenvalues --    0.11333   0.12169   0.12730   0.13740   0.14387
 Alpha virt. eigenvalues --    0.16013   0.16932   0.17834   0.19009   0.19823
 Alpha virt. eigenvalues --    0.20007   0.22202   0.24138   0.24578   0.25204
 Alpha virt. eigenvalues --    0.27320   0.28095   0.29500   0.29836   0.31728
 Alpha virt. eigenvalues --    0.32577   0.34180   0.35343   0.36408   0.37232
 Alpha virt. eigenvalues --    0.38932   0.39367   0.40638   0.41665   0.42079
 Alpha virt. eigenvalues --    0.44329   0.45619   0.46514   0.46774   0.47127
 Alpha virt. eigenvalues --    0.48311   0.48614   0.49373   0.49959   0.50588
 Alpha virt. eigenvalues --    0.51724   0.52289   0.52845   0.53152   0.53293
 Alpha virt. eigenvalues --    0.54546   0.55212   0.55440   0.55923   0.56852
 Alpha virt. eigenvalues --    0.57861   0.58243   0.59728   0.59912   0.61205
 Alpha virt. eigenvalues --    0.65209   0.65868   0.71214   0.72012   0.75712
 Alpha virt. eigenvalues --    0.77317   0.81188   0.81383   0.82944   0.84823
 Alpha virt. eigenvalues --    0.85436   0.86986   0.89160   0.90691   0.91858
 Alpha virt. eigenvalues --    0.92605   0.94516   0.96362   0.98406   0.99052
 Alpha virt. eigenvalues --    0.99935   1.00693   1.02107   1.03662   1.03973
 Alpha virt. eigenvalues --    1.05470   1.06573   1.08471   1.08973   1.09378
 Alpha virt. eigenvalues --    1.10457   1.11248   1.11783   1.12569   1.13367
 Alpha virt. eigenvalues --    1.14886   1.15727   1.16514   1.17643   1.18011
 Alpha virt. eigenvalues --    1.19514   1.20545   1.20859   1.21345   1.23237
 Alpha virt. eigenvalues --    1.24487   1.25386   1.26364   1.27333   1.28301
 Alpha virt. eigenvalues --    1.29751   1.30299   1.30827   1.32492   1.33498
 Alpha virt. eigenvalues --    1.33563   1.35066   1.35747   1.36403   1.37548
 Alpha virt. eigenvalues --    1.38868   1.39238   1.39756   1.40960   1.43825
 Alpha virt. eigenvalues --    1.45359   1.45565   1.47748   1.48177   1.49860
 Alpha virt. eigenvalues --    1.50644   1.50976   1.52209   1.54943   1.55441
 Alpha virt. eigenvalues --    1.55991   1.56655   1.57526   1.57705   1.60149
 Alpha virt. eigenvalues --    1.61753   1.63699   1.66330   1.67847   1.71016
 Alpha virt. eigenvalues --    1.75902   1.76690   1.78458   1.80978   2.18022
 Alpha virt. eigenvalues --    2.22774   2.27400   2.28648   2.29475   2.32151
 Alpha virt. eigenvalues --    2.34166   2.37622   2.39182   2.41023   2.43487
 Alpha virt. eigenvalues --    2.45145   2.46776   2.47864   2.50904   2.53017
 Alpha virt. eigenvalues --    2.54296   2.55859   2.56352   2.58131   2.59815
 Alpha virt. eigenvalues --    2.61383   2.62103   2.63627   2.64517   2.65872
 Alpha virt. eigenvalues --    2.67087   2.68838   2.69630   2.70428   2.71604
 Alpha virt. eigenvalues --    2.74219   2.75543   2.75809   2.77492   2.79023
 Alpha virt. eigenvalues --    2.80709   2.81704   2.83150   2.83384   2.85481
 Alpha virt. eigenvalues --    2.86888   2.87350   2.89104   2.90345   2.91140
 Alpha virt. eigenvalues --    2.93329   2.94481   2.95779   2.96443   2.98929
 Alpha virt. eigenvalues --    2.99358   2.99629   3.01060   3.03037   3.03318
 Alpha virt. eigenvalues --    3.04253   3.05536   3.06010   3.06419   3.07581
 Alpha virt. eigenvalues --    3.08950   3.09042   3.09714   3.11235   3.11677
 Alpha virt. eigenvalues --    3.12531   3.13845   3.14465   3.16704   3.17465
 Alpha virt. eigenvalues --    3.17793   3.18216   3.19714   3.20537   3.22512
 Alpha virt. eigenvalues --    3.24079   3.25863   3.26171   3.27986   3.28399
 Alpha virt. eigenvalues --    3.29713   3.31625   3.32017   3.34150   3.34397
 Alpha virt. eigenvalues --    3.36145   3.37000   3.38830   3.39771   3.40633
 Alpha virt. eigenvalues --    3.41757   3.43559   3.43843   3.45323   3.46751
 Alpha virt. eigenvalues --    3.47916   3.49039   3.49669   3.51550   3.52261
 Alpha virt. eigenvalues --    3.53071   3.55506   3.56784   3.57082   3.59616
 Alpha virt. eigenvalues --    3.60013   3.61890   3.62384   3.62821   3.63562
 Alpha virt. eigenvalues --    3.64478   3.66823   3.70495   3.71952   3.72606
 Alpha virt. eigenvalues --    3.73050   3.74615   3.76155   3.77062   3.78487
 Alpha virt. eigenvalues --    3.80219   3.80764   3.81657   3.83388   3.84314
 Alpha virt. eigenvalues --    3.85851   3.86183   3.87288   3.88161   3.89145
 Alpha virt. eigenvalues --    3.91035   3.91580   3.92478   3.94484   3.96041
 Alpha virt. eigenvalues --    3.96372   3.97735   3.98713   3.99945   4.00821
 Alpha virt. eigenvalues --    4.02006   4.02277   4.02573   4.04037   4.05931
 Alpha virt. eigenvalues --    4.06518   4.07692   4.08030   4.09166   4.10732
 Alpha virt. eigenvalues --    4.11546   4.12426   4.13107   4.14175   4.16187
 Alpha virt. eigenvalues --    4.17369   4.18076   4.19098   4.20503   4.21272
 Alpha virt. eigenvalues --    4.22166   4.23507   4.26522   4.27821   4.28509
 Alpha virt. eigenvalues --    4.30148   4.31259   4.32861   4.33169   4.34831
 Alpha virt. eigenvalues --    4.37384   4.41420   4.41753   4.43060   4.45066
 Alpha virt. eigenvalues --    4.47042   4.48306   4.50254   4.52003   4.54688
 Alpha virt. eigenvalues --    4.58676   4.60692   4.61096   4.65592   4.65965
 Alpha virt. eigenvalues --    4.66808   4.67922   4.70971   4.72458   4.73116
 Alpha virt. eigenvalues --    4.76014   4.77343   4.80625   4.81802   4.83219
 Alpha virt. eigenvalues --    4.83676   4.84809   4.85449   4.89127   4.90513
 Alpha virt. eigenvalues --    4.92176   4.94885   4.96482   4.97165   4.99817
 Alpha virt. eigenvalues --    5.03740   5.04381   5.06120   5.06917   5.07882
 Alpha virt. eigenvalues --    5.08382   5.09381   5.11763   5.13056   5.14403
 Alpha virt. eigenvalues --    5.17084   5.22793   5.23576   5.25910   5.26490
 Alpha virt. eigenvalues --    5.26895   5.28276   5.28713   5.30629   5.34331
 Alpha virt. eigenvalues --    5.36696   5.37129   5.38937   5.40991   5.42542
 Alpha virt. eigenvalues --    5.43467   5.45450   5.49427   5.54010   5.54602
 Alpha virt. eigenvalues --    5.56693   5.64491   5.68882   5.70776   5.77284
 Alpha virt. eigenvalues --    5.78939   5.81554   5.84103   5.88367   5.92153
 Alpha virt. eigenvalues --    5.94573   5.97400   6.03727  11.32864  11.74819
 Alpha virt. eigenvalues --   12.47801  12.89993  13.28880  13.51775  13.94277
          Condensed to atoms (all electrons):
               1          2          3          4          5          6
     1  C    5.074995   0.297717  -0.046278   0.325994   0.004918  -0.044595
     2  C    0.297717   5.138179   0.299560  -0.052760  -0.050196  -0.011072
     3  C   -0.046278   0.299560   5.125148   0.007718   0.296956   0.000279
     4  C    0.325994  -0.052760   0.007718   5.047816  -0.000465   0.284345
     5  C    0.004918  -0.050196   0.296956  -0.000465   5.050037   0.000016
     6  C   -0.044595  -0.011072   0.000279   0.284345   0.000016   4.996733
     7  C   -0.000498   0.005235  -0.049169  -0.000010   0.306843  -0.000005
     8  H   -0.043507  -0.008635   0.000136   0.412650  -0.000024  -0.050357
     9  H   -0.044645   0.009860  -0.000508   0.416783   0.000040  -0.044459
    10  H    0.418989  -0.042981  -0.007637  -0.043655   0.000360   0.009062
    11  H    0.406001  -0.054690  -0.000346  -0.035425   0.000044  -0.004962
    12  H   -0.046922   0.403456  -0.038533   0.000221   0.006287  -0.001119
    13  H   -0.045121   0.419602  -0.045384  -0.004778  -0.016463  -0.001711
    14  H   -0.006459  -0.058910   0.416057   0.001217  -0.050799  -0.000052
    15  H    0.005434  -0.038712   0.405601  -0.000457  -0.039407  -0.000034
    16  H    0.000418  -0.010818  -0.059142  -0.000021   0.418474  -0.000027
    17  H   -0.000440   0.004500  -0.038934   0.000028   0.405360  -0.000002
    18  H    0.000731  -0.004761  -0.000005  -0.061594   0.000240   0.408356
    19  H    0.004471  -0.000098   0.000019  -0.042606  -0.000005   0.402152
    20  H    0.004821   0.000611  -0.000002  -0.042877   0.000001   0.406638
    21  H   -0.000517  -0.000628  -0.002502   0.000010  -0.051190   0.000000
    22  H    0.000041   0.000044  -0.001703  -0.000000  -0.040205  -0.000000
    23  H    0.000047  -0.000607   0.009260  -0.000001  -0.042527   0.000001
               7          8          9         10         11         12
     1  C   -0.000498  -0.043507  -0.044645   0.418989   0.406001  -0.046922
     2  C    0.005235  -0.008635   0.009860  -0.042981  -0.054690   0.403456
     3  C   -0.049169   0.000136  -0.000508  -0.007637  -0.000346  -0.038533
     4  C   -0.000010   0.412650   0.416783  -0.043655  -0.035425   0.000221
     5  C    0.306843  -0.000024   0.000040   0.000360   0.000044   0.006287
     6  C   -0.000005  -0.050357  -0.044459   0.009062  -0.004962  -0.001119
     7  C    4.946178  -0.000002  -0.000002   0.000110  -0.000552  -0.000574
     8  H   -0.000002   0.613979  -0.036138  -0.006738   0.009032   0.004664
     9  H   -0.000002  -0.036138   0.605222  -0.006976  -0.007404   0.000207
    10  H    0.000110  -0.006738  -0.006976   0.581848  -0.034198  -0.006570
    11  H   -0.000552   0.009032  -0.007404  -0.034198   0.582301   0.008725
    12  H   -0.000574   0.004664   0.000207  -0.006570   0.008725   0.589347
    13  H    0.001322  -0.000295  -0.000342   0.007487  -0.006636  -0.039644
    14  H   -0.011488   0.000014  -0.000088   0.001564  -0.000459   0.005672
    15  H    0.006705   0.000013   0.000023   0.000605  -0.000007  -0.017330
    16  H   -0.044831   0.000004   0.000015  -0.000049   0.000285   0.001152
    17  H   -0.037010   0.000000  -0.000001  -0.000010  -0.000003  -0.000179
    18  H   -0.000017   0.006130   0.006228   0.000316   0.001023   0.001110
    19  H   -0.000000   0.007207  -0.020663  -0.000415   0.001331  -0.000027
    20  H   -0.000000  -0.019167   0.006373  -0.000534  -0.000233  -0.000108
    21  H    0.406369   0.000000  -0.000006   0.000028   0.000488  -0.000039
    22  H    0.403355   0.000000   0.000000  -0.000023   0.000038   0.000029
    23  H    0.404135   0.000000   0.000000   0.000002   0.000026   0.000035
              13         14         15         16         17         18
     1  C   -0.045121  -0.006459   0.005434   0.000418  -0.000440   0.000731
     2  C    0.419602  -0.058910  -0.038712  -0.010818   0.004500  -0.004761
     3  C   -0.045384   0.416057   0.405601  -0.059142  -0.038934  -0.000005
     4  C   -0.004778   0.001217  -0.000457  -0.000021   0.000028  -0.061594
     5  C   -0.016463  -0.050799  -0.039407   0.418474   0.405360   0.000240
     6  C   -0.001711  -0.000052  -0.000034  -0.000027  -0.000002   0.408356
     7  C    0.001322  -0.011488   0.006705  -0.044831  -0.037010  -0.000017
     8  H   -0.000295   0.000014   0.000013   0.000004   0.000000   0.006130
     9  H   -0.000342  -0.000088   0.000023   0.000015  -0.000001   0.006228
    10  H    0.007487   0.001564   0.000605  -0.000049  -0.000010   0.000316
    11  H   -0.006636  -0.000459  -0.000007   0.000285  -0.000003   0.001023
    12  H   -0.039644   0.005672  -0.017330   0.001152  -0.000179   0.001110
    13  H    0.587990   0.005712   0.005230   0.002626   0.000998  -0.003154
    14  H    0.005712   0.593958  -0.037472   0.005963   0.005592  -0.000050
    15  H    0.005230  -0.037472   0.596759   0.006035  -0.017594   0.000020
    16  H    0.002626   0.005963   0.006035   0.624358  -0.041630   0.000435
    17  H    0.000998   0.005592  -0.017594  -0.041630   0.606155  -0.000020
    18  H   -0.003154  -0.000050   0.000020   0.000435  -0.000020   0.605882
    19  H    0.000322   0.000008   0.000000  -0.000003   0.000000  -0.033475
    20  H   -0.000747  -0.000001  -0.000002  -0.000004   0.000000  -0.037735
    21  H    0.000399   0.000421   0.000460  -0.000511   0.007713   0.000000
    22  H   -0.000109   0.001091   0.000172   0.008573  -0.014827   0.000001
    23  H   -0.000129   0.000711  -0.000590  -0.013017   0.000694   0.000001
              19         20         21         22         23
     1  C    0.004471   0.004821  -0.000517   0.000041   0.000047
     2  C   -0.000098   0.000611  -0.000628   0.000044  -0.000607
     3  C    0.000019  -0.000002  -0.002502  -0.001703   0.009260
     4  C   -0.042606  -0.042877   0.000010  -0.000000  -0.000001
     5  C   -0.000005   0.000001  -0.051190  -0.040205  -0.042527
     6  C    0.402152   0.406638   0.000000  -0.000000   0.000001
     7  C   -0.000000  -0.000000   0.406369   0.403355   0.404135
     8  H    0.007207  -0.019167   0.000000   0.000000   0.000000
     9  H   -0.020663   0.006373  -0.000006   0.000000   0.000000
    10  H   -0.000415  -0.000534   0.000028  -0.000023   0.000002
    11  H    0.001331  -0.000233   0.000488   0.000038   0.000026
    12  H   -0.000027  -0.000108  -0.000039   0.000029   0.000035
    13  H    0.000322  -0.000747   0.000399  -0.000109  -0.000129
    14  H    0.000008  -0.000001   0.000421   0.001091   0.000711
    15  H    0.000000  -0.000002   0.000460   0.000172  -0.000590
    16  H   -0.000003  -0.000004  -0.000511   0.008573  -0.013017
    17  H    0.000000   0.000000   0.007713  -0.014827   0.000694
    18  H   -0.033475  -0.037735   0.000000   0.000001   0.000001
    19  H    0.608327  -0.030447   0.000000  -0.000000  -0.000000
    20  H   -0.030447   0.598585  -0.000000   0.000000  -0.000000
    21  H    0.000000  -0.000000   0.599491  -0.038115  -0.033403
    22  H   -0.000000   0.000000  -0.038115   0.606449  -0.030887
    23  H   -0.000000  -0.000000  -0.033403  -0.030887   0.606324
 Mulliken charges:
               1
     1  C   -0.265593
     2  C   -0.243896
     3  C   -0.270590
     4  C   -0.212131
     5  C   -0.198295
     6  C   -0.349188
     7  C   -0.336094
     8  H    0.111034
     9  H    0.116482
    10  H    0.129415
    11  H    0.135621
    12  H    0.130138
    13  H    0.132825
    14  H    0.127798
    15  H    0.124549
    16  H    0.101715
    17  H    0.119609
    18  H    0.110339
    19  H    0.103901
    20  H    0.114830
    21  H    0.111531
    22  H    0.106075
    23  H    0.099925
 Sum of Mulliken charges =  -0.00000
 Mulliken charges with hydrogens summed into heavy atoms:
               1
     1  C   -0.000557
     2  C    0.019068
     3  C   -0.018244
     4  C    0.015385
     5  C    0.023029
     6  C   -0.020119
     7  C   -0.018563
 APT charges:
               1
     1  C   -0.560785
     2  C   -0.496797
     3  C   -0.705028
     4  C   -0.887993
     5  C   -0.608988
     6  C   -1.122824
     7  C   -1.270397
     8  H    0.390900
     9  H    0.478978
    10  H    0.371064
    11  H    0.256614
    12  H    0.369059
    13  H    0.265561
    14  H    0.284515
    15  H    0.424592
    16  H    0.197447
    17  H    0.487437
    18  H    0.066704
    19  H    0.507937
    20  H    0.437473
    21  H    0.156622
    22  H    0.525583
    23  H    0.432325
 Sum of APT charges =  -0.00000
 APT charges with hydrogens summed into heavy atoms:
               1
     1  C    0.066894
     2  C    0.137823
     3  C    0.004079
     4  C   -0.018116
     5  C    0.075897
     6  C   -0.110710
     7  C   -0.155867
 Electronic spatial extent (au):  <R**2>=           1340.3122
 Charge=             -0.0000 electrons
 Dipole moment (field-independent basis, Debye):
    X=              0.0387    Y=             -0.1346    Z=             -0.0537  Tot=              0.1500
 Quadrupole moment (field-independent basis, Debye-Ang):
   XX=            -49.5849   YY=            -49.0270   ZZ=            -49.1694
   XY=              0.1638   XZ=              0.6182   YZ=              0.3617
 Traceless Quadrupole moment (field-independent basis, Debye-Ang):
   XX=             -0.3245   YY=              0.2334   ZZ=              0.0910
   XY=              0.1638   XZ=              0.6182   YZ=              0.3617
 Octapole moment (field-independent basis, Debye-Ang**2):
  XXX=              0.4841  YYY=             -1.2877  ZZZ=              0.3774  XYY=             -1.0613
  XXY=             -2.5223  XXZ=             -1.3471  XZZ=              1.8667  YZZ=             -0.9296
  YYZ=             -0.9177  XYZ=              1.3003
 Hexadecapole moment (field-independent basis, Debye-Ang**3):
 XXXX=          -1470.7173 YYYY=           -255.1836 ZZZZ=           -192.6725 XXXY=             10.6298
 XXXZ=              9.9126 YYYX=             -5.1780 YYYZ=              1.6164 ZZZX=              2.0702
 ZZZY=              1.2688 XXYY=           -288.2355 XXZZ=           -273.7193 YYZZ=            -73.6282
 XXYZ=              4.0801 YYXZ=              4.3606 ZZXY=              2.2271
 N-N= 3.196950785710D+02 E-N=-1.277826110733D+03  KE= 2.744986971985D+02
  Exact polarizability:   0.000   0.000   0.000   0.000   0.000   0.000
 Approx polarizability:  97.954   0.070  98.615  -0.239   0.158  97.897
 No NMR shielding tensors so no spin-rotation constants.
 Leave Link  601 at Sat Sep 28 21:59:30 2019, MaxMem=   671088640 cpu:              52.2 elap:              26.1
 (Enter /shared/centos7/gaussian/g16/l701.exe)
 SCFChk:  SCF convergence  6.69D-09 required  1.00D-08
 ... and contract with generalized density number  0.
 Compute integral second derivatives.
 Entering OneElI...
 Calculate overlap and kinetic energy integrals
    NBasis = 485  MinDer = 2  MaxDer = 2
 Requested accuracy = 0.1000D-12
 PrmmSu-InSpLW:  IPartL=    0 NPrtUS=   20 NPrtUL=    1 DoSpLW=F IThBeg=    0 IThEnd=   19 NThAct=   20.
 PrsmSu:  NPrtUS=  20 ThrOK=T IAlg=1 NPAlg=1 LenDen=           0 ISkipM=0 DoSpLW=F IThBeg=    0 IThEnd=   19.
 Prism:   IPart=     0 DynPar=F LinDyn=F Incr=           6.
 PRISM was handed    33207737 working-precision words and 13504 shell-pairs
 PRISM was handed    33207737 working-precision words and 13504 shell-pairs
 PRISM was handed    33207737 working-precision words and 13504 shell-pairs
 PRISM was handed    33207737 working-precision words and 13504 shell-pairs
 PRISM was handed    33207737 working-precision words and 13504 shell-pairs
 PRISM was handed    33207737 working-precision words and 13504 shell-pairs
 PRISM was handed    33207737 working-precision words and 13504 shell-pairs
 PRISM was handed    33207737 working-precision words and 13504 shell-pairs
 PRISM was handed    33207737 working-precision words and 13504 shell-pairs
 PRISM was handed    33207737 working-precision words and 13504 shell-pairs
 PRISM was handed    33207737 working-precision words and 13504 shell-pairs
 PRISM was handed    33207737 working-precision words and 13504 shell-pairs
 PRISM was handed    33207737 working-precision words and 13504 shell-pairs
 PRISM was handed    33207737 working-precision words and 13504 shell-pairs
 PRISM was handed    33207737 working-precision words and 13504 shell-pairs
 PRISM was handed    33207737 working-precision words and 13504 shell-pairs
 PRISM was handed    33207737 working-precision words and 13504 shell-pairs
 PRISM was handed    33207737 working-precision words and 13504 shell-pairs
 PRISM was handed    33207737 working-precision words and 13504 shell-pairs
 PRISM was handed    33207737 working-precision words and 13504 shell-pairs
 IPart= 10 NShTot=         670 NBatch=          57 AvBLen=        11.8
 IPart= 16 NShTot=         654 NBatch=          50 AvBLen=        13.1
 IPart=  1 NShTot=         706 NBatch=          79 AvBLen=         8.9
 IPart= 15 NShTot=         658 NBatch=          52 AvBLen=        12.7
 IPart=  2 NShTot=         703 NBatch=          76 AvBLen=         9.3
 IPart=  0 NShTot=         708 NBatch=          80 AvBLen=         8.9
 IPart= 18 NShTot=         647 NBatch=          47 AvBLen=        13.8
 IPart=  3 NShTot=         700 NBatch=          73 AvBLen=         9.6
 IPart=  4 NShTot=         697 NBatch=          72 AvBLen=         9.7
 IPart= 14 NShTot=         659 NBatch=          52 AvBLen=        12.7
 IPart=  5 NShTot=         690 NBatch=          69 AvBLen=        10.0
 IPart= 17 NShTot=         652 NBatch=          50 AvBLen=        13.0
 IPart=  9 NShTot=         673 NBatch=          59 AvBLen=        11.4
 IPart=  6 NShTot=         687 NBatch=          66 AvBLen=        10.4
 IPart= 12 NShTot=         666 NBatch=          54 AvBLen=        12.3
 IPart=  8 NShTot=         677 NBatch=          61 AvBLen=        11.1
 IPart= 19 NShTot=         645 NBatch=          47 AvBLen=        13.7
 IPart=  7 NShTot=         680 NBatch=          61 AvBLen=        11.1
 IPart= 13 NShTot=         663 NBatch=          53 AvBLen=        12.5
 IPart= 11 NShTot=         669 NBatch=          56 AvBLen=        11.9
 PrSmSu:  NxtVal=            121.
 Entering OneElI...
 Calculate potential energy integrals
    NBasis = 485  MinDer = 2  MaxDer = 2
 Requested accuracy = 0.1000D-12
 PrmmSu-InSpLW:  IPartL=    0 NPrtUS=   20 NPrtUL=    1 DoSpLW=F IThBeg=    0 IThEnd=   19 NThAct=   20.
 PrsmSu:  NPrtUS=  20 ThrOK=T IAlg=1 NPAlg=1 LenDen=           0 ISkipM=0 DoSpLW=F IThBeg=    0 IThEnd=   19.
 Prism:   IPart=     0 DynPar=F LinDyn=F Incr=         136.
 PRISM was handed    33273251 working-precision words and 11859 shell-pairs
 PRISM was handed    33273251 working-precision words and 11859 shell-pairs
 PRISM was handed    33273251 working-precision words and 11859 shell-pairs
 PRISM was handed    33273251 working-precision words and 11859 shell-pairs
 PRISM was handed    33273251 working-precision words and 11859 shell-pairs
 PRISM was handed    33273251 working-precision words and 11859 shell-pairs
 PRISM was handed    33273251 working-precision words and 11859 shell-pairs
 PRISM was handed    33273251 working-precision words and 11859 shell-pairs
 PRISM was handed    33273251 working-precision words and 11859 shell-pairs
 PRISM was handed    33273251 working-precision words and 11859 shell-pairs
 PRISM was handed    33273251 working-precision words and 11859 shell-pairs
 PRISM was handed    33273251 working-precision words and 11859 shell-pairs
 PRISM was handed    33273251 working-precision words and 11859 shell-pairs
 PRISM was handed    33273251 working-precision words and 11859 shell-pairs
 PRISM was handed    33273251 working-precision words and 11859 shell-pairs
 PRISM was handed    33273251 working-precision words and 11859 shell-pairs
 PRISM was handed    33273251 working-precision words and 11859 shell-pairs
 PRISM was handed    33273251 working-precision words and 11859 shell-pairs
 PRISM was handed    33273251 working-precision words and 11859 shell-pairs
 PRISM was handed    33273251 working-precision words and 11859 shell-pairs
 IPart= 12 NShTot=       13386 NBatch=         583 AvBLen=        23.0
 IPart= 11 NShTot=       13478 NBatch=         587 AvBLen=        23.0
 IPart= 13 NShTot=       13340 NBatch=         581 AvBLen=        23.0
 IPart=  9 NShTot=       13616 NBatch=         593 AvBLen=        23.0
 IPart= 18 NShTot=       13064 NBatch=         569 AvBLen=        23.0
 IPart= 17 NShTot=       13087 NBatch=         570 AvBLen=        23.0
 IPart=  0 NShTot=       14352 NBatch=         626 AvBLen=        22.9
 IPart=  7 NShTot=       13685 NBatch=         596 AvBLen=        23.0
 IPart=  8 NShTot=       13662 NBatch=         595 AvBLen=        23.0
 IPart=  4 NShTot=       14122 NBatch=         616 AvBLen=        22.9
 IPart= 10 NShTot=       13570 NBatch=         591 AvBLen=        23.0
 IPart= 14 NShTot=       13294 NBatch=         579 AvBLen=        23.0
 IPart=  3 NShTot=       14168 NBatch=         618 AvBLen=        22.9
 IPart=  6 NShTot=       13938 NBatch=         607 AvBLen=        23.0
 IPart= 16 NShTot=       13133 NBatch=         572 AvBLen=        23.0
 IPart= 15 NShTot=       13225 NBatch=         576 AvBLen=        23.0
 IPart=  5 NShTot=       14053 NBatch=         612 AvBLen=        23.0
 IPart=  1 NShTot=       14283 NBatch=         623 AvBLen=        22.9
 IPart= 19 NShTot=       13064 NBatch=         569 AvBLen=        23.0
 IPart=  2 NShTot=       14237 NBatch=         621 AvBLen=        22.9
 PrSmSu:  NxtVal=           2721.
 Polarizability after L701:
                1             2             3 
      1  0.000000D+00
      2  0.000000D+00  0.000000D+00
      3  0.000000D+00  0.000000D+00  0.000000D+00
 Dipole Derivatives after L701:
                 1             2             3             4             5 
      1   0.935757D-01  0.137632D+00 -0.460333D+00 -0.745057D-01  0.158850D+00
      2  -0.485266D-01 -0.943562D+00  0.333717D+00  0.306057D+00 -0.701413D+00
      3   0.299162D+00  0.828563D-01 -0.832367D+00  0.179630D+00  0.383176D-01
                 6             7             8             9            10 
      1   0.215923D+00 -0.392774D+00 -0.900425D+00  0.393667D+00 -0.157120D+01
      2  -0.396723D+00 -0.338849D+00 -0.102029D+01  0.103386D+00  0.285838D+00
      3  -0.714471D+00 -0.400237D-01 -0.304182D+00 -0.702021D+00 -0.332940D+00
                11            12            13            14            15 
      1   0.149642D+01 -0.756701D+00 -0.652439D+00  0.184372D+00 -0.161946D+01
      2  -0.379765D+00 -0.280772D+00 -0.369096D+00 -0.453811D+00  0.199552D+00
      3  -0.163761D+00 -0.713012D+00 -0.219161D+00  0.221024D+00 -0.720714D+00
                16            17            18            19            20 
      1  -0.126440D+01 -0.159137D+01  0.870864D+00 -0.183675D+01  0.547125D+00
      2  -0.556015D-01 -0.114348D+01  0.111130D+00  0.153492D+00 -0.108163D+01
      3   0.200274D-01 -0.847136D-02 -0.960592D+00 -0.190593D-01  0.100269D-01
                21            22            23            24            25 
      1   0.111652D+01  0.530573D+00 -0.730881D+00 -0.588994D+00  0.723061D+00
      2  -0.210843D+00 -0.145551D+00  0.432743D+00  0.216274D+00 -0.196594D-01
      3  -0.892813D+00 -0.655024D-01  0.683309D-01  0.209384D+00  0.264015D+00
                26            27            28            29            30 
      1   0.395379D-01  0.943199D+00  0.135017D+00 -0.301370D+00  0.180801D+00
      2   0.153375D+00 -0.754693D-01  0.267605D-01  0.631527D+00 -0.270842D+00
      3   0.848118D-02  0.560498D+00 -0.133972D-01 -0.385194D+00  0.346649D+00
                31            32            33            34            35 
      1   0.762954D-01  0.138787D+00  0.159245D+00  0.202375D+00 -0.139183D+00
      2  -0.484946D-01  0.242995D+00  0.833079D-01 -0.127956D+00  0.499606D+00
      3  -0.146218D+00  0.337856D+00  0.450551D+00 -0.113541D+00  0.319636D+00
                36            37            38            39            40 
      1  -0.130545D+00  0.167920D+00  0.707724D-01 -0.353205D-01  0.179599D+00
      2   0.329635D+00  0.616130D-02  0.315427D+00 -0.797802D-01  0.288063D-01
      3   0.405196D+00 -0.287061D-01 -0.353589D+00  0.313336D+00 -0.297303D-01
                41            42            43            44            45 
      1   0.863133D-01 -0.451402D+00  0.313304D+00  0.439252D+00  0.280912D+00
      2   0.202216D+00 -0.373028D+00  0.158653D+00  0.674808D+00  0.353100D+00
      3  -0.538180D-01  0.471729D+00  0.823567D-01  0.254044D+00  0.285665D+00
                46            47            48            49            50 
      1  -0.107107D+00 -0.440215D+00  0.264689D+00  0.833397D+00  0.396699D+00
      2   0.169542D+00  0.425663D+00 -0.169462D+00  0.583395D-01  0.188789D+00
      3  -0.185810D+00 -0.287800D+00  0.273786D+00  0.306998D+00  0.196402D+00
                51            52            53            54            55 
      1   0.695525D+00 -0.320956D+00  0.280112D+00 -0.165649D+00  0.821511D+00
      2   0.685477D-01 -0.482496D+00  0.378822D+00 -0.152430D+00  0.381404D+00
      3   0.440125D+00  0.171448D+00 -0.102763D+00  0.142246D+00  0.101258D+00
                56            57            58            59            60 
      1   0.730145D+00  0.763944D+00  0.653747D+00 -0.239620D+00 -0.106223D+01
      2   0.483877D+00  0.365028D+00  0.118820D+00  0.970135D-01 -0.242179D+00
      3   0.602671D-01  0.218422D+00 -0.257040D+00  0.111076D+00  0.561657D+00
                61            62            63            64            65 
      1  -0.229544D+00  0.228557D-02 -0.648869D+00  0.130121D+01  0.805242D+00
      2   0.127747D+00  0.989750D-01  0.239598D+00  0.574935D-02  0.110083D+00
      3   0.310701D+00  0.762760D-03  0.600436D+00 -0.241874D+00 -0.141284D+00
                66            67            68            69 
      1  -0.211907D+00  0.418092D+00 -0.117047D+01  0.246133D+00
      2   0.224121D-01 -0.191141D+00  0.788025D+00 -0.174161D+00
      3   0.165453D+00 -0.425930D-01  0.917807D-01  0.908587D-01
 Hessian after L701:
                1             2             3             4             5 
      1  0.145746D+02
      2 -0.789940D+00  0.176292D+02
      3 -0.484432D+00  0.155022D+00  0.173345D+02
      4 -0.452868D+01  0.656443D-01  0.207685D+01  0.145157D+02
      5  0.984656D-01 -0.614062D+01  0.188715D+00 -0.368639D+00  0.177670D+02
      6  0.206235D+01  0.164373D+00 -0.398381D+01 -0.915291D+00 -0.511743D-01
      7  0.368624D+00  0.167550D+00  0.948327D-01 -0.227601D+01  0.685864D+00
      8  0.938497D-01 -0.155568D+00  0.156005D-01  0.684717D+00 -0.578160D+01
      9  0.233338D+00  0.505824D-01 -0.893167D-01 -0.673977D+00 -0.449799D-01
     10 -0.240081D+01  0.780633D+00 -0.793257D+00  0.292324D+00  0.106597D+00
     11  0.801515D+00 -0.597996D+01 -0.144130D+00  0.181728D+00 -0.908637D-01
     12 -0.808317D+00 -0.155628D+00 -0.603896D+01  0.244428D+00  0.419236D-01
     13  0.238256D+00 -0.104354D+00  0.101598D+00  0.272160D+00 -0.175687D+00
     14 -0.720640D-01 -0.135282D+00 -0.215550D-01 -0.797151D-01 -0.228972D-01
     15  0.111120D+00 -0.306140D-01 -0.102533D+00 -0.599985D-01  0.577877D-03
     16  0.443500D-01  0.282134D+00 -0.121572D+00  0.169198D+00  0.212807D+00
     17  0.200367D+00  0.126723D+00 -0.165065D+00  0.114889D+00 -0.105816D+00
     18 -0.131979D+00 -0.199968D+00 -0.593964D-01  0.612511D-01  0.329803D-01
     19  0.125653D+00 -0.672266D-01 -0.278072D-01  0.184037D+00 -0.148172D+00
     20 -0.557267D-01 -0.674352D-01  0.506038D-02 -0.114370D+00 -0.958010D-01
     21  0.364808D-01 -0.105321D-01 -0.891839D-01 -0.905652D-01  0.395886D-01
     22 -0.600862D-01  0.224895D-01  0.110343D+00 -0.478533D-02  0.657028D-02
     23  0.869380D-02  0.129849D+00  0.146161D-02 -0.169078D-01 -0.271589D-02
     24  0.630466D-01  0.150588D-01  0.514505D-01 -0.141452D-01  0.307246D-02
     25 -0.835741D-01 -0.324145D-01 -0.365343D-01  0.120411D+00  0.260970D-01
     26 -0.230106D-01  0.788303D-01 -0.113481D-01  0.151987D-01 -0.508440D-01
     27 -0.248413D-01 -0.128229D-01  0.133614D+00  0.126273D+00  0.193978D-01
     28 -0.440957D+01  0.114005D+00 -0.104908D+00  0.732973D-01  0.350230D-01
     29  0.191079D+00 -0.250688D+01 -0.114977D+01  0.108422D-01  0.149299D+00
     30 -0.161290D+00 -0.119156D+01 -0.362576D+01 -0.580385D-01  0.244719D-01
     31 -0.423193D+01 -0.584052D+00 -0.583352D+00  0.147160D+00 -0.544614D-01
     32 -0.624897D+00 -0.326681D+01  0.114260D+01 -0.327606D-01  0.171384D+00
     33 -0.671172D+00  0.122840D+01 -0.323533D+01 -0.839292D-01 -0.662086D-01
     34  0.953240D-01 -0.612651D-01 -0.124740D+00 -0.421566D+01 -0.531258D+00
     35 -0.561074D-01  0.141374D+00 -0.477545D-01 -0.575176D+00 -0.337569D+01
     36 -0.109782D+00 -0.280659D-01 -0.100850D+00 -0.630257D+00  0.107125D+01
     37  0.100680D+00  0.514686D-01 -0.966666D-01 -0.473447D+01  0.225198D+00
     38  0.244704D-01  0.150518D+00  0.579028D-01  0.223485D+00 -0.263451D+01
     39 -0.760075D-01  0.716862D-01 -0.107946D+00 -0.184687D+00 -0.134772D+01
     40 -0.110898D-01 -0.114456D-01  0.222040D-01 -0.702716D-01 -0.901351D-01
     41 -0.336690D-02 -0.271402D-01  0.370120D-02 -0.107230D+00  0.138948D+00
     42 -0.198044D-01 -0.476149D-02 -0.843979D-02  0.175312D+00  0.498523D-01
     43  0.640141D-01  0.611322D-01  0.516404D-01 -0.759654D-01 -0.616460D-01
     44  0.818058D-01  0.304463D-02  0.357484D-01 -0.535314D-01  0.103204D+00
     45  0.656589D-01  0.409990D-01 -0.142984D-01  0.325702D-01  0.513480D-01
     46  0.113893D-02 -0.145985D-01  0.124783D-01 -0.167688D-01  0.341084D-01
     47 -0.338292D-01  0.158665D-02 -0.115211D-01 -0.735998D-03 -0.741475D-02
     48  0.329082D-01 -0.197439D-01 -0.705519D-02  0.127535D-01 -0.930562D-02
     49  0.135614D-01  0.619197D-03  0.275951D-02  0.103817D+00 -0.179987D-01
     50  0.505928D-02 -0.713143D-02 -0.318360D-03 -0.542098D-02 -0.380595D-01
[...]
 10497,0.00055609,0.00044613,0.00001480,-0.00003031,0.00004364,-0.00006
 345,-0.00000846,0.00005167,-0.00099036,0.00046332,0.00012336,0.0000806
 4,0.00010139,0.00000089,0.00012924,0.00048525,0.00041571,-0.00125122,0
 .00033566,0.00251848,-0.00850294,0.32813082,-0.00160024,0.00039152,0.0
 0082257,0.00004592,0.02778533,0.00044583,0.00082747,-0.02053341,-0.047
 57552,-0.00019135,0.00001229,-0.00004696,0.00107697,-0.03098941,-0.004
 94637,-0.00006256,0.00010349,-0.00020025,-0.00028250,-0.00118564,0.001
 69939,-0.00001416,-0.00000169,-0.00005196,-0.00000505,-0.00004467,0.00
 000926,0.00022475,-0.00070688,0.00017502,0.00006015,-0.00003328,-0.000
 00888,-0.00071727,-0.00041566,0.00081845,0.00309387,0.00223777,-0.0037
 3460,-0.00066508,0.02190512,0.05715881,0.00060242,-0.00203989,0.003232
 72,-0.01487711,0.00452162,-0.00024261,-0.28477483,0.06800454,-0.007735
 28,-0.00092072,0.00035277,-0.00053953,-0.01438703,0.00390002,-0.001911
 29,-0.00007674,0.00011148,0.00006229,0.00101943,0.00003133,0.00120899,
 0.00002827,0.00001300,0.00005827,-0.00019434,-0.00010317,0.00033376,0.
 00029810,-0.00010181,-0.00005768,0.00013307,-0.00001733,-0.00012511,0.
 00067937,0.00022502,0.00030827,0.00027425,-0.00044775,-0.00033520,-0.0
 0089243,0.00086810,-0.00002164,0.31156875,-0.00011929,-0.00112569,0.00
 224126,-0.01550232,0.00316335,0.00024752,0.06879228,-0.06921276,0.0017
 8924,-0.00076840,0.00060692,0.00003482,-0.00991947,0.00270795,-0.00102
 772,0.00005537,0.00008241,-0.00013531,0.00011746,0.00014463,0.00049445
 ,0.00000341,-0.00000854,0.00001557,-0.00012889,-0.00007412,0.00026006,
 -0.00031936,0.00046052,0.00002680,0.00016973,0.00005992,-0.00012386,0.
 00060754,0.00030137,-0.00055491,0.00005574,0.00047541,-0.00073263,0.03
 144605,-0.00883306,0.00106689,-0.07333938,0.07046740,0.00121599,0.0030
 6203,-0.00431328,0.02659085,-0.00796928,-0.00028145,-0.00777516,0.0021
 8931,-0.04572341,0.00153585,-0.00037412,0.00049543,-0.02990830,0.00907
 027,-0.00455650,0.00004544,-0.00013774,-0.00002852,-0.00151681,0.00030
 431,0.00184792,-0.00006077,-0.00003941,-0.00001160,0.00027765,0.000118
 49,-0.00049827,-0.00037266,0.00005189,-0.00008322,0.00029246,0.0001809
 5,0.00005994,-0.00037592,-0.00080062,0.00073395,-0.00067636,0.00002220
 ,0.00094584,0.00256660,-0.00063416,-0.00064806,0.00859103,-0.00281998,
 0.05642104,-0.00100587,-0.00070723,0.00044937,-0.00026433,-0.00026447,
 0.00014718,-0.01246132,0.00410973,-0.00229572,0.00055637,0.00012276,0.
 00022123,-0.27532572,0.08417125,-0.02092192,-0.00004837,0.00003068,0.0
 0002062,-0.01712805,0.00581167,-0.00017010,-0.00006856,-0.00003616,0.0
 0020836,0.00004038,0.00001642,-0.00007505,-0.00000930,0.00002978,-0.00
 038317,0.00015240,0.00018501,0.00168221,0.00013330,0.00000751,-0.00011
 719,0.00002852,-0.00005094,0.00000131,0.00043744,-0.00032262,0.0001798
 4,0.00022750,-0.00114452,-0.00223398,0.30263615,0.00055656,0.00082357,
 0.00023218,0.00069620,-0.00008588,0.00034260,-0.01019453,0.00291993,-0
 .00107289,-0.00026337,-0.00025302,-0.00016406,0.08494392,-0.08105829,0
 .00719613,0.00003223,0.00000161,0.00006160,-0.01257477,0.00408819,-0.0
 0057303,0.00003171,0.00003259,-0.00013818,-0.00000382,0.00001041,0.000
 01926,0.00002405,-0.00028679,-0.00000857,-0.00048676,-0.00021540,0.000
 16919,-0.00014603,0.00000644,0.00008889,0.00003805,0.00004683,-0.00000
 757,-0.00028629,0.00063689,0.00074095,-0.00149339,0.00054367,-0.001986
 16,-0.09017198,0.08329757,0.00038409,0.00042821,-0.00055446,-0.0003264
 7,0.00021309,0.00129448,-0.02958104,0.01081590,-0.00338701,0.00026935,
 -0.00003435,0.00005882,-0.02056739,0.00679804,-0.04736632,-0.00007798,
 0.00004191,0.00006393,0.02622429,-0.00913538,0.00042765,-0.00007245,-0
 .00002362,0.00012999,0.00000336,0.00000794,-0.00003088,0.00008975,-0.0
 0033780,-0.00010751,0.00108970,0.00043811,-0.00128555,0.00023781,-0.00
 019824,0.00016637,0.00004813,-0.00002328,-0.00008908,0.00081988,-0.000
 02807,0.00137189,-0.00220635,-0.00177706,-0.00543922,0.02041589,-0.008
 31914,0.05729596,0.00020068,0.00025661,0.00010378,0.00041732,0.0003839
 2,0.00080496,-0.00067472,-0.01401968,-0.00146135,-0.00002888,-0.000133
 30,-0.00005927,-0.04999942,-0.00641752,-0.00091482,0.00003666,0.000028
 17,0.00005132,-0.00135115,-0.01962654,-0.00019439,0.00001948,0.0000071
 6,-0.00003073,0.00000568,0.00000522,-0.00000511,-0.00006002,-0.0001243
 6,-0.00010632,-0.00017166,-0.00000178,-0.00023750,-0.00015524,0.000076
 23,0.00014796,0.00020789,0.00028024,-0.00004808,-0.00028183,-0.0010022
 3,-0.00228110,0.00020430,-0.00019584,0.00069634,0.00149161,0.03083491,
 0.00163207,0.05061695,0.00013006,-0.00001152,-0.00032063,0.00002598,0.
 00077155,0.00084868,-0.00047733,-0.01045120,-0.00167239,0.00002632,0.0
 0002304,0.00006060,-0.00742481,-0.30268708,-0.01257438,-0.00001730,-0.
 00004648,-0.00006866,-0.00046978,-0.01073018,0.00014110,-0.00000635,0.
 00000817,0.00001231,0.00001062,0.00000283,-0.00002184,-0.00006291,0.00
 016046,0.00012075,0.00022537,-0.00024706,-0.00019243,-0.00000759,0.000
 42340,0.00004638,0.00033648,0.00041923,-0.00076537,-0.00129278,0.00101
 773,-0.00146519,-0.00036158,0.00039081,-0.00007167,0.00013880,-0.01134
 443,-0.00047866,0.01073951,0.33044720,0.00006526,0.00002451,-0.0000607
 4,-0.00007851,-0.00156219,0.00179403,-0.00037347,-0.03117643,-0.004600
 61,0.00007772,0.00006793,0.00003547,-0.00082679,-0.01311689,-0.0463968
 5,0.00001144,-0.00002848,-0.00001714,0.00123023,0.02748978,-0.00000246
 ,-0.00002036,-0.00000768,0.00002867,-0.00000090,0.00000685,-0.00000947
 ,-0.00021752,0.00011059,0.00008554,0.00018122,-0.00000393,0.00008156,-
 0.00014875,0.00033442,0.00036738,0.00002237,0.00094746,-0.00019831,-0.
 00263521,-0.00158731,-0.00530862,0.00013459,0.00071355,0.00109222,0.00
 021788,0.00279842,-0.00057752,0.00013582,0.01429744,0.05578282,0.00011
 239,-0.00015828,-0.00045140,-0.00009038,-0.00031290,-0.00008821,0.0000
 4092,0.00014524,0.00008286,-0.00016202,-0.00008598,0.00082428,-0.00001
 349,-0.00011435,-0.00001411,-0.09649209,-0.05275316,-0.08728190,0.0000
 0571,0.00003151,0.00003625,0.00117421,0.00012997,0.00012678,0.00027875
 ,-0.00019927,0.00055501,0.00001009,0.00012528,0.00018088,-0.00001566,-
 0.00024920,0.00025750,0.00014182,0.00020429,0.00007055,-0.00026051,0.0
 0016044,-0.00006810,0.00002747,0.00002204,-0.00003344,0.00000237,-0.00
 000730,-0.00000314,0.00000577,-0.00001115,0.00000939,-0.00002725,0.000
 05350,0.00002630,0.09971807,0.00002304,0.00177332,-0.00171604,-0.00014
 277,0.00003183,0.00023492,-0.00004174,0.00005090,0.00000746,-0.0157456
 9,-0.01754177,-0.02628154,-0.00004223,-0.00002394,-0.00001133,-0.05263
 427,-0.10383506,-0.09531878,0.00001168,0.00000770,0.00002277,0.0004878
 5,-0.00658617,0.00172414,0.00049705,0.00115487,-0.00011544,0.00047246,
 0.00042315,0.00007417,0.00008904,0.00009736,0.00116016,0.00025019,-0.0
 0000593,-0.00001478,-0.00019776,-0.00008492,0.00002636,0.00001257,0.00
 000650,-0.00001217,-0.00000521,-0.00000892,0.00001705,0.00001073,-0.00
 002564,0.00001018,-0.00001762,0.00002404,0.00001221,0.05877278,0.11648
 408,0.00066135,0.00062325,0.00157349,-0.00008255,-0.00009656,0.0001180
 2,0.00001310,-0.00000622,-0.00005862,0.00301120,0.00259493,0.00393993,
 -0.00000834,-0.00004661,0.00000193,-0.08726804,-0.09580808,-0.20463286
 ,0.00000395,0.00001734,0.00000557,0.00069525,0.00171509,0.00088840,0.0
 0014872,-0.00066274,0.00009517,-0.00001334,-0.00005419,0.00017677,-0.0
 0052143,-0.00038745,0.00021739,-0.00003603,0.00004605,0.00002090,-0.00
 015519,-0.00023470,-0.00001152,-0.00000481,-0.00000661,0.00002029,-0.0
 0002484,-0.00000560,0.00001713,-0.00001252,0.00000390,-0.00001413,-0.0
 0001011,0.00000630,0.00000899,0.09653864,0.10500560,0.21996361,0.00043
 186,0.00044854,-0.00042702,-0.00001459,0.00042088,0.00038694,0.0001970
 1,-0.00027053,-0.00012632,-0.00018671,0.00091481,-0.00209332,-0.000052
 60,-0.00003123,-0.00001170,-0.11842723,-0.03086623,0.11526431,0.000026
 84,0.00001478,0.00002071,-0.00022489,-0.00022827,0.00011695,0.00056308
 ,-0.00025543,-0.00038623,0.00022194,0.00020472,0.00008707,0.00000711,0
 .00000688,0.00028474,0.00005249,0.00008817,-0.00005861,0.00009316,-0.0
 0049992,-0.00020965,-0.00006599,-0.00006649,0.00012562,0.00000104,0.00
 001721,-0.00001318,0.00000718,-0.00000836,0.00000547,-0.00000494,0.000
 00266,-0.00000972,0.00773038,0.00415422,-0.01240737,0.12467159,0.00095
 989,-0.00695182,-0.00104893,0.00078505,-0.00042575,-0.00028148,-0.0001
 9756,0.00019116,0.00003473,-0.01752822,-0.00659110,0.02926424,0.000033
 70,-0.00007070,-0.00001812,-0.03014396,-0.05884432,0.04788077,-0.00001
 493,0.00003076,-0.00000255,-0.00034878,0.00107204,-0.00065996,0.000480
 74,0.00158475,-0.00007658,-0.00088959,-0.00063972,0.00183636,0.0002216
 1,0.00006988,-0.00002731,-0.00007496,0.00002047,-0.00003488,-0.0001327
 2,0.00037044,0.00006433,0.00006296,0.00009390,-0.00005862,-0.00007704,
 0.00001408,0.00007393,-0.00003163,-0.00000144,-0.00005418,-0.00001817,
 0.00003478,0.00001969,0.00920103,0.00295556,-0.01225729,0.03289255,0.0
 6538751,-0.00038601,0.00147957,0.00100346,-0.00027263,-0.00006565,0.00
 019694,0.00003113,0.00000903,0.00002242,0.00109875,-0.00015666,-0.0032
 0439,0.00000379,-0.00000844,0.00000229,0.11494983,0.04893242,-0.233779
 43,-0.00000776,-0.00000149,0.00001077,-0.00001136,0.00040506,0.0003721
 4,-0.00038758,0.00018637,0.00006768,0.00046843,0.00018914,-0.00024742,
 -0.00000386,-0.00017273,0.00048303,0.00007353,0.00008838,-0.00000271,-
 0.00015799,-0.00004562,-0.00000357,-0.00000388,-0.00000622,-0.00001122
 ,0.00003490,-0.00000937,-0.00003041,0.00000980,-0.00001399,0.00002507,
 -0.00001555,0.00001685,0.00001166,0.01327026,0.00554735,-0.01987299,-0
 .12642196,-0.05469147,0.25126181,-0.00010925,0.00042901,0.00021818,-0.
 00056164,0.00063903,0.00118954,0.00026610,-0.00048583,-0.00015612,0.00
 192737,0.00004169,0.00001904,-0.00002442,0.00004188,-0.00002474,-0.281
 37277,0.08612925,-0.02731342,0.00001152,-0.00001273,0.00000457,0.00064
 483,0.00056609,0.00006359,0.00160723,-0.00056392,0.00038092,0.00008723
 ,0.00008381,-0.00015610,-0.00000012,-0.00000563,0.00004980,-0.00009251
 ,0.00013307,-0.00035923,-0.00047322,-0.00139878,0.00082174,-0.00007195
 ,-0.00010316,0.00013724,0.00004933,0.00003234,-0.00005366,0.00002100,-
 0.00001917,0.00002431,-0.00000167,-0.00000883,-0.00001414,-0.01219829,
 0.00403696,-0.00052007,-0.01501444,0.00482582,-0.00229069,0.30530271,0
 .00043368,0.00108110,-0.00067410,0.00002811,0.00012153,0.00039567,-0.0
 0032205,0.00015609,-0.00004298,0.03294903,-0.01191682,0.00309655,0.000
 12182,0.00006678,-0.00000142,0.08495856,-0.07773398,0.00946953,-0.0000
 5069,-0.00001845,-0.00004759,-0.00018867,0.00158071,-0.00056030,-0.000
 59738,-0.00674848,0.00145456,-0.00018938,0.00011841,-0.00013477,-0.000
 09324,-0.00004255,0.00004578,-0.00027364,-0.00028983,-0.00015700,-0.00
 055992,0.00021980,0.00063135,0.00008545,0.00006383,-0.00010434,-0.0000
 1900,-0.00002552,0.00004582,-0.00002907,0.00000556,-0.00002535,-0.0000
 0382,-0.00000433,0.00000723,-0.01496084,0.00509747,-0.00044203,-0.0069
 3591,0.00170469,-0.00169285,-0.09436780,0.08655836,-0.00096660,-0.0000
 9368,0.00011318,0.00025647,0.00052472,-0.00000442,0.00008638,-0.000231
 50,-0.00012804,-0.00443398,0.00088473,-0.00117207,-0.00006546,0.000032
 63,-0.00002191,-0.02655989,0.00956310,-0.05057825,0.00003231,-0.000003
 70,0.00001428,0.00056100,-0.00021347,0.00019756,0.00014665,0.00087696,
 0.00070567,0.00023238,-0.00009438,0.00005839,0.00002583,0.00005829,-0.
 00000154,-0.00001570,-0.00006856,-0.00002185,0.00095219,0.00046314,-0.
 00120999,-0.00005839,-0.00007864,0.00011013,-0.00000920,0.00001483,0.0
 0001080,0.00001903,-0.00001787,0.00000920,0.00000047,-0.00001739,-0.00
 002338,-0.02402713,0.00963251,-0.00247243,0.02585488,-0.00997940,0.003
 71883,0.02798046,-0.01124697,0.05067614,0.00000130,-0.00006321,-0.0000
 2194,-0.00012454,0.00004031,-0.00006441,0.00027241,0.00016850,-0.00097
 770,-0.00000353,0.00003131,0.00000719,-0.00130353,-0.02031073,-0.00045
 324,-0.00000193,-0.00000699,-0.00001199,-0.04762574,-0.00885851,-0.001
 18277,-0.00000036,-0.00000081,0.00000306,-0.00001091,-0.00000216,0.000
 00747,-0.00000698,0.00005103,0.00003350,0.00003443,-0.00002830,-0.0000
 0824,0.00000318,0.00006345,0.00000423,-0.00000826,0.00008988,-0.000084
 60,0.00028990,0.00037724,0.00018498,-0.00003141,0.00017181,0.00010089,
 0.00040666,-0.00001938,-0.00092095,-0.00148436,-0.00134384,0.00343107,
 0.00000986,0.00000339,0.00000025,-0.00000167,0.00000618,0.00000578,-0.
 00000297,0.00000443,-0.00000661,0.04869314,-0.00003744,-0.00008061,-0.
 00003335,-0.00003236,0.00045877,0.00010758,0.00033955,0.00057516,-0.00
 087457,0.00002130,0.00003087,0.00000812,-0.00088056,-0.01203220,-0.000
 01270,-0.00000832,-0.00000506,-0.00000957,-0.00929460,-0.31168574,-0.0
 1119748,-0.00000109,-0.00000280,0.00002123,-0.00001485,-0.00000233,0.0
 0000376,-0.00001254,0.00003811,0.00002517,0.00007454,0.00001029,0.0000
 0459,-0.00003319,0.00000372,0.00010606,0.00006655,0.00008879,-0.000251
 81,0.00019539,0.00033454,0.00086778,-0.00002432,-0.00011303,0.00012814
 ,-0.00032830,0.00058125,-0.00000469,-0.00169780,0.00092948,0.00182038,
 0.00001519,0.00000685,0.00000117,-0.00000317,0.00000187,0.00001083,-0.
 00000052,0.00000197,-0.00000918,0.01213859,0.33926520,0.00004074,0.000
 01146,0.00008484,0.00008068,-0.00003369,-0.00012615,-0.00018147,0.0013
 1210,0.00190328,-0.00003768,-0.00001411,-0.00002582,0.00055469,0.02689
 378,0.00003593,0.00000450,0.00000930,0.00001722,-0.00121944,-0.0119238
 8,-0.04730218,0.00000587,0.00000025,-0.00001424,-0.00000894,-0.0000025
 2,0.00001121,0.00002827,-0.00003067,-0.00002376,-0.00007492,0.00000285
 ,0.00000844,0.00000025,-0.00009262,-0.00001954,-0.00004846,-0.00024837
 ,0.00005840,0.00012173,-0.00064274,-0.00028308,-0.00015280,-0.00004491
 ,-0.00003256,-0.00049351,-0.00075908,0.00098870,0.00308292,0.00182028,
 -0.00384220,-0.00001063,-0.00000640,-0.00000360,-0.00000325,-0.0000070
 4,-0.00000191,0.00000034,0.00000366,0.00000101,-0.00202283,0.01039232,
 0.05005654,-0.00013713,-0.00007232,-0.00022347,0.00034385,-0.00021863,
 0.00009595,0.00067154,0.00008197,-0.00139480,0.00015665,0.00002477,0.0
 0002159,-0.01838340,0.00629226,-0.00043958,-0.00002333,0.00000449,0.00
 001334,-0.27770466,0.08868849,-0.01348022,-0.00001339,-0.00001357,0.00
 005528,0.00000330,0.00000096,-0.00001980,0.00000161,-0.00002173,-0.000
 03209,0.00012797,0.00011640,0.00008655,-0.00000713,-0.00001633,0.00007
 879,-0.00004329,-0.00003663,0.00000639,-0.00000338,-0.00005348,0.00002
 749,0.00065363,0.00017214,0.00084437,-0.00054005,-0.00209046,0.0031196
 3,0.00049932,-0.00037968,-0.00033895,0.00000543,0.00000899,-0.00000647
 ,-0.00000519,-0.00001289,0.00001397,0.00000870,-0.00000010,-0.00000029
 ,0.00217423,-0.00057340,0.00008650,0.30348673,-0.00010713,-0.00011562,
 0.00009279,-0.00019437,0.00001532,-0.00019882,0.00006350,-0.00005703,-
 0.00056661,0.00003128,0.00003702,0.00001596,-0.01304078,0.00452402,-0.
 00038674,-0.00000376,0.00000638,0.00000168,0.08922484,-0.08158643,0.00
 421636,-0.00000661,-0.00000606,0.00002090,-0.00000435,-0.00000143,0.00
 000408,0.00000494,-0.00000005,-0.00001350,0.00004940,0.00004559,0.0000
 3225,0.00004188,-0.00000773,-0.00004737,-0.00000946,-0.00004535,0.0000
 1094,0.00012523,-0.00002331,0.00003987,0.00026047,0.00013562,-0.000253
 32,-0.00172550,0.00005264,0.00237914,-0.00002941,0.00056674,-0.0008485
 2,-0.00000266,0.00000027,-0.00000363,0.00000136,-0.00000486,0.00000082
 ,0.00000295,-0.00000045,0.00000322,0.03103282,-0.01076864,0.00233756,-
 0.09624418,0.08450779,0.00019592,0.00005987,-0.00003461,-0.00008756,0.
 00023352,0.00008387,0.00152114,-0.00065008,0.00195328,-0.00014360,-0.0
 0004041,-0.00004886,0.02465741,-0.00997620,0.00014231,0.00001865,-0.00
 000448,-0.00000270,-0.01438977,0.00459422,-0.04769658,0.00002401,0.000
 00863,-0.00005460,-0.00001267,-0.00000572,0.00001987,-0.00001089,0.000
 02580,0.00003955,-0.00017833,-0.00009211,-0.00006777,-0.00003848,0.000
 00977,0.00001019,0.00001075,0.00000016,0.00000130,-0.00006724,-0.00001
 031,-0.00004787,-0.00071961,0.00022486,-0.00031044,0.00289750,0.001923
 15,-0.00379267,-0.00089681,-0.00015376,0.00102157,-0.00000485,-0.00000
 442,0.00000176,-0.00000378,0.00000861,-0.00000306,-0.00000513,0.000009
 48,-0.00000585,0.00182877,-0.00075163,-0.00112683,0.01189483,-0.006988
 96,0.05065693,0.00016403,0.00005189,-0.00009854,0.00085257,0.00020565,
 0.00105626,-0.00242541,-0.00175095,0.00210282,-0.00000909,-0.00001181,
 -0.00000523,0.00801364,0.00661235,0.01802463,0.00000690,0.00000045,0.0
 0000570,-0.09013976,-0.02866011,-0.09505962,0.00000376,-0.00000400,-0.
 00001969,-0.00001231,-0.00000157,0.00000048,-0.00000859,0.00001790,-0.
 00000104,-0.00004461,-0.00002095,-0.00002554,-0.00018716,-0.00016478,0
 .00033412,0.00000733,-0.00001555,-0.00001514,-0.00014734,-0.00001594,-
 0.00010990,0.00041278,-0.00019630,0.00023247,0.00070728,0.00061182,-0.
 00062049,0.00054126,0.00016348,-0.00086958,-0.00000353,-0.00000368,-0.
 00000136,-0.00000543,0.00000091,-0.00000090,-0.00000278,0.00001042,-0.
 00000481,-0.00127890,0.00009136,0.00024742,-0.01127202,-0.00947048,-0.
 02649023,0.09482737,0.00004381,-0.00003322,0.00004516,0.00011052,0.000
 67348,0.00067087,-0.00154918,-0.00075460,0.00138420,-0.00003504,0.0000
 0743,-0.00000761,0.00626520,0.00279647,0.01169930,0.00000529,0.0000052
 9,0.00000190,-0.02866974,-0.06694258,-0.06427517,0.00000312,-0.0000038
 2,-0.00000948,-0.00000974,-0.00000505,0.00000554,-0.00001333,0.0000014
 1,0.00000136,-0.00002078,0.00000640,-0.00001580,-0.00010844,-0.0000948
 5,0.00020705,0.00006427,0.00002352,-0.00011052,-0.00002652,0.00041386,
 0.00039996,-0.00025848,-0.00015241,-0.00017791,0.00017806,0.00022374,-
 0.00069273,0.00067610,0.00030281,-0.00031902,-0.00000618,-0.00000155,-
 0.00000194,-0.00000124,-0.00000218,-0.00000133,0.00000447,0.00000410,0
 .00000059,-0.01354499,-0.00763645,-0.02897750,0.00434293,0.00272559,0.
 01158000,0.03254988,0.06844260,-0.00022283,0.00008744,-0.00012870,-0.0
 0105791,-0.00095599,-0.00091782,0.00447456,0.00325684,-0.00254159,0.00
 008919,-0.00003510,0.00007628,-0.01079836,-0.00741001,-0.02021986,-0.0
 0001206,-0.00001394,-0.00004362,-0.09397832,-0.06358588,-0.25462114,-0
 .00001466,0.00001429,0.00001801,0.00006817,0.00001661,-0.00004918,0.00
 000459,-0.00002734,0.00000717,0.00005548,0.00002187,0.00004441,0.00026
 989,0.00022279,-0.00050893,-0.00000183,0.00008280,0.00001454,0.0000789
 1,-0.00007588,0.00023175,0.00011632,0.00010150,0.00033265,0.00023294,-
 0.00051574,0.00081228,-0.00039451,0.00043170,0.00072741,0.00000421,0.0
 0000602,0.00001679,0.00002543,0.00001514,-0.00001899,0.00000355,-0.000
 02994,0.00002452,0.00014808,-0.00035215,-0.00036372,-0.00040902,0.0001
 5189,-0.00073880,0.10131817,0.06859307,0.27784656\\0.00000010,-0.00000
 002,0.00000067,0.00000043,0.00000051,0.00000033,-0.00000019,-0.0000002
 8,0.,0.00000133,-0.00000083,0.00000010,-0.00000037,0.00000019,-0.00000
 070,0.00000090,0.00000075,0.00000001,-0.00000139,0.00000015,-0.0000001
 3,0.00000097,-0.00000010,0.00000037,0.00000065,-0.00000010,0.00000099,
 0.00000017,-0.00000002,0.00000025,-0.00000021,-0.00000014,0.00000032,0
 .00000055,-0.00000031,-0.00000039,0.00000024,-0.00000013,-0.00000026,-
 0.00000028,0.00000011,-0.00000028,-0.00000020,0.00000041,-0.00000073,-
 0.00000098,0.00000012,0.00000001,-0.00000057,0.00000005,-0.00000047,0.
 00000059,-0.00000034,0.00000070,0.00000096,-0.00000013,0.00000085,0.00
 000095,-0.00000017,0.00000022,-0.00000114,0.00000017,-0.00000041,-0.00
 000093,0.00000002,-0.00000085,-0.00000158,0.00000007,-0.00000060\\\@


 Human beings, who are almost unique in having the
 ability to learn from the experience of others, are
 also remarkable for their apparent disinclination to do so.
                               -- Douglas Adams,
                                Last Chance to See
 Job cpu time:       0 days  6 hours 21 minutes 33.8 seconds.
 Elapsed time:       0 days  3 hours 10 minutes 50.1 seconds.
 File lengths (MBytes):  RWF=   1488 Int=      0 D2E=      0 Chk=     32 Scr=     32
 Normal termination of Gaussian 16 at Sun Sep 29 12:49:13 2019.
