 Entering Gaussian System, Link 0=g16
 Input=tight/species/CCCCCCC/conformers/CCCCCCC_428.com
 Output=tight/species/CCCCCCC/conformers/CCCCCCC_428.log
 Initial command:
 /shared/centos7/gaussian/g16/l1.exe "/scratch/harms.n/gauss_scrdir/Gau-2313.inp" -scrdir="/scratch/harms.n/gauss_scrdir/"
 Entering Link 1 = /shared/centos7/gaussian/g16/l1.exe PID=      2314.
  
 Copyright (c) 1988,1990,1992,1993,1995,1998,2003,2009,2016,
            Gaussian, Inc.  All Rights Reserved.
  
 This is part of the Gaussian(R) 16 program.  It is based on
 the Gaussian(R) 09 system (copyright 2009, Gaussian, Inc.),
 the Gaussian(R) 03 system (copyright 2003, Gaussian, Inc.),
 the Gaussian(R) 98 system (copyright 1998, Gaussian, Inc.),
 the Gaussian(R) 94 system (copyright 1995, Gaussian, Inc.),
 the Gaussian 92(TM) system (copyright 1992, Gaussian, Inc.),
 the Gaussian 90(TM) system (copyright 1990, Gaussian, Inc.),
 the Gaussian 88(TM) system (copyright 1988, Gaussian, Inc.),
 the Gaussian 86(TM) system (copyright 1986, Carnegie Mellon
 University), and the Gaussian 82(TM) system (copyright 1983,
 Carnegie Mellon University). Gaussian is a federally registered
 trademark of Gaussian, Inc.
  
 This software contains proprietary and confidential information,
 including trade secrets, belonging to Gaussian, Inc.
  
 This software is provided under written license and may be
 used, copied, transmitted, or stored only in accord with that
 written license.
  
 The following legend is applicable only to US Government
 contracts under FAR:
  
                    RESTRICTED RIGHTS LEGEND
  
 Use, reproduction and disclosure by the US Government is
 subject to restrictions as set forth in subparagraphs (a)
 and (c) of the Commercial Computer Software - Restricted
 Rights clause in FAR 52.227-19.
  
 Gaussian, Inc.
 340 Quinnipiac St., Bldg. 40, Wallingford CT 06492
  
  
 ---------------------------------------------------------------
 Warning -- This program may not be used in any manner that
 competes with the business of Gaussian, Inc. or will provide
 assistance to any competitor of Gaussian, Inc.  The licensee
 of this program is prohibited from giving any competitor of
 Gaussian, Inc. access to this program.  By using this program,
 the user acknowledges that Gaussian, Inc. is engaged in the
 business of creating and licensing software in the field of
 computational chemistry and represents and warrants to the
 licensee that it is not a competitor of Gaussian, Inc. and that
 it will not use this program in any manner prohibited above.
 ---------------------------------------------------------------
  

 Cite this work as:
 Gaussian 16, Revision A.03,
 M. J. Frisch, G. W. Trucks, H. B. Schlegel, G. E. Scuseria, 
 M. A. Robb, J. R. Cheeseman, G. Scalmani, V. Barone, 
 G. A. Petersson, H. Nakatsuji, X. Li, M. Caricato, A. V. Marenich, 
 J. Bloino, B. G. Janesko, R. Gomperts, B. Mennucci, H. P. Hratchian, 
 J. V. Ortiz, A. F. Izmaylov, J. L. Sonnenberg, D. Williams-Young, 
 F. Ding, F. Lipparini, F. Egidi, J. Goings, B. Peng, A. Petrone, 
 T. Henderson, D. Ranasinghe, V. G. Zakrzewski, J. Gao, N. Rega, 
 G. Zheng, W. Liang, M. Hada, M. Ehara, K. Toyota, R. Fukuda, 
 J. Hasegawa, M. Ishida, T. Nakajima, Y. Honda, O. Kitao, H. Nakai, 
 T. Vreven, K. Throssell, J. A. Montgomery, Jr., J. E. Peralta, 
 F. Ogliaro, M. J. Bearpark, J. J. Heyd, E. N. Brothers, K. N. Kudin, 
 V. N. Staroverov, T. A. Keith, R. Kobayashi, J. Normand, 
 K. Raghavachari, A. P. Rendell, J. C. Burant, S. S. Iyengar, 
 J. Tomasi, M. Cossi, J. M. Millam, M. Klene, C. Adamo, R. Cammi, 
 J. W. Ochterski, R. L. Martin, K. Morokuma, O. Farkas, 
 J. B. Foresman, and D. J. Fox, Gaussian, Inc., Wallingford CT, 2016.
 
 ******************************************
 Gaussian 16:  EM64L-G16RevA.03 25-Dec-2016
                29-Sep-2019 
 ******************************************
 %nprocshared=20
 Will use up to   20 processors via shared memory.
 %mem=5GB
 ----------------------------------------------------------------------
 #p m062x/cc-pVTZ opt=(calcfc,maxcycles=900,Tight) freq IOP(7/33=1,2/16
 =3) scf=(maxcycle=900)
 ----------------------------------------------------------------------
 1/6=900,7=10,10=4,18=20,19=15,26=3,38=1/1,3;
 2/9=110,12=2,16=3,17=6,18=5,40=1/2;
 3/5=16,6=1,11=2,25=1,30=1,71=2,74=-55,140=1/1,2,3;
 4//1;
 5/5=2,7=900,38=5/2;
 8/6=4,10=90,11=11/1;
 11/6=1,8=1,9=11,15=111,16=1/1,2,10;
 10/6=1,13=1/2;
 6/7=2,8=2,9=2,10=2,28=1/1;
 7/10=1,18=20,25=1,33=1/1,2,3,16;
 1/6=900,7=10,10=4,18=20,19=15,26=3/3(2);
 2/9=110,16=3/2;
 99//99;
 2/9=110,16=3/2;
 3/5=16,6=1,11=2,25=1,30=1,71=1,74=-55/1,2,3;
 4/5=5,16=3,69=1/1;
 5/5=2,7=900,38=5/2;
 7/33=1/1,2,3,16;
 1/6=900,7=10,18=20,19=15,26=3/3(-5);
 2/9=110,16=3/2;
 6/7=2,8=2,9=2,10=2,19=2,28=1/1;
 99/9=1/99;
 Leave Link    1 at Sun Sep 29 04:13:00 2019, MaxMem=   671088640 cpu:               5.6 elap:               2.8
 (Enter /shared/centos7/gaussian/g16/l101.exe)
 ------------------------------
 Gaussian input prepared by ASE
 ------------------------------
 Symbolic Z-matrix:
 Charge =  0 Multiplicity = 1
 C                     1.47678  -1.09218   0.61603 
 C                     0.17525  -0.43793   0.93216 
 C                    -1.05256  -1.25899   0.62669 
 C                     2.21714  -0.47535  -0.52257 
 C                    -1.29859  -1.58957  -0.82654 
 C                     2.68307   0.89996  -0.27554 
 C                    -0.23452  -2.43343  -1.4789 
 H                     1.55565  -0.50209  -1.43408 
 H                     3.08411  -1.12916  -0.78073 
 H                     1.31588  -2.16919   0.39751 
 H                     2.12646  -1.06677   1.51487 
 H                     0.10351   0.53207   0.41579 
 H                     0.14853  -0.20016   2.0166 
 H                    -1.93064  -0.71031   1.00755 
 H                    -1.00947  -2.20395   1.20664 
 H                    -2.27651  -2.1348   -0.88926 
 H                    -1.43275  -0.66165  -1.40811 
 H                     2.36451   1.27845   0.71398 
 H                     3.81154   0.95838  -0.30183 
 H                     2.30224   1.60856  -1.04127 
 H                     0.13179  -3.21179  -0.80841 
 H                     0.64299  -1.80011  -1.7867 
 H                    -0.64221  -2.93124  -2.40511 
 
 ITRead=  0  0  0  0  0  0  0  0  0  0  0  0  0  0  0  0  0  0  0  0
 ITRead=  0  0  0
 MicOpt= -1 -1 -1 -1 -1 -1 -1 -1 -1 -1 -1 -1 -1 -1 -1 -1 -1 -1 -1 -1
 MicOpt= -1 -1 -1
 NAtoms=     23 NQM=       23 NQMF=       0 NMMI=      0 NMMIF=      0
                NMic=       0 NMicF=      0.
                    Isotopes and Nuclear Properties:
 (Nuclear quadrupole moments (NQMom) in fm**2, nuclear magnetic moments (NMagM)
  in nuclear magnetons)

  Atom         1           2           3           4           5           6           7           8           9          10
 IAtWgt=          12          12          12          12          12          12          12           1           1           1
 AtmWgt=  12.0000000  12.0000000  12.0000000  12.0000000  12.0000000  12.0000000  12.0000000   1.0078250   1.0078250   1.0078250
 NucSpn=           0           0           0           0           0           0           0           1           1           1
 AtZEff=  -0.0000000  -0.0000000  -0.0000000  -0.0000000  -0.0000000  -0.0000000  -0.0000000  -0.0000000  -0.0000000  -0.0000000
 NQMom=    0.0000000   0.0000000   0.0000000   0.0000000   0.0000000   0.0000000   0.0000000   0.0000000   0.0000000   0.0000000
 NMagM=    0.0000000   0.0000000   0.0000000   0.0000000   0.0000000   0.0000000   0.0000000   2.7928460   2.7928460   2.7928460
 AtZNuc=   6.0000000   6.0000000   6.0000000   6.0000000   6.0000000   6.0000000   6.0000000   1.0000000   1.0000000   1.0000000

  Atom        11          12          13          14          15          16          17          18          19          20
 IAtWgt=           1           1           1           1           1           1           1           1           1           1
 AtmWgt=   1.0078250   1.0078250   1.0078250   1.0078250   1.0078250   1.0078250   1.0078250   1.0078250   1.0078250   1.0078250
 NucSpn=           1           1           1           1           1           1           1           1           1           1
 AtZEff=  -0.0000000  -0.0000000  -0.0000000  -0.0000000  -0.0000000  -0.0000000  -0.0000000  -0.0000000  -0.0000000  -0.0000000
 NQMom=    0.0000000   0.0000000   0.0000000   0.0000000   0.0000000   0.0000000   0.0000000   0.0000000   0.0000000   0.0000000
 NMagM=    2.7928460   2.7928460   2.7928460   2.7928460   2.7928460   2.7928460   2.7928460   2.7928460   2.7928460   2.7928460
 AtZNuc=   1.0000000   1.0000000   1.0000000   1.0000000   1.0000000   1.0000000   1.0000000   1.0000000   1.0000000   1.0000000

  Atom        21          22          23
 IAtWgt=           1           1           1
 AtmWgt=   1.0078250   1.0078250   1.0078250
 NucSpn=           1           1           1
 AtZEff=  -0.0000000  -0.0000000  -0.0000000
 NQMom=    0.0000000   0.0000000   0.0000000
 NMagM=    2.7928460   2.7928460   2.7928460
 AtZNuc=   1.0000000   1.0000000   1.0000000
 Leave Link  101 at Sun Sep 29 04:13:03 2019, MaxMem=   671088640 cpu:               6.0 elap:               3.1
 (Enter /shared/centos7/gaussian/g16/l103.exe)

 GradGradGradGradGradGradGradGradGradGradGradGradGradGradGradGradGradGrad
 Berny optimization.
 Initialization pass.
                           ----------------------------
                           !    Initial Parameters    !
                           ! (Angstroms and Degrees)  !
 --------------------------                            --------------------------
 ! Name  Definition              Value          Derivative Info.                !
 --------------------------------------------------------------------------------
 ! R1    R(1,2)                  1.4906         calculate D2E/DX2 analytically  !
 ! R2    R(1,4)                  1.4917         calculate D2E/DX2 analytically  !
 ! R3    R(1,10)                 1.1107         calculate D2E/DX2 analytically  !
 ! R4    R(1,11)                 1.1093         calculate D2E/DX2 analytically  !
 ! R5    R(2,3)                  1.5083         calculate D2E/DX2 analytically  !
 ! R6    R(2,12)                 1.1012         calculate D2E/DX2 analytically  !
 ! R7    R(2,13)                 1.1105         calculate D2E/DX2 analytically  !
 ! R8    R(3,5)                  1.5105         calculate D2E/DX2 analytically  !
 ! R9    R(3,14)                 1.1032         calculate D2E/DX2 analytically  !
 ! R10   R(3,15)                 1.1096         calculate D2E/DX2 analytically  !
 ! R11   R(4,6)                  1.473          calculate D2E/DX2 analytically  !
 ! R12   R(4,8)                  1.1266         calculate D2E/DX2 analytically  !
 ! R13   R(4,9)                  1.1161         calculate D2E/DX2 analytically  !
 ! R14   R(5,7)                  1.5066         calculate D2E/DX2 analytically  !
 ! R15   R(5,16)                 1.1214         calculate D2E/DX2 analytically  !
 ! R16   R(5,17)                 1.1033         calculate D2E/DX2 analytically  !
 ! R17   R(6,18)                 1.1063         calculate D2E/DX2 analytically  !
 ! R18   R(6,19)                 1.1303         calculate D2E/DX2 analytically  !
 ! R19   R(6,20)                 1.1106         calculate D2E/DX2 analytically  !
 ! R20   R(7,21)                 1.0907         calculate D2E/DX2 analytically  !
 ! R21   R(7,22)                 1.1251         calculate D2E/DX2 analytically  !
 ! R22   R(7,23)                 1.1278         calculate D2E/DX2 analytically  !
 ! A1    A(2,1,4)              114.4406         calculate D2E/DX2 analytically  !
 ! A2    A(2,1,10)             109.9281         calculate D2E/DX2 analytically  !
 ! A3    A(2,1,11)             109.2361         calculate D2E/DX2 analytically  !
 ! A4    A(4,1,10)             108.8274         calculate D2E/DX2 analytically  !
 ! A5    A(4,1,11)             108.5614         calculate D2E/DX2 analytically  !
 ! A6    A(10,1,11)            105.4545         calculate D2E/DX2 analytically  !
 ! A7    A(1,2,3)              115.3973         calculate D2E/DX2 analytically  !
 ! A8    A(1,2,12)             110.1239         calculate D2E/DX2 analytically  !
 ! A9    A(1,2,13)             108.7888         calculate D2E/DX2 analytically  !
 ! A10   A(3,2,12)             109.3598         calculate D2E/DX2 analytically  !
 ! A11   A(3,2,13)             107.1416         calculate D2E/DX2 analytically  !
 ! A12   A(12,2,13)            105.5291         calculate D2E/DX2 analytically  !
 ! A13   A(2,3,5)              116.5234         calculate D2E/DX2 analytically  !
 ! A14   A(2,3,14)             107.8937         calculate D2E/DX2 analytically  !
 ! A15   A(2,3,15)             109.0342         calculate D2E/DX2 analytically  !
 ! A16   A(5,3,14)             108.1396         calculate D2E/DX2 analytically  !
 ! A17   A(5,3,15)             108.8322         calculate D2E/DX2 analytically  !
 ! A18   A(14,3,15)            105.9041         calculate D2E/DX2 analytically  !
 ! A19   A(1,4,6)              114.5258         calculate D2E/DX2 analytically  !
 ! A20   A(1,4,8)              108.4428         calculate D2E/DX2 analytically  !
 ! A21   A(1,4,9)              108.6539         calculate D2E/DX2 analytically  !
 ! A22   A(6,4,8)              110.0962         calculate D2E/DX2 analytically  !
 ! A23   A(6,4,9)              109.8788         calculate D2E/DX2 analytically  !
 ! A24   A(8,4,9)              104.7759         calculate D2E/DX2 analytically  !
 ! A25   A(3,5,7)              115.0945         calculate D2E/DX2 analytically  !
 ! A26   A(3,5,16)             107.5926         calculate D2E/DX2 analytically  !
 ! A27   A(3,5,17)             110.0516         calculate D2E/DX2 analytically  !
 ! A28   A(7,5,16)             108.6243         calculate D2E/DX2 analytically  !
 ! A29   A(7,5,17)             109.1904         calculate D2E/DX2 analytically  !
 ! A30   A(16,5,17)            105.867          calculate D2E/DX2 analytically  !
 ! A31   A(4,6,18)             112.2324         calculate D2E/DX2 analytically  !
 ! A32   A(4,6,19)             111.1107         calculate D2E/DX2 analytically  !
 ! A33   A(4,6,20)             111.8161         calculate D2E/DX2 analytically  !
 ! A34   A(18,6,19)            106.8942         calculate D2E/DX2 analytically  !
 ! A35   A(18,6,20)            107.4374         calculate D2E/DX2 analytically  !
 ! A36   A(19,6,20)            107.0582         calculate D2E/DX2 analytically  !
 ! A37   A(5,7,21)             111.7608         calculate D2E/DX2 analytically  !
 ! A38   A(5,7,22)             110.7329         calculate D2E/DX2 analytically  !
 ! A39   A(5,7,23)             110.3353         calculate D2E/DX2 analytically  !
 ! A40   A(21,7,22)            107.9357         calculate D2E/DX2 analytically  !
 ! A41   A(21,7,23)            108.1359         calculate D2E/DX2 analytically  !
 ! A42   A(22,7,23)            107.8029         calculate D2E/DX2 analytically  !
 ! D1    D(4,1,2,3)            111.1771         calculate D2E/DX2 analytically  !
 ! D2    D(4,1,2,12)           -13.2108         calculate D2E/DX2 analytically  !
 ! D3    D(4,1,2,13)          -128.4148         calculate D2E/DX2 analytically  !
 ! D4    D(10,1,2,3)           -11.6313         calculate D2E/DX2 analytically  !
 ! D5    D(10,1,2,12)         -136.0192         calculate D2E/DX2 analytically  !
 ! D6    D(10,1,2,13)          108.7768         calculate D2E/DX2 analytically  !
 ! D7    D(11,1,2,3)          -126.8907         calculate D2E/DX2 analytically  !
 ! D8    D(11,1,2,12)          108.7215         calculate D2E/DX2 analytically  !
 ! D9    D(11,1,2,13)           -6.4826         calculate D2E/DX2 analytically  !
 ! D10   D(2,1,4,6)             65.6927         calculate D2E/DX2 analytically  !
 ! D11   D(2,1,4,8)            -57.6936         calculate D2E/DX2 analytically  !
 ! D12   D(2,1,4,9)           -171.0428         calculate D2E/DX2 analytically  !
 ! D13   D(10,1,4,6)          -170.9051         calculate D2E/DX2 analytically  !
 ! D14   D(10,1,4,8)            65.7085         calculate D2E/DX2 analytically  !
 ! D15   D(10,1,4,9)           -47.6406         calculate D2E/DX2 analytically  !
 ! D16   D(11,1,4,6)           -56.6076         calculate D2E/DX2 analytically  !
 ! D17   D(11,1,4,8)          -179.9939         calculate D2E/DX2 analytically  !
 ! D18   D(11,1,4,9)            66.657          calculate D2E/DX2 analytically  !
 ! D19   D(1,2,3,5)            -64.3877         calculate D2E/DX2 analytically  !
 ! D20   D(1,2,3,14)           173.8239         calculate D2E/DX2 analytically  !
 ! D21   D(1,2,3,15)            59.2416         calculate D2E/DX2 analytically  !
 ! D22   D(12,2,3,5)            60.3978         calculate D2E/DX2 analytically  !
 ! D23   D(12,2,3,14)          -61.3906         calculate D2E/DX2 analytically  !
 ! D24   D(12,2,3,15)         -175.9729         calculate D2E/DX2 analytically  !
 ! D25   D(13,2,3,5)           174.3102         calculate D2E/DX2 analytically  !
 ! D26   D(13,2,3,14)           52.5218         calculate D2E/DX2 analytically  !
 ! D27   D(13,2,3,15)          -62.0605         calculate D2E/DX2 analytically  !
 ! D28   D(2,3,5,7)             62.6931         calculate D2E/DX2 analytically  !
 ! D29   D(2,3,5,16)          -176.0791         calculate D2E/DX2 analytically  !
 ! D30   D(2,3,5,17)           -61.1777         calculate D2E/DX2 analytically  !
 ! D31   D(14,3,5,7)          -175.648          calculate D2E/DX2 analytically  !
 ! D32   D(14,3,5,16)          -54.4201         calculate D2E/DX2 analytically  !
 ! D33   D(14,3,5,17)           60.4813         calculate D2E/DX2 analytically  !
 ! D34   D(15,3,5,7)           -61.0402         calculate D2E/DX2 analytically  !
 ! D35   D(15,3,5,16)           60.1877         calculate D2E/DX2 analytically  !
 ! D36   D(15,3,5,17)          175.0891         calculate D2E/DX2 analytically  !
 ! D37   D(1,4,6,18)            -2.6386         calculate D2E/DX2 analytically  !
 ! D38   D(1,4,6,19)           116.9879         calculate D2E/DX2 analytically  !
 ! D39   D(1,4,6,20)          -123.4575         calculate D2E/DX2 analytically  !
 ! D40   D(8,4,6,18)           119.8555         calculate D2E/DX2 analytically  !
 ! D41   D(8,4,6,19)          -120.518          calculate D2E/DX2 analytically  !
 ! D42   D(8,4,6,20)            -0.9634         calculate D2E/DX2 analytically  !
 ! D43   D(9,4,6,18)          -125.2422         calculate D2E/DX2 analytically  !
 ! D44   D(9,4,6,19)            -5.6157         calculate D2E/DX2 analytically  !
 ! D45   D(9,4,6,20)           113.9389         calculate D2E/DX2 analytically  !
 ! D46   D(3,5,7,21)            39.6941         calculate D2E/DX2 analytically  !
 ! D47   D(3,5,7,22)           -80.6795         calculate D2E/DX2 analytically  !
 ! D48   D(3,5,7,23)           160.0502         calculate D2E/DX2 analytically  !
 ! D49   D(16,5,7,21)          -80.9711         calculate D2E/DX2 analytically  !
 ! D50   D(16,5,7,22)          158.6553         calculate D2E/DX2 analytically  !
 ! D51   D(16,5,7,23)           39.385          calculate D2E/DX2 analytically  !
 ! D52   D(17,5,7,21)          164.0183         calculate D2E/DX2 analytically  !
 ! D53   D(17,5,7,22)           43.6447         calculate D2E/DX2 analytically  !
 ! D54   D(17,5,7,23)          -75.6256         calculate D2E/DX2 analytically  !
 --------------------------------------------------------------------------------
 Trust Radius=3.00D-01 FncErr=1.00D-07 GrdErr=1.00D-06 EigMax=2.50D+02 EigMin=1.00D-04
 Number of steps in this run=    138 maximum allowed number of steps=    138.
 GradGradGradGradGradGradGradGradGradGradGradGradGradGradGradGradGradGrad

 Leave Link  103 at Sun Sep 29 04:13:04 2019, MaxMem=   671088640 cpu:               1.5 elap:               0.8
 (Enter /shared/centos7/gaussian/g16/l202.exe)
                          Input orientation:                          
 ---------------------------------------------------------------------
 Center     Atomic      Atomic             Coordinates (Angstroms)
 Number     Number       Type             X           Y           Z
 ---------------------------------------------------------------------
      1          6           0        1.476781   -1.092183    0.616033
      2          6           0        0.175251   -0.437931    0.932160
      3          6           0       -1.052563   -1.258993    0.626691
      4          6           0        2.217138   -0.475346   -0.522567
      5          6           0       -1.298592   -1.589573   -0.826543
      6          6           0        2.683070    0.899963   -0.275543
      7          6           0       -0.234517   -2.433432   -1.478901
      8          1           0        1.555653   -0.502090   -1.434082
      9          1           0        3.084108   -1.129157   -0.780728
     10          1           0        1.315878   -2.169186    0.397514
     11          1           0        2.126463   -1.066765    1.514872
     12          1           0        0.103509    0.532070    0.415792
     13          1           0        0.148530   -0.200157    2.016598
     14          1           0       -1.930639   -0.710310    1.007550
     15          1           0       -1.009471   -2.203952    1.206641
     16          1           0       -2.276506   -2.134800   -0.889257
     17          1           0       -1.432746   -0.661650   -1.408111
     18          1           0        2.364515    1.278453    0.713975
     19          1           0        3.811535    0.958376   -0.301828
     20          1           0        2.302236    1.608563   -1.041273
     21          1           0        0.131787   -3.211793   -0.808413
     22          1           0        0.642991   -1.800108   -1.786697
     23          1           0       -0.642214   -2.931239   -2.405106
 ---------------------------------------------------------------------
                    Distance matrix (angstroms):
                    1          2          3          4          5
     1  C    0.000000
     2  C    1.490625   0.000000
     3  C    2.534861   1.508304   0.000000
     4  C    1.491652   2.507376   3.553286   0.000000
     5  C    3.167195   2.567398   1.510531   3.700576   0.000000
     6  C    2.493729   3.088311   4.407955   1.472952   4.728110
     7  C    3.019311   3.156446   2.545982   3.280135   1.506627
     8  H    2.134807   2.740206   3.409175   1.126559   3.114232
     9  H    2.129744   3.445756   4.371468   1.116134   4.407057
    10  H    1.110665   2.141056   2.547643   2.127889   2.944439
    11  H    1.109344   2.131247   3.306361   2.123478   4.181693
    12  H    2.136392   1.101220   2.142169   2.522465   2.830310
    13  H    2.126392   1.110520   2.120283   3.286674   3.479669
    14  H    3.451032   2.124769   1.103233   4.427247   2.129902
    15  H    2.786808   2.144233   1.109570   4.048363   2.143569
    16  H    4.176137   3.494001   2.136159   4.804278   1.121392
    17  H    3.570416   2.848258   2.154478   3.760392   1.103295
    18  H    2.533294   2.790422   4.257073   2.150946   4.900727
    19  H    3.240113   4.085947   5.425709   2.155548   5.734176
    20  H    3.274457   3.550583   4.718014   2.149180   4.820804
    21  H    2.886312   3.275026   2.697338   3.452323   2.162848
    22  H    2.639976   3.076767   2.998691   2.414737   2.176228
    23  H    4.123051   4.245254   3.486630   4.213224   2.173192
                    6          7          8          9         10
     6  C    0.000000
     7  C    4.590415   0.000000
     8  H    2.139868   2.633781   0.000000
     9  H    2.129172   3.633435   1.776587   0.000000
    10  H    3.426645   2.448363   2.488261   2.365703   0.000000
    11  H    2.717244   4.050269   3.056307   2.488123   1.766598
    12  H    2.695816   3.535298   2.569094   3.615980   2.960905
    13  H    3.589995   4.165664   3.738763   4.160011   2.803785
    14  H    5.052288   3.468201   4.261355   5.340511   3.611140
    15  H    5.046386   2.804523   4.055811   4.675704   2.462345
    16  H    5.846694   2.146295   4.200954   5.455207   3.816043
    17  H    4.545469   2.140089   2.992769   4.584119   3.617718
    18  H    1.106291   5.034060   2.904951   2.923789   3.617458
    19  H    1.130281   5.409288   2.916156   2.261922   4.061899
    20  H    1.110627   4.792114   2.273003   2.859077   4.161057
    21  H    4.868216   1.090678   3.124314   3.613078   1.985789
    22  H    3.706196   1.125104   1.625465   2.724188   2.315118
    23  H    5.501878   1.127778   3.416763   4.446524   3.502789
                   11         12         13         14         15
    11  H    0.000000
    12  H    2.802962   0.000000
    13  H    2.216970   1.760898   0.000000
    14  H    4.104206   2.455900   2.366723   0.000000
    15  H    3.349967   3.057774   2.451977   1.766112   0.000000
    16  H    5.129003   3.805236   4.250605   2.397222   2.450092
    17  H    4.623410   2.666771   3.800269   2.466917   3.065091
    18  H    2.489609   2.399614   2.965417   4.742331   4.873770
    19  H    3.200166   3.800812   4.487193   6.121400   5.959689
    20  H    3.704343   2.848908   4.154575   5.243288   5.527729
    21  H    3.738653   3.939034   4.129275   3.716011   2.525600
    22  H    3.693080   3.252853   4.155645   3.952094   3.442934
    23  H    5.148598   4.528585   5.256953   4.270689   3.702505
                   16         17         18         19         20
    16  H    0.000000
    17  H    1.775193   0.000000
    18  H    5.979943   4.763028   0.000000
    19  H    6.853981   5.599181   1.796712   0.000000
    20  H    5.916143   4.386174   1.787106   1.802084   0.000000
    21  H    2.639380   3.051333   5.240710   5.584575   5.291587
    22  H    3.072602   2.397520   4.323718   4.455753   3.863649
    23  H    2.367071   2.601918   6.040744   6.276047   5.580289
                   21         22         23
    21  H    0.000000
    22  H    1.791989   0.000000
    23  H    1.796446   1.820341   0.000000
 Stoichiometry    C7H16
 Framework group  C1[X(C7H16)]
 Deg. of freedom    63
 Full point group                 C1      NOp   1
 Largest Abelian subgroup         C1      NOp   1
 Largest concise Abelian subgroup C1      NOp   1
                         Standard orientation:                         
 ---------------------------------------------------------------------
 Center     Atomic      Atomic             Coordinates (Angstroms)
 Number     Number       Type             X           Y           Z
 ---------------------------------------------------------------------
      1          6           0        0.739991    0.296812    0.887295
      2          6           0        0.015719    1.256616    0.006290
      3          6           0       -1.484896    1.106489   -0.018145
      4          6           0        1.564069   -0.709777    0.157431
      5          6           0       -2.024293   -0.187395   -0.580834
      6          6           0        2.703621   -0.144469   -0.585157
      7          6           0       -1.636588   -1.427025    0.182665
      8          1           0        0.891230   -1.281327   -0.542393
      9          1           0        1.927421   -1.471187    0.888174
     10          1           0        0.017354   -0.237082    1.540235
     11          1           0        1.400772    0.860947    1.577051
     12          1           0        0.405502    1.195458   -1.021821
     13          1           0        0.235725    2.290543    0.346654
     14          1           0       -1.899174    1.938595   -0.612364
     15          1           0       -1.878882    1.241626    1.010280
     16          1           0       -3.142967   -0.110635   -0.594845
     17          1           0       -1.716389   -0.299207   -1.634377
     18          1           0        2.740003    0.959264   -0.519362
     19          1           0        3.685538   -0.530245   -0.179508
     20          1           0        2.668228   -0.412675   -1.662332
     21          1           0       -1.660327   -1.262024    1.260528
     22          1           0       -0.597231   -1.756790   -0.094558
     23          1           0       -2.342543   -2.272770   -0.058636
 ---------------------------------------------------------------------
 Rotational constants (GHZ):           3.9308222           1.5314368           1.2980484
 Leave Link  202 at Sun Sep 29 04:13:05 2019, MaxMem=   671088640 cpu:               2.8 elap:               1.4
 (Enter /shared/centos7/gaussian/g16/l301.exe)
 Standard basis: CC-pVTZ (5D, 7F)
 Ernie: Thresh=  0.10000D-02 Tol=  0.10000D-05 Strict=F.
 Ernie:  21 primitive shells out of 310 were deleted.
 There are   485 symmetry adapted cartesian basis functions of A   symmetry.
 There are   434 symmetry adapted basis functions of A   symmetry.
   434 basis functions,   636 primitive gaussians,   485 cartesian basis functions
    29 alpha electrons       29 beta electrons
       nuclear repulsion energy       334.5368515408 Hartrees.
 IExCor= 4336 DFT=T Ex+Corr=M062X ExCW=0 ScaHFX=  0.540000
 ScaDFX=  1.000000  1.000000  1.000000  1.000000 ScalE2=  1.000000  1.000000
 IRadAn=      5 IRanWt=     -1 IRanGd=            0 ICorTp=0 IEmpDi=  4
 NAtoms=   23 NActive=   23 NUniq=   23 SFac= 1.00D+00 NAtFMM=   60 NAOKFM=F Big=F
 Integral buffers will be    131072 words long.
 Raffenetti 2 integral format.
 Two-electron integral symmetry is turned on.
 Leave Link  301 at Sun Sep 29 04:13:07 2019, MaxMem=   671088640 cpu:               3.0 elap:               1.5
 (Enter /shared/centos7/gaussian/g16/l302.exe)
 NPDir=0 NMtPBC=     1 NCelOv=     1 NCel=       1 NClECP=     1 NCelD=      1
         NCelK=      1 NCelE2=     1 NClLst=     1 CellRange=     0.0.
 One-electron integrals computed using PRISM.
 One-electron integral symmetry used in STVInt
 NBasis=   434 RedAO= T EigKep=  2.82D-04  NBF=   434
 NBsUse=   434 1.00D-06 EigRej= -1.00D+00 NBFU=   434
 Precomputing XC quadrature grid using
 IXCGrd= 4 IRadAn=           5 IRanWt=          -1 IRanGd=           0 AccXCQ= 0.00D+00.
 Generated NRdTot=       0 NPtTot=           0 NUsed=           0 NTot=          32
 NSgBfM=   485   485   485   485   485 MxSgAt=    23 MxSgA2=    23.
 Leave Link  302 at Sun Sep 29 04:14:20 2019, MaxMem=   671088640 cpu:             145.7 elap:              72.9
 (Enter /shared/centos7/gaussian/g16/l303.exe)
 DipDrv:  MaxL=1.
 Leave Link  303 at Sun Sep 29 04:14:24 2019, MaxMem=   671088640 cpu:               8.3 elap:               4.1
 (Enter /shared/centos7/gaussian/g16/l401.exe)
 ExpMin= 1.03D-01 ExpMax= 8.24D+03 ExpMxC= 2.81D+02 IAcc=3 IRadAn=         5 AccDes= 0.00D+00
 Harris functional with IExCor= 1009 and IRadAn=       5 diagonalized for initial guess.
 HarFok:  IExCor= 1009 AccDes= 0.00D+00 IRadAn=         5 IDoV= 1 UseB2=F ITyADJ=14
 ICtDFT=  3500011 ScaDFX=  1.000000  1.000000  1.000000  1.000000
 FoFCou: FMM=F IPFlag=           0 FMFlag=      100000 FMFlg1=           0
         NFxFlg=           0 DoJE=T BraDBF=F KetDBF=T FulRan=T
         wScrn=  0.000000 ICntrl=       500 IOpCl=  0 I1Cent=   200000004 NGrid=           0
         NMat0=    1 NMatS0=      1 NMatT0=    0 NMatD0=    1 NMtDS0=    0 NMtDT0=    0
 Petite list used in FoFCou.
 Harris En= -276.315015326883    
 JPrj=0 DoOrth=F DoCkMO=F.
 Leave Link  401 at Sun Sep 29 04:15:19 2019, MaxMem=   671088640 cpu:             110.2 elap:              55.1
 (Enter /shared/centos7/gaussian/g16/l502.exe)
 Integral symmetry usage will be decided dynamically.
 Closed shell SCF:
 Using DIIS extrapolation, IDIIS=  1040.
 NGot=   671088640 LenX=   670604095 LenY=   670368385
 Requested convergence on RMS density matrix=1.00D-08 within 900 cycles.
 Requested convergence on MAX density matrix=1.00D-06.
 Requested convergence on             energy=1.00D-06.
 No special actions if energy rises.
 Fock matrices will be formed incrementally for  20 cycles.
 Integral accuracy reduced to 1.0D-05 until final iterations.

 Cycle   1  Pass 0  IDiag  1:
 FoFJK:  IHMeth= 1 ICntrl=       0 DoSepK=F KAlg= 0 I1Cent=           0 FoldK=F
 IRaf= 950000000 NMat=       1 IRICut=       1 DoRegI=T DoRafI=F ISym2E= 0 IDoP0=0 IntGTp=1.
 FoFCou: FMM=F IPFlag=           0 FMFlag=      100000 FMFlg1=           0
         NFxFlg=           0 DoJE=F BraDBF=F KetDBF=F FulRan=T
         wScrn=  0.000000 ICntrl=         0 IOpCl=  0 I1Cent=           0 NGrid=           0
         NMat0=    1 NMatS0=      1 NMatT0=    0 NMatD0=    1 NMtDS0=    0 NMtDT0=    0
 Symmetry not used in FoFCou.
 E= -275.950147830164    
 DIIS: error= 2.26D-02 at cycle   1 NSaved=   1.
 NSaved= 1 IEnMin= 1 EnMin= -275.950147830164     IErMin= 1 ErrMin= 2.26D-02
 ErrMax= 2.26D-02  0.00D+00 EMaxC= 1.00D-01 BMatC= 3.76D-01 BMatP= 3.76D-01
 IDIUse=3 WtCom= 7.74D-01 WtEn= 2.26D-01
 Coeff-Com:  0.100D+01
 Coeff-En:   0.100D+01
 Coeff:      0.100D+01
 Gap=     0.374 Goal=   None    Shift=    0.000
 GapD=    0.374 DampG=1.000 DampE=0.500 DampFc=0.5000 IDamp=-1.
 Damping current iteration by 5.00D-01
 RMSDP=1.92D-03 MaxDP=7.24D-02              OVMax= 1.64D-01

 Cycle   2  Pass 0  IDiag  1:
 RMSU=  9.58D-04    CP:  9.90D-01
 E= -276.126470340622     Delta-E=       -0.176322510457 Rises=F Damp=T
 DIIS: error= 4.11D-03 at cycle   2 NSaved=   2.
 NSaved= 2 IEnMin= 2 EnMin= -276.126470340622     IErMin= 2 ErrMin= 4.11D-03
 ErrMax= 4.11D-03  0.00D+00 EMaxC= 1.00D-01 BMatC= 1.94D-02 BMatP= 3.76D-01
 IDIUse=3 WtCom= 9.59D-01 WtEn= 4.11D-02
 Coeff-Com: -0.411D-01 0.104D+01
 Coeff-En:   0.000D+00 0.100D+01
 Coeff:     -0.394D-01 0.104D+01
 Gap=     0.446 Goal=   None    Shift=    0.000
 RMSDP=5.79D-04 MaxDP=2.25D-02 DE=-1.76D-01 OVMax= 9.50D-02

 Cycle   3  Pass 0  IDiag  1:
 RMSU=  5.71D-04    CP:  9.98D-01  9.17D-01
 E= -276.306833454004     Delta-E=       -0.180363113383 Rises=F Damp=F
 DIIS: error= 2.81D-03 at cycle   3 NSaved=   3.
 NSaved= 3 IEnMin= 3 EnMin= -276.306833454004     IErMin= 3 ErrMin= 2.81D-03
 ErrMax= 2.81D-03  0.00D+00 EMaxC= 1.00D-01 BMatC= 3.55D-03 BMatP= 1.94D-02
 IDIUse=3 WtCom= 9.72D-01 WtEn= 2.81D-02
 Coeff-Com: -0.529D-01 0.272D+00 0.781D+00
 Coeff-En:   0.000D+00 0.000D+00 0.100D+01
 Coeff:     -0.515D-01 0.264D+00 0.787D+00
 Gap=     0.415 Goal=   None    Shift=    0.000
 RMSDP=1.15D-04 MaxDP=2.95D-03 DE=-1.80D-01 OVMax= 1.22D-02

 Cycle   4  Pass 0  IDiag  1:
 RMSU=  8.92D-05    CP:  9.97D-01  9.67D-01  9.06D-01
 E= -276.309928354826     Delta-E=       -0.003094900821 Rises=F Damp=F
 DIIS: error= 8.43D-04 at cycle   4 NSaved=   4.
 NSaved= 4 IEnMin= 4 EnMin= -276.309928354826     IErMin= 4 ErrMin= 8.43D-04
 ErrMax= 8.43D-04  0.00D+00 EMaxC= 1.00D-01 BMatC= 3.16D-04 BMatP= 3.55D-03
 IDIUse=3 WtCom= 9.92D-01 WtEn= 8.43D-03
 Coeff-Com: -0.140D-01 0.394D-01 0.265D+00 0.709D+00
 Coeff-En:   0.000D+00 0.000D+00 0.000D+00 0.100D+01
 Coeff:     -0.138D-01 0.391D-01 0.263D+00 0.712D+00
 Gap=     0.415 Goal=   None    Shift=    0.000
 RMSDP=3.57D-05 MaxDP=1.38D-03 DE=-3.09D-03 OVMax= 3.13D-03

 Cycle   5  Pass 0  IDiag  1:
 RMSU=  1.97D-05    CP:  9.97D-01  9.61D-01  9.43D-01  7.78D-01
 E= -276.310216285350     Delta-E=       -0.000287930524 Rises=F Damp=F
 DIIS: error= 1.65D-04 at cycle   5 NSaved=   5.
 NSaved= 5 IEnMin= 5 EnMin= -276.310216285350     IErMin= 5 ErrMin= 1.65D-04
 ErrMax= 1.65D-04  0.00D+00 EMaxC= 1.00D-01 BMatC= 2.06D-05 BMatP= 3.16D-04
 IDIUse=3 WtCom= 9.98D-01 WtEn= 1.65D-03
 Coeff-Com: -0.192D-02 0.127D-02 0.545D-01 0.261D+00 0.685D+00
 Coeff-En:   0.000D+00 0.000D+00 0.000D+00 0.000D+00 0.100D+01
 Coeff:     -0.191D-02 0.127D-02 0.544D-01 0.261D+00 0.685D+00
 Gap=     0.415 Goal=   None    Shift=    0.000
 RMSDP=7.02D-06 MaxDP=3.99D-04 DE=-2.88D-04 OVMax= 7.76D-04

 Initial convergence to 1.0D-05 achieved.  Increase integral accuracy.
 Cycle   6  Pass 1  IDiag  1:
 E= -276.310239934777     Delta-E=       -0.000023649427 Rises=F Damp=F
 DIIS: error= 4.51D-05 at cycle   1 NSaved=   1.
 NSaved= 1 IEnMin= 1 EnMin= -276.310239934777     IErMin= 1 ErrMin= 4.51D-05
 ErrMax= 4.51D-05  0.00D+00 EMaxC= 1.00D-01 BMatC= 1.60D-06 BMatP= 1.60D-06
 IDIUse=1 WtCom= 1.00D+00 WtEn= 0.00D+00
 Coeff-Com:  0.100D+01
 Coeff:      0.100D+01
 Gap=     0.415 Goal=   None    Shift=    0.000
 RMSDP=7.02D-06 MaxDP=3.99D-04 DE=-2.36D-05 OVMax= 2.46D-04

 Cycle   7  Pass 1  IDiag  1:
 RMSU=  8.89D-06    CP:  1.00D+00
 E= -276.310240655763     Delta-E=       -0.000000720987 Rises=F Damp=F
 DIIS: error= 2.13D-05 at cycle   2 NSaved=   2.
 NSaved= 2 IEnMin= 2 EnMin= -276.310240655763     IErMin= 2 ErrMin= 2.13D-05
 ErrMax= 2.13D-05  0.00D+00 EMaxC= 1.00D-01 BMatC= 3.85D-07 BMatP= 1.60D-06
 IDIUse=1 WtCom= 1.00D+00 WtEn= 0.00D+00
 Coeff-Com:  0.279D+00 0.721D+00
 Coeff:      0.279D+00 0.721D+00
 Gap=     0.415 Goal=   None    Shift=    0.000
 RMSDP=1.25D-06 MaxDP=6.21D-05 DE=-7.21D-07 OVMax= 1.34D-04

 Cycle   8  Pass 1  IDiag  1:
 RMSU=  1.25D-06    CP:  1.00D+00  1.00D+00
 E= -276.310240970795     Delta-E=       -0.000000315032 Rises=F Damp=F
 DIIS: error= 9.78D-06 at cycle   3 NSaved=   3.
 NSaved= 3 IEnMin= 3 EnMin= -276.310240970795     IErMin= 3 ErrMin= 9.78D-06
 ErrMax= 9.78D-06  0.00D+00 EMaxC= 1.00D-01 BMatC= 6.55D-08 BMatP= 3.85D-07
 IDIUse=1 WtCom= 1.00D+00 WtEn= 0.00D+00
 Coeff-Com: -0.567D-02 0.282D+00 0.724D+00
 Coeff:     -0.567D-02 0.282D+00 0.724D+00
 Gap=     0.415 Goal=   None    Shift=    0.000
 RMSDP=4.38D-07 MaxDP=1.79D-05 DE=-3.15D-07 OVMax= 4.32D-05

 Cycle   9  Pass 1  IDiag  1:
 RMSU=  3.21D-07    CP:  1.00D+00  1.02D+00  8.06D-01
 E= -276.310241033503     Delta-E=       -0.000000062708 Rises=F Damp=F
 DIIS: error= 1.87D-06 at cycle   4 NSaved=   4.
 NSaved= 4 IEnMin= 4 EnMin= -276.310241033503     IErMin= 4 ErrMin= 1.87D-06
 ErrMax= 1.87D-06  0.00D+00 EMaxC= 1.00D-01 BMatC= 1.81D-09 BMatP= 6.55D-08
 IDIUse=1 WtCom= 1.00D+00 WtEn= 0.00D+00
 Coeff-Com: -0.112D-01 0.721D-01 0.243D+00 0.696D+00
 Coeff:     -0.112D-01 0.721D-01 0.243D+00 0.696D+00
 Gap=     0.415 Goal=   None    Shift=    0.000
 RMSDP=8.45D-08 MaxDP=2.99D-06 DE=-6.27D-08 OVMax= 8.56D-06

 Cycle  10  Pass 1  IDiag  1:
 RMSU=  8.08D-08    CP:  1.00D+00  1.02D+00  8.10D-01  9.39D-01
 E= -276.310241035304     Delta-E=       -0.000000001801 Rises=F Damp=F
 DIIS: error= 4.60D-07 at cycle   5 NSaved=   5.
 NSaved= 5 IEnMin= 5 EnMin= -276.310241035304     IErMin= 5 ErrMin= 4.60D-07
 ErrMax= 4.60D-07  0.00D+00 EMaxC= 1.00D-01 BMatC= 8.66D-11 BMatP= 1.81D-09
 IDIUse=1 WtCom= 1.00D+00 WtEn= 0.00D+00
 Coeff-Com: -0.106D-02-0.169D-01-0.350D-01 0.972D-01 0.956D+00
 Coeff:     -0.106D-02-0.169D-01-0.350D-01 0.972D-01 0.956D+00
 Gap=     0.415 Goal=   None    Shift=    0.000
 RMSDP=3.75D-08 MaxDP=8.81D-07 DE=-1.80D-09 OVMax= 2.89D-06

 Cycle  11  Pass 1  IDiag  1:
 RMSU=  1.80D-08    CP:  1.00D+00  1.02D+00  8.16D-01  1.03D+00  1.08D+00
 E= -276.310241035410     Delta-E=       -0.000000000106 Rises=F Damp=F
 DIIS: error= 1.54D-07 at cycle   6 NSaved=   6.
 NSaved= 6 IEnMin= 6 EnMin= -276.310241035410     IErMin= 6 ErrMin= 1.54D-07
 ErrMax= 1.54D-07  0.00D+00 EMaxC= 1.00D-01 BMatC= 1.99D-11 BMatP= 8.66D-11
 IDIUse=1 WtCom= 1.00D+00 WtEn= 0.00D+00
 Coeff-Com:  0.324D-03-0.123D-01-0.320D-01-0.616D-02 0.422D+00 0.628D+00
 Coeff:      0.324D-03-0.123D-01-0.320D-01-0.616D-02 0.422D+00 0.628D+00
 Gap=     0.415 Goal=   None    Shift=    0.000
 RMSDP=7.40D-09 MaxDP=2.88D-07 DE=-1.06D-10 OVMax= 7.42D-07

 SCF Done:  E(RM062X) =  -276.310241035     A.U. after   11 cycles
            NFock= 11  Conv=0.74D-08     -V/T= 2.0065
 KE= 2.745285211055D+02 PE=-1.307512172658D+03 EE= 4.221365589766D+02
 Leave Link  502 at Sun Sep 29 04:33:31 2019, MaxMem=   671088640 cpu:            2182.8 elap:            1091.7
 (Enter /shared/centos7/gaussian/g16/l801.exe)
 DoSCS=F DFT=T ScalE2(SS,OS)=  1.000000  1.000000
 Range of M.O.s used for correlation:     1   434
 NBasis=   434 NAE=    29 NBE=    29 NFC=     0 NFV=     0
 NROrb=    434 NOA=    29 NOB=    29 NVA=   405 NVB=   405

 **** Warning!!: The largest alpha MO coefficient is  0.10422418D+02

 Leave Link  801 at Sun Sep 29 04:33:32 2019, MaxMem=   671088640 cpu:               2.4 elap:               1.4
 (Enter /shared/centos7/gaussian/g16/l1101.exe)
 Using compressed storage, NAtomX=    23.
 Will process     24 centers per pass.
 Leave Link 1101 at Sun Sep 29 04:34:12 2019, MaxMem=   671088640 cpu:              79.2 elap:              39.6
 (Enter /shared/centos7/gaussian/g16/l1102.exe)
 Symmetrizing basis deriv contribution to polar:
 IMax=3 JMax=2 DiffMx= 0.00D+00
 Leave Link 1102 at Sun Sep 29 04:34:14 2019, MaxMem=   671088640 cpu:               5.3 elap:               2.6
 (Enter /shared/centos7/gaussian/g16/l1110.exe)
 Forming Gx(P) for the SCF density, NAtomX=    23.
 Integral derivatives from FoFJK, PRISM(SPDF).
 Do as many integral derivatives as possible in FoFJK.
 G2DrvN: MDV=     671086848.
 G2DrvN: will do    24 centers at a time, making    1 passes.
 Calling FoFCou, ICntrl=  3107 FMM=F I1Cent=   0 AccDes= 0.00D+00.
 FoFJK:  IHMeth= 1 ICntrl=    3107 DoSepK=F KAlg= 0 I1Cent=           0 FoldK=F
 IRaf=         0 NMat=       1 IRICut=       1 DoRegI=T DoRafI=F ISym2E= 0 IDoP0=0 IntGTp=1.
 FoFCou: FMM=F IPFlag=           0 FMFlag=      100000 FMFlg1=           0
         NFxFlg=           0 DoJE=F BraDBF=F KetDBF=F FulRan=T
         wScrn=  0.000000 ICntrl=      3107 IOpCl=  0 I1Cent=           0 NGrid=           0
         NMat0=    1 NMatS0=      1 NMatT0=    0 NMatD0=    1 NMtDS0=    0 NMtDT0=    0
 Symmetry not used in FoFCou.
 End of G2Drv F.D. properties file   721 does not exist.
 End of G2Drv F.D. properties file   722 does not exist.
 End of G2Drv F.D. properties file   788 does not exist.
 Leave Link 1110 at Sun Sep 29 05:25:35 2019, MaxMem=   671088640 cpu:            6160.5 elap:            3080.9
 (Enter /shared/centos7/gaussian/g16/l1002.exe)
 Minotr:  Closed shell wavefunction.
          IDoAtm=11111111111111111111111
          Direct CPHF calculation.
          Differentiating once with respect to nuclear coordinates.
          Requested convergence is 1.0D-08 RMS, and 1.0D-07 maximum.
          Secondary convergence is 1.0D-12 RMS, and 1.0D-12 maximum.
          NewPWx=T KeepS1=F KeepF1=F KeepIn=T MapXYZ=F SortEE=F KeepMc=T.
         6904 words used for storage of precomputed grid.
 Two-electron integrals replicated using symmetry.
          MDV=     671088640 using IRadAn=       1.
          Solving linear equations simultaneously, MaxMat=     380.
 FoF2E skips out because all densities are zero.
 CalDSu exits because no D1Ps are significant.
 FoFJK:  IHMeth= 1 ICntrl=       0 DoSepK=F KAlg= 0 I1Cent=           0 FoldK=F
 IRaf= 940000000 NMat=      69 IRICut=     172 DoRegI=T DoRafI=T ISym2E= 2 IDoP0=3 IntGTp=3.
 FoFCou: FMM=F IPFlag=           0 FMFlag=      100000 FMFlg1=           0
         NFxFlg=           0 DoJE=F BraDBF=F KetDBF=F FulRan=T
         wScrn=  0.000000 ICntrl=         0 IOpCl=  0 I1Cent=           0 NGrid=           0
         NMat0=   69 NMatS0=     69 NMatT0=    0 NMatD0=   69 NMtDS0=    0 NMtDT0=    0
 Integrals replicated using symmetry in FoFCou.
 Raff kept on since  90.38% of shell-pairs survive, threshold=   0.20 IRatSp=90.
          There are    72 degrees of freedom in the 1st order CPHF.  IDoFFX=6 NUNeed=     0.
     66 vectors produced by pass  0 Test12= 1.63D-14 1.39D-09 XBig12= 5.52D-02 5.13D-02.
 AX will form    66 AO Fock derivatives at one time.
     66 vectors produced by pass  1 Test12= 1.63D-14 1.39D-09 XBig12= 2.98D-03 6.30D-03.
     66 vectors produced by pass  2 Test12= 1.63D-14 1.39D-09 XBig12= 4.81D-05 9.89D-04.
     66 vectors produced by pass  3 Test12= 1.63D-14 1.39D-09 XBig12= 3.74D-07 6.63D-05.
     66 vectors produced by pass  4 Test12= 1.63D-14 1.39D-09 XBig12= 1.85D-09 4.02D-06.
     66 vectors produced by pass  5 Test12= 1.63D-14 1.39D-09 XBig12= 9.13D-12 2.76D-07.
     24 vectors produced by pass  6 Test12= 1.63D-14 1.39D-09 XBig12= 3.24D-14 1.48D-08.
 InvSVY:  IOpt=1 It=  1 EMax= 3.33D-16
 Solved reduced A of dimension   420 with    72 vectors.
 End of Minotr F.D. properties file   721 does not exist.
 End of Minotr F.D. properties file   722 does not exist.
 End of Minotr F.D. properties file   788 does not exist.
 Leave Link 1002 at Sun Sep 29 06:51:33 2019, MaxMem=   671088640 cpu:           10312.6 elap:            5157.4
 (Enter /shared/centos7/gaussian/g16/l601.exe)
 Copying SCF densities to generalized density rwf, IOpCl= 0 IROHF=0.

 **********************************************************************

            Population analysis using the SCF density.

 **********************************************************************

 Orbital symmetries:
       Occupied  (A) (A) (A) (A) (A) (A) (A) (A) (A) (A) (A) (A)
                 (A) (A) (A) (A) (A) (A) (A) (A) (A) (A) (A) (A)
                 (A) (A) (A) (A) (A)
       Virtual   (A) (A) (A) (A) (A) (A) (A) (A) (A) (A) (A) (A)
                 (A) (A) (A) (A) (A) (A) (A) (A) (A) (A) (A) (A)
                 (A) (A) (A) (A) (A) (A) (A) (A) (A) (A) (A) (A)
                 (A) (A) (A) (A) (A) (A) (A) (A) (A) (A) (A) (A)
                 (A) (A) (A) (A) (A) (A) (A) (A) (A) (A) (A) (A)
                 (A) (A) (A) (A) (A) (A) (A) (A) (A) (A) (A) (A)
                 (A) (A) (A) (A) (A) (A) (A) (A) (A) (A) (A) (A)
                 (A) (A) (A) (A) (A) (A) (A) (A) (A) (A) (A) (A)
                 (A) (A) (A) (A) (A) (A) (A) (A) (A) (A) (A) (A)
                 (A) (A) (A) (A) (A) (A) (A) (A) (A) (A) (A) (A)
                 (A) (A) (A) (A) (A) (A) (A) (A) (A) (A) (A) (A)
                 (A) (A) (A) (A) (A) (A) (A) (A) (A) (A) (A) (A)
                 (A) (A) (A) (A) (A) (A) (A) (A) (A) (A) (A) (A)
                 (A) (A) (A) (A) (A) (A) (A) (A) (A) (A) (A) (A)
                 (A) (A) (A) (A) (A) (A) (A) (A) (A) (A) (A) (A)
                 (A) (A) (A) (A) (A) (A) (A) (A) (A) (A) (A) (A)
                 (A) (A) (A) (A) (A) (A) (A) (A) (A) (A) (A) (A)
                 (A) (A) (A) (A) (A) (A) (A) (A) (A) (A) (A) (A)
                 (A) (A) (A) (A) (A) (A) (A) (A) (A) (A) (A) (A)
                 (A) (A) (A) (A) (A) (A) (A) (A) (A) (A) (A) (A)
                 (A) (A) (A) (A) (A) (A) (A) (A) (A) (A) (A) (A)
                 (A) (A) (A) (A) (A) (A) (A) (A) (A) (A) (A) (A)
                 (A) (A) (A) (A) (A) (A) (A) (A) (A) (A) (A) (A)
                 (A) (A) (A) (A) (A) (A) (A) (A) (A) (A) (A) (A)
                 (A) (A) (A) (A) (A) (A) (A) (A) (A) (A) (A) (A)
                 (A) (A) (A) (A) (A) (A) (A) (A) (A) (A) (A) (A)
                 (A) (A) (A) (A) (A) (A) (A) (A) (A) (A) (A) (A)
                 (A) (A) (A) (A) (A) (A) (A) (A) (A) (A) (A) (A)
                 (A) (A) (A) (A) (A) (A) (A) (A) (A) (A) (A) (A)
                 (A) (A) (A) (A) (A) (A) (A) (A) (A) (A) (A) (A)
                 (A) (A) (A) (A) (A) (A) (A) (A) (A) (A) (A) (A)
                 (A) (A) (A) (A) (A) (A) (A) (A) (A) (A) (A) (A)
                 (A) (A) (A) (A) (A) (A) (A) (A) (A) (A) (A) (A)
                 (A) (A) (A) (A) (A) (A) (A) (A) (A)
 The electronic state is 1-A.
 Alpha  occ. eigenvalues --  -10.52842 -10.52562 -10.52524 -10.52312 -10.52260
 Alpha  occ. eigenvalues --  -10.52188 -10.52042  -0.92467  -0.88009  -0.82561
 Alpha  occ. eigenvalues --   -0.77062  -0.70489  -0.65783  -0.63006  -0.55022
 Alpha  occ. eigenvalues --   -0.52465  -0.51952  -0.50004  -0.47955  -0.46126
 Alpha  occ. eigenvalues --   -0.44996  -0.43803  -0.42272  -0.39933  -0.38392
 Alpha  occ. eigenvalues --   -0.38259  -0.36382  -0.35776  -0.35248
 Alpha virt. eigenvalues --    0.06267   0.08301   0.08388   0.08707   0.11330
 Alpha virt. eigenvalues --    0.11597   0.12277   0.13231   0.14438   0.14726
 Alpha virt. eigenvalues --    0.15521   0.16800   0.18298   0.18574   0.20759
 Alpha virt. eigenvalues --    0.21397   0.21483   0.23356   0.25560   0.26857
 Alpha virt. eigenvalues --    0.28273   0.28610   0.30433   0.30606   0.31207
 Alpha virt. eigenvalues --    0.32046   0.32757   0.34762   0.36260   0.36973
 Alpha virt. eigenvalues --    0.37752   0.38643   0.40895   0.43631   0.44283
 Alpha virt. eigenvalues --    0.45321   0.46564   0.47382   0.47648   0.48116
 Alpha virt. eigenvalues --    0.48935   0.49599   0.50115   0.50524   0.51307
 Alpha virt. eigenvalues --    0.51510   0.52612   0.52843   0.53452   0.54056
 Alpha virt. eigenvalues --    0.55720   0.55957   0.56185   0.57114   0.57702
 Alpha virt. eigenvalues --    0.59722   0.60180   0.61000   0.61790   0.62457
 Alpha virt. eigenvalues --    0.66627   0.67852   0.68814   0.76038   0.76560
 Alpha virt. eigenvalues --    0.77301   0.80130   0.80759   0.83134   0.84112
 Alpha virt. eigenvalues --    0.86992   0.89400   0.90684   0.92168   0.93409
 Alpha virt. eigenvalues --    0.95562   0.96092   0.97612   0.98659   1.00331
 Alpha virt. eigenvalues --    1.01356   1.02735   1.04006   1.05297   1.05737
 Alpha virt. eigenvalues --    1.07316   1.07774   1.07993   1.08940   1.09920
 Alpha virt. eigenvalues --    1.10617   1.12279   1.12541   1.14286   1.15151
 Alpha virt. eigenvalues --    1.16339   1.16873   1.17816   1.18895   1.18996
 Alpha virt. eigenvalues --    1.20383   1.20503   1.21885   1.23537   1.24658
 Alpha virt. eigenvalues --    1.26420   1.27727   1.28587   1.28990   1.29701
 Alpha virt. eigenvalues --    1.31006   1.31575   1.32489   1.32870   1.33409
 Alpha virt. eigenvalues --    1.35480   1.36304   1.36676   1.37814   1.40448
 Alpha virt. eigenvalues --    1.40761   1.41583   1.44362   1.45833   1.46283
 Alpha virt. eigenvalues --    1.47216   1.49108   1.50011   1.50422   1.51448
 Alpha virt. eigenvalues --    1.51931   1.53752   1.54157   1.56465   1.57963
 Alpha virt. eigenvalues --    1.58840   1.58893   1.59134   1.62326   1.64527
 Alpha virt. eigenvalues --    1.66527   1.67153   1.69634   1.73969   1.77642
 Alpha virt. eigenvalues --    1.79317   1.84031   1.88578   1.91166   2.22060
 Alpha virt. eigenvalues --    2.27013   2.28537   2.33093   2.33949   2.36678
 Alpha virt. eigenvalues --    2.39256   2.39731   2.42179   2.43632   2.45792
 Alpha virt. eigenvalues --    2.47356   2.49559   2.49869   2.52467   2.55139
 Alpha virt. eigenvalues --    2.55690   2.57698   2.59564   2.60450   2.61925
 Alpha virt. eigenvalues --    2.62206   2.63833   2.65353   2.67109   2.67807
 Alpha virt. eigenvalues --    2.69129   2.70432   2.72120   2.72989   2.74092
 Alpha virt. eigenvalues --    2.74910   2.77379   2.77706   2.78052   2.80226
 Alpha virt. eigenvalues --    2.82010   2.82737   2.84382   2.85283   2.85561
 Alpha virt. eigenvalues --    2.87617   2.87832   2.88950   2.91856   2.94139
 Alpha virt. eigenvalues --    2.94379   2.95314   2.96639   2.98039   2.99284
 Alpha virt. eigenvalues --    3.00047   3.01771   3.02356   3.03507   3.05113
 Alpha virt. eigenvalues --    3.06440   3.06995   3.07757   3.08981   3.09926
 Alpha virt. eigenvalues --    3.10630   3.10676   3.12440   3.12941   3.13060
 Alpha virt. eigenvalues --    3.14225   3.15166   3.16621   3.18065   3.19125
 Alpha virt. eigenvalues --    3.20882   3.21644   3.22333   3.22751   3.24611
 Alpha virt. eigenvalues --    3.25606   3.26061   3.28352   3.29599   3.31124
 Alpha virt. eigenvalues --    3.33296   3.33569   3.34205   3.35727   3.35992
 Alpha virt. eigenvalues --    3.39256   3.39944   3.40583   3.41771   3.42808
 Alpha virt. eigenvalues --    3.45309   3.46476   3.47833   3.48072   3.50294
 Alpha virt. eigenvalues --    3.50998   3.52690   3.53393   3.53871   3.55734
 Alpha virt. eigenvalues --    3.56641   3.57699   3.59686   3.60698   3.61619
 Alpha virt. eigenvalues --    3.62285   3.64326   3.65433   3.67449   3.67714
 Alpha virt. eigenvalues --    3.68451   3.69107   3.70149   3.71778   3.73084
 Alpha virt. eigenvalues --    3.73986   3.75838   3.77352   3.78120   3.79342
 Alpha virt. eigenvalues --    3.81312   3.81661   3.84116   3.84964   3.85804
 Alpha virt. eigenvalues --    3.87163   3.88556   3.88869   3.90863   3.91908
 Alpha virt. eigenvalues --    3.93172   3.95353   3.95934   3.97050   3.97411
 Alpha virt. eigenvalues --    3.98119   4.00680   4.00848   4.02314   4.02739
 Alpha virt. eigenvalues --    4.03547   4.04832   4.06064   4.06595   4.07516
 Alpha virt. eigenvalues --    4.08585   4.08971   4.10091   4.11588   4.12697
 Alpha virt. eigenvalues --    4.13691   4.14635   4.16894   4.18006   4.18845
 Alpha virt. eigenvalues --    4.19649   4.21245   4.22736   4.24178   4.24924
 Alpha virt. eigenvalues --    4.26118   4.28194   4.28573   4.30586   4.31999
 Alpha virt. eigenvalues --    4.33411   4.34997   4.35637   4.36427   4.38604
 Alpha virt. eigenvalues --    4.41313   4.42210   4.42595   4.44635   4.47427
 Alpha virt. eigenvalues --    4.48807   4.50651   4.51876   4.54074   4.54953
 Alpha virt. eigenvalues --    4.57466   4.57911   4.61130   4.65644   4.66033
 Alpha virt. eigenvalues --    4.68660   4.71135   4.72298   4.73638   4.74130
 Alpha virt. eigenvalues --    4.76885   4.78572   4.81089   4.82566   4.83886
 Alpha virt. eigenvalues --    4.85666   4.87074   4.89998   4.90276   4.91813
 Alpha virt. eigenvalues --    4.95618   4.96436   4.98306   4.99723   5.00468
 Alpha virt. eigenvalues --    5.01631   5.04630   5.06019   5.08861   5.10803
 Alpha virt. eigenvalues --    5.11848   5.14104   5.15436   5.17516   5.18458
 Alpha virt. eigenvalues --    5.19758   5.23614   5.25673   5.26657   5.27314
 Alpha virt. eigenvalues --    5.28354   5.29480   5.32543   5.33239   5.36382
 Alpha virt. eigenvalues --    5.36643   5.39822   5.41514   5.42747   5.45118
 Alpha virt. eigenvalues --    5.46292   5.47912   5.50075   5.53360   5.57763
 Alpha virt. eigenvalues --    5.59274   5.66437   5.67554   5.77760   5.79069
 Alpha virt. eigenvalues --    5.84276   5.87512   5.93149   5.94517   5.95330
 Alpha virt. eigenvalues --    6.00814   6.01515   6.10996  11.76783  12.03372
 Alpha virt. eigenvalues --   12.31122  12.94319  13.36416  13.57233  13.99003
          Condensed to atoms (all electrons):
               1          2          3          4          5          6
     1  C    5.197180   0.275795  -0.040173   0.286911  -0.004973  -0.040298
     2  C    0.275795   5.143812   0.305964  -0.041978  -0.036281  -0.009570
     3  C   -0.040173   0.305964   5.044316   0.001186   0.312304   0.000906
     4  C    0.286911  -0.041978   0.001186   5.121876   0.002340   0.269902
     5  C   -0.004973  -0.036281   0.312304   0.002340   5.055914  -0.000504
     6  C   -0.040298  -0.009570   0.000906   0.269902  -0.000504   5.004843
     7  C    0.006073  -0.001781  -0.048841  -0.016533   0.302114   0.000974
     8  H   -0.057119   0.000276  -0.000070   0.428892   0.001737  -0.050927
     9  H   -0.046151   0.009184  -0.000425   0.411824  -0.000004  -0.035900
    10  H    0.417937  -0.061659   0.002562  -0.042240  -0.004522   0.008815
    11  H    0.404992  -0.047991   0.006169  -0.035871  -0.000453  -0.008433
    12  H   -0.064591   0.408694  -0.035053  -0.004718  -0.005809   0.000953
    13  H   -0.047593   0.416966  -0.038946   0.007442   0.007993  -0.000303
    14  H    0.010075  -0.048854   0.422885  -0.000783  -0.045576   0.000050
    15  H   -0.009721  -0.048123   0.414838   0.000883  -0.044529  -0.000086
    16  H   -0.000579   0.009120  -0.047628  -0.000055   0.419629   0.000006
    17  H   -0.002006  -0.003416  -0.041746   0.001021   0.401531  -0.000147
    18  H   -0.002487  -0.000729   0.000234  -0.064360   0.000034   0.413448
    19  H    0.003124   0.000109  -0.000025  -0.042626   0.000019   0.402305
    20  H    0.006393  -0.000480   0.000011  -0.047837  -0.000010   0.409306
    21  H   -0.010777  -0.001005   0.001499   0.001770  -0.052892  -0.000171
    22  H   -0.001621   0.002697  -0.003988  -0.017588  -0.040424   0.001628
    23  H    0.000703  -0.000778   0.008268   0.000586  -0.039350  -0.000008
               7          8          9         10         11         12
     1  C    0.006073  -0.057119  -0.046151   0.417937   0.404992  -0.064591
     2  C   -0.001781   0.000276   0.009184  -0.061659  -0.047991   0.408694
     3  C   -0.048841  -0.000070  -0.000425   0.002562   0.006169  -0.035053
     4  C   -0.016533   0.428892   0.411824  -0.042240  -0.035871  -0.004718
     5  C    0.302114   0.001737  -0.000004  -0.004522  -0.000453  -0.005809
     6  C    0.000974  -0.050927  -0.035900   0.008815  -0.008433   0.000953
     7  C    5.042712  -0.015954   0.000948  -0.008518   0.000394  -0.000582
     8  H   -0.015954   0.628627  -0.036584  -0.004514   0.008510  -0.000887
     9  H    0.000948  -0.036584   0.588475  -0.008193  -0.004982   0.000597
    10  H   -0.008518  -0.004514  -0.008193   0.575145  -0.028057   0.006737
    11  H    0.000394   0.008510  -0.004982  -0.028057   0.576226   0.004692
    12  H   -0.000582  -0.000887   0.000597   0.006737   0.004692   0.575988
    13  H   -0.000549  -0.000139  -0.000645   0.005858  -0.020169  -0.033289
    14  H    0.008511  -0.000079   0.000036   0.000357  -0.000487  -0.005371
    15  H   -0.007315   0.000124   0.000011   0.002268   0.000738   0.008193
    16  H   -0.043311   0.000014  -0.000005  -0.000547   0.000064   0.000016
    17  H   -0.045985   0.000101   0.000039   0.000563  -0.000016   0.003537
    18  H   -0.000099   0.006116   0.005671   0.000611  -0.000113  -0.000980
    19  H   -0.000054   0.007967  -0.020180  -0.000485   0.001884   0.000024
    20  H    0.000161  -0.017911   0.006141  -0.000595  -0.000069  -0.001048
    21  H    0.405945   0.001071   0.000241  -0.004160   0.000428   0.000231
    22  H    0.406720  -0.012454   0.000364  -0.007582   0.000545  -0.000054
    23  H    0.406386   0.001044  -0.000132   0.001396  -0.000022   0.000004
              13         14         15         16         17         18
     1  C   -0.047593   0.010075  -0.009721  -0.000579  -0.002006  -0.002487
     2  C    0.416966  -0.048854  -0.048123   0.009120  -0.003416  -0.000729
     3  C   -0.038946   0.422885   0.414838  -0.047628  -0.041746   0.000234
     4  C    0.007442  -0.000783   0.000883  -0.000055   0.001021  -0.064360
     5  C    0.007993  -0.045576  -0.044529   0.419629   0.401531   0.000034
     6  C   -0.000303   0.000050  -0.000086   0.000006  -0.000147   0.413448
     7  C   -0.000549   0.008511  -0.007315  -0.043311  -0.045985  -0.000099
     8  H   -0.000139  -0.000079   0.000124   0.000014   0.000101   0.006116
     9  H   -0.000645   0.000036   0.000011  -0.000005   0.000039   0.005671
    10  H    0.005858   0.000357   0.002268  -0.000547   0.000563   0.000611
    11  H   -0.020169  -0.000487   0.000738   0.000064  -0.000016  -0.000113
    12  H   -0.033289  -0.005371   0.008193   0.000016   0.003537  -0.000980
    13  H    0.587823  -0.008446  -0.006412  -0.000539  -0.000013  -0.000840
    14  H   -0.008446   0.585105  -0.031619  -0.008412  -0.005388   0.000042
    15  H   -0.006412  -0.031619   0.584808  -0.006067   0.008296  -0.000020
    16  H   -0.000539  -0.008412  -0.006067   0.596410  -0.031714  -0.000002
    17  H   -0.000013  -0.005388   0.008296  -0.031714   0.585567   0.000005
    18  H   -0.000840   0.000042  -0.000020  -0.000002   0.000005   0.598563
    19  H    0.000072  -0.000002   0.000005  -0.000000   0.000005  -0.032505
    20  H   -0.000051  -0.000010  -0.000001   0.000001   0.000019  -0.038786
    21  H   -0.000230   0.000181   0.003401  -0.001145   0.008034   0.000001
    22  H   -0.000147  -0.000582   0.000222   0.008034  -0.010323  -0.000107
    23  H    0.000054  -0.000432   0.000073  -0.013460  -0.000105   0.000002
              19         20         21         22         23
     1  C    0.003124   0.006393  -0.010777  -0.001621   0.000703
     2  C    0.000109  -0.000480  -0.001005   0.002697  -0.000778
     3  C   -0.000025   0.000011   0.001499  -0.003988   0.008268
     4  C   -0.042626  -0.047837   0.001770  -0.017588   0.000586
     5  C    0.000019  -0.000010  -0.052892  -0.040424  -0.039350
     6  C    0.402305   0.409306  -0.000171   0.001628  -0.000008
     7  C   -0.000054   0.000161   0.405945   0.406720   0.406386
     8  H    0.007967  -0.017911   0.001071  -0.012454   0.001044
     9  H   -0.020180   0.006141   0.000241   0.000364  -0.000132
    10  H   -0.000485  -0.000595  -0.004160  -0.007582   0.001396
    11  H    0.001884  -0.000069   0.000428   0.000545  -0.000022
    12  H    0.000024  -0.001048   0.000231  -0.000054   0.000004
    13  H    0.000072  -0.000051  -0.000230  -0.000147   0.000054
    14  H   -0.000002  -0.000010   0.000181  -0.000582  -0.000432
    15  H    0.000005  -0.000001   0.003401   0.000222   0.000073
    16  H   -0.000000   0.000001  -0.001145   0.008034  -0.013460
    17  H    0.000005   0.000019   0.008034  -0.010323  -0.000105
    18  H   -0.032505  -0.038786   0.000001  -0.000107   0.000002
    19  H    0.605437  -0.030052   0.000008  -0.000160   0.000001
    20  H   -0.030052   0.599106   0.000001   0.000189  -0.000010
    21  H    0.000008   0.000001   0.591202  -0.037260  -0.028893
    22  H   -0.000160   0.000189  -0.037260   0.609057  -0.030907
    23  H    0.000001  -0.000010  -0.028893  -0.030907   0.585589
 Mulliken charges:
               1
     1  C   -0.281093
     2  C   -0.269970
     3  C   -0.264248
     4  C   -0.220045
     5  C   -0.228286
     6  C   -0.366791
     7  C   -0.391417
     8  H    0.112158
     9  H    0.129673
    10  H    0.148821
    11  H    0.142021
    12  H    0.142718
    13  H    0.132104
    14  H    0.128800
    15  H    0.130035
    16  H    0.120171
    17  H    0.132139
    18  H    0.116300
    19  H    0.105129
    20  H    0.115532
    21  H    0.122519
    22  H    0.133741
    23  H    0.109991
 Sum of Mulliken charges =  -0.00000
 Mulliken charges with hydrogens summed into heavy atoms:
               1
     1  C    0.009749
     2  C    0.004852
     3  C   -0.005413
     4  C    0.021786
     5  C    0.024024
     6  C   -0.029830
     7  C   -0.025167
 APT charges:
               1
     1  C   -0.616534
     2  C   -0.649899
     3  C   -0.889201
     4  C   -0.433591
     5  C   -0.806236
     6  C   -1.365281
     7  C   -0.979918
     8  H    0.204048
     9  H    0.430450
    10  H    0.276921
    11  H    0.425584
    12  H    0.285547
    13  H    0.430360
    14  H    0.456185
    15  H    0.367531
    16  H    0.532062
    17  H    0.287362
    18  H    0.267556
    19  H    0.523114
    20  H    0.323884
    21  H    0.250242
    22  H    0.146433
    23  H    0.533381
 Sum of APT charges =  -0.00000
 APT charges with hydrogens summed into heavy atoms:
               1
     1  C    0.085971
     2  C    0.066008
     3  C   -0.065486
     4  C    0.200907
     5  C    0.013188
     6  C   -0.250727
     7  C   -0.049862
 Electronic spatial extent (au):  <R**2>=           1057.4296
 Charge=             -0.0000 electrons
 Dipole moment (field-independent basis, Debye):
    X=             -0.0040    Y=              0.0685    Z=              0.0135  Tot=              0.0699
 Quadrupole moment (field-independent basis, Debye-Ang):
   XX=            -49.4471   YY=            -49.4849   ZZ=            -48.8475
   XY=             -0.2575   XZ=              0.3176   YZ=              0.2650
 Traceless Quadrupole moment (field-independent basis, Debye-Ang):
   XX=             -0.1873   YY=             -0.2251   ZZ=              0.4123
   XY=             -0.2575   XZ=              0.3176   YZ=              0.2650
 Octapole moment (field-independent basis, Debye-Ang**2):
  XXX=             -2.4353  YYY=              2.7250  ZZZ=             -0.5776  XYY=              0.7358
  XXY=             -1.2568  XXZ=              2.2529  XZZ=             -0.1171  YZZ=             -0.2028
  YYZ=              0.0577  XYZ=              0.0074
 Hexadecapole moment (field-independent basis, Debye-Ang**3):
 XXXX=           -965.6883 YYYY=           -363.7344 ZZZZ=           -177.7654 XXXY=             -3.8642
 XXXZ=              9.7715 YYYX=              0.8464 YYYZ=              1.9182 ZZZX=             -2.4168
 ZZZY=              0.5404 XXYY=           -219.4324 XXZZ=           -192.8055 YYZZ=            -90.0040
 XXYZ=             -0.4206 YYXZ=              3.9108 ZZXY=             -1.9328
 N-N= 3.345368515408D+02 E-N=-1.307512099486D+03  KE= 2.745285211055D+02
  Exact polarizability:   0.000   0.000   0.000   0.000   0.000   0.000
 Approx polarizability: 100.154   0.907  98.127   0.418   0.555  98.326
 No NMR shielding tensors so no spin-rotation constants.
 Leave Link  601 at Sun Sep 29 06:52:01 2019, MaxMem=   671088640 cpu:              56.6 elap:              28.3
 (Enter /shared/centos7/gaussian/g16/l701.exe)
 SCFChk:  SCF convergence  7.40D-09 required  1.00D-08
 ... and contract with generalized density number  0.
 Compute integral second derivatives.
 Entering OneElI...
 Calculate overlap and kinetic energy integrals
    NBasis = 485  MinDer = 2  MaxDer = 2
 Requested accuracy = 0.1000D-12
 PrmmSu-InSpLW:  IPartL=    0 NPrtUS=   20 NPrtUL=    1 DoSpLW=F IThBeg=    0 IThEnd=   19 NThAct=   20.
 PrsmSu:  NPrtUS=  20 ThrOK=T IAlg=1 NPAlg=1 LenDen=           0 ISkipM=0 DoSpLW=F IThBeg=    0 IThEnd=   19.
 Prism:   IPart=     0 DynPar=F LinDyn=F Incr=           6.
 PRISM was handed    33197144 working-precision words and 13743 shell-pairs
 PRISM was handed    33197144 working-precision words and 13743 shell-pairs
 PRISM was handed    33197144 working-precision words and 13743 shell-pairs
 PRISM was handed    33197144 working-precision words and 13743 shell-pairs
 PRISM was handed    33197144 working-precision words and 13743 shell-pairs
 PRISM was handed    33197144 working-precision words and 13743 shell-pairs
 PRISM was handed    33197144 working-precision words and 13743 shell-pairs
 PRISM was handed    33197144 working-precision words and 13743 shell-pairs
 PRISM was handed    33197144 working-precision words and 13743 shell-pairs
 PRISM was handed    33197144 working-precision words and 13743 shell-pairs
 PRISM was handed    33197144 working-precision words and 13743 shell-pairs
 PRISM was handed    33197144 working-precision words and 13743 shell-pairs
 PRISM was handed    33197144 working-precision words and 13743 shell-pairs
 IPart=  0 NShTot=         723 NBatch=          81 AvBLen=         8.9
 IPart=  8 NShTot=         689 NBatch=          59 AvBLen=        11.7
 IPart=  2 NShTot=         715 NBatch=          75 AvBLen=         9.5
 IPart= 10 NShTot=         679 NBatch=          56 AvBLen=        12.1
 PRISM was handed    33197144 working-precision words and 13743 shell-pairs
 PRISM was handed    33197144 working-precision words and 13743 shell-pairs
 PRISM was handed    33197144 working-precision words and 13743 shell-pairs
 IPart= 11 NShTot=         677 NBatch=          56 AvBLen=        12.1
 PRISM was handed    33197144 working-precision words and 13743 shell-pairs
 IPart=  7 NShTot=         693 NBatch=          60 AvBLen=        11.6
 PRISM was handed    33197144 working-precision words and 13743 shell-pairs
 IPart= 17 NShTot=         666 NBatch=          51 AvBLen=        13.1
 PRISM was handed    33197144 working-precision words and 13743 shell-pairs
 PRISM was handed    33197144 working-precision words and 13743 shell-pairs
 IPart= 14 NShTot=         668 NBatch=          52 AvBLen=        12.8
 IPart=  6 NShTot=         700 NBatch=          66 AvBLen=        10.6
 IPart=  9 NShTot=         685 NBatch=          59 AvBLen=        11.6
 IPart= 18 NShTot=         662 NBatch=          49 AvBLen=        13.5
 IPart= 12 NShTot=         671 NBatch=          54 AvBLen=        12.4
 IPart=  5 NShTot=         706 NBatch=          70 AvBLen=        10.1
 IPart=  3 NShTot=         712 NBatch=          74 AvBLen=         9.6
 IPart=  1 NShTot=         723 NBatch=          81 AvBLen=         8.9
 IPart= 15 NShTot=         668 NBatch=          52 AvBLen=        12.8
 IPart=  4 NShTot=         708 NBatch=          71 AvBLen=        10.0
 IPart= 16 NShTot=         668 NBatch=          52 AvBLen=        12.8
 IPart= 19 NShTot=         660 NBatch=          48 AvBLen=        13.8
 IPart= 13 NShTot=         670 NBatch=          53 AvBLen=        12.6
 PrSmSu:  NxtVal=            121.
 Entering OneElI...
 Calculate potential energy integrals
    NBasis = 485  MinDer = 2  MaxDer = 2
 Requested accuracy = 0.1000D-12
 PrmmSu-InSpLW:  IPartL=    0 NPrtUS=   20 NPrtUL=    1 DoSpLW=F IThBeg=    0 IThEnd=   19 NThAct=   20.
 PrsmSu:  NPrtUS=  20 ThrOK=T IAlg=1 NPAlg=1 LenDen=           0 ISkipM=0 DoSpLW=F IThBeg=    0 IThEnd=   19.
 Prism:   IPart=     0 DynPar=F LinDyn=F Incr=         144.
 PRISM was handed    33258997 working-precision words and 12528 shell-pairs
 PRISM was handed    33258997 working-precision words and 12528 shell-pairs
 PRISM was handed    33258997 working-precision words and 12528 shell-pairs
 PRISM was handed    33258997 working-precision words and 12528 shell-pairs
 PRISM was handed    33258997 working-precision words and 12528 shell-pairs
 PRISM was handed    33258997 working-precision words and 12528 shell-pairs
 PRISM was handed    33258997 working-precision words and 12528 shell-pairs
 PRISM was handed    33258997 working-precision words and 12528 shell-pairs
 PRISM was handed    33258997 working-precision words and 12528 shell-pairs
 PRISM was handed    33258997 working-precision words and 12528 shell-pairs
 PRISM was handed    33258997 working-precision words and 12528 shell-pairs
 PRISM was handed    33258997 working-precision words and 12528 shell-pairs
 PRISM was handed    33258997 working-precision words and 12528 shell-pairs
 PRISM was handed    33258997 working-precision words and 12528 shell-pairs
 PRISM was handed    33258997 working-precision words and 12528 shell-pairs
 PRISM was handed    33258997 working-precision words and 12528 shell-pairs
 PRISM was handed    33258997 working-precision words and 12528 shell-pairs
 PRISM was handed    33258997 working-precision words and 12528 shell-pairs
 PRISM was handed    33258997 working-precision words and 12528 shell-pairs
 PRISM was handed    33258997 working-precision words and 12528 shell-pairs
 IPart=  9 NShTot=       14398 NBatch=         627 AvBLen=        23.0
 IPart= 10 NShTot=       14375 NBatch=         626 AvBLen=        23.0
 IPart= 17 NShTot=       13869 NBatch=         604 AvBLen=        23.0
 IPart= 11 NShTot=       14352 NBatch=         625 AvBLen=        23.0
 IPart=  6 NShTot=       14651 NBatch=         639 AvBLen=        22.9
 IPart=  7 NShTot=       14490 NBatch=         632 AvBLen=        22.9
 IPart= 14 NShTot=       14053 NBatch=         612 AvBLen=        23.0
 IPart=  8 NShTot=       14398 NBatch=         627 AvBLen=        23.0
 IPart=  0 NShTot=       15134 NBatch=         660 AvBLen=        22.9
 IPart=  1 NShTot=       15065 NBatch=         657 AvBLen=        22.9
 IPart= 16 NShTot=       13915 NBatch=         606 AvBLen=        23.0
 IPart=  2 NShTot=       14996 NBatch=         654 AvBLen=        22.9
 IPart= 19 NShTot=       13800 NBatch=         601 AvBLen=        23.0
 IPart= 15 NShTot=       13961 NBatch=         608 AvBLen=        23.0
 IPart= 18 NShTot=       13869 NBatch=         604 AvBLen=        23.0
 IPart= 12 NShTot=       14168 NBatch=         617 AvBLen=        23.0
 IPart=  4 NShTot=       14881 NBatch=         649 AvBLen=        22.9
 IPart= 13 NShTot=       14099 NBatch=         614 AvBLen=        23.0
 IPart=  5 NShTot=       14743 NBatch=         643 AvBLen=        22.9
 IPart=  3 NShTot=       14927 NBatch=         651 AvBLen=        22.9
 PrSmSu:  NxtVal=           2881.
 Polarizability after L701:
                1             2             3 
      1  0.000000D+00
      2  0.000000D+00  0.000000D+00
      3  0.000000D+00  0.000000D+00  0.000000D+00
 Dipole Derivatives after L701:
                 1             2             3             4             5 
      1  -0.588676D+00 -0.407171D+00 -0.493720D+00 -0.105017D+00 -0.182007D+00
      2  -0.401354D+00 -0.179952D+00 -0.248724D+00 -0.465504D+00 -0.128163D+01
      3   0.540208D-01 -0.326456D-01 -0.108098D+01  0.135465D+00 -0.264380D+00
                 6             7             8             9            10 
      1   0.166790D+00 -0.866508D+00  0.930536D+00  0.423800D+00  0.163158D+00
      2   0.257279D+00  0.684895D+00 -0.984575D+00 -0.250251D-01 -0.893467D-02
      3  -0.563054D+00  0.769287D-01  0.228758D+00 -0.816521D+00 -0.462744D+00
                11            12            13            14            15 
      1   0.122561D+01 -0.525823D+00 -0.157156D+01 -0.102908D-01 -0.924738D+00
      2  -0.985950D+00  0.339530D-01 -0.823420D-01  0.264676D-03 -0.216311D+00
      3   0.139196D+00 -0.477980D+00 -0.781284D-01 -0.121143D+00 -0.847409D+00
                16            17            18            19            20 
      1  -0.216768D+01 -0.575886D+00  0.727866D+00 -0.672796D+00 -0.938745D+00
      2   0.225417D+00 -0.850945D+00 -0.131843D+00  0.437219D-01 -0.137230D+01
      3   0.144405D+00  0.777130D-01 -0.107722D+01  0.588268D-01 -0.109573D+00
                21            22            23            24            25 
      1   0.563964D+00 -0.441313D-01 -0.161847D+00 -0.198625D+00  0.444471D+00
      2   0.191766D+00  0.345144D+00  0.363605D+00  0.281317D+00 -0.212337D+00
      3  -0.894659D+00  0.127825D+00  0.113896D+00  0.292670D+00  0.120832D+00
                26            27            28            29            30 
      1  -0.486186D+00  0.441164D+00  0.177910D+00  0.120276D-01 -0.437694D-02
      2   0.484980D+00 -0.352799D+00  0.779991D-01  0.222599D+00 -0.448033D-01
      3  -0.234032D+00  0.361900D+00 -0.421799D+00 -0.345692D+00  0.430255D+00
                31            32            33            34            35 
      1   0.442708D+00  0.287830D+00  0.310511D+00  0.212371D+00 -0.353102D-01
      2   0.168380D+00  0.369705D+00  0.173922D+00  0.127827D+00  0.128368D+00
      3   0.343533D+00  0.325426D+00  0.464338D+00 -0.146362D+00  0.278914D-01
                36            37            38            39            40 
      1  -0.141323D+00  0.184249D+00  0.635507D-01  0.582396D-01  0.412342D+00
      2  -0.366808D+00  0.175097D+00  0.911938D+00  0.301694D+00 -0.251790D+00
      3   0.515901D+00  0.579178D-01  0.133579D+00  0.194893D+00  0.101209D+00
                41            42            43            44            45 
      1  -0.497943D+00  0.379471D+00  0.398131D+00 -0.733586D-01 -0.607971D+00
      2   0.683992D+00 -0.392682D+00 -0.145554D+00  0.193566D+00  0.398759D+00
      3  -0.186881D+00  0.272221D+00 -0.138682D+00  0.496889D-01  0.510895D+00
                46            47            48            49            50 
      1   0.131198D+01 -0.479055D-01 -0.160091D-01 -0.273460D-01  0.672762D-01
      2   0.436266D-01  0.169296D+00 -0.339846D-02 -0.441747D-01  0.167663D+00
      3   0.206200D+00 -0.127084D-01  0.114909D+00 -0.183071D+00  0.747572D-01
                51            52            53            54            55 
      1   0.539635D+00  0.160255D+00  0.904997D+00 -0.422987D-02  0.127504D+01
      2   0.954215D-01 -0.513552D-02  0.535298D+00  0.338451D-01 -0.183893D+00
      3   0.721770D+00 -0.253275D-01 -0.148467D+00  0.107115D+00 -0.383452D-01
                56            57            58            59            60 
      1  -0.505284D+00  0.548391D+00  0.622116D-01 -0.173273D+00 -0.895279D+00
      2   0.191791D+00 -0.121532D+00  0.373569D-01  0.157071D+00  0.183405D+00
      3  -0.215264D-01  0.102513D+00  0.581699D-01  0.169160D+00  0.752369D+00
                61            62            63            64            65 
      1   0.456722D-01 -0.826373D-01 -0.588560D+00  0.187457D-01  0.374358D-01
      2  -0.539819D-01  0.616579D-01 -0.402641D+00 -0.673314D+00  0.255207D+00
      3   0.388409D-01  0.101088D+00  0.643397D+00 -0.693706D-01  0.145439D-01
                66            67            68            69 
      1   0.149590D-01  0.734473D+00  0.648584D+00  0.225866D+00
      2   0.155402D+00  0.598852D+00  0.758345D+00  0.199803D+00
      3   0.165345D+00  0.396553D-01  0.213508D-01  0.107325D+00
 Hessian after L701:
                1             2             3             4             5 
      1  0.154057D+02
      2  0.806575D+00  0.175095D+02
      3  0.475867D-01 -0.122439D+00  0.174861D+02
      4 -0.504122D+01 -0.129775D+01  0.113754D+01  0.151475D+02
      5 -0.133226D+01 -0.462112D+01 -0.127431D+01  0.194427D+00  0.166820D+02
      6  0.113071D+01 -0.125269D+01 -0.511002D+01 -0.506772D+00  0.214170D+00
      7  0.238773D+00 -0.157987D+00  0.198767D+00 -0.211802D+01  0.436711D+00
      8 -0.149813D+00 -0.683046D-01 -0.101962D+00  0.427331D+00 -0.612525D+01
      9  0.325992D+00 -0.134791D+00 -0.138152D-01  0.176239D+00  0.450461D-01
     10 -0.483492D+01 -0.154500D+01 -0.110908D+01  0.101758D+00 -0.294585D+00
     11 -0.147627D+01 -0.458774D+01  0.123470D+01 -0.290612D+00  0.237470D+00
     12 -0.107847D+01  0.125470D+01 -0.529789D+01  0.778249D-01 -0.145166D+00
     13  0.194975D+00  0.590392D-01  0.118425D+00  0.221690D+00  0.221706D+00
     14  0.506272D-01 -0.124879D+00  0.148452D-01  0.251271D+00  0.564231D-01
     15  0.142693D+00  0.260215D-01 -0.123652D+00  0.694621D-01  0.486478D-01
     16  0.276686D+00  0.687968D-02 -0.262446D+00  0.103701D+00 -0.113851D+00
     17 -0.782337D-01 -0.172337D+00  0.217175D-01 -0.220804D+00 -0.869936D-01
     18 -0.345423D+00 -0.107035D-02  0.125097D-01 -0.316812D-01  0.720831D-02
     19  0.217070D+00  0.351901D+00  0.101301D+00 -0.542972D-01  0.206649D+00
     20  0.304636D+00 -0.151687D-01  0.772910D-01  0.176188D+00  0.152873D+00
     21  0.202458D+00  0.143590D+00 -0.217888D+00  0.722310D-02 -0.188137D-01
     22  0.197161D+00  0.880271D-01  0.853469D-01 -0.162948D-01 -0.210009D-01
     23  0.426587D-01 -0.134908D-01 -0.189582D+00 -0.675768D-01  0.328992D-01
     24  0.474054D-01 -0.148970D+00  0.887351D-02 -0.181213D-01  0.146934D-01
     25  0.241071D-01  0.108233D+00  0.289056D-01  0.224932D-01 -0.100648D+00
     26  0.961566D-01 -0.156079D-01 -0.513975D-01 -0.112550D+00  0.990329D-01
     27  0.266566D-01 -0.477583D-01  0.152852D+00  0.472359D-01 -0.595170D-01
     28 -0.354989D+01  0.867606D+00 -0.104890D+01  0.248357D+00  0.101198D+00
     29  0.922882D+00 -0.407934D+01 -0.772032D+00  0.679382D-01 -0.377493D-02
     30 -0.126248D+01 -0.877235D+00 -0.362943D+01 -0.783793D-01  0.270784D+00
     31 -0.360433D+01  0.695378D+00  0.919815D+00  0.705246D-01  0.122915D+00
     32  0.716737D+00 -0.380322D+01  0.783545D+00  0.116749D+00  0.113867D+00
     33  0.956975D+00  0.794279D+00 -0.329222D+01 -0.905684D-01  0.138772D+00
     34  0.205247D+00  0.460298D-01 -0.130630D+00 -0.438306D+01  0.265958D-02
     35  0.591548D-01  0.721541D-01  0.266222D+00  0.610355D-01 -0.466854D+01
     36 -0.131911D+00  0.222683D+00 -0.978816D-01 -0.936928D+00  0.768141D-01
     37  0.917791D-01  0.101330D+00 -0.258055D-01 -0.430367D+01  0.515989D+00
     38  0.975518D-01  0.369006D-02  0.117609D+00  0.531102D+00 -0.213745D+01
     39 -0.263782D-01  0.101995D+00  0.107914D+00  0.125887D+00  0.640876D+00
     40  0.893733D-01 -0.945880D-01  0.801503D-01 -0.997664D-01  0.445616D-01
     41 -0.114087D+00  0.157624D-01 -0.556291D-01  0.538250D-01  0.136833D+00
     42  0.898628D-01 -0.555655D-01 -0.799331D-02 -0.472598D-01 -0.194157D-01
     43 -0.203632D-01  0.353830D-01 -0.538008D-02 -0.982381D-01 -0.535290D-01
     44  0.283712D-01 -0.163071D-01  0.199081D-02 -0.113847D-01  0.119959D+00
     45 -0.156644D-01  0.173738D-02  0.185563D-01  0.698470D-01  0.371568D-01
     46  0.266156D-01  0.469273D-02 -0.978560D-03  0.152663D+00  0.815518D-01
     47  0.716161D-03 -0.893097D-02  0.705022D-03  0.712681D-01 -0.215332D-01
     48  0.872502D-02  0.141355D-02 -0.799043D-02  0.352258D-01  0.139208D-01
     49 -0.791216D-02  0.210235D-02  0.145685D-02  0.851870D-04  0.711161D-02
     50  0.384821D-02 -0.699114D-02  0.277177D-02  0.129977D-01 -0.126782D-01
[...]
 32078,-0.09235431,0.09611907,-0.00156831,-0.00137996,0.00055946,-0.008
 78014,0.00375427,0.00296889,0.08669312,-0.03963113,-0.08742922,-0.0004
 8949,0.00014113,-0.00026043,0.02520756,-0.01602739,-0.01540107,0.00001
 958,-0.00002865,0.00011073,-0.00166564,0.00168726,-0.00587823,0.000029
 18,-0.00010105,0.00012315,-0.00005200,-0.00005367,0.00012929,0.0001695
 1,-0.00015799,-0.00017605,-0.00036609,-0.00003266,-0.00000816,0.000498
 28,0.00007691,0.00011492,-0.00019005,0.00059856,0.00050083,-0.08956994
 ,0.04814274,0.09961050,0.00229647,-0.00147678,0.00023136,0.00027950,-0
 .02620809,0.00940056,-0.05006888,0.02420161,-0.00920070,0.00002036,0.0
 0001282,0.00011715,-0.00004853,0.00292490,-0.00071472,0.00002246,-0.00
 015542,0.00001901,0.00048095,-0.00010861,0.00064987,-0.00000103,-0.000
 01570,-0.00004959,-0.00005695,0.00002004,0.00003308,-0.00013874,0.0009
 6978,0.00013484,0.00025191,0.00012056,-0.00007443,-0.00378917,-0.00341
 006,-0.00164750,0.00099435,0.00095223,0.00023857,-0.00250435,0.0252302
 1,-0.01087070,0.05250926,0.00135967,0.00061634,-0.00033017,0.00081852,
 -0.01908870,0.00611606,0.02248596,-0.26170027,0.08999031,0.00012862,0.
 00019122,0.00019305,-0.00009134,0.00105128,-0.00059397,0.00012447,-0.0
 0011284,-0.00017701,0.00001906,0.00120352,-0.00147416,0.00002022,-0.00
 002667,-0.00010709,-0.00006514,0.00000398,0.00005121,-0.00079069,0.000
 68929,0.00034339,-0.00000107,0.00024220,-0.00004098,-0.00323714,-0.000
 82710,-0.00182394,0.00012966,0.00035493,-0.00047307,0.00153007,-0.0119
 7851,0.00441442,-0.02247544,0.28744054,0.00049421,0.00029152,-0.000064
 14,0.00030441,-0.00982745,0.00325735,-0.00826518,0.08955037,-0.0829470
 2,-0.00004319,-0.00013044,-0.00016361,-0.00186100,0.02992430,-0.016911
 72,0.00000971,-0.00009306,0.00008125,-0.00009397,0.00198431,0.00195308
 ,-0.00009010,0.00001111,0.00005049,0.00005015,0.00001472,0.00004361,0.
 00035572,0.00021095,-0.00006498,0.00005190,-0.00012639,-0.00006268,-0.
 00200803,-0.00127666,0.00016408,0.00059044,-0.00002286,0.00044384,0.00
 054894,-0.01201953,0.00468249,0.01189221,-0.09633567,0.09532876,0.0002
 8537,0.00011410,0.00023123,0.00138756,0.00047792,-0.00119075,-0.003367
 69,-0.00060467,0.00053778,0.00015273,0.00003671,0.00022744,-0.29534468
 ,-0.04112787,-0.04472685,-0.00004482,0.00004992,-0.00004978,-0.0182787
 5,-0.00121998,-0.00136700,-0.00000378,0.00012911,-0.00017738,-0.000031
 99,-0.00000646,-0.00004852,0.00003805,-0.00002703,0.00009205,0.0000176
 8,-0.00004738,-0.00007348,0.00002934,0.00007150,0.00009371,-0.00040401
 ,-0.00021817,-0.00008093,0.00179102,-0.00018570,0.00015114,-0.00024175
 ,-0.00003830,-0.00040129,0.32068951,0.00017385,-0.00021873,0.00003609,
 -0.00015419,0.00030455,-0.00121885,-0.00138619,-0.00126940,-0.00096932
 ,0.00008165,0.00009432,0.00057231,-0.04148645,-0.05438382,-0.00447422,
 -0.00004572,0.00006355,-0.00002875,0.02879459,0.00195771,0.00272986,-0
 .00008649,-0.00011243,-0.00032730,-0.00024908,-0.00002689,-0.00012874,
 -0.00006652,0.00011866,-0.00008664,-0.00003346,0.00007078,-0.00001691,
 0.00014184,0.00035220,0.00011575,-0.00034926,0.00004446,-0.00031582,-0
 .00030516,0.00049848,-0.00057920,0.00002939,-0.00014327,-0.00015737,0.
 04160923,0.05900942,0.00032346,-0.00006015,-0.00011330,0.00077762,0.00
 159473,-0.00592237,-0.03210745,-0.00879842,-0.00891117,0.00000124,-0.0
 0002575,-0.00036612,-0.04365528,-0.00448517,-0.05353571,0.00003090,-0.
 00007366,0.00009810,0.01515779,0.00137519,0.00165300,-0.00001407,-0.00
 012930,0.00017694,0.00000989,0.00000619,0.00016027,-0.00003148,0.00009
 040,0.00002750,-0.00012712,0.00007364,0.00012889,0.00021896,-0.0000345
 1,0.00015475,-0.00129295,-0.00116189,-0.00076708,-0.00045749,-0.000581
 31,0.00132216,0.00003354,0.00059279,-0.00013462,0.04581139,0.01142057,
 0.06378943,0.00004927,0.00033874,-0.00002194,0.00067473,0.00074877,-0.
 00037259,0.00081150,0.00472686,-0.00363623,-0.00060353,0.00004272,-0.0
 0003114,-0.06288695,-0.05489297,0.02790747,0.00009147,-0.00006962,0.00
 011903,0.00462089,0.01657318,-0.00795405,-0.00165041,0.00010300,-0.000
 00141,0.00006700,-0.00001375,0.00001736,-0.00001303,-0.00006166,-0.000
 01109,0.00002923,-0.00005872,0.00007082,0.00024091,-0.00001366,0.00010
 282,0.00000038,0.00003808,0.00015050,-0.00011040,-0.00006998,0.0000919
 6,0.00014210,0.00057861,-0.00154110,-0.00784338,-0.02819893,0.01427748
 ,0.06660851,-0.00001341,-0.00021385,0.00017969,-0.00010825,0.00129647,
 -0.00073397,0.00040041,0.00142968,-0.00052227,-0.00003431,0.00019179,0
 .00095616,-0.05308965,-0.24115609,0.09676862,-0.00006790,0.00017385,-0
 .00008373,-0.00586738,-0.02233131,0.00969498,-0.00031437,0.00017976,-0
 .00046607,-0.00031420,-0.00003222,-0.00027560,-0.00003329,0.00007217,-
 0.00005834,0.00003275,0.00009180,-0.00009628,0.00065502,0.00027730,0.0
 0041667,0.00001218,0.00022564,-0.00015228,0.00021877,-0.00020501,0.000
 54230,-0.00045197,0.00095963,-0.00060659,-0.00200349,-0.00448873,0.001
 80230,0.05835466,0.26474853,-0.00027272,-0.00004601,-0.00018805,0.0006
 3382,0.00156770,0.00231618,0.00595953,0.02877348,-0.01685247,-0.000071
 23,-0.00010467,-0.00036320,0.02650062,0.09739494,-0.09493082,-0.000049
 25,-0.00004536,0.00008650,-0.00406306,-0.01402875,0.00615631,0.0000119
 9,0.00002577,0.00055467,0.00012488,-0.00002946,0.00013056,0.00016411,-
 0.00009888,-0.00006785,-0.00007128,-0.00002020,0.00005948,-0.00039832,
 -0.00116598,-0.00002328,0.00044158,-0.00020560,0.00046123,0.00037209,-
 0.00025228,-0.00036305,-0.00015610,-0.00080552,-0.00600244,-0.00081758
 ,-0.00499593,0.00203335,-0.02952375,-0.10452677,0.10697881,0.00011350,
 0.00058053,0.00057876,-0.00057817,-0.00035845,-0.00023700,0.00009966,-
 0.00024236,0.00008081,0.00970016,-0.00594786,-0.00461443,-0.00000974,-
 0.00007300,0.00006802,-0.19405432,0.11417202,0.06791062,-0.00001068,0.
 00002464,-0.00001791,0.00068722,0.00085515,-0.00007399,0.00036194,-0.0
 0299019,-0.00011185,0.00005378,0.00018689,-0.00018031,-0.00005544,0.00
 013292,-0.00000847,-0.00100095,-0.00120818,0.00080459,0.00009855,0.000
 26528,-0.00012408,0.00003014,0.00001310,0.00000340,-0.00007006,-0.0000
 5554,-0.00002802,0.00001392,0.00002299,-0.00002155,0.00001402,0.000083
 34,-0.00003663,0.21022887,0.00095340,0.00118439,-0.00066225,0.00031401
 ,-0.00058427,0.00055428,-0.00025285,0.00036531,-0.00023093,0.02441463,
 -0.01900731,-0.01083285,-0.00001574,-0.00008965,-0.00007174,0.11364869
 ,-0.13411685,-0.05222392,0.00014166,-0.00000478,0.00003237,-0.00015355
 ,0.00135406,0.00001412,-0.00299075,-0.00568262,-0.00080427,-0.00008075
 ,0.00029544,0.00003747,-0.00001346,-0.00002494,0.00028326,-0.00132929,
 0.00035825,0.00024720,-0.00014999,0.00025135,-0.00004441,-0.00001942,-
 0.00002060,0.00001212,0.00019730,0.00015331,0.00006709,-0.00000588,0.0
 0003852,0.00006162,-0.00003027,-0.00004649,-0.00003711,-0.12354889,0.1
 4797684,-0.00045166,0.00022063,0.00021626,0.00043613,0.00003718,0.0001
 5172,0.00000161,0.00013991,-0.00001292,0.00310148,-0.00284080,-0.00215
 156,-0.00003106,-0.00013483,0.00006169,0.06783441,-0.05264411,-0.07920
 836,0.00004547,0.00001363,-0.00003425,0.00029337,-0.00004923,-0.000166
 51,-0.00052170,-0.00067633,0.00076321,-0.00003805,-0.00010210,-0.00007
 831,-0.00021819,-0.00010192,0.00000904,0.00056940,0.00059228,0.0000398
 7,-0.00004684,0.00005971,-0.00003435,-0.00003336,-0.00001232,-0.000005
 63,0.00002495,0.00002355,-0.00001677,-0.00000793,0.00002392,-0.0000244
 7,-0.00001035,0.00003527,-0.00004213,-0.07582585,0.05905948,0.08165669
 ,0.00002228,0.00087054,-0.00087541,-0.00028675,0.00038891,0.00008529,0
 .00011082,-0.00013109,0.00001249,-0.00782834,-0.00071757,-0.00625562,0
 .00002332,0.00007058,-0.00007134,-0.19891578,-0.00447357,-0.13096965,0
 .00003637,-0.00004949,0.00008494,0.00085767,-0.00206788,0.00001258,0.0
 0079228,-0.00018441,0.00037862,0.00027077,0.00008068,0.00027217,0.0000
 1272,-0.00041716,0.00085008,0.00011708,-0.00025731,-0.00007670,-0.0000
 8554,-0.00014472,0.00011866,0.00002424,0.00002205,0.00001579,-0.000038
 59,-0.00005570,-0.00000082,-0.00002795,-0.00002882,0.00002758,0.000055
 98,-0.00004299,0.00004559,-0.01783993,-0.00091346,-0.01630933,0.213751
 50,-0.00002499,0.00178760,-0.00193474,0.00018767,-0.00016308,0.0001357
 6,0.00003683,-0.00002447,-0.00013725,-0.02602619,-0.00254615,-0.021639
 66,0.00001412,-0.00001645,-0.00008613,-0.00364714,-0.04606113,-0.00311
 879,0.00010236,-0.00016450,0.00010160,-0.00208502,-0.00612468,-0.00041
 578,0.00067073,0.00152943,0.00002517,0.00034242,0.00018233,-0.00009046
 ,0.00040798,0.00012608,0.00097845,0.00001910,0.00006365,-0.00005351,-0
 .00002883,0.00007293,0.00002225,0.00002046,0.00001232,0.00003605,0.000
 00523,0.00000954,0.00001874,-0.00004424,-0.00002906,0.00004886,0.00006
 370,-0.00009120,0.00002612,0.01312645,-0.00004498,0.01345378,0.0071014
 7,0.05202756,0.00110049,0.00046857,0.00115288,0.00018595,-0.00003521,-
 0.00010599,0.00003090,0.00003307,-0.00006927,-0.00329091,-0.00051878,-
 0.00414764,-0.00001470,0.00003535,-0.00004692,-0.13120288,-0.00412006,
 -0.16182705,0.00002486,-0.00000637,0.00004218,0.00037376,-0.00104511,0
 .00097242,0.00011235,-0.00019859,-0.00011410,0.00011015,-0.00006358,0.
 00012644,-0.00022795,-0.00012499,0.00038426,-0.00007933,0.00000047,-0.
 00001423,-0.00001711,0.00000551,0.00000745,-0.00001095,0.00000565,0.00
 000598,0.00000286,0.00000581,0.00000850,-0.00002344,-0.00002274,0.0000
 1225,0.00001522,-0.00006083,0.00001254,0.00935744,0.00095516,0.0082101
 9,0.14525912,0.00557265,0.17297678,-0.00014487,-0.00194244,-0.00100715
 ,0.00024385,-0.00003412,-0.00023465,0.00014256,-0.00017980,0.00011965,
 -0.00424400,-0.00279350,0.00842948,-0.00001268,-0.00004968,0.00006617,
 -0.07450672,-0.03281073,0.07390433,0.00000250,0.00002715,-0.00002093,-
 0.00011302,0.00031688,0.00018075,0.00035895,0.00019198,-0.00040274,-0.
 00005789,-0.00022252,0.00066513,0.00016420,0.00006459,0.00025120,0.000
 34031,-0.00005819,-0.00000541,-0.00002458,0.00000467,0.00002408,-0.000
 01224,0.00001378,-0.00000843,-0.00009421,-0.00003745,-0.00005799,-0.00
 001466,-0.00000316,-0.00002993,-0.00000003,0.00003070,0.00000676,-0.00
 783049,-0.01010674,0.02122570,0.00902983,0.01010735,-0.02168084,0.0767
 5788,-0.00127272,-0.00617748,-0.00248541,0.00057574,-0.00042829,0.0000
 2667,-0.00010905,0.00019705,0.00003709,-0.00978394,-0.01107844,0.02848
 709,0.00002706,-0.00002997,0.00004790,-0.03245691,-0.08550355,0.088875
 23,0.00003039,0.00002727,-0.00004223,-0.00007431,0.00139601,-0.0003184
 3,0.00091453,0.00092169,0.00013647,-0.00094701,-0.00086609,0.00163324,
 0.00014266,0.00010603,-0.00042213,-0.00023938,0.00027404,-0.00012908,-
 0.00012513,0.00003118,0.00005159,-0.00009416,-0.00000607,-0.00004176,0
 .00007803,0.00007579,-0.00000459,-0.00001772,-0.00000197,-0.00001515,0
 .00000853,0.00001524,-0.00000231,0.00496698,0.00754181,-0.01711969,0.0
 0090421,-0.00062152,-0.00095534,0.03748460,0.09410875,-0.00054196,-0.0
 0078837,0.00027306,-0.00001714,-0.00007213,0.00019992,-0.00001819,0.00
 002013,-0.00004491,-0.00285020,-0.00332984,0.00587183,0.00001453,0.000
 01852,-0.00002634,0.07434168,0.09020683,-0.25078142,-0.00002673,0.0000
 0824,0.00000784,0.00026519,0.00055769,0.00055590,0.00001409,0.00068899
 ,0.00023854,0.00019444,-0.00016370,0.00031327,0.00022196,-0.00015966,0
 .00047876,-0.00012798,0.00009158,-0.00005947,-0.00005029,0.00001896,0.
 00000491,0.00003345,0.00000434,0.00000711,0.00003161,0.00002427,0.0000
 2162,0.00002133,0.00000991,0.00001707,-0.00001679,0.00000102,-0.000008
 36,0.00248092,0.00357613,-0.00934224,0.00741554,0.00711934,-0.01759705
 ,-0.08144060,-0.09782767,0.26986212,-0.00002292,-0.00037432,0.00018978
 ,-0.00004663,0.00015747,0.00002611,0.00022388,-0.00046365,-0.00097113,
 0.00023567,-0.00054594,0.00028510,0.00405620,0.01727002,-0.00698697,-0
 .00016941,0.00013722,-0.00029293,-0.06665578,-0.06389539,0.02943938,-0
 .00032515,0.00024986,-0.00032373,0.00012624,0.00002297,0.00005114,0.00
 000261,0.00012848,0.00009333,0.00000231,0.00003611,-0.00008409,-0.0000
 3867,-0.00005154,0.00003790,0.00005254,-0.00002623,-0.00000678,-0.0000
 8447,0.00001019,-0.00020456,0.00014799,-0.00042792,-0.00001565,0.00073
 268,-0.00043341,-0.00073108,-0.00134646,0.00299760,0.00196010,0.000006
 60,-0.00006126,-0.00001537,-0.00005107,-0.00013751,-0.00002996,0.00000
 999,0.00002172,0.00001465,0.06968248,0.00000588,-0.00019200,0.00003337
 ,-0.00007792,0.00025445,-0.00014042,-0.00045772,0.00055960,0.00191670,
 0.00017117,-0.00002156,0.00022125,-0.00614081,-0.02377226,0.00974488,-
 0.00004884,0.00006165,-0.00009870,-0.06300766,-0.24632745,0.09563962,0
 .00006143,0.00005399,-0.00018363,-0.00005663,0.00001468,-0.00004037,-0
 .00010358,-0.00005482,-0.00001710,-0.00000839,0.00001151,-0.00004673,0
 .00014994,0.00019118,0.00011252,-0.00006395,-0.00000312,-0.00008057,0.
 00003020,0.00044205,-0.00000979,-0.00022023,0.00055031,-0.00121700,0.0
 0014959,0.00105420,0.00024605,0.00334988,-0.00262529,-0.00273557,0.000
 01349,0.00000531,0.00002004,-0.00003200,-0.00004202,-0.00001484,0.0000
 1319,0.00000889,0.00000420,0.06628743,0.27080685,0.00011914,-0.0000635
 8,0.00010671,-0.00014101,-0.00016483,-0.00016045,-0.00041427,-0.001266
 32,0.00186670,-0.00006601,-0.00014028,0.00001972,-0.00396620,-0.013484
 54,0.00473116,-0.00001834,0.00000388,-0.00003196,0.02921705,0.09676105
 ,-0.09261524,0.00001897,-0.00003525,-0.00011311,-0.00000161,0.00001324
 ,-0.00001690,0.00000656,0.00015469,0.00006133,0.00000210,0.00004084,0.
 00000588,-0.00000388,0.00012950,-0.00010613,-0.00001429,0.00001821,-0.
 00002181,-0.00000772,0.00010127,0.00021230,-0.00001209,0.00039116,-0.0
 0017541,-0.00050783,0.00081556,0.00036138,0.00142618,-0.00276607,-0.00
 072979,0.00000265,-0.00000164,0.00000332,-0.00000152,-0.00001297,0.000
 00536,-0.00000319,0.00000135,-0.00000326,-0.03414893,-0.10368872,0.097
 83800,-0.00090891,0.00012755,-0.00090089,-0.00007537,0.00032727,0.0006
 4199,0.00033886,-0.00003820,-0.00034044,0.00045111,-0.00182872,-0.0004
 1231,-0.01576548,-0.00159673,-0.00194080,-0.00053062,0.00007314,-0.000
 31244,-0.31185457,-0.02972748,-0.02963354,-0.00059629,-0.00072928,-0.0
 0060869,-0.00020972,0.00029965,0.00022761,-0.00018821,-0.00100012,-0.0
 0095560,-0.00001563,-0.00047289,-0.00004249,0.00000171,-0.00006699,0.0
 0001463,0.00014784,0.00007251,0.00002220,0.00017054,-0.00003545,0.0000
 2571,0.00002795,-0.00000451,0.00033367,-0.00003737,0.00285156,0.001739
 47,0.00049139,-0.00009260,-0.00015198,0.00003658,0.00002214,-0.0000130
 8,-0.00003541,-0.00019372,-0.00000021,0.00002200,0.00001369,0.00002804
 ,-0.00755863,-0.00097981,-0.00107637,0.34124221,-0.00025727,0.00019691
 ,-0.00086080,0.00010890,-0.00011069,-0.00015414,-0.00065685,0.00083091
 ,0.00062252,-0.00093581,-0.00086881,-0.00072264,0.02651519,0.00390030,
 0.00409385,0.00008978,-0.00020601,0.00017911,-0.03175170,-0.04983795,-
 0.00332258,-0.00051389,-0.00224405,0.00010300,-0.00002916,0.00007422,0
 .00008096,-0.00017173,-0.00001597,-0.00027073,-0.00005823,-0.00004602,
 0.00025704,0.00003844,-0.00002702,-0.00002388,-0.00011171,-0.00002660,
 0.00002769,-0.00012562,0.00004740,0.00016369,-0.00021018,0.00004393,-0
 .00013631,0.00314317,-0.00394730,-0.00265165,-0.00063365,0.00094795,0.
 00086805,-0.00001700,0.00008112,0.00001064,0.00006922,0.00011394,0.000
 07335,0.00000441,0.00002113,-0.00001673,-0.02800241,-0.00289080,-0.004
 58702,0.03376818,0.05521067,-0.00081986,-0.00107298,-0.00110843,0.0002
 0331,0.00001042,-0.00002785,-0.00007426,0.00069771,0.00088012,-0.00009
 069,-0.00033971,0.00034154,0.01528531,0.00261644,0.00164121,0.00002302
 ,0.00003392,-0.00024726,-0.03086374,-0.00283879,-0.05076689,-0.0000853
 9,0.00019924,0.00028308,0.00010646,-0.00000722,0.00006451,-0.00096041,
 -0.00040954,-0.00178027,-0.00001604,0.00015266,0.00005187,-0.00012396,
 0.00008789,0.00003487,-0.00000949,0.00005200,0.00004233,-0.00017104,0.
 00018826,0.00005033,-0.00007189,0.00024175,-0.00005695,0.00185477,-0.0
 0273889,-0.00048772,-0.00085632,0.00032536,0.00027237,-0.00000994,-0.0
 0001724,0.00001392,-0.00001592,-0.00004237,0.00000401,0.00004795,0.000
 10340,-0.00001078,0.01457523,0.00099066,0.00101967,0.03410357,0.006052
 46,0.05237296,-0.00033537,0.00052864,-0.00028586,-0.00037566,0.0001177
 6,0.00053537,-0.00136481,0.00295036,0.00106101,0.00004028,-0.00000666,
 -0.00018792,0.00338200,-0.00026185,0.01805066,-0.00005151,-0.00000056,
 0.00003091,-0.05910298,-0.00254025,-0.05511483,0.00002162,0.00003227,-
 0.00008727,0.00002027,0.00008335,-0.00002985,0.00001798,-0.00059131,0.
 00010717,0.00003414,-0.00033171,-0.00005973,0.00008539,-0.00000999,-0.
 00001001,0.00018537,0.00008609,0.00001842,0.00004544,0.00027539,0.0008
 6012,-0.00012105,0.00008538,-0.00022504,0.00050297,-0.00087827,0.00005
 908,0.00055684,-0.00035161,-0.00060917,0.00000483,-0.00001953,-0.00000
 977,0.00000451,-0.00001822,0.00000519,-0.00001667,-0.00004781,0.000012
 46,0.00101999,0.00096535,0.00959061,-0.00515397,-0.00026207,-0.0320307
 0,0.06060041,0.00000401,-0.00016432,0.00002346,0.00011670,0.00034123,-
 0.00015246,0.00381272,-0.00355315,-0.00026284,-0.00013457,0.00007683,-
 0.00011726,-0.00624099,-0.00122486,-0.02607119,0.00000666,-0.00001627,
 0.00001666,-0.00261164,-0.04716645,-0.00919680,0.00007769,0.00000199,-
 0.00001978,-0.00002933,0.00000018,0.00003260,-0.00006009,-0.00002100,0
 .00000675,-0.00004301,-0.00001849,0.00002083,0.00002558,-0.00000606,0.
 00002203,-0.00016896,-0.00005723,-0.00002340,-0.00011905,-0.00006054,-
 0.00152620,-0.00000961,0.00029155,-0.00011918,-0.00023437,0.00101474,0
 .00070464,-0.00088352,0.00058040,0.00044434,-0.00000231,0.00001676,-0.
 00000867,0.00000849,0.00000386,0.00001083,-0.00002097,-0.00001150,0.00
 000794,0.00710049,0.00191466,0.02778048,-0.00078918,-0.00124724,-0.004
 28542,0.00019526,0.04930492,0.00006423,0.00018083,0.00005527,0.0002314
 5,0.00004908,-0.00002509,0.00238455,-0.00207670,0.00034699,-0.00000793
 ,-0.00006918,-0.00006515,-0.00320323,0.00070041,-0.01203630,-0.0000216
 9,-0.00000653,0.00002417,-0.05383684,-0.01000598,-0.30338852,-0.000065
 28,-0.00007156,-0.00018986,-0.00005963,0.00001085,0.00002356,0.0000392
 7,-0.00010155,0.00003936,-0.00005453,-0.00005582,0.00002159,-0.0000386
 8,-0.00008463,-0.00001829,-0.00009567,-0.00003997,-0.00004402,-0.00025
 486,-0.00041981,-0.00087630,-0.00001190,-0.00022620,0.00056529,0.00045
 192,0.00033671,0.00032748,-0.00020208,-0.00037356,0.00050946,0.0000028
 2,0.00002607,-0.00000844,-0.00000216,-0.00000711,0.00000102,-0.0000293
 3,-0.00003625,0.00002188,-0.00286153,-0.00065587,-0.01225747,-0.000748
 05,0.00021412,-0.00258666,0.05831914,0.01271265,0.32956003\\0.00000025
 ,-0.00000035,0.00000070,-0.00000042,-0.00000012,0.00000021,-0.00000045
 ,-0.00000021,-0.00000035,0.00000013,-0.00000028,-0.00000027,-0.0000002
 1,0.00000084,-0.00000035,0.00000066,-0.00000013,0.00000049,0.00000034,
 0.00000045,-0.00000062,0.00000040,-0.00000020,0.00000022,0.00000003,-0
 .00000025,0.00000035,-0.00000029,-0.00000011,0.00000007,-0.00000048,-0
 .00000039,0.00000039,-0.00000005,-0.00000005,-0.00000004,-0.00000039,-
 0.00000003,-0.00000015,-0.00000021,0.00000035,-0.00000061,-0.00000057,
 0.00000020,-0.00000042,0.00000017,0.00000043,-0.00000057,0.00000023,0.
 00000033,-0.00000023,0.00000039,-0.00000029,0.00000049,0.00000006,-0.0
 0000052,0.00000063,0.00000058,-0.00000026,0.00000078,-0.00000026,0.000
 00017,-0.00000035,-0.00000011,0.00000007,-0.00000008,0.00000021,0.0000
 0037,-0.00000029\\\@


 IT WAS A GAME, A VERY INTERESTING GAME ONE COULD
 PLAY.  WHENEVER ONE SOLVED ONE OF THE LITTLE PROBLEMS,
 ONE COULD WRITE A PAPER ABOUT IT.  IT WAS VERY EASY IN
 THOSE DAYS FOR ANY SECOND-RATE PHYSICIST TO DO
 FIRST-RATE WORK.  THERE HAS NOT BEEN SUCH A GLORIOUS
 TIME SINCE.  IT IS VERY DIFFICULT NOW FOR A FIRST-RATE
 PHYSICIST TO DO SECOND-RATE WORK.
     P.A.M. DIRAC, ON THE EARLY DAYS OF QUANTUM MECHANICS
                   DIRECTIONS IN PHYSICS, 1978, P. 7
 Job cpu time:       0 days  5 hours 49 minutes 18.4 seconds.
 Elapsed time:       0 days  2 hours 54 minutes 41.4 seconds.
 File lengths (MBytes):  RWF=   1488 Int=      0 D2E=      0 Chk=     32 Scr=     32
 Normal termination of Gaussian 16 at Sun Sep 29 19:16:00 2019.
