 Entering Gaussian System, Link 0=g16
 Input=tight/species/CCCCCCC/conformers/CCCCCCC_996.com
 Output=tight/species/CCCCCCC/conformers/CCCCCCC_996.log
 Initial command:
 /shared/centos7/gaussian/g16/l1.exe "/scratch/harms.n/gauss_scrdir/Gau-17903.inp" -scrdir="/scratch/harms.n/gauss_scrdir/"
 Entering Link 1 = /shared/centos7/gaussian/g16/l1.exe PID=     17904.
  
 Copyright (c) 1988,1990,1992,1993,1995,1998,2003,2009,2016,
            Gaussian, Inc.  All Rights Reserved.
  
 This is part of the Gaussian(R) 16 program.  It is based on
 the Gaussian(R) 09 system (copyright 2009, Gaussian, Inc.),
 the Gaussian(R) 03 system (copyright 2003, Gaussian, Inc.),
 the Gaussian(R) 98 system (copyright 1998, Gaussian, Inc.),
 the Gaussian(R) 94 system (copyright 1995, Gaussian, Inc.),
 the Gaussian 92(TM) system (copyright 1992, Gaussian, Inc.),
 the Gaussian 90(TM) system (copyright 1990, Gaussian, Inc.),
 the Gaussian 88(TM) system (copyright 1988, Gaussian, Inc.),
 the Gaussian 86(TM) system (copyright 1986, Carnegie Mellon
 University), and the Gaussian 82(TM) system (copyright 1983,
 Carnegie Mellon University). Gaussian is a federally registered
 trademark of Gaussian, Inc.
  
 This software contains proprietary and confidential information,
 including trade secrets, belonging to Gaussian, Inc.
  
 This software is provided under written license and may be
 used, copied, transmitted, or stored only in accord with that
 written license.
  
 The following legend is applicable only to US Government
 contracts under FAR:
  
                    RESTRICTED RIGHTS LEGEND
  
 Use, reproduction and disclosure by the US Government is
 subject to restrictions as set forth in subparagraphs (a)
 and (c) of the Commercial Computer Software - Restricted
 Rights clause in FAR 52.227-19.
  
 Gaussian, Inc.
 340 Quinnipiac St., Bldg. 40, Wallingford CT 06492
  
  
 ---------------------------------------------------------------
 Warning -- This program may not be used in any manner that
 competes with the business of Gaussian, Inc. or will provide
 assistance to any competitor of Gaussian, Inc.  The licensee
 of this program is prohibited from giving any competitor of
 Gaussian, Inc. access to this program.  By using this program,
 the user acknowledges that Gaussian, Inc. is engaged in the
 business of creating and licensing software in the field of
 computational chemistry and represents and warrants to the
 licensee that it is not a competitor of Gaussian, Inc. and that
 it will not use this program in any manner prohibited above.
 ---------------------------------------------------------------
  

 Cite this work as:
 Gaussian 16, Revision A.03,
 M. J. Frisch, G. W. Trucks, H. B. Schlegel, G. E. Scuseria, 
 M. A. Robb, J. R. Cheeseman, G. Scalmani, V. Barone, 
 G. A. Petersson, H. Nakatsuji, X. Li, M. Caricato, A. V. Marenich, 
 J. Bloino, B. G. Janesko, R. Gomperts, B. Mennucci, H. P. Hratchian, 
 J. V. Ortiz, A. F. Izmaylov, J. L. Sonnenberg, D. Williams-Young, 
 F. Ding, F. Lipparini, F. Egidi, J. Goings, B. Peng, A. Petrone, 
 T. Henderson, D. Ranasinghe, V. G. Zakrzewski, J. Gao, N. Rega, 
 G. Zheng, W. Liang, M. Hada, M. Ehara, K. Toyota, R. Fukuda, 
 J. Hasegawa, M. Ishida, T. Nakajima, Y. Honda, O. Kitao, H. Nakai, 
 T. Vreven, K. Throssell, J. A. Montgomery, Jr., J. E. Peralta, 
 F. Ogliaro, M. J. Bearpark, J. J. Heyd, E. N. Brothers, K. N. Kudin, 
 V. N. Staroverov, T. A. Keith, R. Kobayashi, J. Normand, 
 K. Raghavachari, A. P. Rendell, J. C. Burant, S. S. Iyengar, 
 J. Tomasi, M. Cossi, J. M. Millam, M. Klene, C. Adamo, R. Cammi, 
 J. W. Ochterski, R. L. Martin, K. Morokuma, O. Farkas, 
 J. B. Foresman, and D. J. Fox, Gaussian, Inc., Wallingford CT, 2016.
 
 ******************************************
 Gaussian 16:  EM64L-G16RevA.03 25-Dec-2016
                28-Sep-2019 
 ******************************************
 %nprocshared=20
 Will use up to   20 processors via shared memory.
 %mem=5GB
 ----------------------------------------------------------------------
 #p m062x/cc-pVTZ opt=(calcfc,maxcycles=900,Tight) freq IOP(7/33=1,2/16
 =3) scf=(maxcycle=900)
 ----------------------------------------------------------------------
 1/6=900,7=10,10=4,18=20,19=15,26=3,38=1/1,3;
 2/9=110,12=2,16=3,17=6,18=5,40=1/2;
 3/5=16,6=1,11=2,25=1,30=1,71=2,74=-55,140=1/1,2,3;
 4//1;
 5/5=2,7=900,38=5/2;
 8/6=4,10=90,11=11/1;
 11/6=1,8=1,9=11,15=111,16=1/1,2,10;
 10/6=1,13=1/2;
 6/7=2,8=2,9=2,10=2,28=1/1;
 7/10=1,18=20,25=1,33=1/1,2,3,16;
 1/6=900,7=10,10=4,18=20,19=15,26=3/3(2);
 2/9=110,16=3/2;
 99//99;
 2/9=110,16=3/2;
 3/5=16,6=1,11=2,25=1,30=1,71=1,74=-55/1,2,3;
 4/5=5,16=3,69=1/1;
 5/5=2,7=900,38=5/2;
 7/33=1/1,2,3,16;
 1/6=900,7=10,18=20,19=15,26=3/3(-5);
 2/9=110,16=3/2;
 6/7=2,8=2,9=2,10=2,19=2,28=1/1;
 99/9=1/99;
 Leave Link    1 at Sat Sep 28 19:18:15 2019, MaxMem=   671088640 cpu:               5.1 elap:               2.5
 (Enter /shared/centos7/gaussian/g16/l101.exe)
 ------------------------------
 Gaussian input prepared by ASE
 ------------------------------
 Symbolic Z-matrix:
 Charge =  0 Multiplicity = 1
 C                     1.38558  -1.12938   0.51444 
 C                     0.1116   -0.46587   0.91281 
 C                     0.07308  -0.0059    2.34875 
 C                     2.13875  -0.45887  -0.58473 
 C                     0.06864   1.4953    2.51628 
 C                     3.34921  -1.19673  -0.98467 
 C                     1.22435   2.01174   3.33332 
 H                     2.41537   0.58338  -0.25864 
 H                     1.46936  -0.32069  -1.4671 
 H                     1.18066  -2.17667   0.20663 
 H                     2.05475  -1.21222   1.39534 
 H                    -0.72554  -1.16048   0.74134 
 H                    -0.09125   0.3974    0.24434 
 H                     0.93453  -0.4336    2.88921 
 H                    -0.8283   -0.42396   2.8426 
 H                     0.08936   1.98485   1.5076 
 H                    -0.87515   1.81838   2.9876 
 H                     3.53184  -2.0719   -0.33306 
 H                     3.26995  -1.59023  -2.04127 
 H                     4.25564  -0.55678  -0.9364 
 H                     2.17457   1.65745   2.9319 
 H                     1.14309   1.66834   4.40165 
 H                     1.24731   3.13928   3.337 
 
 ITRead=  0  0  0  0  0  0  0  0  0  0  0  0  0  0  0  0  0  0  0  0
 ITRead=  0  0  0
 MicOpt= -1 -1 -1 -1 -1 -1 -1 -1 -1 -1 -1 -1 -1 -1 -1 -1 -1 -1 -1 -1
 MicOpt= -1 -1 -1
 NAtoms=     23 NQM=       23 NQMF=       0 NMMI=      0 NMMIF=      0
                NMic=       0 NMicF=      0.
                    Isotopes and Nuclear Properties:
 (Nuclear quadrupole moments (NQMom) in fm**2, nuclear magnetic moments (NMagM)
  in nuclear magnetons)

  Atom         1           2           3           4           5           6           7           8           9          10
 IAtWgt=          12          12          12          12          12          12          12           1           1           1
 AtmWgt=  12.0000000  12.0000000  12.0000000  12.0000000  12.0000000  12.0000000  12.0000000   1.0078250   1.0078250   1.0078250
 NucSpn=           0           0           0           0           0           0           0           1           1           1
 AtZEff=  -0.0000000  -0.0000000  -0.0000000  -0.0000000  -0.0000000  -0.0000000  -0.0000000  -0.0000000  -0.0000000  -0.0000000
 NQMom=    0.0000000   0.0000000   0.0000000   0.0000000   0.0000000   0.0000000   0.0000000   0.0000000   0.0000000   0.0000000
 NMagM=    0.0000000   0.0000000   0.0000000   0.0000000   0.0000000   0.0000000   0.0000000   2.7928460   2.7928460   2.7928460
 AtZNuc=   6.0000000   6.0000000   6.0000000   6.0000000   6.0000000   6.0000000   6.0000000   1.0000000   1.0000000   1.0000000

  Atom        11          12          13          14          15          16          17          18          19          20
 IAtWgt=           1           1           1           1           1           1           1           1           1           1
 AtmWgt=   1.0078250   1.0078250   1.0078250   1.0078250   1.0078250   1.0078250   1.0078250   1.0078250   1.0078250   1.0078250
 NucSpn=           1           1           1           1           1           1           1           1           1           1
 AtZEff=  -0.0000000  -0.0000000  -0.0000000  -0.0000000  -0.0000000  -0.0000000  -0.0000000  -0.0000000  -0.0000000  -0.0000000
 NQMom=    0.0000000   0.0000000   0.0000000   0.0000000   0.0000000   0.0000000   0.0000000   0.0000000   0.0000000   0.0000000
 NMagM=    2.7928460   2.7928460   2.7928460   2.7928460   2.7928460   2.7928460   2.7928460   2.7928460   2.7928460   2.7928460
 AtZNuc=   1.0000000   1.0000000   1.0000000   1.0000000   1.0000000   1.0000000   1.0000000   1.0000000   1.0000000   1.0000000

  Atom        21          22          23
 IAtWgt=           1           1           1
 AtmWgt=   1.0078250   1.0078250   1.0078250
 NucSpn=           1           1           1
 AtZEff=  -0.0000000  -0.0000000  -0.0000000
 NQMom=    0.0000000   0.0000000   0.0000000
 NMagM=    2.7928460   2.7928460   2.7928460
 AtZNuc=   1.0000000   1.0000000   1.0000000
 Leave Link  101 at Sat Sep 28 19:18:16 2019, MaxMem=   671088640 cpu:               2.3 elap:               1.2
 (Enter /shared/centos7/gaussian/g16/l103.exe)

 GradGradGradGradGradGradGradGradGradGradGradGradGradGradGradGradGradGrad
 Berny optimization.
 Initialization pass.
                           ----------------------------
                           !    Initial Parameters    !
                           ! (Angstroms and Degrees)  !
 --------------------------                            --------------------------
 ! Name  Definition              Value          Derivative Info.                !
 --------------------------------------------------------------------------------
 ! R1    R(1,2)                  1.4906         calculate D2E/DX2 analytically  !
 ! R2    R(1,4)                  1.4917         calculate D2E/DX2 analytically  !
 ! R3    R(1,10)                 1.1107         calculate D2E/DX2 analytically  !
 ! R4    R(1,11)                 1.1093         calculate D2E/DX2 analytically  !
 ! R5    R(2,3)                  1.5083         calculate D2E/DX2 analytically  !
 ! R6    R(2,12)                 1.1012         calculate D2E/DX2 analytically  !
 ! R7    R(2,13)                 1.1105         calculate D2E/DX2 analytically  !
 ! R8    R(3,5)                  1.5105         calculate D2E/DX2 analytically  !
 ! R9    R(3,14)                 1.1032         calculate D2E/DX2 analytically  !
 ! R10   R(3,15)                 1.1096         calculate D2E/DX2 analytically  !
 ! R11   R(4,6)                  1.473          calculate D2E/DX2 analytically  !
 ! R12   R(4,8)                  1.1266         calculate D2E/DX2 analytically  !
 ! R13   R(4,9)                  1.1161         calculate D2E/DX2 analytically  !
 ! R14   R(5,7)                  1.5066         calculate D2E/DX2 analytically  !
 ! R15   R(5,16)                 1.1214         calculate D2E/DX2 analytically  !
 ! R16   R(5,17)                 1.1033         calculate D2E/DX2 analytically  !
 ! R17   R(6,18)                 1.1063         calculate D2E/DX2 analytically  !
 ! R18   R(6,19)                 1.1303         calculate D2E/DX2 analytically  !
 ! R19   R(6,20)                 1.1106         calculate D2E/DX2 analytically  !
 ! R20   R(7,21)                 1.0907         calculate D2E/DX2 analytically  !
 ! R21   R(7,22)                 1.1251         calculate D2E/DX2 analytically  !
 ! R22   R(7,23)                 1.1278         calculate D2E/DX2 analytically  !
 ! A1    A(2,1,4)              115.3655         calculate D2E/DX2 analytically  !
 ! A2    A(2,1,10)             109.6395         calculate D2E/DX2 analytically  !
 ! A3    A(2,1,11)             109.6681         calculate D2E/DX2 analytically  !
 ! A4    A(4,1,10)             108.2278         calculate D2E/DX2 analytically  !
 ! A5    A(4,1,11)             108.3085         calculate D2E/DX2 analytically  !
 ! A6    A(10,1,11)            105.1261         calculate D2E/DX2 analytically  !
 ! A7    A(1,2,3)              114.3305         calculate D2E/DX2 analytically  !
 ! A8    A(1,2,12)             109.1071         calculate D2E/DX2 analytically  !
 ! A9    A(1,2,13)             109.9534         calculate D2E/DX2 analytically  !
 ! A10   A(3,2,12)             108.7345         calculate D2E/DX2 analytically  !
 ! A11   A(3,2,13)             109.3502         calculate D2E/DX2 analytically  !
 ! A12   A(12,2,13)            104.9361         calculate D2E/DX2 analytically  !
 ! A13   A(2,3,5)              114.1253         calculate D2E/DX2 analytically  !
 ! A14   A(2,3,14)             109.16           calculate D2E/DX2 analytically  !
 ! A15   A(2,3,15)             109.2428         calculate D2E/DX2 analytically  !
 ! A16   A(5,3,14)             109.4663         calculate D2E/DX2 analytically  !
 ! A17   A(5,3,15)             108.8264         calculate D2E/DX2 analytically  !
 ! A18   A(14,3,15)            105.6782         calculate D2E/DX2 analytically  !
 ! A19   A(1,4,6)              112.945          calculate D2E/DX2 analytically  !
 ! A20   A(1,4,8)              109.0593         calculate D2E/DX2 analytically  !
 ! A21   A(1,4,9)              109.5958         calculate D2E/DX2 analytically  !
 ! A22   A(6,4,8)              109.8924         calculate D2E/DX2 analytically  !
 ! A23   A(6,4,9)              109.8907         calculate D2E/DX2 analytically  !
 ! A24   A(8,4,9)              105.1622         calculate D2E/DX2 analytically  !
 ! A25   A(3,5,7)              113.4875         calculate D2E/DX2 analytically  !
 ! A26   A(3,5,16)             109.5146         calculate D2E/DX2 analytically  !
 ! A27   A(3,5,17)             109.9326         calculate D2E/DX2 analytically  !
 ! A28   A(7,5,16)             108.9037         calculate D2E/DX2 analytically  !
 ! A29   A(7,5,17)             108.9132         calculate D2E/DX2 analytically  !
 ! A30   A(16,5,17)            105.7971         calculate D2E/DX2 analytically  !
 ! A31   A(4,6,18)             111.8408         calculate D2E/DX2 analytically  !
 ! A32   A(4,6,19)             111.7523         calculate D2E/DX2 analytically  !
 ! A33   A(4,6,20)             111.7316         calculate D2E/DX2 analytically  !
 ! A34   A(18,6,19)            106.6647         calculate D2E/DX2 analytically  !
 ! A35   A(18,6,20)            107.1872         calculate D2E/DX2 analytically  !
 ! A36   A(19,6,20)            107.365          calculate D2E/DX2 analytically  !
 ! A37   A(5,7,21)             110.9381         calculate D2E/DX2 analytically  !
 ! A38   A(5,7,22)             110.7883         calculate D2E/DX2 analytically  !
 ! A39   A(5,7,23)             111.1058         calculate D2E/DX2 analytically  !
 ! A40   A(21,7,22)            108.2556         calculate D2E/DX2 analytically  !
 ! A41   A(21,7,23)            107.9521         calculate D2E/DX2 analytically  !
 ! A42   A(22,7,23)            107.6694         calculate D2E/DX2 analytically  !
 ! D1    D(4,1,2,3)           -119.1342         calculate D2E/DX2 analytically  !
 ! D2    D(4,1,2,12)           118.8821         calculate D2E/DX2 analytically  !
 ! D3    D(4,1,2,13)             4.3025         calculate D2E/DX2 analytically  !
 ! D4    D(10,1,2,3)           118.404          calculate D2E/DX2 analytically  !
 ! D5    D(10,1,2,12)           -3.5797         calculate D2E/DX2 analytically  !
 ! D6    D(10,1,2,13)         -118.1592         calculate D2E/DX2 analytically  !
 ! D7    D(11,1,2,3)             3.457          calculate D2E/DX2 analytically  !
 ! D8    D(11,1,2,12)         -118.5267         calculate D2E/DX2 analytically  !
 ! D9    D(11,1,2,13)          126.8937         calculate D2E/DX2 analytically  !
 ! D10   D(2,1,4,6)           -176.9033         calculate D2E/DX2 analytically  !
 ! D11   D(2,1,4,8)             60.6051         calculate D2E/DX2 analytically  !
 ! D12   D(2,1,4,9)            -54.0231         calculate D2E/DX2 analytically  !
 ! D13   D(10,1,4,6)           -53.691          calculate D2E/DX2 analytically  !
 ! D14   D(10,1,4,8)          -176.1827         calculate D2E/DX2 analytically  !
 ! D15   D(10,1,4,9)            69.1891         calculate D2E/DX2 analytically  !
 ! D16   D(11,1,4,6)            59.7838         calculate D2E/DX2 analytically  !
 ! D17   D(11,1,4,8)           -62.7079         calculate D2E/DX2 analytically  !
 ! D18   D(11,1,4,9)          -177.3361         calculate D2E/DX2 analytically  !
 ! D19   D(1,2,3,5)            111.5993         calculate D2E/DX2 analytically  !
 ! D20   D(1,2,3,14)           -11.232          calculate D2E/DX2 analytically  !
 ! D21   D(1,2,3,15)          -126.3382         calculate D2E/DX2 analytically  !
 ! D22   D(12,2,3,5)          -126.2133         calculate D2E/DX2 analytically  !
 ! D23   D(12,2,3,14)          110.9553         calculate D2E/DX2 analytically  !
 ! D24   D(12,2,3,15)           -4.1509         calculate D2E/DX2 analytically  !
 ! D25   D(13,2,3,5)           -12.1617         calculate D2E/DX2 analytically  !
 ! D26   D(13,2,3,14)         -134.993          calculate D2E/DX2 analytically  !
 ! D27   D(13,2,3,15)          109.9008         calculate D2E/DX2 analytically  !
 ! D28   D(2,3,5,7)           -121.5782         calculate D2E/DX2 analytically  !
 ! D29   D(2,3,5,16)             0.345          calculate D2E/DX2 analytically  !
 ! D30   D(2,3,5,17)           116.178          calculate D2E/DX2 analytically  !
 ! D31   D(14,3,5,7)             1.0863         calculate D2E/DX2 analytically  !
 ! D32   D(14,3,5,16)          123.0095         calculate D2E/DX2 analytically  !
 ! D33   D(14,3,5,17)         -121.1576         calculate D2E/DX2 analytically  !
 ! D34   D(15,3,5,7)           116.131          calculate D2E/DX2 analytically  !
 ! D35   D(15,3,5,16)         -121.9458         calculate D2E/DX2 analytically  !
 ! D36   D(15,3,5,17)           -6.1128         calculate D2E/DX2 analytically  !
 ! D37   D(1,4,6,18)            -5.1713         calculate D2E/DX2 analytically  !
 ! D38   D(1,4,6,19)           114.3372         calculate D2E/DX2 analytically  !
 ! D39   D(1,4,6,20)          -125.3339         calculate D2E/DX2 analytically  !
 ! D40   D(8,4,6,18)           116.8536         calculate D2E/DX2 analytically  !
 ! D41   D(8,4,6,19)          -123.6379         calculate D2E/DX2 analytically  !
 ! D42   D(8,4,6,20)            -3.309          calculate D2E/DX2 analytically  !
 ! D43   D(9,4,6,18)          -127.8872         calculate D2E/DX2 analytically  !
 ! D44   D(9,4,6,19)            -8.3787         calculate D2E/DX2 analytically  !
 ! D45   D(9,4,6,20)           111.9502         calculate D2E/DX2 analytically  !
 ! D46   D(3,5,7,21)            53.5738         calculate D2E/DX2 analytically  !
 ! D47   D(3,5,7,22)           -66.6924         calculate D2E/DX2 analytically  !
 ! D48   D(3,5,7,23)           173.6685         calculate D2E/DX2 analytically  !
 ! D49   D(16,5,7,21)          -68.6888         calculate D2E/DX2 analytically  !
 ! D50   D(16,5,7,22)          171.0451         calculate D2E/DX2 analytically  !
 ! D51   D(16,5,7,23)           51.4059         calculate D2E/DX2 analytically  !
 ! D52   D(17,5,7,21)          176.3813         calculate D2E/DX2 analytically  !
 ! D53   D(17,5,7,22)           56.1152         calculate D2E/DX2 analytically  !
 ! D54   D(17,5,7,23)          -63.524          calculate D2E/DX2 analytically  !
 --------------------------------------------------------------------------------
 Trust Radius=3.00D-01 FncErr=1.00D-07 GrdErr=1.00D-06 EigMax=2.50D+02 EigMin=1.00D-04
 Number of steps in this run=    138 maximum allowed number of steps=    138.
 GradGradGradGradGradGradGradGradGradGradGradGradGradGradGradGradGradGrad

 Leave Link  103 at Sat Sep 28 19:18:17 2019, MaxMem=   671088640 cpu:               1.4 elap:               0.7
 (Enter /shared/centos7/gaussian/g16/l202.exe)
                          Input orientation:                          
 ---------------------------------------------------------------------
 Center     Atomic      Atomic             Coordinates (Angstroms)
 Number     Number       Type             X           Y           Z
 ---------------------------------------------------------------------
      1          6           0        1.385579   -1.129376    0.514443
      2          6           0        0.111598   -0.465873    0.912815
      3          6           0        0.073077   -0.005901    2.348755
      4          6           0        2.138749   -0.458873   -0.584733
      5          6           0        0.068638    1.495305    2.516277
      6          6           0        3.349207   -1.196729   -0.984668
      7          6           0        1.224345    2.011740    3.333322
      8          1           0        2.415368    0.583375   -0.258641
      9          1           0        1.469361   -0.320685   -1.467104
     10          1           0        1.180659   -2.176675    0.206630
     11          1           0        2.054753   -1.212224    1.395344
     12          1           0       -0.725544   -1.160478    0.741342
     13          1           0       -0.091247    0.397404    0.244337
     14          1           0        0.934534   -0.433602    2.889206
     15          1           0       -0.828304   -0.423960    2.842601
     16          1           0        0.089361    1.984850    1.507596
     17          1           0       -0.875148    1.818384    2.987602
     18          1           0        3.531845   -2.071903   -0.333060
     19          1           0        3.269951   -1.590231   -2.041271
     20          1           0        4.255643   -0.556778   -0.936401
     21          1           0        2.174565    1.657453    2.931899
     22          1           0        1.143086    1.668343    4.401655
     23          1           0        1.247310    3.139279    3.336998
 ---------------------------------------------------------------------
                    Distance matrix (angstroms):
                    1          2          3          4          5
     1  C    0.000000
     2  C    1.490625   0.000000
     3  C    2.519832   1.508304   0.000000
     4  C    1.491652   2.520325   3.616287   0.000000
     5  C    3.553958   2.533605   1.510531   4.209564   0.000000
     6  C    2.471377   3.823179   4.823153   1.472952   5.501435
     7  C    4.223586   3.638080   2.523027   4.721357   1.506627
     8  H    2.142812   2.789371   3.554165   1.126559   3.746856
     9  H    2.141852   2.743832   4.075473   1.116134   4.596430
    10  H    1.110665   2.137389   3.244641   2.120149   4.478224
    11  H    1.109344   2.136756   2.508236   2.120211   3.540037
    12  H    2.123509   1.101220   2.134156   3.233403   3.291550
    13  H    2.141268   1.110520   2.149007   2.528527   2.528371
    14  H    2.515361   2.141118   1.103233   3.676822   2.146982
    15  H    3.289256   2.146916   1.109570   4.533347   2.143495
    16  H    3.516381   2.521964   2.161227   3.814396   1.121392
    17  H    4.462812   3.239790   2.152968   5.199139   1.103295
    18  H    2.492604   3.978646   4.839790   2.146141   5.730400
    19  H    3.208570   4.468333   5.657069   2.163583   6.367117
    20  H    3.266509   4.538829   5.346921   2.148138   5.801985
    21  H    3.772666   3.583441   2.742819   4.104487   2.152664
    22  H    4.795461   4.217920   2.856993   5.511846   2.176931
    23  H    5.119311   4.490393   3.499658   5.396418   2.183003
                    6          7          8          9         10
     6  C    0.000000
     7  C    5.783973   0.000000
     8  H    2.137274   4.044868   0.000000
     9  H    2.129323   5.342689   1.781190   0.000000
    10  H    2.661219   5.226943   3.059226   2.515836   0.000000
    11  H    2.709299   3.852179   2.467770   3.054690   1.762738
    12  H    4.425383   4.536892   3.729118   3.224917   2.225350
    13  H    3.986030   3.725411   2.563336   2.424908   2.871419
    14  H    4.628164   2.502185   3.624370   4.390470   3.208597
    15  H    5.718107   3.222857   4.599330   4.885027   3.749171
    16  H    5.192342   2.149927   3.239450   4.008583   4.494634
    17  H    6.535672   2.136534   4.784437   5.469621   5.283999
    18  H    1.106291   5.953406   2.881416   2.933711   2.414605
    19  H    1.130281   6.785643   2.938136   2.276739   3.124439
    20  H    1.110627   5.832374   2.268462   2.846182   3.658703
    21  H    4.986545   1.090678   3.375082   4.874584   4.807856
    22  H    6.487532   1.125104   4.951183   6.205241   5.690677
    23  H    6.472691   1.127778   4.563510   5.924530   6.169522
                   11         12         13         14         15
    11  H    0.000000
    12  H    2.856650   0.000000
    13  H    2.919081   1.753950   0.000000
    14  H    2.023059   2.810254   2.956033   0.000000
    15  H    3.320833   2.228970   2.822918   1.763480   0.000000
    16  H    3.754551   3.338308   2.036769   2.910683   2.902880
    17  H    4.506018   3.733857   3.187348   2.890687   2.247516
    18  H    2.430684   4.484461   4.422404   4.451185   5.640162
    19  H    3.664685   4.887904   4.524638   5.576878   6.481365
    20  H    3.272699   5.290699   4.604352   5.067564   6.336009
    21  H    3.257362   4.598903   3.734249   2.431463   3.654788
    22  H    4.262243   4.989178   4.519088   2.597916   3.270284
    23  H    4.832967   5.396062   4.344441   3.614391   4.153224
                   16         17         18         19         20
    16  H    0.000000
    17  H    1.774375   0.000000
    18  H    5.629916   6.751497   0.000000
    19  H    5.957501   7.354595   1.794041   0.000000
    20  H    5.458104   6.882166   1.784239   1.805644   0.000000
    21  H    2.546351   3.054464   5.139091   6.039846   4.919090
    22  H    3.096141   2.468871   6.489462   7.526828   6.567649
    23  H    2.453622   2.524216   6.770881   7.442118   6.401003
                   21         22         23
    21  H    0.000000
    22  H    1.795620   0.000000
    23  H    1.794356   1.818793   0.000000
 Stoichiometry    C7H16
 Framework group  C1[X(C7H16)]
 Deg. of freedom    63
 Full point group                 C1      NOp   1
 Largest Abelian subgroup         C1      NOp   1
 Largest concise Abelian subgroup C1      NOp   1
                         Standard orientation:                         
 ---------------------------------------------------------------------
 Center     Atomic      Atomic             Coordinates (Angstroms)
 Number     Number       Type             X           Y           Z
 ---------------------------------------------------------------------
      1          6           0       -1.136717   -0.609509   -0.391618
      2          6           0        0.062905   -1.229336    0.239797
      3          6           0        1.371271   -0.852889   -0.409393
      4          6           0       -1.942254    0.275398    0.498930
      5          6           0        2.259051    0.016507    0.449503
      6          6           0       -3.152405    0.800884   -0.156040
      7          6           0        2.606668    1.335957   -0.189354
      8          1           0       -1.296367    1.128277    0.851867
      9          1           0       -2.222822   -0.280938    1.424958
     10          1           0       -1.803744   -1.404965   -0.786460
     11          1           0       -0.829032   -0.021940   -1.280851
     12          1           0       -0.042090   -2.325246    0.214460
     13          1           0        0.099652   -0.970193    1.319033
     14          1           0        1.167163   -0.339726   -1.364446
     15          1           0        1.925427   -1.776029   -0.677475
     16          1           0        1.755540    0.210304    1.432580
     17          1           0        3.191970   -0.520867    0.690649
     18          1           0       -3.198589    0.516774   -1.224229
     19          1           0       -4.095011    0.404781    0.325760
     20          1           0       -3.196869    1.909628   -0.109123
     21          1           0        1.706507    1.867866   -0.499773
     22          1           0        3.255387    1.182195   -1.095655
     23          1           0        3.171759    1.998006    0.527756
 ---------------------------------------------------------------------
 Rotational constants (GHZ):           4.4513273           1.0948269           0.9652613
 Leave Link  202 at Sat Sep 28 19:18:18 2019, MaxMem=   671088640 cpu:               3.5 elap:               1.7
 (Enter /shared/centos7/gaussian/g16/l301.exe)
 Standard basis: CC-pVTZ (5D, 7F)
 Ernie: Thresh=  0.10000D-02 Tol=  0.10000D-05 Strict=F.
 Ernie:  21 primitive shells out of 310 were deleted.
 There are   485 symmetry adapted cartesian basis functions of A   symmetry.
 There are   434 symmetry adapted basis functions of A   symmetry.
   434 basis functions,   636 primitive gaussians,   485 cartesian basis functions
    29 alpha electrons       29 beta electrons
       nuclear repulsion energy       319.4515703585 Hartrees.
 IExCor= 4336 DFT=T Ex+Corr=M062X ExCW=0 ScaHFX=  0.540000
 ScaDFX=  1.000000  1.000000  1.000000  1.000000 ScalE2=  1.000000  1.000000
 IRadAn=      5 IRanWt=     -1 IRanGd=            0 ICorTp=0 IEmpDi=  4
 NAtoms=   23 NActive=   23 NUniq=   23 SFac= 1.00D+00 NAtFMM=   60 NAOKFM=F Big=F
 Integral buffers will be    131072 words long.
 Raffenetti 2 integral format.
 Two-electron integral symmetry is turned on.
 Leave Link  301 at Sat Sep 28 19:18:19 2019, MaxMem=   671088640 cpu:               1.8 elap:               0.9
 (Enter /shared/centos7/gaussian/g16/l302.exe)
 NPDir=0 NMtPBC=     1 NCelOv=     1 NCel=       1 NClECP=     1 NCelD=      1
         NCelK=      1 NCelE2=     1 NClLst=     1 CellRange=     0.0.
 One-electron integrals computed using PRISM.
 One-electron integral symmetry used in STVInt
 NBasis=   434 RedAO= T EigKep=  3.12D-04  NBF=   434
 NBsUse=   434 1.00D-06 EigRej= -1.00D+00 NBFU=   434
 Precomputing XC quadrature grid using
 IXCGrd= 4 IRadAn=           5 IRanWt=          -1 IRanGd=           0 AccXCQ= 0.00D+00.
 Generated NRdTot=       0 NPtTot=           0 NUsed=           0 NTot=          32
 NSgBfM=   485   485   485   485   485 MxSgAt=    23 MxSgA2=    23.
 Leave Link  302 at Sat Sep 28 19:19:24 2019, MaxMem=   671088640 cpu:             130.1 elap:              65.1
 (Enter /shared/centos7/gaussian/g16/l303.exe)
 DipDrv:  MaxL=1.
 Leave Link  303 at Sat Sep 28 19:19:29 2019, MaxMem=   671088640 cpu:               8.2 elap:               4.1
 (Enter /shared/centos7/gaussian/g16/l401.exe)
 ExpMin= 1.03D-01 ExpMax= 8.24D+03 ExpMxC= 2.81D+02 IAcc=3 IRadAn=         5 AccDes= 0.00D+00
 Harris functional with IExCor= 1009 and IRadAn=       5 diagonalized for initial guess.
 HarFok:  IExCor= 1009 AccDes= 0.00D+00 IRadAn=         5 IDoV= 1 UseB2=F ITyADJ=14
 ICtDFT=  3500011 ScaDFX=  1.000000  1.000000  1.000000  1.000000
 FoFCou: FMM=F IPFlag=           0 FMFlag=      100000 FMFlg1=           0
         NFxFlg=           0 DoJE=T BraDBF=F KetDBF=T FulRan=T
         wScrn=  0.000000 ICntrl=       500 IOpCl=  0 I1Cent=   200000004 NGrid=           0
         NMat0=    1 NMatS0=      1 NMatT0=    0 NMatD0=    1 NMtDS0=    0 NMtDT0=    0
 Petite list used in FoFCou.
 Harris En= -276.320712525708    
 JPrj=0 DoOrth=F DoCkMO=F.
 Leave Link  401 at Sat Sep 28 19:20:13 2019, MaxMem=   671088640 cpu:              89.4 elap:              44.7
 (Enter /shared/centos7/gaussian/g16/l502.exe)
 Integral symmetry usage will be decided dynamically.
 Closed shell SCF:
 Using DIIS extrapolation, IDIIS=  1040.
 NGot=   671088640 LenX=   670604095 LenY=   670368385
 Requested convergence on RMS density matrix=1.00D-08 within 900 cycles.
 Requested convergence on MAX density matrix=1.00D-06.
 Requested convergence on             energy=1.00D-06.
 No special actions if energy rises.
 Fock matrices will be formed incrementally for  20 cycles.
 Integral accuracy reduced to 1.0D-05 until final iterations.

 Cycle   1  Pass 0  IDiag  1:
 FoFJK:  IHMeth= 1 ICntrl=       0 DoSepK=F KAlg= 0 I1Cent=           0 FoldK=F
 IRaf= 920000000 NMat=       1 IRICut=       1 DoRegI=T DoRafI=F ISym2E= 0 IDoP0=0 IntGTp=1.
 FoFCou: FMM=F IPFlag=           0 FMFlag=      100000 FMFlg1=           0
         NFxFlg=           0 DoJE=F BraDBF=F KetDBF=F FulRan=T
         wScrn=  0.000000 ICntrl=         0 IOpCl=  0 I1Cent=           0 NGrid=           0
         NMat0=    1 NMatS0=      1 NMatT0=    0 NMatD0=    1 NMtDS0=    0 NMtDT0=    0
 Symmetry not used in FoFCou.
 E= -275.944185990379    
 DIIS: error= 2.81D-02 at cycle   1 NSaved=   1.
 NSaved= 1 IEnMin= 1 EnMin= -275.944185990379     IErMin= 1 ErrMin= 2.81D-02
 ErrMax= 2.81D-02  0.00D+00 EMaxC= 1.00D-01 BMatC= 3.76D-01 BMatP= 3.76D-01
 IDIUse=3 WtCom= 7.19D-01 WtEn= 2.81D-01
 Coeff-Com:  0.100D+01
 Coeff-En:   0.100D+01
 Coeff:      0.100D+01
 Gap=     0.360 Goal=   None    Shift=    0.000
 GapD=    0.360 DampG=1.000 DampE=0.500 DampFc=0.5000 IDamp=-1.
 Damping current iteration by 5.00D-01
 RMSDP=1.93D-03 MaxDP=7.70D-02              OVMax= 1.73D-01

 Cycle   2  Pass 0  IDiag  1:
 RMSU=  9.64D-04    CP:  9.90D-01
 E= -276.125930158039     Delta-E=       -0.181744167660 Rises=F Damp=T
 DIIS: error= 4.26D-03 at cycle   2 NSaved=   2.
 NSaved= 2 IEnMin= 2 EnMin= -276.125930158039     IErMin= 2 ErrMin= 4.26D-03
 ErrMax= 4.26D-03  0.00D+00 EMaxC= 1.00D-01 BMatC= 1.79D-02 BMatP= 3.76D-01
 IDIUse=3 WtCom= 9.57D-01 WtEn= 4.26D-02
 Coeff-Com: -0.597D-01 0.106D+01
 Coeff-En:   0.000D+00 0.100D+01
 Coeff:     -0.572D-01 0.106D+01
 Gap=     0.442 Goal=   None    Shift=    0.000
 RMSDP=5.13D-04 MaxDP=1.54D-02 DE=-1.82D-01 OVMax= 9.00D-02

 Cycle   3  Pass 0  IDiag  1:
 RMSU=  5.03D-04    CP:  9.98D-01  9.15D-01
 E= -276.305298395359     Delta-E=       -0.179368237320 Rises=F Damp=F
 DIIS: error= 2.22D-03 at cycle   3 NSaved=   3.
 NSaved= 3 IEnMin= 3 EnMin= -276.305298395359     IErMin= 3 ErrMin= 2.22D-03
 ErrMax= 2.22D-03  0.00D+00 EMaxC= 1.00D-01 BMatC= 2.06D-03 BMatP= 1.79D-02
 IDIUse=3 WtCom= 9.78D-01 WtEn= 2.22D-02
 Coeff-Com: -0.480D-01 0.214D+00 0.834D+00
 Coeff-En:   0.000D+00 0.000D+00 0.100D+01
 Coeff:     -0.469D-01 0.209D+00 0.838D+00
 Gap=     0.410 Goal=   None    Shift=    0.000
 RMSDP=9.07D-05 MaxDP=2.39D-03 DE=-1.79D-01 OVMax= 1.00D-02

 Cycle   4  Pass 0  IDiag  1:
 RMSU=  7.55D-05    CP:  9.97D-01  9.56D-01  9.42D-01
 E= -276.307091937344     Delta-E=       -0.001793541986 Rises=F Damp=F
 DIIS: error= 6.76D-04 at cycle   4 NSaved=   4.
 NSaved= 4 IEnMin= 4 EnMin= -276.307091937344     IErMin= 4 ErrMin= 6.76D-04
 ErrMax= 6.76D-04  0.00D+00 EMaxC= 1.00D-01 BMatC= 2.46D-04 BMatP= 2.06D-03
 IDIUse=3 WtCom= 9.93D-01 WtEn= 6.76D-03
 Coeff-Com: -0.129D-01 0.348D-01 0.295D+00 0.683D+00
 Coeff-En:   0.000D+00 0.000D+00 0.000D+00 0.100D+01
 Coeff:     -0.128D-01 0.345D-01 0.293D+00 0.685D+00
 Gap=     0.410 Goal=   None    Shift=    0.000
 RMSDP=3.08D-05 MaxDP=1.15D-03 DE=-1.79D-03 OVMax= 2.90D-03

 Cycle   5  Pass 0  IDiag  1:
 RMSU=  1.64D-05    CP:  9.97D-01  9.51D-01  9.76D-01  7.55D-01
 E= -276.307321401674     Delta-E=       -0.000229464329 Rises=F Damp=F
 DIIS: error= 1.38D-04 at cycle   5 NSaved=   5.
 NSaved= 5 IEnMin= 5 EnMin= -276.307321401674     IErMin= 5 ErrMin= 1.38D-04
 ErrMax= 1.38D-04  0.00D+00 EMaxC= 1.00D-01 BMatC= 1.23D-05 BMatP= 2.46D-04
 IDIUse=3 WtCom= 9.99D-01 WtEn= 1.38D-03
 Coeff-Com: -0.756D-03-0.829D-03 0.434D-01 0.218D+00 0.740D+00
 Coeff-En:   0.000D+00 0.000D+00 0.000D+00 0.000D+00 0.100D+01
 Coeff:     -0.755D-03-0.828D-03 0.433D-01 0.217D+00 0.741D+00
 Gap=     0.409 Goal=   None    Shift=    0.000
 RMSDP=5.54D-06 MaxDP=3.14D-04 DE=-2.29D-04 OVMax= 6.54D-04

 Initial convergence to 1.0D-05 achieved.  Increase integral accuracy.
 Cycle   6  Pass 1  IDiag  1:
 E= -276.307272735790     Delta-E=        0.000048665884 Rises=F Damp=F
 DIIS: error= 3.84D-05 at cycle   1 NSaved=   1.
 NSaved= 1 IEnMin= 1 EnMin= -276.307272735790     IErMin= 1 ErrMin= 3.84D-05
 ErrMax= 3.84D-05  0.00D+00 EMaxC= 1.00D-01 BMatC= 1.58D-06 BMatP= 1.58D-06
 IDIUse=1 WtCom= 1.00D+00 WtEn= 0.00D+00
 Coeff-Com:  0.100D+01
 Coeff:      0.100D+01
 Gap=     0.409 Goal=   None    Shift=    0.000
 RMSDP=5.54D-06 MaxDP=3.14D-04 DE= 4.87D-05 OVMax= 2.39D-04

 Cycle   7  Pass 1  IDiag  1:
 RMSU=  1.04D-05    CP:  1.00D+00
 E= -276.307273409806     Delta-E=       -0.000000674017 Rises=F Damp=F
 DIIS: error= 2.27D-05 at cycle   2 NSaved=   2.
 NSaved= 2 IEnMin= 2 EnMin= -276.307273409806     IErMin= 2 ErrMin= 2.27D-05
 ErrMax= 2.27D-05  0.00D+00 EMaxC= 1.00D-01 BMatC= 3.84D-07 BMatP= 1.58D-06
 IDIUse=1 WtCom= 1.00D+00 WtEn= 0.00D+00
 Coeff-Com:  0.283D+00 0.717D+00
 Coeff:      0.283D+00 0.717D+00
 Gap=     0.409 Goal=   None    Shift=    0.000
 RMSDP=1.22D-06 MaxDP=5.97D-05 DE=-6.74D-07 OVMax= 1.26D-04

 Cycle   8  Pass 1  IDiag  1:
 RMSU=  1.22D-06    CP:  1.00D+00  1.00D+00
 E= -276.307273729081     Delta-E=       -0.000000319274 Rises=F Damp=F
 DIIS: error= 9.61D-06 at cycle   3 NSaved=   3.
 NSaved= 3 IEnMin= 3 EnMin= -276.307273729081     IErMin= 3 ErrMin= 9.61D-06
 ErrMax= 9.61D-06  0.00D+00 EMaxC= 1.00D-01 BMatC= 5.85D-08 BMatP= 3.84D-07
 IDIUse=1 WtCom= 1.00D+00 WtEn= 0.00D+00
 Coeff-Com: -0.220D-02 0.273D+00 0.730D+00
 Coeff:     -0.220D-02 0.273D+00 0.730D+00
 Gap=     0.409 Goal=   None    Shift=    0.000
 RMSDP=4.25D-07 MaxDP=1.87D-05 DE=-3.19D-07 OVMax= 3.84D-05

 Cycle   9  Pass 1  IDiag  1:
 RMSU=  3.05D-07    CP:  1.00D+00  1.02D+00  8.19D-01
 E= -276.307273784273     Delta-E=       -0.000000055192 Rises=F Damp=F
 DIIS: error= 1.97D-06 at cycle   4 NSaved=   4.
 NSaved= 4 IEnMin= 4 EnMin= -276.307273784273     IErMin= 4 ErrMin= 1.97D-06
 ErrMax= 1.97D-06  0.00D+00 EMaxC= 1.00D-01 BMatC= 1.92D-09 BMatP= 5.85D-08
 IDIUse=1 WtCom= 1.00D+00 WtEn= 0.00D+00
 Coeff-Com: -0.928D-02 0.826D-01 0.276D+00 0.651D+00
 Coeff:     -0.928D-02 0.826D-01 0.276D+00 0.651D+00
 Gap=     0.409 Goal=   None    Shift=    0.000
 RMSDP=7.89D-08 MaxDP=2.49D-06 DE=-5.52D-08 OVMax= 8.28D-06

 Cycle  10  Pass 1  IDiag  1:
 RMSU=  7.26D-08    CP:  1.00D+00  1.02D+00  8.13D-01  9.10D-01
 E= -276.307273786178     Delta-E=       -0.000000001905 Rises=F Damp=F
 DIIS: error= 3.02D-07 at cycle   5 NSaved=   5.
 NSaved= 5 IEnMin= 5 EnMin= -276.307273786178     IErMin= 5 ErrMin= 3.02D-07
 ErrMax= 3.02D-07  0.00D+00 EMaxC= 1.00D-01 BMatC= 5.86D-11 BMatP= 1.92D-09
 IDIUse=1 WtCom= 1.00D+00 WtEn= 0.00D+00
 Coeff-Com: -0.976D-03-0.124D-01-0.268D-01 0.690D-01 0.971D+00
 Coeff:     -0.976D-03-0.124D-01-0.268D-01 0.690D-01 0.971D+00
 Gap=     0.409 Goal=   None    Shift=    0.000
 RMSDP=3.15D-08 MaxDP=8.81D-07 DE=-1.90D-09 OVMax= 2.43D-06

 Cycle  11  Pass 1  IDiag  1:
 RMSU=  1.59D-08    CP:  1.00D+00  1.02D+00  8.17D-01  9.92D-01  1.11D+00
 E= -276.307273786234     Delta-E=       -0.000000000056 Rises=F Damp=F
 DIIS: error= 1.28D-07 at cycle   6 NSaved=   6.
 NSaved= 6 IEnMin= 6 EnMin= -276.307273786234     IErMin= 6 ErrMin= 1.28D-07
 ErrMax= 1.28D-07  0.00D+00 EMaxC= 1.00D-01 BMatC= 1.45D-11 BMatP= 5.86D-11
 IDIUse=1 WtCom= 1.00D+00 WtEn= 0.00D+00
 Coeff-Com:  0.360D-03-0.117D-01-0.332D-01-0.247D-01 0.409D+00 0.660D+00
 Coeff:      0.360D-03-0.117D-01-0.332D-01-0.247D-01 0.409D+00 0.660D+00
 Gap=     0.409 Goal=   None    Shift=    0.000
 RMSDP=6.56D-09 MaxDP=2.74D-07 DE=-5.62D-11 OVMax= 7.04D-07

 SCF Done:  E(RM062X) =  -276.307273786     A.U. after   11 cycles
            NFock= 11  Conv=0.66D-08     -V/T= 2.0065
 KE= 2.745165662116D+02 PE=-1.277356883211D+03 EE= 4.070814728549D+02
 Leave Link  502 at Sat Sep 28 19:34:30 2019, MaxMem=   671088640 cpu:            1713.5 elap:             856.9
 (Enter /shared/centos7/gaussian/g16/l801.exe)
 DoSCS=F DFT=T ScalE2(SS,OS)=  1.000000  1.000000
 Range of M.O.s used for correlation:     1   434
 NBasis=   434 NAE=    29 NBE=    29 NFC=     0 NFV=     0
 NROrb=    434 NOA=    29 NOB=    29 NVA=   405 NVB=   405

 **** Warning!!: The largest alpha MO coefficient is  0.12242179D+02

 Leave Link  801 at Sat Sep 28 19:34:31 2019, MaxMem=   671088640 cpu:               1.4 elap:               0.7
 (Enter /shared/centos7/gaussian/g16/l1101.exe)
 Using compressed storage, NAtomX=    23.
 Will process     24 centers per pass.
 Leave Link 1101 at Sat Sep 28 19:35:09 2019, MaxMem=   671088640 cpu:              75.5 elap:              37.8
 (Enter /shared/centos7/gaussian/g16/l1102.exe)
 Symmetrizing basis deriv contribution to polar:
 IMax=3 JMax=2 DiffMx= 0.00D+00
 Leave Link 1102 at Sat Sep 28 19:35:11 2019, MaxMem=   671088640 cpu:               4.5 elap:               2.3
 (Enter /shared/centos7/gaussian/g16/l1110.exe)
 Forming Gx(P) for the SCF density, NAtomX=    23.
 Integral derivatives from FoFJK, PRISM(SPDF).
 Do as many integral derivatives as possible in FoFJK.
 G2DrvN: MDV=     671086848.
 G2DrvN: will do    24 centers at a time, making    1 passes.
 Calling FoFCou, ICntrl=  3107 FMM=F I1Cent=   0 AccDes= 0.00D+00.
 FoFJK:  IHMeth= 1 ICntrl=    3107 DoSepK=F KAlg= 0 I1Cent=           0 FoldK=F
 IRaf=         0 NMat=       1 IRICut=       1 DoRegI=T DoRafI=F ISym2E= 0 IDoP0=0 IntGTp=1.
 FoFCou: FMM=F IPFlag=           0 FMFlag=      100000 FMFlg1=           0
         NFxFlg=           0 DoJE=F BraDBF=F KetDBF=F FulRan=T
         wScrn=  0.000000 ICntrl=      3107 IOpCl=  0 I1Cent=           0 NGrid=           0
         NMat0=    1 NMatS0=      1 NMatT0=    0 NMatD0=    1 NMtDS0=    0 NMtDT0=    0
 Symmetry not used in FoFCou.
 End of G2Drv F.D. properties file   721 does not exist.
 End of G2Drv F.D. properties file   722 does not exist.
 End of G2Drv F.D. properties file   788 does not exist.
 Leave Link 1110 at Sat Sep 28 20:15:54 2019, MaxMem=   671088640 cpu:            4884.1 elap:            2442.4
 (Enter /shared/centos7/gaussian/g16/l1002.exe)
 Minotr:  Closed shell wavefunction.
          IDoAtm=11111111111111111111111
          Direct CPHF calculation.
          Differentiating once with respect to nuclear coordinates.
          Requested convergence is 1.0D-08 RMS, and 1.0D-07 maximum.
          Secondary convergence is 1.0D-12 RMS, and 1.0D-12 maximum.
          NewPWx=T KeepS1=F KeepF1=F KeepIn=T MapXYZ=F SortEE=F KeepMc=T.
         6939 words used for storage of precomputed grid.
 Two-electron integrals replicated using symmetry.
          MDV=     671088640 using IRadAn=       1.
          Solving linear equations simultaneously, MaxMat=     380.
 FoF2E skips out because all densities are zero.
 CalDSu exits because no D1Ps are significant.
 FoFJK:  IHMeth= 1 ICntrl=       0 DoSepK=F KAlg= 0 I1Cent=           0 FoldK=F
 IRaf= 900000000 NMat=      69 IRICut=     172 DoRegI=T DoRafI=T ISym2E= 2 IDoP0=3 IntGTp=3.
 FoFCou: FMM=F IPFlag=           0 FMFlag=      100000 FMFlg1=           0
         NFxFlg=           0 DoJE=F BraDBF=F KetDBF=F FulRan=T
         wScrn=  0.000000 ICntrl=         0 IOpCl=  0 I1Cent=           0 NGrid=           0
         NMat0=   69 NMatS0=     69 NMatT0=    0 NMatD0=   69 NMtDS0=    0 NMtDT0=    0
 Integrals replicated using symmetry in FoFCou.
 Raff kept on since  85.85% of shell-pairs survive, threshold=   0.20 IRatSp=86.
          There are    72 degrees of freedom in the 1st order CPHF.  IDoFFX=6 NUNeed=     0.
     66 vectors produced by pass  0 Test12= 1.63D-14 1.39D-09 XBig12= 5.60D-02 3.60D-02.
 AX will form    66 AO Fock derivatives at one time.
     66 vectors produced by pass  1 Test12= 1.63D-14 1.39D-09 XBig12= 3.60D-03 6.75D-03.
     66 vectors produced by pass  2 Test12= 1.63D-14 1.39D-09 XBig12= 5.63D-05 1.10D-03.
     66 vectors produced by pass  3 Test12= 1.63D-14 1.39D-09 XBig12= 4.42D-07 7.60D-05.
     66 vectors produced by pass  4 Test12= 1.63D-14 1.39D-09 XBig12= 2.16D-09 4.94D-06.
     66 vectors produced by pass  5 Test12= 1.63D-14 1.39D-09 XBig12= 1.06D-11 3.30D-07.
     23 vectors produced by pass  6 Test12= 1.63D-14 1.39D-09 XBig12= 4.24D-14 1.76D-08.
 InvSVY:  IOpt=1 It=  1 EMax= 3.05D-16
 Solved reduced A of dimension   419 with    72 vectors.
 End of Minotr F.D. properties file   721 does not exist.
 End of Minotr F.D. properties file   722 does not exist.
 End of Minotr F.D. properties file   788 does not exist.
 Leave Link 1002 at Sat Sep 28 21:32:57 2019, MaxMem=   671088640 cpu:            9245.8 elap:            4623.7
 (Enter /shared/centos7/gaussian/g16/l601.exe)
 Copying SCF densities to generalized density rwf, IOpCl= 0 IROHF=0.

 **********************************************************************

            Population analysis using the SCF density.

 **********************************************************************

 Orbital symmetries:
       Occupied  (A) (A) (A) (A) (A) (A) (A) (A) (A) (A) (A) (A)
                 (A) (A) (A) (A) (A) (A) (A) (A) (A) (A) (A) (A)
                 (A) (A) (A) (A) (A)
       Virtual   (A) (A) (A) (A) (A) (A) (A) (A) (A) (A) (A) (A)
                 (A) (A) (A) (A) (A) (A) (A) (A) (A) (A) (A) (A)
                 (A) (A) (A) (A) (A) (A) (A) (A) (A) (A) (A) (A)
                 (A) (A) (A) (A) (A) (A) (A) (A) (A) (A) (A) (A)
                 (A) (A) (A) (A) (A) (A) (A) (A) (A) (A) (A) (A)
                 (A) (A) (A) (A) (A) (A) (A) (A) (A) (A) (A) (A)
                 (A) (A) (A) (A) (A) (A) (A) (A) (A) (A) (A) (A)
                 (A) (A) (A) (A) (A) (A) (A) (A) (A) (A) (A) (A)
                 (A) (A) (A) (A) (A) (A) (A) (A) (A) (A) (A) (A)
                 (A) (A) (A) (A) (A) (A) (A) (A) (A) (A) (A) (A)
                 (A) (A) (A) (A) (A) (A) (A) (A) (A) (A) (A) (A)
                 (A) (A) (A) (A) (A) (A) (A) (A) (A) (A) (A) (A)
                 (A) (A) (A) (A) (A) (A) (A) (A) (A) (A) (A) (A)
                 (A) (A) (A) (A) (A) (A) (A) (A) (A) (A) (A) (A)
                 (A) (A) (A) (A) (A) (A) (A) (A) (A) (A) (A) (A)
                 (A) (A) (A) (A) (A) (A) (A) (A) (A) (A) (A) (A)
                 (A) (A) (A) (A) (A) (A) (A) (A) (A) (A) (A) (A)
                 (A) (A) (A) (A) (A) (A) (A) (A) (A) (A) (A) (A)
                 (A) (A) (A) (A) (A) (A) (A) (A) (A) (A) (A) (A)
                 (A) (A) (A) (A) (A) (A) (A) (A) (A) (A) (A) (A)
                 (A) (A) (A) (A) (A) (A) (A) (A) (A) (A) (A) (A)
                 (A) (A) (A) (A) (A) (A) (A) (A) (A) (A) (A) (A)
                 (A) (A) (A) (A) (A) (A) (A) (A) (A) (A) (A) (A)
                 (A) (A) (A) (A) (A) (A) (A) (A) (A) (A) (A) (A)
                 (A) (A) (A) (A) (A) (A) (A) (A) (A) (A) (A) (A)
                 (A) (A) (A) (A) (A) (A) (A) (A) (A) (A) (A) (A)
                 (A) (A) (A) (A) (A) (A) (A) (A) (A) (A) (A) (A)
                 (A) (A) (A) (A) (A) (A) (A) (A) (A) (A) (A) (A)
                 (A) (A) (A) (A) (A) (A) (A) (A) (A) (A) (A) (A)
                 (A) (A) (A) (A) (A) (A) (A) (A) (A) (A) (A) (A)
                 (A) (A) (A) (A) (A) (A) (A) (A) (A) (A) (A) (A)
                 (A) (A) (A) (A) (A) (A) (A) (A) (A) (A) (A) (A)
                 (A) (A) (A) (A) (A) (A) (A) (A) (A) (A) (A) (A)
                 (A) (A) (A) (A) (A) (A) (A) (A) (A)
 The electronic state is 1-A.
 Alpha  occ. eigenvalues --  -10.52652 -10.52636 -10.52598 -10.52254 -10.52251
 Alpha  occ. eigenvalues --  -10.52243 -10.52065  -0.92061  -0.88427  -0.83057
 Alpha  occ. eigenvalues --   -0.76198  -0.69396  -0.65214  -0.65087  -0.55183
 Alpha  occ. eigenvalues --   -0.52148  -0.51114  -0.49949  -0.47891  -0.46063
 Alpha  occ. eigenvalues --   -0.45548  -0.42686  -0.41083  -0.40244  -0.38723
 Alpha  occ. eigenvalues --   -0.38465  -0.37670  -0.35671  -0.35035
 Alpha virt. eigenvalues --    0.05904   0.07965   0.08455   0.08623   0.10704
 Alpha virt. eigenvalues --    0.11518   0.12188   0.12731   0.13747   0.14912
 Alpha virt. eigenvalues --    0.15962   0.16486   0.16818   0.17084   0.19326
 Alpha virt. eigenvalues --    0.21434   0.22442   0.23648   0.25592   0.26203
 Alpha virt. eigenvalues --    0.27050   0.28565   0.29073   0.30088   0.31525
 Alpha virt. eigenvalues --    0.32676   0.33063   0.34954   0.35550   0.37354
 Alpha virt. eigenvalues --    0.38337   0.39313   0.40468   0.41722   0.44092
 Alpha virt. eigenvalues --    0.44544   0.45080   0.45870   0.46709   0.47649
 Alpha virt. eigenvalues --    0.48051   0.48503   0.49596   0.49708   0.50679
 Alpha virt. eigenvalues --    0.50923   0.52080   0.52609   0.53647   0.54555
 Alpha virt. eigenvalues --    0.54733   0.54944   0.55579   0.56308   0.57390
 Alpha virt. eigenvalues --    0.58096   0.58400   0.58779   0.59574   0.60280
 Alpha virt. eigenvalues --    0.61195   0.66005   0.69889   0.72189   0.77382
 Alpha virt. eigenvalues --    0.78996   0.79403   0.81020   0.83292   0.84743
 Alpha virt. eigenvalues --    0.86535   0.86814   0.88491   0.90814   0.91731
 Alpha virt. eigenvalues --    0.93832   0.95219   0.96340   0.97807   0.98799
 Alpha virt. eigenvalues --    0.99998   1.01834   1.02992   1.03607   1.05276
 Alpha virt. eigenvalues --    1.05491   1.07179   1.07903   1.08368   1.09007
 Alpha virt. eigenvalues --    1.09644   1.10997   1.11359   1.12330   1.12820
 Alpha virt. eigenvalues --    1.13176   1.14963   1.15991   1.16858   1.17433
 Alpha virt. eigenvalues --    1.19216   1.19576   1.21358   1.22402   1.23214
 Alpha virt. eigenvalues --    1.23399   1.24773   1.25642   1.27331   1.27770
 Alpha virt. eigenvalues --    1.29735   1.30711   1.31521   1.32035   1.33277
 Alpha virt. eigenvalues --    1.34128   1.34978   1.35497   1.37161   1.37222
 Alpha virt. eigenvalues --    1.38455   1.39202   1.40784   1.42663   1.43480
 Alpha virt. eigenvalues --    1.45514   1.46062   1.46564   1.48785   1.49385
 Alpha virt. eigenvalues --    1.50368   1.51285   1.52454   1.53627   1.54589
 Alpha virt. eigenvalues --    1.54749   1.56893   1.58245   1.58968   1.59657
 Alpha virt. eigenvalues --    1.60759   1.61891   1.64695   1.67211   1.71249
 Alpha virt. eigenvalues --    1.73330   1.76485   1.78821   1.83536   2.16398
 Alpha virt. eigenvalues --    2.22216   2.26238   2.27873   2.30421   2.32588
 Alpha virt. eigenvalues --    2.34816   2.35913   2.36856   2.38968   2.40611
 Alpha virt. eigenvalues --    2.43141   2.45965   2.48845   2.50314   2.52684
 Alpha virt. eigenvalues --    2.54660   2.55704   2.57598   2.58663   2.59592
 Alpha virt. eigenvalues --    2.60173   2.61720   2.63527   2.64483   2.64626
 Alpha virt. eigenvalues --    2.66600   2.68480   2.69313   2.72443   2.73393
 Alpha virt. eigenvalues --    2.74515   2.75736   2.77881   2.78313   2.79480
 Alpha virt. eigenvalues --    2.80648   2.81609   2.82157   2.83872   2.84848
 Alpha virt. eigenvalues --    2.86735   2.86954   2.87974   2.89284   2.91546
 Alpha virt. eigenvalues --    2.93070   2.93514   2.96262   2.96996   2.97705
 Alpha virt. eigenvalues --    2.98367   2.99353   3.00198   3.01647   3.03298
 Alpha virt. eigenvalues --    3.04173   3.04685   3.06583   3.07554   3.08041
 Alpha virt. eigenvalues --    3.08142   3.09792   3.10488   3.11039   3.12026
 Alpha virt. eigenvalues --    3.12618   3.13046   3.13877   3.15279   3.16013
 Alpha virt. eigenvalues --    3.17042   3.18330   3.19999   3.21061   3.22935
 Alpha virt. eigenvalues --    3.24268   3.25122   3.26594   3.27072   3.28170
 Alpha virt. eigenvalues --    3.30266   3.31478   3.32327   3.33601   3.33885
 Alpha virt. eigenvalues --    3.34924   3.36101   3.38492   3.39007   3.40800
 Alpha virt. eigenvalues --    3.41262   3.41675   3.42854   3.44535   3.45341
 Alpha virt. eigenvalues --    3.46846   3.48530   3.49486   3.51856   3.51916
 Alpha virt. eigenvalues --    3.53786   3.54448   3.56577   3.57444   3.59240
 Alpha virt. eigenvalues --    3.59429   3.60920   3.63318   3.64219   3.64488
 Alpha virt. eigenvalues --    3.65284   3.68752   3.69446   3.70771   3.72643
 Alpha virt. eigenvalues --    3.73458   3.73996   3.76105   3.77150   3.78045
 Alpha virt. eigenvalues --    3.79952   3.80780   3.82222   3.82413   3.85100
 Alpha virt. eigenvalues --    3.85983   3.86849   3.87846   3.88179   3.88738
 Alpha virt. eigenvalues --    3.90028   3.90869   3.92618   3.92776   3.93569
 Alpha virt. eigenvalues --    3.95372   3.95969   3.98072   3.99483   4.00611
 Alpha virt. eigenvalues --    4.02366   4.02691   4.02832   4.04470   4.05638
 Alpha virt. eigenvalues --    4.06185   4.06844   4.08262   4.09304   4.09935
 Alpha virt. eigenvalues --    4.12879   4.13015   4.13584   4.15607   4.16511
 Alpha virt. eigenvalues --    4.18644   4.18935   4.20438   4.21020   4.22054
 Alpha virt. eigenvalues --    4.23596   4.24081   4.24937   4.26635   4.29175
 Alpha virt. eigenvalues --    4.29710   4.32444   4.33406   4.34711   4.35647
 Alpha virt. eigenvalues --    4.38509   4.39145   4.40504   4.42699   4.43932
 Alpha virt. eigenvalues --    4.47751   4.50586   4.51901   4.53000   4.55947
 Alpha virt. eigenvalues --    4.57093   4.58241   4.61416   4.62297   4.64972
 Alpha virt. eigenvalues --    4.66262   4.66736   4.70115   4.72325   4.73900
 Alpha virt. eigenvalues --    4.75248   4.76951   4.78081   4.78734   4.80897
 Alpha virt. eigenvalues --    4.82078   4.85622   4.86172   4.90110   4.91011
 Alpha virt. eigenvalues --    4.93780   4.94809   4.97531   4.98225   5.00734
 Alpha virt. eigenvalues --    5.02356   5.03995   5.04290   5.07186   5.07677
 Alpha virt. eigenvalues --    5.09220   5.10799   5.11743   5.12413   5.17558
 Alpha virt. eigenvalues --    5.18432   5.19866   5.22896   5.24705   5.25857
 Alpha virt. eigenvalues --    5.26769   5.27256   5.28692   5.29625   5.33783
 Alpha virt. eigenvalues --    5.35903   5.36617   5.38038   5.39207   5.43230
 Alpha virt. eigenvalues --    5.43478   5.46789   5.49643   5.51517   5.53959
 Alpha virt. eigenvalues --    5.55329   5.65596   5.68973   5.70819   5.75459
 Alpha virt. eigenvalues --    5.79311   5.81056   5.81697   5.87010   5.91659
 Alpha virt. eigenvalues --    5.95626   5.99036   6.01338  11.29459  11.76415
 Alpha virt. eigenvalues --   12.50911  13.05255  13.31579  13.51378  13.95196
          Condensed to atoms (all electrons):
               1          2          3          4          5          6
     1  C    5.100926   0.301950  -0.050532   0.305091   0.005874  -0.050998
     2  C    0.301950   5.121454   0.290335  -0.051818  -0.049437   0.010328
     3  C   -0.050532   0.290335   5.126711   0.005945   0.298709  -0.000642
     4  C    0.305091  -0.051818   0.005945   5.061830  -0.000437   0.290181
     5  C    0.005874  -0.049437   0.298709  -0.000437   5.054041   0.000008
     6  C   -0.050998   0.010328  -0.000642   0.290181   0.000008   4.967914
     7  C   -0.000169   0.005773  -0.049391  -0.000051   0.309928   0.000009
     8  H   -0.048734   0.001748  -0.000633   0.407969  -0.000381  -0.039339
     9  H   -0.041204  -0.006159   0.000466   0.411714   0.000021  -0.041853
    10  H    0.408941  -0.042165   0.006190  -0.042722  -0.000565  -0.004230
    11  H    0.413194  -0.051876  -0.011736  -0.044653   0.000318  -0.005450
    12  H   -0.040812   0.409743  -0.040897   0.005815   0.007492  -0.000565
    13  H   -0.059711   0.419418  -0.045241  -0.006805  -0.019780   0.000985
    14  H   -0.016137  -0.050311   0.418719   0.001066  -0.056241  -0.000003
    15  H    0.006401  -0.038302   0.404619  -0.000529  -0.039692   0.000026
    16  H   -0.000275  -0.007891  -0.060187  -0.000453   0.414842   0.000007
    17  H   -0.000449   0.004778  -0.041893   0.000047   0.406877  -0.000001
    18  H   -0.003440   0.001312  -0.000140  -0.062573   0.000010   0.411891
    19  H    0.003396  -0.000617   0.000009  -0.044774   0.000000   0.405285
    20  H    0.005905  -0.000742   0.000097  -0.042817  -0.000016   0.404405
    21  H   -0.000508  -0.000543  -0.001240   0.000106  -0.047982   0.000002
    22  H   -0.000045   0.000521  -0.006020  -0.000003  -0.039907  -0.000001
    23  H    0.000053  -0.000730   0.009698   0.000004  -0.040577   0.000000
               7          8          9         10         11         12
     1  C   -0.000169  -0.048734  -0.041204   0.408941   0.413194  -0.040812
     2  C    0.005773   0.001748  -0.006159  -0.042165  -0.051876   0.409743
     3  C   -0.049391  -0.000633   0.000466   0.006190  -0.011736  -0.040897
     4  C   -0.000051   0.407969   0.411714  -0.042722  -0.044653   0.005815
     5  C    0.309928  -0.000381   0.000021  -0.000565   0.000318   0.007492
     6  C    0.000009  -0.039339  -0.041853  -0.004230  -0.005450  -0.000565
     7  C    4.947088  -0.000033  -0.000001   0.000037  -0.000185  -0.000569
     8  H   -0.000033   0.616549  -0.042140   0.009095  -0.010019  -0.000077
     9  H   -0.000001  -0.042140   0.606033  -0.007494   0.008446   0.000436
    10  H    0.000037   0.009095  -0.007494   0.599129  -0.042683  -0.018776
    11  H   -0.000185  -0.010019   0.008446  -0.042683   0.603816   0.006067
    12  H   -0.000569  -0.000077   0.000436  -0.018776   0.006067   0.593101
    13  H    0.001462  -0.000785   0.001990   0.006010   0.005703  -0.038177
    14  H   -0.008063   0.000248  -0.000053   0.001278   0.002772   0.005076
    15  H    0.005741  -0.000019   0.000002  -0.000284   0.001033  -0.017719
    16  H   -0.042513   0.000135   0.000021  -0.000108   0.000468   0.001134
    17  H   -0.036534   0.000061  -0.000012   0.000040  -0.000133  -0.000371
    18  H   -0.000002   0.005132   0.006396   0.000428   0.000188  -0.000082
    19  H   -0.000000   0.007007  -0.018045   0.001601  -0.000143   0.000073
    20  H    0.000004  -0.018073   0.005575  -0.000123   0.000880   0.000012
    21  H    0.403326   0.000367  -0.000012   0.000054  -0.000153  -0.000050
    22  H    0.404474  -0.000006   0.000000  -0.000006   0.000031   0.000022
    23  H    0.404806  -0.000006   0.000000  -0.000002   0.000024   0.000033
              13         14         15         16         17         18
     1  C   -0.059711  -0.016137   0.006401  -0.000275  -0.000449  -0.003440
     2  C    0.419418  -0.050311  -0.038302  -0.007891   0.004778   0.001312
     3  C   -0.045241   0.418719   0.404619  -0.060187  -0.041893  -0.000140
     4  C   -0.006805   0.001066  -0.000529  -0.000453   0.000047  -0.062573
     5  C   -0.019780  -0.056241  -0.039692   0.414842   0.406877   0.000010
     6  C    0.000985  -0.000003   0.000026   0.000007  -0.000001   0.411891
     7  C    0.001462  -0.008063   0.005741  -0.042513  -0.036534  -0.000002
     8  H   -0.000785   0.000248  -0.000019   0.000135   0.000061   0.005132
     9  H    0.001990  -0.000053   0.000002   0.000021  -0.000012   0.006396
    10  H    0.006010   0.001278  -0.000284  -0.000108   0.000040   0.000428
    11  H    0.005703   0.002772   0.001033   0.000468  -0.000133   0.000188
    12  H   -0.038177   0.005076  -0.017719   0.001134  -0.000371  -0.000082
    13  H    0.596706   0.005945   0.005238   0.002102   0.001176   0.000107
    14  H    0.005945   0.595253  -0.037155   0.005534   0.006103  -0.000003
    15  H    0.005238  -0.037155   0.598243   0.006282  -0.017416   0.000003
    16  H    0.002102   0.005534   0.006282   0.618054  -0.039848   0.000000
    17  H    0.001176   0.006103  -0.017416  -0.039848   0.601919  -0.000000
    18  H    0.000107  -0.000003   0.000003   0.000000  -0.000000   0.603644
    19  H   -0.000092   0.000003  -0.000001   0.000000   0.000000  -0.035915
    20  H   -0.000040   0.000010  -0.000002  -0.000009   0.000000  -0.036152
    21  H    0.000292  -0.000484   0.000147  -0.005957   0.008373   0.000002
    22  H   -0.000076   0.000933   0.000512   0.008398  -0.009498  -0.000000
    23  H   -0.000096   0.000759  -0.000561  -0.007142  -0.004138   0.000000
              19         20         21         22         23
     1  C    0.003396   0.005905  -0.000508  -0.000045   0.000053
     2  C   -0.000617  -0.000742  -0.000543   0.000521  -0.000730
     3  C    0.000009   0.000097  -0.001240  -0.006020   0.009698
     4  C   -0.044774  -0.042817   0.000106  -0.000003   0.000004
     5  C    0.000000  -0.000016  -0.047982  -0.039907  -0.040577
     6  C    0.405285   0.404405   0.000002  -0.000001   0.000000
     7  C   -0.000000   0.000004   0.403326   0.404474   0.404806
     8  H    0.007007  -0.018073   0.000367  -0.000006  -0.000006
     9  H   -0.018045   0.005575  -0.000012   0.000000   0.000000
    10  H    0.001601  -0.000123   0.000054  -0.000006  -0.000002
    11  H   -0.000143   0.000880  -0.000153   0.000031   0.000024
    12  H    0.000073   0.000012  -0.000050   0.000022   0.000033
    13  H   -0.000092  -0.000040   0.000292  -0.000076  -0.000096
    14  H    0.000003   0.000010  -0.000484   0.000933   0.000759
    15  H   -0.000001  -0.000002   0.000147   0.000512  -0.000561
    16  H    0.000000  -0.000009  -0.005957   0.008398  -0.007142
    17  H    0.000000   0.000000   0.008373  -0.009498  -0.004138
    18  H   -0.035915  -0.036152   0.000002  -0.000000   0.000000
    19  H    0.611805  -0.030994   0.000000  -0.000000   0.000000
    20  H   -0.030994   0.606958   0.000008  -0.000000  -0.000000
    21  H    0.000000   0.000008   0.602399  -0.039733  -0.032224
    22  H   -0.000000  -0.000000  -0.039733   0.604001  -0.030172
    23  H    0.000000  -0.000000  -0.032224  -0.030172   0.597123
 Mulliken charges:
               1
     1  C   -0.238716
     2  C   -0.266766
     3  C   -0.252945
     4  C   -0.192134
     5  C   -0.203106
     6  C   -0.347960
     7  C   -0.345135
     8  H    0.111932
     9  H    0.115873
    10  H    0.126356
    11  H    0.124090
    12  H    0.129089
    13  H    0.123670
    14  H    0.124753
    15  H    0.123433
    16  H    0.107407
    17  H    0.120918
    18  H    0.109194
    19  H    0.101402
    20  H    0.105114
    21  H    0.113808
    22  H    0.106573
    23  H    0.103148
 Sum of Mulliken charges =  -0.00000
 Mulliken charges with hydrogens summed into heavy atoms:
               1
     1  C    0.011729
     2  C   -0.014007
     3  C   -0.004759
     4  C    0.035672
     5  C    0.025219
     6  C   -0.032249
     7  C   -0.021606
 APT charges:
               1
     1  C   -0.607310
     2  C   -0.679361
     3  C   -0.656734
     4  C   -0.338961
     5  C   -0.674366
     6  C   -1.471038
     7  C   -1.187284
     8  H    0.205194
     9  H    0.379772
    10  H    0.420792
    11  H    0.243277
    12  H    0.431085
    13  H    0.265937
    14  H    0.233250
    15  H    0.460639
    16  H    0.201396
    17  H    0.517196
    18  H    0.290068
    19  H    0.531085
    20  H    0.364147
    21  H    0.119867
    22  H    0.443666
    23  H    0.507682
 Sum of APT charges =  -0.00000
 APT charges with hydrogens summed into heavy atoms:
               1
     1  C    0.056760
     2  C    0.017661
     3  C    0.037155
     4  C    0.246006
     5  C    0.044226
     6  C   -0.285737
     7  C   -0.116070
 Electronic spatial extent (au):  <R**2>=           1322.8752
 Charge=             -0.0000 electrons
 Dipole moment (field-independent basis, Debye):
    X=              0.0247    Y=             -0.1565    Z=              0.0495  Tot=              0.1660
 Quadrupole moment (field-independent basis, Debye-Ang):
   XX=            -49.6931   YY=            -48.8963   ZZ=            -49.3806
   XY=             -0.0863   XZ=             -0.3051   YZ=              0.1911
 Traceless Quadrupole moment (field-independent basis, Debye-Ang):
   XX=             -0.3697   YY=              0.4270   ZZ=             -0.0573
   XY=             -0.0863   XZ=             -0.3051   YZ=              0.1911
 Octapole moment (field-independent basis, Debye-Ang**2):
  XXX=              3.4796  YYY=             -2.3439  ZZZ=              0.0866  XYY=             -0.7273
  XXY=             -4.1916  XXZ=              1.8548  XZZ=             -0.0332  YZZ=              0.1981
  YYZ=              0.3964  XYZ=              0.9107
 Hexadecapole moment (field-independent basis, Debye-Ang**3):
 XXXX=          -1399.0753 YYYY=           -334.4530 ZZZZ=           -156.3099 XXXY=              3.7673
 XXXZ=             -9.2583 YYYX=             -6.5690 YYYZ=              4.2210 ZZZX=             -0.3264
 ZZZY=             -0.9062 XXYY=           -290.2562 XXZZ=           -257.1314 YYZZ=            -85.2024
 XXYZ=              2.3851 YYXZ=              2.1047 ZZXY=              2.7135
 N-N= 3.194515703585D+02 E-N=-1.277356854230D+03  KE= 2.745165662116D+02
  Exact polarizability:   0.000   0.000   0.000   0.000   0.000   0.000
 Approx polarizability:  97.292   0.943  97.368  -0.302   0.318  99.355
 No NMR shielding tensors so no spin-rotation constants.
 Leave Link  601 at Sat Sep 28 21:33:31 2019, MaxMem=   671088640 cpu:              66.8 elap:              33.4
 (Enter /shared/centos7/gaussian/g16/l701.exe)
 SCFChk:  SCF convergence  6.56D-09 required  1.00D-08
 ... and contract with generalized density number  0.
 Compute integral second derivatives.
 Entering OneElI...
 Calculate overlap and kinetic energy integrals
    NBasis = 485  MinDer = 2  MaxDer = 2
 Requested accuracy = 0.1000D-12
 PrmmSu-InSpLW:  IPartL=    0 NPrtUS=   20 NPrtUL=    1 DoSpLW=F IThBeg=    0 IThEnd=   19 NThAct=   20.
 PrsmSu:  NPrtUS=  20 ThrOK=T IAlg=1 NPAlg=1 LenDen=           0 ISkipM=0 DoSpLW=F IThBeg=    0 IThEnd=   19.
 Prism:   IPart=     0 DynPar=F LinDyn=F Incr=           6.
 PRISM was handed    33207021 working-precision words and 13536 shell-pairs
 PRISM was handed    33207021 working-precision words and 13536 shell-pairs
 PRISM was handed    33207021 working-precision words and 13536 shell-pairs
 PRISM was handed    33207021 working-precision words and 13536 shell-pairs
 PRISM was handed    33207021 working-precision words and 13536 shell-pairs
 PRISM was handed    33207021 working-precision words and 13536 shell-pairs
 PRISM was handed    33207021 working-precision words and 13536 shell-pairs
 PRISM was handed    33207021 working-precision words and 13536 shell-pairs
 PRISM was handed    33207021 working-precision words and 13536 shell-pairs
 PRISM was handed    33207021 working-precision words and 13536 shell-pairs
 PRISM was handed    33207021 working-precision words and 13536 shell-pairs
 PRISM was handed    33207021 working-precision words and 13536 shell-pairs
 PRISM was handed    33207021 working-precision words and 13536 shell-pairs
 PRISM was handed    33207021 working-precision words and 13536 shell-pairs
 PRISM was handed    33207021 working-precision words and 13536 shell-pairs
 IPart=  9 NShTot=         675 NBatch=          61 AvBLen=        11.1
 PRISM was handed    33207021 working-precision words and 13536 shell-pairs
 PRISM was handed    33207021 working-precision words and 13536 shell-pairs
 PRISM was handed    33207021 working-precision words and 13536 shell-pairs
 PRISM was handed    33207021 working-precision words and 13536 shell-pairs
 IPart=  0 NShTot=         714 NBatch=          82 AvBLen=         8.7
 PRISM was handed    33207021 working-precision words and 13536 shell-pairs
 IPart=  4 NShTot=         695 NBatch=          72 AvBLen=         9.7
 IPart= 16 NShTot=         655 NBatch=          48 AvBLen=        13.6
 IPart=  6 NShTot=         686 NBatch=          67 AvBLen=        10.2
 IPart=  5 NShTot=         690 NBatch=          70 AvBLen=         9.9
 IPart= 10 NShTot=         671 NBatch=          57 AvBLen=        11.8
 IPart= 11 NShTot=         670 NBatch=          56 AvBLen=        12.0
 IPart= 14 NShTot=         664 NBatch=          52 AvBLen=        12.8
 IPart=  2 NShTot=         707 NBatch=          77 AvBLen=         9.2
 IPart=  7 NShTot=         678 NBatch=          62 AvBLen=        10.9
 IPart= 13 NShTot=         665 NBatch=          52 AvBLen=        12.8
 IPart= 19 NShTot=         647 NBatch=          46 AvBLen=        14.1
 IPart=  1 NShTot=         712 NBatch=          80 AvBLen=         8.9
 IPart= 17 NShTot=         653 NBatch=          48 AvBLen=        13.6
 IPart= 18 NShTot=         649 NBatch=          46 AvBLen=        14.1
 IPart= 15 NShTot=         661 NBatch=          52 AvBLen=        12.7
 IPart= 12 NShTot=         666 NBatch=          53 AvBLen=        12.6
 IPart=  3 NShTot=         702 NBatch=          73 AvBLen=         9.6
 IPart=  8 NShTot=         676 NBatch=          61 AvBLen=        11.1
 PrSmSu:  NxtVal=            121.
 Entering OneElI...
 Calculate potential energy integrals
    NBasis = 485  MinDer = 2  MaxDer = 2
 Requested accuracy = 0.1000D-12
 PrmmSu-InSpLW:  IPartL=    0 NPrtUS=   20 NPrtUL=    1 DoSpLW=F IThBeg=    0 IThEnd=   19 NThAct=   20.
 PrsmSu:  NPrtUS=  20 ThrOK=T IAlg=1 NPAlg=1 LenDen=           0 ISkipM=0 DoSpLW=F IThBeg=    0 IThEnd=   19.
 Prism:   IPart=     0 DynPar=F LinDyn=F Incr=         136.
 PRISM was handed    33272991 working-precision words and 11905 shell-pairs
 PRISM was handed    33272991 working-precision words and 11905 shell-pairs
 PRISM was handed    33272991 working-precision words and 11905 shell-pairs
 PRISM was handed    33272991 working-precision words and 11905 shell-pairs
 PRISM was handed    33272991 working-precision words and 11905 shell-pairs
 PRISM was handed    33272991 working-precision words and 11905 shell-pairs
 PRISM was handed    33272991 working-precision words and 11905 shell-pairs
 PRISM was handed    33272991 working-precision words and 11905 shell-pairs
 PRISM was handed    33272991 working-precision words and 11905 shell-pairs
 PRISM was handed    33272991 working-precision words and 11905 shell-pairs
 PRISM was handed    33272991 working-precision words and 11905 shell-pairs
 PRISM was handed    33272991 working-precision words and 11905 shell-pairs
 PRISM was handed    33272991 working-precision words and 11905 shell-pairs
 PRISM was handed    33272991 working-precision words and 11905 shell-pairs
 PRISM was handed    33272991 working-precision words and 11905 shell-pairs
 PRISM was handed    33272991 working-precision words and 11905 shell-pairs
 PRISM was handed    33272991 working-precision words and 11905 shell-pairs
 PRISM was handed    33272991 working-precision words and 11905 shell-pairs
 PRISM was handed    33272991 working-precision words and 11905 shell-pairs
 PRISM was handed    33272991 working-precision words and 11905 shell-pairs
 IPart= 18 NShTot=       13110 NBatch=         571 AvBLen=        23.0
 IPart=  5 NShTot=       14122 NBatch=         616 AvBLen=        22.9
 IPart=  0 NShTot=       14421 NBatch=         629 AvBLen=        22.9
 IPart= 12 NShTot=       13409 NBatch=         584 AvBLen=        23.0
 IPart=  4 NShTot=       14237 NBatch=         621 AvBLen=        22.9
 IPart=  2 NShTot=       14329 NBatch=         625 AvBLen=        22.9
 IPart=  3 NShTot=       14260 NBatch=         622 AvBLen=        22.9
 IPart=  1 NShTot=       14352 NBatch=         626 AvBLen=        22.9
 IPart= 16 NShTot=       13133 NBatch=         572 AvBLen=        23.0
 IPart= 17 NShTot=       13110 NBatch=         571 AvBLen=        23.0
 IPart=  8 NShTot=       13708 NBatch=         597 AvBLen=        23.0
 IPart=  9 NShTot=       13662 NBatch=         595 AvBLen=        23.0
 IPart= 19 NShTot=       13110 NBatch=         571 AvBLen=        23.0
 IPart= 11 NShTot=       13455 NBatch=         586 AvBLen=        23.0
 IPart= 14 NShTot=       13363 NBatch=         582 AvBLen=        23.0
 IPart= 15 NShTot=       13271 NBatch=         578 AvBLen=        23.0
 IPart=  6 NShTot=       14007 NBatch=         610 AvBLen=        23.0
 IPart= 10 NShTot=       13570 NBatch=         591 AvBLen=        23.0
 IPart= 13 NShTot=       13386 NBatch=         583 AvBLen=        23.0
 IPart=  7 NShTot=       13800 NBatch=         601 AvBLen=        23.0
 PrSmSu:  NxtVal=           2721.
 Polarizability after L701:
                1             2             3 
      1  0.000000D+00
      2  0.000000D+00  0.000000D+00
      3  0.000000D+00  0.000000D+00  0.000000D+00
 Dipole Derivatives after L701:
                 1             2             3             4             5 
      1  -0.575530D+00 -0.468096D+00 -0.770462D+00 -0.568413D-01 -0.110253D-01
      2  -0.498950D+00 -0.573745D+00 -0.298753D+00 -0.918757D-01 -0.124759D+01
      3  -0.381891D-01  0.634309D-01 -0.672654D+00 -0.498951D-01 -0.763526D-01
                 6             7             8             9            10 
      1  -0.943227D-01 -0.463941D+00  0.553218D+00  0.877474D+00  0.299420D+00
      2   0.535406D+00  0.473783D+00 -0.773776D+00 -0.434176D+00 -0.432582D+00
      3  -0.733651D+00  0.475444D-01  0.547234D-01 -0.732486D+00  0.891619D-02
                11            12            13            14            15 
      1  -0.147419D+00  0.150671D+01 -0.114902D+01  0.631188D+00 -0.129636D+01
      2  -0.581787D+00 -0.913870D-01  0.315533D+00 -0.138237D+00 -0.599079D-01
      3   0.304334D-01 -0.734515D+00  0.284307D-01  0.129219D-01 -0.735843D+00
                16            17            18            19            20 
      1  -0.240895D+01  0.592886D+00 -0.775111D+00 -0.139219D+01 -0.118216D+01
      2   0.290499D+00 -0.109543D+01  0.166583D+00 -0.112052D+00 -0.125799D+01
      3   0.908047D-01 -0.429751D-01 -0.908735D+00 -0.141573D-01 -0.131009D+00
                21            22            23            24            25 
      1   0.613493D+00 -0.792826D-01 -0.335944D+00 -0.145774D+00  0.398236D+00
      2   0.115699D+00  0.213833D+00  0.485276D+00  0.114829D+00  0.428168D-01
      3  -0.911680D+00  0.151463D+00  0.218870D+00  0.209590D+00 -0.160793D+00
                26            27            28            29            30 
      1   0.366635D+00 -0.663883D+00  0.500287D+00  0.462564D+00  0.230848D+00
      2   0.192284D+00 -0.111121D+00  0.276889D+00  0.547539D+00  0.166000D+00
      3  -0.256197D+00  0.548795D+00  0.152665D+00  0.189524D+00  0.214551D+00
                31            32            33            34            35 
      1   0.875383D-01 -0.122914D+00  0.205551D+00  0.180408D+00  0.106450D-01
      2   0.114679D-01  0.156131D+00 -0.199789D-01  0.765320D-01  0.991424D+00
      3  -0.140453D+00 -0.243089D+00  0.486163D+00 -0.293457D-02 -0.463553D-01
                36            37            38            39            40 
      1   0.512944D-02  0.144992D+00  0.134491D-01  0.435477D-01  0.597114D-01
      2   0.510681D-01 -0.144372D-01  0.463658D-01 -0.302850D+00  0.214779D-01
      3   0.121423D+00  0.351045D-01  0.146581D+00  0.606453D+00  0.118508D+00
                41            42            43            44            45 
      1   0.197905D+00 -0.328928D+00  0.515472D+00 -0.566788D+00 -0.142440D+00
      2   0.883326D-01  0.763878D-01 -0.320951D+00  0.704056D+00  0.138631D+00
      3  -0.260195D+00  0.551706D+00 -0.110022D+00  0.195500D+00  0.162388D+00
                46            47            48            49            50 
      1  -0.111911D+00  0.109288D+00  0.509395D+00  0.111649D+01 -0.579493D+00
      2  -0.232862D-01  0.144856D+00  0.805870D-01 -0.172279D+00  0.263892D+00
      3  -0.244426D+00  0.100457D+00  0.571243D+00  0.200903D+00 -0.105895D+00
                51            52            53            54            55 
      1   0.219262D+00  0.212068D+00  0.247452D+00  0.102673D+01  0.134240D+01
      2  -0.203547D-01 -0.375171D-01  0.671308D-01 -0.131905D+00 -0.998580D-01
      3   0.171205D+00  0.213405D-01  0.140300D+00  0.591007D+00 -0.122232D+00
                56            57            58            59            60 
      1   0.560376D+00 -0.661439D+00  0.127825D+00 -0.111161D+01 -0.558821D-02
      2   0.575570D-01  0.184409D-01  0.132498D-01  0.868055D+00  0.419284D-01
      3  -0.870706D-01  0.193302D+00  0.215731D-01 -0.138311D-01  0.965611D-01
                61            62            63            64            65 
      1  -0.237459D+00  0.241096D+00 -0.175676D+00  0.797053D+00 -0.175782D+00
      2  -0.534446D+00  0.431209D+00 -0.213977D+00  0.215815D+00  0.709910D-01
      3   0.147342D+00 -0.918767D-01  0.165852D+00 -0.266345D+00  0.685038D-01
                66            67            68            69 
      1  -0.965499D+00  0.693215D+00  0.714527D+00  0.787343D+00
      2  -0.318514D+00  0.386337D+00  0.553457D+00  0.497364D+00
      3   0.462953D+00  0.124852D+00  0.133603D+00  0.276374D+00
 Hessian after L701:
                1             2             3             4             5 
      1  0.148047D+02
      2  0.131880D+01  0.168724D+02
      3  0.131569D+00 -0.292220D+00  0.176810D+02
      4 -0.344942D+01 -0.128408D+01  0.124681D+01  0.144531D+02
      5 -0.129254D+01 -0.537935D+01 -0.573191D+00  0.275404D+00  0.168398D+02
      6  0.125687D+01 -0.571334D+00 -0.559373D+01 -0.226238D-01  0.329243D+00
      7  0.332854D+00 -0.483380D-01 -0.812708D-01 -0.282548D+01  0.806412D+00
      8 -0.576574D-01 -0.896133D-01 -0.145145D-01  0.797519D+00 -0.558325D+01
      9  0.987314D-01 -0.324177D-01 -0.841894D-01 -0.136275D+01 -0.355969D+00
     10 -0.470524D+01 -0.141816D+01 -0.133294D+01  0.194193D+00 -0.272586D+00
     11 -0.137895D+01 -0.459142D+01  0.129480D+01 -0.291336D+00  0.599406D-01
     12 -0.132604D+01  0.130333D+01 -0.498415D+01  0.641158D-01 -0.232917D-01
     13  0.260934D+00  0.871874D-01  0.662296D-01  0.215640D+00  0.184630D+00
     14  0.677651D-01 -0.132937D+00  0.702854D-02  0.226269D+00  0.586829D-02
     15  0.671041D-01  0.148392D-01 -0.135319D+00 -0.977005D-02  0.134745D-01
     16  0.188606D+00 -0.238122D+00  0.526650D-01  0.194410D+00 -0.201042D+00
     17 -0.291699D+00  0.536534D-02 -0.122427D-01 -0.207579D+00 -0.212038D-01
     18 -0.636362D-01  0.615200D-01 -0.154835D+00  0.431816D-01 -0.352514D-01
     19  0.935667D-01  0.103704D+00 -0.200160D-01  0.841640D-01  0.218113D+00
     20  0.702084D-01 -0.383038D-01 -0.122889D-02  0.194268D+00  0.376358D-01
     21  0.260563D-01  0.142270D-01 -0.883619D-01 -0.391624D-01 -0.422702D-01
     22  0.147790D+00  0.859367D-01  0.488822D-01  0.474761D-02 -0.370939D-01
     23  0.413314D-01  0.150102D-02 -0.147212D+00 -0.730276D-01  0.227872D-01
     24  0.232127D-01 -0.127484D+00 -0.931039D-02 -0.261161D-01  0.239864D-01
     25  0.575269D-01  0.341806D-01  0.797615D-01 -0.270625D-01 -0.187511D-01
     26  0.409664D-01  0.935807D-01 -0.906037D-01 -0.385375D-02  0.306512D-02
     27  0.347850D-01 -0.784120D-01 -0.254707D-01 -0.195131D-01  0.151285D-01
     28 -0.351279D+01  0.102637D+01  0.592819D+00 -0.155260D-01  0.100920D+00
     29  0.106211D+01 -0.311626D+01  0.685420D+00  0.953814D-01  0.151335D+00
     30  0.606163D+00  0.677025D+00 -0.388071D+01 -0.632155D-01  0.555586D-01
     31 -0.445024D+01  0.343604D+00 -0.497638D+00  0.295215D-01  0.138141D+00
     32  0.389155D+00 -0.391037D+01 -0.109019D+01  0.108442D+00  0.101712D+00
     33 -0.608369D+00 -0.115885D+01 -0.263716D+01 -0.167672D+00  0.834889D-01
     34 -0.353205D-02  0.106756D+00 -0.624860D-01 -0.436316D+01  0.225462D+00
     35  0.106826D+00  0.973602D-01  0.923751D-01  0.234135D+00 -0.197124D+01
     36 -0.593618D-01  0.704602D-01  0.542240D-01 -0.986534D-02 -0.104941D+00
     37  0.243403D-01  0.564017D-01 -0.200688D+00 -0.463935D+01  0.208599D-01
     38  0.819619D-01  0.158228D+00  0.126911D+00  0.190524D-01 -0.447800D+01
     39 -0.204104D+00  0.998159D-01  0.199689D-03  0.790876D-01  0.558369D+00
     40 -0.704578D-01 -0.775557D-02  0.328539D-01  0.101431D-01 -0.998381D-01
     41  0.110356D-01  0.216988D-01 -0.130063D-01 -0.646428D-01  0.120635D+00
     42  0.146081D-01 -0.102993D-02  0.316094D-01  0.164766D+00  0.693890D-01
     43  0.112555D+00 -0.665971D-01 -0.190826D-01 -0.353925D-01 -0.553738D-01
     44 -0.828938D-01 -0.764626D-02  0.172064D-01 -0.555677D-01  0.156204D+00
     45 -0.194562D-01  0.785850D-02 -0.433343D-01  0.603056D-01  0.226495D-01
     46  0.261536D-02  0.884972D-02  0.121511D-01  0.634575D-02 -0.210534D-01
     47  0.888578D-02 -0.128530D-01  0.529600D-02  0.245618D-02 -0.403895D-01
     48  0.340551D-01  0.139984D-01 -0.452347D-02  0.303955D-01 -0.718404D-02
     49  0.147817D-01 -0.293997D-03 -0.485494D-02  0.115678D+00  0.265401D-01
     50 -0.635674D-02 -0.653699D-02  0.289182D-02  0.137641D-01 -0.326953D-01
[...]
 3607707,-0.00148550,0.00124113,0.00140479,-0.00933314,0.02696282,-0.01
 995022,-0.03556639,0.10626840,-0.11421123,0.00002317,-0.00032064,0.000
 00898,0.00308385,-0.00846545,0.00408460,0.00002900,-0.00008845,0.00006
 521,0.00034593,-0.00053939,0.00136526,0.00002367,-0.00009055,0.0003521
 1,-0.00003539,0.00000117,-0.00004282,0.00095686,-0.00076271,0.00016612
 ,0.00005851,-0.00007110,-0.00002081,-0.00030883,-0.00030328,0.00109746
 ,0.00092569,-0.00168689,-0.00609472,0.04085480,-0.11539075,0.12842498,
 0.00144217,0.00010858,0.00078282,-0.00174001,0.00040757,-0.00017417,-0
 .28625759,0.04458949,0.05062945,-0.00032008,-0.00010535,-0.00021952,-0
 .02018735,0.00209376,0.00253501,0.00006822,0.00002061,0.00012960,0.000
 84938,0.00105367,0.00085099,-0.00000039,-0.00001458,0.00006873,0.00001
 085,0.00003999,0.00002975,0.00021529,-0.00016956,-0.00007094,0.0001494
 7,-0.00003083,-0.00016473,0.00058744,0.00034494,0.00036745,0.00018863,
 -0.00027217,0.00040359,-0.00875157,0.00183752,0.00132164,0.31279405,-0
 .00012549,0.00019151,-0.00175757,0.00555130,-0.00206217,-0.00057404,0.
 04492041,-0.05629897,-0.00782663,0.00045673,0.00038205,-0.00002130,-0.
 02806491,0.00327917,0.00354684,-0.00005376,-0.00005410,-0.00016643,-0.
 00043471,0.00124846,0.00129462,0.00000532,-0.00000915,-0.00010161,-0.0
 0001185,-0.00003807,0.00003509,-0.00051578,0.00027000,0.00001464,0.000
 20328,0.00008162,-0.00019592,0.00031184,-0.00016801,0.00008546,-0.0004
 2738,0.00029656,-0.00005695,0.02549616,-0.00489554,-0.00585187,-0.0455
 4144,0.06075879,-0.00215688,-0.00072148,-0.00640415,0.03346741,-0.0070
 3698,-0.00830580,0.05008132,-0.00725559,-0.05742212,0.00207076,-0.0002
 7231,0.00022692,-0.00993931,0.00109454,0.00057279,-0.00017058,-0.00019
 674,-0.00075124,-0.00130294,0.00039044,0.00092221,-0.00001611,0.000099
 86,-0.00001603,-0.00003186,-0.00008264,0.00000039,-0.00011353,-0.00020
 613,0.00015618,0.00001449,0.00020648,0.00006535,-0.00034681,-0.0001785
 4,0.00137181,-0.00018655,0.00075076,0.00111613,-0.01654734,0.00247597,
 0.00324645,-0.05484220,0.01299388,0.06546854,-0.00076950,-0.00055845,0
 .00083574,-0.00036478,0.00011626,0.00060565,-0.01850307,0.00267104,0.0
 0136357,0.00062359,0.00037936,-0.00015911,-0.29557167,0.05043500,0.028
 08451,0.00003669,-0.00004133,-0.00006349,-0.00457920,0.00118738,0.0010
 2195,-0.00000871,-0.00003036,0.00006369,0.00000271,0.00012471,0.000274
 47,-0.00009617,-0.00011466,-0.00025933,0.00093534,0.00105847,0.0004576
 1,0.00020691,-0.00008882,-0.00012526,0.00003783,-0.00006159,0.00000185
 ,0.00091705,-0.00012053,0.00024361,-0.00051182,-0.00333952,-0.00115320
 ,0.32234419,0.00039293,0.00051400,-0.00073307,0.00055317,0.00075350,0.
 00061707,-0.02819061,0.00466829,0.00316596,0.00004015,-0.00016181,0.00
 004839,0.05136687,-0.05903225,-0.00381318,0.00002300,0.00002166,-0.000
 00547,0.00728234,-0.00209837,-0.00137713,0.00000524,0.00000889,0.00008
 415,-0.00003378,0.00000362,0.00000177,0.00012716,-0.00031467,0.0001649
 1,0.00008808,-0.00031026,-0.00083376,0.00013196,0.00002512,0.00016405,
 0.00002515,-0.00002292,-0.00009215,0.00057924,0.00130726,0.00062208,-0
 .00364843,-0.00385202,-0.00207275,-0.05336450,0.06308031,0.00009871,-0
 .00038864,-0.00062141,-0.00037866,0.00063719,0.00048095,-0.01025908,0.
 00252707,0.00079017,0.00010710,0.00011646,-0.00005843,0.02777521,-0.00
 386721,-0.04996347,0.00001661,-0.00002631,0.00002109,0.03317590,-0.007
 63353,-0.00600397,-0.00001645,-0.00001659,0.00003151,-0.00001077,0.000
 04167,0.00009217,0.00009521,0.00004859,0.00007984,0.00035654,-0.000852
 86,-0.00177731,0.00025429,-0.00003595,0.00007532,-0.00001458,-0.000050
 44,-0.00002914,0.00071619,0.00010777,0.00026560,-0.00090312,-0.0019629
 9,-0.00028097,-0.03288603,0.00889438,0.05859197,0.00013585,0.00018533,
 -0.00001090,0.00074309,0.00046662,0.00078831,0.00395408,-0.01613829,0.
 01003779,0.00001621,-0.00005924,-0.00000920,-0.06282192,0.04644984,-0.
 03242097,0.00000557,0.00001364,0.00000487,0.00114661,-0.00542989,0.004
 26282,0.00002215,0.00000287,0.00003647,0.00000434,-0.00000979,-0.00001
 402,-0.00011180,-0.00015465,0.00000363,-0.00019184,-0.00001741,-0.0001
 0356,-0.00011159,0.00019216,0.00021730,0.00001486,0.00039043,-0.000232
 46,-0.00117694,-0.00342840,-0.00103484,0.00060045,0.00056626,0.0005934
 1,-0.00689053,0.02542937,-0.01852471,0.06359239,0.00004252,-0.00011581
 ,-0.00032292,0.00071573,0.00089659,0.00159949,0.00575665,-0.02433336,0
 .01393530,0.00008226,0.00002573,0.00000413,0.04597017,-0.20812592,0.11
 611248,-0.00001319,-0.00001775,-0.00003323,-0.00206252,0.00725094,-0.0
 0563341,-0.00001689,-0.00000171,-0.00008058,-0.00000645,0.00001266,0.0
 0001952,-0.00015843,0.00024025,0.00008731,0.00023860,-0.00023322,-0.00
 003375,-0.00015649,0.00059877,-0.00007004,-0.00020578,0.00024435,-0.00
 120752,-0.00380189,-0.00324644,-0.00197931,-0.00018716,0.00097545,0.00
 008679,0.00175848,-0.00537679,0.00317332,-0.04779435,0.22965397,-0.000
 04647,0.00003899,0.00012071,0.00037675,-0.00098712,0.00141400,0.002437
 15,-0.00876586,0.00465502,0.00001443,0.00007289,-0.00004520,-0.0316593
 4,0.11531514,-0.12826970,0.00001027,0.00000948,0.00000831,-0.00742121,
 0.02552779,-0.02043588,0.00000453,-0.00000185,-0.00000907,-0.00000643,
 0.00000055,0.00002694,-0.00006836,0.00005601,0.00004781,0.00007949,0.0
 0028363,0.00007779,0.00003076,0.00006980,0.00016706,-0.00021450,0.0003
 9957,0.00013632,-0.00113361,-0.00228060,-0.00020203,0.00026715,0.00060
 479,0.00007232,0.00026583,-0.00332167,0.00185475,0.03561458,-0.1247026
 7,0.14372378,0.00111670,-0.00102869,-0.00150022,0.00001069,0.00029886,
 0.00003736,0.00009044,0.00011078,-0.00001294,-0.02066913,-0.02609476,-
 0.00342623,-0.00006117,-0.00003062,0.00006114,-0.13967830,-0.12521503,
 -0.01877119,0.00002687,0.00003016,0.00000529,0.00115196,0.00012317,-0.
 00065422,-0.00543346,0.00234638,0.00217550,-0.00000437,0.00008966,0.00
 008646,0.00032492,0.00069464,0.00085363,0.00033699,0.00010309,-0.00006
 797,-0.00005107,0.00000647,-0.00001856,0.00000217,0.00000070,-0.000001
 20,-0.00000330,-0.00000196,-0.00001099,0.00001758,-0.00001335,0.000015
 87,-0.00001464,0.00001672,-0.00000619,0.15549459,0.00029635,0.00062930
 ,0.00042680,0.00026834,0.00028436,0.00019423,-0.00008484,-0.00002918,-
 0.00000277,0.00527297,0.00711806,0.00074482,-0.00003993,-0.00000326,-0
 .00000122,-0.12611162,-0.21598196,-0.02477689,0.00000900,0.00000500,0.
 00000041,-0.00062442,0.00078119,0.00029250,0.00208456,0.00102149,-0.00
 086329,-0.00011520,-0.00007970,-0.00004850,-0.00029965,0.00006551,0.00
 041768,0.00007661,-0.00011590,-0.00010726,-0.00000208,-0.00001762,0.00
 000204,0.00000138,0.00000036,0.00000346,-0.00000561,0.00001198,0.00003
 400,0.00000086,-0.00000483,0.00000101,0.00000363,0.00000130,-0.0000020
 1,0.13740581,0.23217598,0.00031305,0.00136439,0.00087599,0.00018090,-0
 .00007951,-0.00005314,-0.00004642,-0.00001724,-0.00001334,0.00537736,0
 .00759578,0.00013849,0.00005369,-0.00001399,0.00000438,-0.01910548,-0.
 02506576,-0.05145637,-0.00002308,-0.00000074,-0.00001050,-0.00059745,-
 0.00028875,0.00009110,0.00187354,-0.00044817,0.00009850,-0.00002234,0.
 00005622,-0.00003841,0.00000945,-0.00041436,0.00000229,-0.00011991,-0.
 00010327,-0.00007619,-0.00003253,0.00002225,-0.00000781,0.00000834,0.0
 0000004,-0.00000172,-0.00001638,0.00000469,0.00002583,-0.00003108,-0.0
 0000046,-0.00001959,-0.00000284,0.00000191,-0.00000245,0.01917486,0.02
 805675,0.05093294,0.00121428,-0.00017716,-0.00170120,-0.00005390,-0.00
 022210,0.00011690,0.00005412,-0.00008065,0.00003464,-0.01282429,0.0254
 4637,-0.01810701,-0.00001531,-0.00000253,0.00001444,-0.07957859,0.0698
 1794,-0.05254733,0.00000477,0.00000644,-0.00000172,-0.00576874,0.00119
 995,0.00252151,0.00113319,-0.00059842,-0.00055409,0.00022449,-0.000254
 00,0.00093612,0.00000105,-0.00004379,0.00015414,-0.00002721,0.00002561
 ,-0.00005667,0.00021644,-0.00021377,-0.00000984,-0.00000882,0.00000351
 ,0.00006909,-0.00000529,0.00000114,-0.00001121,0.00000166,0.00000274,0
 .00000148,-0.00000072,-0.00001042,-0.00000291,0.00720870,-0.01421066,0
 .01209170,0.08889176,-0.00049153,0.00003271,0.00061320,-0.00003538,0.0
 0024114,-0.00034461,0.00004130,-0.00001835,0.00000069,0.00264127,-0.00
 541459,0.00347563,0.00004039,-0.00000817,-0.00001677,0.07038898,-0.197
 41753,0.11095008,-0.00001165,-0.00000607,0.00000118,0.00126668,0.00125
 300,-0.00068934,0.00012158,0.00067737,-0.00043512,0.00025260,0.0000136
 2,-0.00070091,0.00005720,-0.00010772,0.00003923,-0.00004093,-0.0000235
 8,0.00002407,-0.00019165,0.00008250,0.00005519,0.00001339,0.00001286,-
 0.00003222,0.00000016,-0.00000107,-0.00001623,-0.00000762,-0.00001517,
 0.00000616,-0.00001552,0.00001714,-0.00000157,0.00967074,-0.01896558,0
 .01473002,-0.07946106,0.21180958,0.00015434,-0.00083029,0.00147830,0.0
 0018000,-0.00017050,0.00010877,-0.00007839,0.00005621,-0.00002838,0.00
 323550,-0.00805825,0.00486933,0.00000746,-0.00001210,0.00000699,-0.053
 14650,0.11135291,-0.13019273,-0.00000215,0.00000648,-0.00000661,0.0020
 9140,-0.00098990,0.00018107,-0.00074455,0.00017511,0.00015691,-0.00002
 771,0.00043122,0.00013434,-0.00011166,-0.00002018,-0.00003834,-0.00003
 758,-0.00000115,0.00001064,-0.00000074,0.00006805,-0.00014175,0.000010
 40,0.00000120,-0.00002294,-0.00001834,0.00001861,0.00003775,-0.0000132
 2,-0.00000751,-0.00000933,-0.00000066,0.00000199,0.00000007,0.00242303
 ,-0.00395740,0.00203135,0.05675532,-0.12232513,0.13786509,-0.00655021,
 0.00106209,-0.00021725,0.00064155,0.00049102,0.00200289,-0.00071240,0.
 00016743,-0.00004560,0.00066023,0.00875298,0.03203925,-0.00007016,-0.0
 0007439,0.00000518,-0.04684114,0.00131769,0.00510393,0.00002507,0.0000
 3562,-0.00000631,0.00130649,0.00007015,-0.00069148,0.00119233,-0.00075
 221,-0.00034872,-0.00003844,-0.00025056,-0.00004619,0.00007124,0.00027
 872,-0.00009911,0.00003786,-0.00010730,-0.00002323,0.00001042,0.000078
 03,-0.00003714,0.00002562,-0.00002522,-0.00000695,-0.00005349,0.000065
 31,0.00025600,0.00000858,-0.00000600,-0.00000982,0.00000021,0.00001108
 ,-0.00000710,0.00013134,-0.00392606,-0.01908354,-0.00066733,-0.0042406
 3,-0.01067491,0.05081673,0.00179410,0.00000055,0.00018463,-0.00017031,
 0.00048782,-0.00060720,0.00021579,-0.00004760,0.00002589,-0.00066128,-
 0.00328393,-0.00640672,-0.00000833,0.00002572,-0.00001415,0.00169258,-
 0.06812307,-0.07142915,-0.00000190,-0.00001180,0.00000872,-0.00028816,
 -0.00016916,-0.00009701,0.00004097,0.00030983,0.00043628,-0.00005673,0
 .00016617,-0.00039978,0.00011644,0.00034949,0.00044975,0.00008665,-0.0
 0000790,-0.00002561,-0.00007799,-0.00002796,0.00004201,-0.00000523,0.0
 0000862,0.00000126,0.00001784,-0.00002675,-0.00008007,0.00000718,-0.00
 000674,0.00001324,-0.00000346,-0.00000076,0.00000197,0.00148273,-0.006
 90075,-0.02540185,-0.00122984,0.00783532,0.02425821,-0.00295289,0.0694
 2422,0.00272217,-0.00029512,0.00089409,-0.00057036,-0.00018232,-0.0004
 7169,0.00027218,-0.00005439,0.00008228,-0.00097279,-0.00132946,-0.0067
 2614,-0.00000362,0.00004721,-0.00001901,0.00630958,-0.07161248,-0.2963
 1809,-0.00000831,-0.00002163,0.00001422,0.00023604,-0.00028201,0.00050
 561,0.00027165,0.00038504,0.00014038,-0.00010293,-0.00001928,0.0004117
 8,-0.00011270,0.00010754,0.00016992,0.00005669,0.00004338,-0.00000948,
 0.00010098,-0.00007094,-0.00000610,-0.00003054,0.00000949,-0.00000413,
 0.00002505,-0.00003207,-0.00012225,0.00001852,0.00000639,0.00001627,0.
 00000194,-0.00000446,0.00000574,-0.00036745,-0.00042190,-0.00253413,0.
 00028789,-0.00532101,-0.01645291,-0.00813765,0.07905645,0.32045422,0.0
 0003527,-0.00000644,0.00001769,-0.00008366,-0.00015527,-0.00000014,-0.
 00003469,0.00023223,-0.00032852,-0.00002880,0.00000564,-0.00000323,0.0
 0114765,-0.00591132,0.00440131,0.00000406,0.00000207,0.00000737,-0.060
 88929,0.04628587,-0.03429877,-0.00000150,-0.00000007,-0.00000847,-0.00
 000164,-0.00000369,-0.00000727,0.00000385,0.00002758,-0.00000142,-0.00
 000801,-0.00002664,0.00001880,-0.00000654,0.00000354,-0.00004324,-0.00
 003015,-0.00000644,0.00003082,0.00017177,-0.00003903,-0.00024423,-0.00
 009553,0.00016454,-0.00003952,0.00023288,-0.00065871,-0.00027901,0.000
 71065,0.00026580,0.00161840,-0.00000172,-0.00000423,0.00000242,0.00000
 007,0.00000494,0.00000054,-0.00000490,0.00000122,0.00000030,0.06093570
 ,0.00002246,-0.00002738,0.00005730,-0.00006414,0.00025540,-0.00020592,
 -0.00004732,0.00134347,-0.00042082,-0.00002075,0.00001077,-0.00001605,
 -0.00243922,0.00610287,-0.00460544,0.00000734,-0.00000212,0.00001561,0
 .04624275,-0.21251623,0.12065504,-0.00000042,-0.00000095,-0.00000138,0
 .00000046,0.00000270,0.00000602,0.00000482,0.00001415,-0.00000591,0.00
 001228,0.00001010,-0.00000251,0.00001214,0.00000159,0.00009076,-0.0000
 0641,-0.00017081,-0.00005997,0.00039933,0.00018819,0.00033740,-0.00005
 366,-0.00003489,0.00017195,-0.00032073,0.00036340,0.00069256,-0.000187
 97,0.00074568,-0.00212062,-0.00000010,-0.00000278,-0.00000118,-0.00000
 169,0.00000519,-0.00000407,-0.00000845,0.00000393,0.00000779,-0.051192
 95,0.22854878,0.00005462,0.00011030,0.00001180,0.00015553,-0.00030469,
 0.00002734,0.00014092,0.00183679,0.00145293,-0.00003135,-0.00003428,0.
 00001733,-0.00774974,0.02609410,-0.02054257,-0.00000231,0.00001083,-0.
 00000036,-0.03401625,0.11986441,-0.13351276,0.00000781,0.00000276,0.00
 002320,-0.00000126,-0.00001161,-0.00001927,0.00002523,-0.00008277,-0.0
 0001038,-0.00010129,0.00001895,0.00002891,0.00001819,-0.00012100,-0.00
 000437,0.00007177,-0.00006286,0.00034465,-0.00015719,-0.00112085,-0.00
 001727,-0.00010782,-0.00011770,-0.00004663,0.00025142,0.00002675,0.001
 39203,0.00157791,-0.00232158,-0.00585642,-0.00000657,0.00000077,0.0000
 0110,0.00000415,-0.00000957,0.00000156,0.00000208,-0.00000310,-0.00000
 189,0.03613741,-0.13172474,0.14887119,-0.00011742,-0.00016213,-0.00015
 512,0.00040443,0.00000976,0.00006311,0.00083390,-0.00042161,-0.0007383
 2,0.00007325,0.00000849,-0.00003225,-0.00603717,0.00097511,0.00131670,
 0.00000044,-0.00000800,-0.00000583,-0.29545342,0.05815746,0.03192367,-
 0.00000104,-0.00000519,0.00001100,0.00000398,0.00001346,0.00002477,0.0
 0000162,-0.00000726,0.00000132,0.00005316,0.00007826,-0.00002191,0.000
 00151,0.00004875,0.00007903,-0.00002752,-0.00001354,0.00002856,-0.0000
 4066,-0.00003602,0.00005000,0.00044120,0.00061873,0.00026432,0.0014480
 5,-0.00031512,0.00123757,0.00039601,-0.00027437,0.00039079,0.00000421,
 0.00000386,-0.00000895,-0.00000042,-0.00000451,-0.00000450,0.00000165,
 0.00000536,0.00001230,-0.00612506,0.00096733,0.00041360,0.32048039,0.0
 0007178,-0.00000240,0.00005095,-0.00025079,0.00006008,-0.00008453,0.00
 132721,0.00019191,0.00042193,-0.00007329,-0.00001300,0.00000690,0.0060
 1766,-0.00229944,-0.00073807,0.00000339,0.00000410,0.00001677,0.057822
 07,-0.06140876,-0.00733729,0.00000169,0.00000095,-0.00000563,0.0000025
 5,-0.00000990,-0.00001988,-0.00000132,0.00001491,0.00000315,-0.0000735
 1,-0.00003055,0.00002887,-0.00000320,-0.00001897,-0.00002286,0.0000113
 0,-0.00002074,0.00003005,0.00005363,-0.00002237,-0.00000849,-0.0004206
 9,-0.00006802,-0.00032335,-0.00000490,0.00057254,-0.00138603,-0.000633
 08,0.00024914,0.00005569,-0.00000330,-0.00000223,0.00000206,-0.0000000
 9,0.00000245,0.00000063,-0.00000604,0.00000194,0.00000107,0.02539926,-
 0.00563337,-0.00406641,-0.06412215,0.06165633,0.00022750,0.00014707,-0
 .00014779,-0.00009614,0.00027038,-0.00001834,0.00150185,0.00114335,0.0
 0152810,-0.00016260,-0.00010356,0.00006299,0.03302979,-0.00856040,-0.0
 0540314,-0.00000854,0.00001269,0.00001080,0.03089023,-0.00707295,-0.05
 020051,0.00000395,0.00000927,-0.00001832,0.00000008,-0.00003205,-0.000
 07433,-0.00000356,0.00001917,0.00002619,-0.00020779,-0.00017241,0.0000
 7897,-0.00004834,0.00001467,0.00001060,0.00001689,0.00002633,-0.000040
 77,-0.00013957,-0.00002845,-0.00001716,-0.00096162,-0.00026863,0.00006
 883,0.00084343,-0.00175735,-0.00629190,-0.00027142,0.00064247,0.001452
 09,-0.00000571,-0.00000147,0.00001084,0.00000012,0.00000120,0.00000421
 ,-0.00000092,-0.00000414,-0.00000691,-0.01870742,0.00294868,0.00203814
 ,-0.03672511,0.00952083,0.05668838,0.00000191,-0.00002068,-0.00017861,
 0.00063630,0.00012671,0.00035407,-0.00008535,0.00017600,0.00099811,0.0
 0003965,-0.00001031,0.00002042,0.00360385,0.00717055,0.00237316,-0.000
 00954,-0.00000465,-0.00002225,-0.13009416,-0.11619500,-0.04486176,-0.0
 0000116,0.00000431,-0.00000515,-0.00000345,-0.00000740,-0.00000694,-0.
 00000433,0.00000265,0.00000018,-0.00001972,-0.00001474,0.00001118,-0.0
 0001134,0.00001897,0.00013052,-0.00000432,0.00001639,0.00001188,-0.000
 09798,-0.00020587,0.00003065,0.00057927,0.00015578,0.00012131,0.000482
 40,0.00018312,-0.00056846,-0.00002248,-0.00017008,-0.00054400,0.000000
 02,0.00000093,0.00000469,0.00000009,0.00000125,0.00000291,0.00000874,-
 0.00000474,-0.00000896,0.00406960,0.00667489,0.00331315,-0.01634112,-0
 .02511819,-0.00917511,0.13727312,-0.00012172,-0.00000814,-0.00002369,-
 0.00054172,-0.00013708,0.00025869,0.00097368,0.00080817,-0.00198089,0.
 00006694,0.00000319,0.00003391,-0.00242932,-0.00458062,-0.00038644,-0.
 00002090,-0.00001028,-0.00003215,-0.11582066,-0.21066515,-0.06270665,-
 0.00000395,0.00000028,-0.00000065,0.00000200,0.00000478,0.00000365,0.0
 0000249,-0.00001052,0.00001349,0.00001698,0.00002521,-0.00000226,0.000
 01377,-0.00005589,-0.00019618,0.00000428,0.00000704,-0.00011904,0.0000
 9104,0.00050054,0.00015339,-0.00006463,0.00001318,0.00013814,0.0003142
 7,-0.00012277,-0.00003887,0.00017188,0.00053980,-0.00025235,0.00000794
 ,0.00000925,0.00000116,0.00000247,-0.00000505,0.00000588,0.00001966,-0
 .00000720,-0.00001727,-0.01438791,-0.01920769,-0.00798450,0.00448330,0
 .00677539,0.00324531,0.12722012,0.22612356,-0.00027030,-0.00000137,-0.
 00001328,-0.00118576,-0.00184488,0.00012673,0.00265558,0.00043604,-0.0
 0643772,0.00012992,-0.00000307,0.00002955,-0.01911487,-0.02572655,-0.0
 0843672,-0.00002211,-0.00000656,-0.00005016,-0.04405587,-0.06179005,-0
 .07048838,-0.00001148,0.00000196,-0.00000152,0.00000530,0.00002336,0.0
 0001977,0.00002194,-0.00001990,0.00000957,0.00007202,0.00004838,0.0000
 0760,0.00004222,-0.00018374,-0.00071983,-0.00002304,0.00009557,0.00003
 559,0.00019560,-0.00022842,0.00010347,0.00006760,0.00033508,-0.0000023
 2,0.00035883,0.00021860,0.00136385,-0.00051344,0.00072475,0.00105805,0
 .00001632,0.00000823,0.00000084,0.00000448,-0.00000419,0.00000662,0.00
 002661,-0.00000965,-0.00002179,0.01172616,0.01418550,0.00580173,0.0018
 7528,0.00385365,0.00023903,0.04799899,0.06988730,0.07736931\\-0.000000
 31,0.00000007,-0.00000005,-0.00000005,-0.00000073,0.00000089,0.0000007
 5,-0.00000058,0.00000082,-0.00000124,-0.00000005,-0.00000017,0.0000004
 6,0.00000030,-0.00000003,-0.00000108,0.00000046,-0.00000124,0.00000148
 ,0.00000037,0.00000016,-0.00000216,-0.00000059,-0.00000008,-0.00000068
 ,-0.00000069,0.00000059,0.00000072,0.00000042,-0.00000028,-0.00000065,
 0.00000057,-0.00000088,0.00000012,-0.00000120,0.00000161,-0.00000117,-
 0.00000102,0.00000092,0.00000187,-0.00000017,0.00000082,0.00000087,-0.
 00000119,0.00000163,0.00000054,0.00000075,-0.00000085,-0.00000054,-0.0
 0000013,-0.00000002,-0.00000169,0.00000104,-0.00000189,-0.00000026,0.0
 0000094,-0.00000126,-0.00000191,0.00000034,-0.00000115,0.00000246,0.00
 000062,0.00000011,0.00000134,-0.00000034,0.00000088,0.00000112,0.00000
 081,-0.00000053\\\@


 THESE ARE THE TIMES THAT TRY MENS SOULS.
 THE SUMMER SOLDIER AND THE SUNSHINE PATRIOT WILL IN THIS CRISIS,
 SHRINK FROM THE SERVICE OF HIS COUNTRY.  BUT HE THAT STANDS NOW,
 DESERVES THE LOVE AND THANKS OF MAN AND WOMAN.
 TYRANNY, LIKE HELL, IS NOT EASILY CONQUERED,
 YET WE HAVE THIS CONSOLATION WITH US,
 THAT THE HARDER THE CONFLICT, THE MORE GLORIOUS THE TRIUMPH.
 WHAT WE OBTAIN TOO CHEAP, WE ESTEEM TOO LIGHTLY, 
 'TIS DEARNESS ONLY THAT GIVES EVERYTHING ITS VALUE.

                                              -- TOM PAINE
 Job cpu time:       0 days  4 hours 58 minutes 35.0 seconds.
 Elapsed time:       0 days  2 hours 29 minutes 19.0 seconds.
 File lengths (MBytes):  RWF=   1488 Int=      0 D2E=      0 Chk=     32 Scr=     32
 Normal termination of Gaussian 16 at Sun Sep 29 08:54:41 2019.
