 Entering Gaussian System, Link 0=g16
 Input=tight/species/CCCCCCC/conformers/CCCCCCC_342.com
 Output=tight/species/CCCCCCC/conformers/CCCCCCC_342.log
 Initial command:
 /shared/centos7/gaussian/g16/l1.exe "/scratch/harms.n/gauss_scrdir/Gau-11262.inp" -scrdir="/scratch/harms.n/gauss_scrdir/"
 Entering Link 1 = /shared/centos7/gaussian/g16/l1.exe PID=     11263.
  
 Copyright (c) 1988,1990,1992,1993,1995,1998,2003,2009,2016,
            Gaussian, Inc.  All Rights Reserved.
  
 This is part of the Gaussian(R) 16 program.  It is based on
 the Gaussian(R) 09 system (copyright 2009, Gaussian, Inc.),
 the Gaussian(R) 03 system (copyright 2003, Gaussian, Inc.),
 the Gaussian(R) 98 system (copyright 1998, Gaussian, Inc.),
 the Gaussian(R) 94 system (copyright 1995, Gaussian, Inc.),
 the Gaussian 92(TM) system (copyright 1992, Gaussian, Inc.),
 the Gaussian 90(TM) system (copyright 1990, Gaussian, Inc.),
 the Gaussian 88(TM) system (copyright 1988, Gaussian, Inc.),
 the Gaussian 86(TM) system (copyright 1986, Carnegie Mellon
 University), and the Gaussian 82(TM) system (copyright 1983,
 Carnegie Mellon University). Gaussian is a federally registered
 trademark of Gaussian, Inc.
  
 This software contains proprietary and confidential information,
 including trade secrets, belonging to Gaussian, Inc.
  
 This software is provided under written license and may be
 used, copied, transmitted, or stored only in accord with that
 written license.
  
 The following legend is applicable only to US Government
 contracts under FAR:
  
                    RESTRICTED RIGHTS LEGEND
  
 Use, reproduction and disclosure by the US Government is
 subject to restrictions as set forth in subparagraphs (a)
 and (c) of the Commercial Computer Software - Restricted
 Rights clause in FAR 52.227-19.
  
 Gaussian, Inc.
 340 Quinnipiac St., Bldg. 40, Wallingford CT 06492
  
  
 ---------------------------------------------------------------
 Warning -- This program may not be used in any manner that
 competes with the business of Gaussian, Inc. or will provide
 assistance to any competitor of Gaussian, Inc.  The licensee
 of this program is prohibited from giving any competitor of
 Gaussian, Inc. access to this program.  By using this program,
 the user acknowledges that Gaussian, Inc. is engaged in the
 business of creating and licensing software in the field of
 computational chemistry and represents and warrants to the
 licensee that it is not a competitor of Gaussian, Inc. and that
 it will not use this program in any manner prohibited above.
 ---------------------------------------------------------------
  

 Cite this work as:
 Gaussian 16, Revision A.03,
 M. J. Frisch, G. W. Trucks, H. B. Schlegel, G. E. Scuseria, 
 M. A. Robb, J. R. Cheeseman, G. Scalmani, V. Barone, 
 G. A. Petersson, H. Nakatsuji, X. Li, M. Caricato, A. V. Marenich, 
 J. Bloino, B. G. Janesko, R. Gomperts, B. Mennucci, H. P. Hratchian, 
 J. V. Ortiz, A. F. Izmaylov, J. L. Sonnenberg, D. Williams-Young, 
 F. Ding, F. Lipparini, F. Egidi, J. Goings, B. Peng, A. Petrone, 
 T. Henderson, D. Ranasinghe, V. G. Zakrzewski, J. Gao, N. Rega, 
 G. Zheng, W. Liang, M. Hada, M. Ehara, K. Toyota, R. Fukuda, 
 J. Hasegawa, M. Ishida, T. Nakajima, Y. Honda, O. Kitao, H. Nakai, 
 T. Vreven, K. Throssell, J. A. Montgomery, Jr., J. E. Peralta, 
 F. Ogliaro, M. J. Bearpark, J. J. Heyd, E. N. Brothers, K. N. Kudin, 
 V. N. Staroverov, T. A. Keith, R. Kobayashi, J. Normand, 
 K. Raghavachari, A. P. Rendell, J. C. Burant, S. S. Iyengar, 
 J. Tomasi, M. Cossi, J. M. Millam, M. Klene, C. Adamo, R. Cammi, 
 J. W. Ochterski, R. L. Martin, K. Morokuma, O. Farkas, 
 J. B. Foresman, and D. J. Fox, Gaussian, Inc., Wallingford CT, 2016.
 
 ******************************************
 Gaussian 16:  EM64L-G16RevA.03 25-Dec-2016
                29-Sep-2019 
 ******************************************
 %nprocshared=20
 Will use up to   20 processors via shared memory.
 %mem=5GB
 ----------------------------------------------------------------------
 #p m062x/cc-pVTZ opt=(calcfc,maxcycles=900,Tight) freq IOP(7/33=1,2/16
 =3) scf=(maxcycle=900)
 ----------------------------------------------------------------------
 1/6=900,7=10,10=4,18=20,19=15,26=3,38=1/1,3;
 2/9=110,12=2,16=3,17=6,18=5,40=1/2;
 3/5=16,6=1,11=2,25=1,30=1,71=2,74=-55,140=1/1,2,3;
 4//1;
 5/5=2,7=900,38=5/2;
 8/6=4,10=90,11=11/1;
 11/6=1,8=1,9=11,15=111,16=1/1,2,10;
 10/6=1,13=1/2;
 6/7=2,8=2,9=2,10=2,28=1/1;
 7/10=1,18=20,25=1,33=1/1,2,3,16;
 1/6=900,7=10,10=4,18=20,19=15,26=3/3(2);
 2/9=110,16=3/2;
 99//99;
 2/9=110,16=3/2;
 3/5=16,6=1,11=2,25=1,30=1,71=1,74=-55/1,2,3;
 4/5=5,16=3,69=1/1;
 5/5=2,7=900,38=5/2;
 7/33=1/1,2,3,16;
 1/6=900,7=10,18=20,19=15,26=3/3(-5);
 2/9=110,16=3/2;
 6/7=2,8=2,9=2,10=2,19=2,28=1/1;
 99/9=1/99;
 Leave Link    1 at Sun Sep 29 01:50:44 2019, MaxMem=   671088640 cpu:               5.4 elap:               2.7
 (Enter /shared/centos7/gaussian/g16/l101.exe)
 ------------------------------
 Gaussian input prepared by ASE
 ------------------------------
 Symbolic Z-matrix:
 Charge =  0 Multiplicity = 1
 C                     1.38538  -1.14511   0.5062 
 C                     0.13235  -0.44399   0.90659 
 C                     0.35528   0.92155   1.50708 
 C                     2.13638  -0.46791  -0.59035 
 C                    -0.93351   1.63567   1.83992 
 C                     3.36135  -1.17269  -1.00547 
 C                    -0.75394   3.01036   2.42974 
 H                     2.39058   0.5799   -0.26384 
 H                     1.45765  -0.3408   -1.46724 
 H                     1.13366  -2.17983   0.19063 
 H                     2.05171  -1.25597   1.38618 
 H                    -0.41542  -1.06991   1.62829 
 H                    -0.53069  -0.34354   0.02142 
 H                     0.94432   1.53437   0.8038 
 H                     0.97493   0.82807   2.42274 
 H                    -1.54841   1.72082   0.90603 
 H                    -1.52949   1.02453   2.53891 
 H                     3.5499   -2.07709  -0.39689 
 H                     3.30362  -1.50587  -2.08399 
 H                     4.25955  -0.52586  -0.91411 
 H                     0.07698   3.54905   1.97262 
 H                    -0.56628   2.95661   3.53779 
 H                    -1.69201   3.61786   2.27854 
 
 ITRead=  0  0  0  0  0  0  0  0  0  0  0  0  0  0  0  0  0  0  0  0
 ITRead=  0  0  0
 MicOpt= -1 -1 -1 -1 -1 -1 -1 -1 -1 -1 -1 -1 -1 -1 -1 -1 -1 -1 -1 -1
 MicOpt= -1 -1 -1
 NAtoms=     23 NQM=       23 NQMF=       0 NMMI=      0 NMMIF=      0
                NMic=       0 NMicF=      0.
                    Isotopes and Nuclear Properties:
 (Nuclear quadrupole moments (NQMom) in fm**2, nuclear magnetic moments (NMagM)
  in nuclear magnetons)

  Atom         1           2           3           4           5           6           7           8           9          10
 IAtWgt=          12          12          12          12          12          12          12           1           1           1
 AtmWgt=  12.0000000  12.0000000  12.0000000  12.0000000  12.0000000  12.0000000  12.0000000   1.0078250   1.0078250   1.0078250
 NucSpn=           0           0           0           0           0           0           0           1           1           1
 AtZEff=  -0.0000000  -0.0000000  -0.0000000  -0.0000000  -0.0000000  -0.0000000  -0.0000000  -0.0000000  -0.0000000  -0.0000000
 NQMom=    0.0000000   0.0000000   0.0000000   0.0000000   0.0000000   0.0000000   0.0000000   0.0000000   0.0000000   0.0000000
 NMagM=    0.0000000   0.0000000   0.0000000   0.0000000   0.0000000   0.0000000   0.0000000   2.7928460   2.7928460   2.7928460
 AtZNuc=   6.0000000   6.0000000   6.0000000   6.0000000   6.0000000   6.0000000   6.0000000   1.0000000   1.0000000   1.0000000

  Atom        11          12          13          14          15          16          17          18          19          20
 IAtWgt=           1           1           1           1           1           1           1           1           1           1
 AtmWgt=   1.0078250   1.0078250   1.0078250   1.0078250   1.0078250   1.0078250   1.0078250   1.0078250   1.0078250   1.0078250
 NucSpn=           1           1           1           1           1           1           1           1           1           1
 AtZEff=  -0.0000000  -0.0000000  -0.0000000  -0.0000000  -0.0000000  -0.0000000  -0.0000000  -0.0000000  -0.0000000  -0.0000000
 NQMom=    0.0000000   0.0000000   0.0000000   0.0000000   0.0000000   0.0000000   0.0000000   0.0000000   0.0000000   0.0000000
 NMagM=    2.7928460   2.7928460   2.7928460   2.7928460   2.7928460   2.7928460   2.7928460   2.7928460   2.7928460   2.7928460
 AtZNuc=   1.0000000   1.0000000   1.0000000   1.0000000   1.0000000   1.0000000   1.0000000   1.0000000   1.0000000   1.0000000

  Atom        21          22          23
 IAtWgt=           1           1           1
 AtmWgt=   1.0078250   1.0078250   1.0078250
 NucSpn=           1           1           1
 AtZEff=  -0.0000000  -0.0000000  -0.0000000
 NQMom=    0.0000000   0.0000000   0.0000000
 NMagM=    2.7928460   2.7928460   2.7928460
 AtZNuc=   1.0000000   1.0000000   1.0000000
 Leave Link  101 at Sun Sep 29 01:50:47 2019, MaxMem=   671088640 cpu:               6.8 elap:               3.4
 (Enter /shared/centos7/gaussian/g16/l103.exe)

 GradGradGradGradGradGradGradGradGradGradGradGradGradGradGradGradGradGrad
 Berny optimization.
 Initialization pass.
                           ----------------------------
                           !    Initial Parameters    !
                           ! (Angstroms and Degrees)  !
 --------------------------                            --------------------------
 ! Name  Definition              Value          Derivative Info.                !
 --------------------------------------------------------------------------------
 ! R1    R(1,2)                  1.4906         calculate D2E/DX2 analytically  !
 ! R2    R(1,4)                  1.4917         calculate D2E/DX2 analytically  !
 ! R3    R(1,10)                 1.1107         calculate D2E/DX2 analytically  !
 ! R4    R(1,11)                 1.1093         calculate D2E/DX2 analytically  !
 ! R5    R(2,3)                  1.5083         calculate D2E/DX2 analytically  !
 ! R6    R(2,12)                 1.1012         calculate D2E/DX2 analytically  !
 ! R7    R(2,13)                 1.1105         calculate D2E/DX2 analytically  !
 ! R8    R(3,5)                  1.5105         calculate D2E/DX2 analytically  !
 ! R9    R(3,14)                 1.1032         calculate D2E/DX2 analytically  !
 ! R10   R(3,15)                 1.1096         calculate D2E/DX2 analytically  !
 ! R11   R(4,6)                  1.473          calculate D2E/DX2 analytically  !
 ! R12   R(4,8)                  1.1266         calculate D2E/DX2 analytically  !
 ! R13   R(4,9)                  1.1161         calculate D2E/DX2 analytically  !
 ! R14   R(5,7)                  1.5066         calculate D2E/DX2 analytically  !
 ! R15   R(5,16)                 1.1214         calculate D2E/DX2 analytically  !
 ! R16   R(5,17)                 1.1033         calculate D2E/DX2 analytically  !
 ! R17   R(6,18)                 1.1063         calculate D2E/DX2 analytically  !
 ! R18   R(6,19)                 1.1303         calculate D2E/DX2 analytically  !
 ! R19   R(6,20)                 1.1106         calculate D2E/DX2 analytically  !
 ! R20   R(7,21)                 1.0907         calculate D2E/DX2 analytically  !
 ! R21   R(7,22)                 1.1251         calculate D2E/DX2 analytically  !
 ! R22   R(7,23)                 1.1278         calculate D2E/DX2 analytically  !
 ! A1    A(2,1,4)              114.025          calculate D2E/DX2 analytically  !
 ! A2    A(2,1,10)             108.9047         calculate D2E/DX2 analytically  !
 ! A3    A(2,1,11)             109.8062         calculate D2E/DX2 analytically  !
 ! A4    A(4,1,10)             109.1589         calculate D2E/DX2 analytically  !
 ! A5    A(4,1,11)             109.0319         calculate D2E/DX2 analytically  !
 ! A6    A(10,1,11)            105.57           calculate D2E/DX2 analytically  !
 ! A7    A(1,2,3)              114.113          calculate D2E/DX2 analytically  !
 ! A8    A(1,2,12)             109.0765         calculate D2E/DX2 analytically  !
 ! A9    A(1,2,13)             109.289          calculate D2E/DX2 analytically  !
 ! A10   A(3,2,12)             109.0983         calculate D2E/DX2 analytically  !
 ! A11   A(3,2,13)             108.8862         calculate D2E/DX2 analytically  !
 ! A12   A(12,2,13)            106.0691         calculate D2E/DX2 analytically  !
 ! A13   A(2,3,5)              112.9317         calculate D2E/DX2 analytically  !
 ! A14   A(2,3,14)             109.1483         calculate D2E/DX2 analytically  !
 ! A15   A(2,3,15)             109.561          calculate D2E/DX2 analytically  !
 ! A16   A(5,3,14)             109.4758         calculate D2E/DX2 analytically  !
 ! A17   A(5,3,15)             109.5402         calculate D2E/DX2 analytically  !
 ! A18   A(14,3,15)            105.9437         calculate D2E/DX2 analytically  !
 ! A19   A(1,4,6)              114.1205         calculate D2E/DX2 analytically  !
 ! A20   A(1,4,8)              108.8324         calculate D2E/DX2 analytically  !
 ! A21   A(1,4,9)              108.85           calculate D2E/DX2 analytically  !
 ! A22   A(6,4,8)              109.8195         calculate D2E/DX2 analytically  !
 ! A23   A(6,4,9)              109.8035         calculate D2E/DX2 analytically  !
 ! A24   A(8,4,9)              105.011          calculate D2E/DX2 analytically  !
 ! A25   A(3,5,7)              114.578          calculate D2E/DX2 analytically  !
 ! A26   A(3,5,16)             108.677          calculate D2E/DX2 analytically  !
 ! A27   A(3,5,17)             109.7925         calculate D2E/DX2 analytically  !
 ! A28   A(7,5,16)             108.7898         calculate D2E/DX2 analytically  !
 ! A29   A(7,5,17)             108.7702         calculate D2E/DX2 analytically  !
 ! A30   A(16,5,17)            105.8713         calculate D2E/DX2 analytically  !
 ! A31   A(4,6,18)             112.2017         calculate D2E/DX2 analytically  !
 ! A32   A(4,6,19)             111.561          calculate D2E/DX2 analytically  !
 ! A33   A(4,6,20)             111.7606         calculate D2E/DX2 analytically  !
 ! A34   A(18,6,19)            107.0159         calculate D2E/DX2 analytically  !
 ! A35   A(18,6,20)            107.0389         calculate D2E/DX2 analytically  !
 ! A36   A(19,6,20)            106.9465         calculate D2E/DX2 analytically  !
 ! A37   A(5,7,21)             112.1712         calculate D2E/DX2 analytically  !
 ! A38   A(5,7,22)             111.2128         calculate D2E/DX2 analytically  !
 ! A39   A(5,7,23)             109.8689         calculate D2E/DX2 analytically  !
 ! A40   A(21,7,22)            108.0168         calculate D2E/DX2 analytically  !
 ! A41   A(21,7,23)            108.1463         calculate D2E/DX2 analytically  !
 ! A42   A(22,7,23)            107.2481         calculate D2E/DX2 analytically  !
 ! D1    D(4,1,2,3)            -64.4854         calculate D2E/DX2 analytically  !
 ! D2    D(4,1,2,12)           173.2326         calculate D2E/DX2 analytically  !
 ! D3    D(4,1,2,13)            57.6807         calculate D2E/DX2 analytically  !
 ! D4    D(10,1,2,3)           173.3428         calculate D2E/DX2 analytically  !
 ! D5    D(10,1,2,12)           51.0608         calculate D2E/DX2 analytically  !
 ! D6    D(10,1,2,13)          -64.4912         calculate D2E/DX2 analytically  !
 ! D7    D(11,1,2,3)            58.1987         calculate D2E/DX2 analytically  !
 ! D8    D(11,1,2,12)          -64.0833         calculate D2E/DX2 analytically  !
 ! D9    D(11,1,2,13)         -179.6352         calculate D2E/DX2 analytically  !
 ! D10   D(2,1,4,6)           -178.8804         calculate D2E/DX2 analytically  !
 ! D11   D(2,1,4,8)             58.0802         calculate D2E/DX2 analytically  !
 ! D12   D(2,1,4,9)            -55.8485         calculate D2E/DX2 analytically  !
 ! D13   D(10,1,4,6)           -56.8483         calculate D2E/DX2 analytically  !
 ! D14   D(10,1,4,8)          -179.8877         calculate D2E/DX2 analytically  !
 ! D15   D(10,1,4,9)            66.1836         calculate D2E/DX2 analytically  !
 ! D16   D(11,1,4,6)            58.0135         calculate D2E/DX2 analytically  !
 ! D17   D(11,1,4,8)           -65.0258         calculate D2E/DX2 analytically  !
 ! D18   D(11,1,4,9)          -178.9546         calculate D2E/DX2 analytically  !
 ! D19   D(1,2,3,5)            177.1577         calculate D2E/DX2 analytically  !
 ! D20   D(1,2,3,14)            55.1439         calculate D2E/DX2 analytically  !
 ! D21   D(1,2,3,15)           -60.4485         calculate D2E/DX2 analytically  !
 ! D22   D(12,2,3,5)           -60.5723         calculate D2E/DX2 analytically  !
 ! D23   D(12,2,3,14)          177.414          calculate D2E/DX2 analytically  !
 ! D24   D(12,2,3,15)           61.8215         calculate D2E/DX2 analytically  !
 ! D25   D(13,2,3,5)            54.7709         calculate D2E/DX2 analytically  !
 ! D26   D(13,2,3,14)          -67.2428         calculate D2E/DX2 analytically  !
 ! D27   D(13,2,3,15)          177.1648         calculate D2E/DX2 analytically  !
 ! D28   D(2,3,5,7)           -179.415          calculate D2E/DX2 analytically  !
 ! D29   D(2,3,5,16)           -57.5119         calculate D2E/DX2 analytically  !
 ! D30   D(2,3,5,17)            57.8576         calculate D2E/DX2 analytically  !
 ! D31   D(14,3,5,7)           -57.5855         calculate D2E/DX2 analytically  !
 ! D32   D(14,3,5,16)           64.3176         calculate D2E/DX2 analytically  !
 ! D33   D(14,3,5,17)          179.687          calculate D2E/DX2 analytically  !
 ! D34   D(15,3,5,7)            58.1795         calculate D2E/DX2 analytically  !
 ! D35   D(15,3,5,16)         -179.9174         calculate D2E/DX2 analytically  !
 ! D36   D(15,3,5,17)          -64.5479         calculate D2E/DX2 analytically  !
 ! D37   D(1,4,6,18)            -2.5897         calculate D2E/DX2 analytically  !
 ! D38   D(1,4,6,19)           117.4844         calculate D2E/DX2 analytically  !
 ! D39   D(1,4,6,20)          -122.8336         calculate D2E/DX2 analytically  !
 ! D40   D(8,4,6,18)           119.9119         calculate D2E/DX2 analytically  !
 ! D41   D(8,4,6,19)          -120.014          calculate D2E/DX2 analytically  !
 ! D42   D(8,4,6,20)            -0.332          calculate D2E/DX2 analytically  !
 ! D43   D(9,4,6,18)          -125.1021         calculate D2E/DX2 analytically  !
 ! D44   D(9,4,6,19)            -5.028          calculate D2E/DX2 analytically  !
 ! D45   D(9,4,6,20)           114.654          calculate D2E/DX2 analytically  !
 ! D46   D(3,5,7,21)            37.7571         calculate D2E/DX2 analytically  !
 ! D47   D(3,5,7,22)           -83.3361         calculate D2E/DX2 analytically  !
 ! D48   D(3,5,7,23)           158.0792         calculate D2E/DX2 analytically  !
 ! D49   D(16,5,7,21)          -84.0845         calculate D2E/DX2 analytically  !
 ! D50   D(16,5,7,22)          154.8223         calculate D2E/DX2 analytically  !
 ! D51   D(16,5,7,23)           36.2377         calculate D2E/DX2 analytically  !
 ! D52   D(17,5,7,21)          161.0352         calculate D2E/DX2 analytically  !
 ! D53   D(17,5,7,22)           39.942          calculate D2E/DX2 analytically  !
 ! D54   D(17,5,7,23)          -78.6426         calculate D2E/DX2 analytically  !
 --------------------------------------------------------------------------------
 Trust Radius=3.00D-01 FncErr=1.00D-07 GrdErr=1.00D-06 EigMax=2.50D+02 EigMin=1.00D-04
 Number of steps in this run=    138 maximum allowed number of steps=    138.
 GradGradGradGradGradGradGradGradGradGradGradGradGradGradGradGradGradGrad

 Leave Link  103 at Sun Sep 29 01:50:48 2019, MaxMem=   671088640 cpu:               1.6 elap:               0.8
 (Enter /shared/centos7/gaussian/g16/l202.exe)
                          Input orientation:                          
 ---------------------------------------------------------------------
 Center     Atomic      Atomic             Coordinates (Angstroms)
 Number     Number       Type             X           Y           Z
 ---------------------------------------------------------------------
      1          6           0        1.385380   -1.145114    0.506199
      2          6           0        0.132355   -0.443987    0.906592
      3          6           0        0.355277    0.921553    1.507080
      4          6           0        2.136376   -0.467910   -0.590352
      5          6           0       -0.933506    1.635665    1.839924
      6          6           0        3.361346   -1.172686   -1.005474
      7          6           0       -0.753938    3.010362    2.429745
      8          1           0        2.390581    0.579899   -0.263836
      9          1           0        1.457653   -0.340803   -1.467241
     10          1           0        1.133658   -2.179827    0.190632
     11          1           0        2.051706   -1.255970    1.386178
     12          1           0       -0.415421   -1.069905    1.628293
     13          1           0       -0.530693   -0.343541    0.021417
     14          1           0        0.944321    1.534367    0.803795
     15          1           0        0.974929    0.828072    2.422743
     16          1           0       -1.548407    1.720818    0.906026
     17          1           0       -1.529486    1.024530    2.538910
     18          1           0        3.549899   -2.077094   -0.396891
     19          1           0        3.303620   -1.505866   -2.083989
     20          1           0        4.259548   -0.525864   -0.914107
     21          1           0        0.076984    3.549050    1.972620
     22          1           0       -0.566285    2.956609    3.537787
     23          1           0       -1.692005    3.617856    2.278535
 ---------------------------------------------------------------------
                    Distance matrix (angstroms):
                    1          2          3          4          5
     1  C    0.000000
     2  C    1.490625   0.000000
     3  C    2.516741   1.508304   0.000000
     4  C    1.491652   2.501503   3.082555   0.000000
     5  C    3.858599   2.516371   1.510531   4.444710   0.000000
     6  C    2.488043   3.822745   4.442434   1.472952   5.867613
     7  C    5.054175   3.877891   2.538659   5.438132   1.506627
     8  H    2.139872   2.741866   2.719437   1.126559   4.073083
     9  H    2.132276   2.720688   3.413995   1.116134   4.534468
    10  H    1.110665   2.127991   3.457957   2.132145   4.642339
    11  H    1.109344   2.138510   2.762986   2.129526   4.180781
    12  H    2.123119   1.101220   2.138826   3.434597   2.762845
    13  H    2.132807   1.110520   2.143035   2.739158   2.717808
    14  H    2.731797   2.140968   1.103233   2.715466   2.147105
    15  H    2.781200   2.150995   1.109570   3.479551   2.152675
    16  H    4.120744   2.740683   2.150373   4.539527   1.121392
    17  H    4.163617   2.753674   2.151188   5.045613   1.103295
    18  H    2.523748   4.005710   4.777301   2.150569   6.236092
    19  H    3.243280   4.486433   5.242220   2.161195   6.574158
    20  H    3.265207   4.511692   4.816689   2.148495   6.262962
    21  H    5.088956   4.133259   2.682893   5.190944   2.167889
    22  H    5.461103   4.356069   3.019022   6.006100   2.182311
    23  H    5.941158   4.659302   3.472255   6.291304   2.167206
                    6          7          8          9         10
     6  C    0.000000
     7  C    6.799572   0.000000
     8  H    2.136344   4.801097   0.000000
     9  H    2.128217   5.595349   1.779390   0.000000
    10  H    2.721690   5.959421   3.066347   2.497103   0.000000
    11  H    2.728020   5.211742   2.491545   3.054902   1.767952
    12  H    4.605569   4.171990   3.765057   3.690843   2.387141
    13  H    4.109739   4.135039   3.077004   2.483874   2.484078
    14  H    4.055072   2.776032   2.035317   2.989545   3.769225
    15  H    4.631489   2.784137   3.046862   4.090387   3.748996
    16  H    6.010980   2.148447   4.264493   4.349606   4.787514
    17  H    6.427337   2.134695   4.839422   5.180384   4.782744
    18  H    1.106291   7.238445   2.901953   2.921960   2.488766
    19  H    1.130281   7.565308   2.914963   2.268336   3.215099
    20  H    1.110627   6.987222   2.266848   2.861961   3.705027
    21  H    6.476950   1.090678   4.378394   5.373067   6.091968
    22  H    7.288249   1.125104   5.370674   6.326100   6.362092
    23  H    7.698726   1.127778   5.688616   6.294614   6.779147
                   11         12         13         14         15
    11  H    0.000000
    12  H    2.485952   0.000000
    13  H    3.060046   1.767185   0.000000
    14  H    3.058014   3.051382   2.512831   0.000000
    15  H    2.564595   2.483252   3.066910   1.766573   0.000000
    16  H    4.696022   3.097332   2.465736   2.501781   3.076467
    17  H    4.399364   2.541067   3.034300   3.064356   2.514793
    18  H    2.469446   4.565037   4.453248   4.612303   4.797999
    19  H    3.697540   5.272795   4.526112   4.811300   5.583969
    20  H    3.270922   5.349309   4.884143   4.264560   4.874057
    21  H    5.227969   4.657872   4.396445   2.485432   2.900455
    22  H    5.406395   4.458894   4.822562   3.432114   2.854703
    23  H    6.210141   4.901794   4.704880   3.669605   3.862153
                   16         17         18         19         20
    16  H    0.000000
    17  H    1.775243   0.000000
    18  H    6.489565   6.636200   0.000000
    19  H    6.549340   7.150735   1.798125   0.000000
    20  H    6.487897   6.916643   1.782534   1.800785   0.000000
    21  H    2.668699   3.045428   7.023477   7.240127   6.513982
    22  H    3.068861   2.378747   7.600186   8.154398   7.432068
    23  H    2.345881   2.611427   8.189501   8.380956   7.923658
                   21         22         23
    21  H    0.000000
    22  H    1.792910   0.000000
    23  H    1.796563   1.813893   0.000000
 Stoichiometry    C7H16
 Framework group  C1[X(C7H16)]
 Deg. of freedom    63
 Full point group                 C1      NOp   1
 Largest Abelian subgroup         C1      NOp   1
 Largest concise Abelian subgroup C1      NOp   1
                         Standard orientation:                         
 ---------------------------------------------------------------------
 Center     Atomic      Atomic             Coordinates (Angstroms)
 Number     Number       Type             X           Y           Z
 ---------------------------------------------------------------------
      1          6           0        1.396788    0.775810   -0.300451
      2          6           0       -0.001962    1.055612    0.132184
      3          6           0       -0.992615   -0.013359   -0.256263
      4          6           0        2.002824   -0.425512    0.343420
      5          6           0       -2.387264    0.263347    0.253727
      6          6           0        3.393889   -0.688954   -0.062935
      7          6           0       -3.404832   -0.789325   -0.101748
      8          1           0        1.361587   -1.323099    0.114753
      9          1           0        1.948770   -0.306453    1.451869
     10          1           0        2.026125    1.664028   -0.080040
     11          1           0        1.431810    0.652088   -1.402318
     12          1           0       -0.324857    2.018200   -0.294251
     13          1           0       -0.026049    1.184407    1.234947
     14          1           0       -0.645607   -0.986315    0.131120
     15          1           0       -1.014868   -0.115503   -1.360897
     16          1           0       -2.347860    0.365342    1.369776
     17          1           0       -2.737402    1.238201   -0.126172
     18          1           0        3.750689    0.030885   -0.823464
     19          1           0        4.102881   -0.621430    0.814736
     20          1           0        3.510909   -1.704866   -0.496203
     21          1           0       -2.987720   -1.796171   -0.058648
     22          1           0       -3.814533   -0.626400   -1.136861
     23          1           0       -4.274852   -0.738628    0.614059
 ---------------------------------------------------------------------
 Rotational constants (GHZ):           6.7548406           0.9047588           0.8438968
 Leave Link  202 at Sun Sep 29 01:50:50 2019, MaxMem=   671088640 cpu:               3.6 elap:               1.8
 (Enter /shared/centos7/gaussian/g16/l301.exe)
 Standard basis: CC-pVTZ (5D, 7F)
 Ernie: Thresh=  0.10000D-02 Tol=  0.10000D-05 Strict=F.
 Ernie:  21 primitive shells out of 310 were deleted.
 There are   485 symmetry adapted cartesian basis functions of A   symmetry.
 There are   434 symmetry adapted basis functions of A   symmetry.
   434 basis functions,   636 primitive gaussians,   485 cartesian basis functions
    29 alpha electrons       29 beta electrons
       nuclear repulsion energy       316.2027164140 Hartrees.
 IExCor= 4336 DFT=T Ex+Corr=M062X ExCW=0 ScaHFX=  0.540000
 ScaDFX=  1.000000  1.000000  1.000000  1.000000 ScalE2=  1.000000  1.000000
 IRadAn=      5 IRanWt=     -1 IRanGd=            0 ICorTp=0 IEmpDi=  4
 NAtoms=   23 NActive=   23 NUniq=   23 SFac= 1.00D+00 NAtFMM=   60 NAOKFM=F Big=F
 Integral buffers will be    131072 words long.
 Raffenetti 2 integral format.
 Two-electron integral symmetry is turned on.
 Leave Link  301 at Sun Sep 29 01:50:51 2019, MaxMem=   671088640 cpu:               1.4 elap:               0.7
 (Enter /shared/centos7/gaussian/g16/l302.exe)
 NPDir=0 NMtPBC=     1 NCelOv=     1 NCel=       1 NClECP=     1 NCelD=      1
         NCelK=      1 NCelE2=     1 NClLst=     1 CellRange=     0.0.
 One-electron integrals computed using PRISM.
 One-electron integral symmetry used in STVInt
 NBasis=   434 RedAO= T EigKep=  2.57D-04  NBF=   434
 NBsUse=   434 1.00D-06 EigRej= -1.00D+00 NBFU=   434
 Precomputing XC quadrature grid using
 IXCGrd= 4 IRadAn=           5 IRanWt=          -1 IRanGd=           0 AccXCQ= 0.00D+00.
 Generated NRdTot=       0 NPtTot=           0 NUsed=           0 NTot=          32
 NSgBfM=   485   485   485   485   485 MxSgAt=    23 MxSgA2=    23.
 Leave Link  302 at Sun Sep 29 01:52:00 2019, MaxMem=   671088640 cpu:             137.7 elap:              68.9
 (Enter /shared/centos7/gaussian/g16/l303.exe)
 DipDrv:  MaxL=1.
 Leave Link  303 at Sun Sep 29 01:52:05 2019, MaxMem=   671088640 cpu:              10.8 elap:               5.4
 (Enter /shared/centos7/gaussian/g16/l401.exe)
 ExpMin= 1.03D-01 ExpMax= 8.24D+03 ExpMxC= 2.81D+02 IAcc=3 IRadAn=         5 AccDes= 0.00D+00
 Harris functional with IExCor= 1009 and IRadAn=       5 diagonalized for initial guess.
 HarFok:  IExCor= 1009 AccDes= 0.00D+00 IRadAn=         5 IDoV= 1 UseB2=F ITyADJ=14
 ICtDFT=  3500011 ScaDFX=  1.000000  1.000000  1.000000  1.000000
 FoFCou: FMM=F IPFlag=           0 FMFlag=      100000 FMFlg1=           0
         NFxFlg=           0 DoJE=T BraDBF=F KetDBF=T FulRan=T
         wScrn=  0.000000 ICntrl=       500 IOpCl=  0 I1Cent=   200000004 NGrid=           0
         NMat0=    1 NMatS0=      1 NMatT0=    0 NMatD0=    1 NMtDS0=    0 NMtDT0=    0
 Petite list used in FoFCou.
 Harris En= -276.332849548099    
 JPrj=0 DoOrth=F DoCkMO=F.
 Leave Link  401 at Sun Sep 29 01:52:56 2019, MaxMem=   671088640 cpu:             102.4 elap:              51.2
 (Enter /shared/centos7/gaussian/g16/l502.exe)
 Integral symmetry usage will be decided dynamically.
 Closed shell SCF:
 Using DIIS extrapolation, IDIIS=  1040.
 NGot=   671088640 LenX=   670604095 LenY=   670368385
 Requested convergence on RMS density matrix=1.00D-08 within 900 cycles.
 Requested convergence on MAX density matrix=1.00D-06.
 Requested convergence on             energy=1.00D-06.
 No special actions if energy rises.
 Fock matrices will be formed incrementally for  20 cycles.
 Integral accuracy reduced to 1.0D-05 until final iterations.

 Cycle   1  Pass 0  IDiag  1:
 FoFJK:  IHMeth= 1 ICntrl=       0 DoSepK=F KAlg= 0 I1Cent=           0 FoldK=F
 IRaf= 890000000 NMat=       1 IRICut=       1 DoRegI=T DoRafI=F ISym2E= 0 IDoP0=0 IntGTp=1.
 FoFCou: FMM=F IPFlag=           0 FMFlag=      100000 FMFlg1=           0
         NFxFlg=           0 DoJE=F BraDBF=F KetDBF=F FulRan=T
         wScrn=  0.000000 ICntrl=         0 IOpCl=  0 I1Cent=           0 NGrid=           0
         NMat0=    1 NMatS0=      1 NMatT0=    0 NMatD0=    1 NMtDS0=    0 NMtDT0=    0
 Symmetry not used in FoFCou.
 E= -275.964147222675    
 DIIS: error= 3.17D-02 at cycle   1 NSaved=   1.
 NSaved= 1 IEnMin= 1 EnMin= -275.964147222675     IErMin= 1 ErrMin= 3.17D-02
 ErrMax= 3.17D-02  0.00D+00 EMaxC= 1.00D-01 BMatC= 3.72D-01 BMatP= 3.72D-01
 IDIUse=3 WtCom= 6.83D-01 WtEn= 3.17D-01
 Coeff-Com:  0.100D+01
 Coeff-En:   0.100D+01
 Coeff:      0.100D+01
 Gap=     0.376 Goal=   None    Shift=    0.000
 GapD=    0.376 DampG=1.000 DampE=0.500 DampFc=0.5000 IDamp=-1.
 Damping current iteration by 5.00D-01
 RMSDP=1.88D-03 MaxDP=7.61D-02              OVMax= 1.72D-01

 Cycle   2  Pass 0  IDiag  1:
 RMSU=  9.35D-04    CP:  9.90D-01
 E= -276.145805989000     Delta-E=       -0.181658766325 Rises=F Damp=T
 DIIS: error= 4.33D-03 at cycle   2 NSaved=   2.
 NSaved= 2 IEnMin= 2 EnMin= -276.145805989000     IErMin= 2 ErrMin= 4.33D-03
 ErrMax= 4.33D-03  0.00D+00 EMaxC= 1.00D-01 BMatC= 1.74D-02 BMatP= 3.72D-01
 IDIUse=3 WtCom= 9.57D-01 WtEn= 4.33D-02
 Coeff-Com: -0.680D-01 0.107D+01
 Coeff-En:   0.000D+00 0.100D+01
 Coeff:     -0.650D-01 0.107D+01
 Gap=     0.453 Goal=   None    Shift=    0.000
 RMSDP=4.91D-04 MaxDP=1.78D-02 DE=-1.82D-01 OVMax= 8.56D-02

 Cycle   3  Pass 0  IDiag  1:
 RMSU=  4.81D-04    CP:  9.96D-01  9.04D-01
 E= -276.322574725326     Delta-E=       -0.176768736327 Rises=F Damp=F
 DIIS: error= 1.91D-03 at cycle   3 NSaved=   3.
 NSaved= 3 IEnMin= 3 EnMin= -276.322574725326     IErMin= 3 ErrMin= 1.91D-03
 ErrMax= 1.91D-03  0.00D+00 EMaxC= 1.00D-01 BMatC= 1.57D-03 BMatP= 1.74D-02
 IDIUse=3 WtCom= 9.81D-01 WtEn= 1.91D-02
 Coeff-Com: -0.457D-01 0.187D+00 0.859D+00
 Coeff-En:   0.000D+00 0.000D+00 0.100D+01
 Coeff:     -0.448D-01 0.183D+00 0.862D+00
 Gap=     0.424 Goal=   None    Shift=    0.000
 RMSDP=7.26D-05 MaxDP=3.03D-03 DE=-1.77D-01 OVMax= 7.94D-03

 Cycle   4  Pass 0  IDiag  1:
 RMSU=  5.93D-05    CP:  9.95D-01  9.45D-01  9.68D-01
 E= -276.323926915556     Delta-E=       -0.001352190230 Rises=F Damp=F
 DIIS: error= 5.97D-04 at cycle   4 NSaved=   4.
 NSaved= 4 IEnMin= 4 EnMin= -276.323926915556     IErMin= 4 ErrMin= 5.97D-04
 ErrMax= 5.97D-04  0.00D+00 EMaxC= 1.00D-01 BMatC= 2.17D-04 BMatP= 1.57D-03
 IDIUse=3 WtCom= 9.94D-01 WtEn= 5.97D-03
 Coeff-Com: -0.129D-01 0.352D-01 0.314D+00 0.664D+00
 Coeff-En:   0.000D+00 0.000D+00 0.000D+00 0.100D+01
 Coeff:     -0.128D-01 0.350D-01 0.312D+00 0.666D+00
 Gap=     0.425 Goal=   None    Shift=    0.000
 RMSDP=2.59D-05 MaxDP=1.19D-03 DE=-1.35D-03 OVMax= 2.60D-03

 Cycle   5  Pass 0  IDiag  1:
 RMSU=  1.67D-05    CP:  9.95D-01  9.38D-01  9.93D-01  7.63D-01
 E= -276.324124877817     Delta-E=       -0.000197962261 Rises=F Damp=F
 DIIS: error= 1.44D-04 at cycle   5 NSaved=   5.
 NSaved= 5 IEnMin= 5 EnMin= -276.324124877817     IErMin= 5 ErrMin= 1.44D-04
 ErrMax= 1.44D-04  0.00D+00 EMaxC= 1.00D-01 BMatC= 1.29D-05 BMatP= 2.17D-04
 IDIUse=3 WtCom= 9.99D-01 WtEn= 1.44D-03
 Coeff-Com: -0.237D-03-0.202D-02 0.372D-01 0.219D+00 0.746D+00
 Coeff-En:   0.000D+00 0.000D+00 0.000D+00 0.000D+00 0.100D+01
 Coeff:     -0.237D-03-0.201D-02 0.372D-01 0.219D+00 0.746D+00
 Gap=     0.425 Goal=   None    Shift=    0.000
 RMSDP=5.79D-06 MaxDP=2.50D-04 DE=-1.98D-04 OVMax= 6.09D-04

 Initial convergence to 1.0D-05 achieved.  Increase integral accuracy.
 Cycle   6  Pass 1  IDiag  1:
 E= -276.324107393172     Delta-E=        0.000017484645 Rises=F Damp=F
 DIIS: error= 4.72D-05 at cycle   1 NSaved=   1.
 NSaved= 1 IEnMin= 1 EnMin= -276.324107393172     IErMin= 1 ErrMin= 4.72D-05
 ErrMax= 4.72D-05  0.00D+00 EMaxC= 1.00D-01 BMatC= 1.29D-06 BMatP= 1.29D-06
 IDIUse=1 WtCom= 1.00D+00 WtEn= 0.00D+00
 Coeff-Com:  0.100D+01
 Coeff:      0.100D+01
 Gap=     0.425 Goal=   None    Shift=    0.000
 RMSDP=5.79D-06 MaxDP=2.50D-04 DE= 1.75D-05 OVMax= 2.24D-04

 Cycle   7  Pass 1  IDiag  1:
 RMSU=  1.82D-05    CP:  1.00D+00
 E= -276.324108200267     Delta-E=       -0.000000807094 Rises=F Damp=F
 DIIS: error= 1.91D-05 at cycle   2 NSaved=   2.
 NSaved= 2 IEnMin= 2 EnMin= -276.324108200267     IErMin= 2 ErrMin= 1.91D-05
 ErrMax= 1.91D-05  0.00D+00 EMaxC= 1.00D-01 BMatC= 2.15D-07 BMatP= 1.29D-06
 IDIUse=1 WtCom= 1.00D+00 WtEn= 0.00D+00
 Coeff-Com:  0.217D+00 0.783D+00
 Coeff:      0.217D+00 0.783D+00
 Gap=     0.425 Goal=   None    Shift=    0.000
 RMSDP=1.09D-06 MaxDP=4.29D-05 DE=-8.07D-07 OVMax= 1.11D-04

 Cycle   8  Pass 1  IDiag  1:
 RMSU=  9.95D-07    CP:  1.00D+00  1.02D+00
 E= -276.324108347072     Delta-E=       -0.000000146805 Rises=F Damp=F
 DIIS: error= 1.04D-05 at cycle   3 NSaved=   3.
 NSaved= 3 IEnMin= 3 EnMin= -276.324108347072     IErMin= 3 ErrMin= 1.04D-05
 ErrMax= 1.04D-05  0.00D+00 EMaxC= 1.00D-01 BMatC= 6.87D-08 BMatP= 2.15D-07
 IDIUse=1 WtCom= 1.00D+00 WtEn= 0.00D+00
 Coeff-Com: -0.799D-02 0.354D+00 0.654D+00
 Coeff:     -0.799D-02 0.354D+00 0.654D+00
 Gap=     0.425 Goal=   None    Shift=    0.000
 RMSDP=4.23D-07 MaxDP=1.51D-05 DE=-1.47D-07 OVMax= 4.41D-05

 Cycle   9  Pass 1  IDiag  1:
 RMSU=  2.54D-07    CP:  1.00D+00  1.04D+00  7.24D-01
 E= -276.324108413223     Delta-E=       -0.000000066151 Rises=F Damp=F
 DIIS: error= 1.32D-06 at cycle   4 NSaved=   4.
 NSaved= 4 IEnMin= 4 EnMin= -276.324108413223     IErMin= 4 ErrMin= 1.32D-06
 ErrMax= 1.32D-06  0.00D+00 EMaxC= 1.00D-01 BMatC= 1.01D-09 BMatP= 6.87D-08
 IDIUse=1 WtCom= 1.00D+00 WtEn= 0.00D+00
 Coeff-Com: -0.886D-02 0.884D-01 0.203D+00 0.717D+00
 Coeff:     -0.886D-02 0.884D-01 0.203D+00 0.717D+00
 Gap=     0.425 Goal=   None    Shift=    0.000
 RMSDP=6.45D-08 MaxDP=2.29D-06 DE=-6.62D-08 OVMax= 6.23D-06

 Cycle  10  Pass 1  IDiag  1:
 RMSU=  6.27D-08    CP:  1.00D+00  1.04D+00  7.31D-01  9.70D-01
 E= -276.324108414247     Delta-E=       -0.000000001024 Rises=F Damp=F
 DIIS: error= 2.74D-07 at cycle   5 NSaved=   5.
 NSaved= 5 IEnMin= 5 EnMin= -276.324108414247     IErMin= 5 ErrMin= 2.74D-07
 ErrMax= 2.74D-07  0.00D+00 EMaxC= 1.00D-01 BMatC= 4.08D-11 BMatP= 1.01D-09
 IDIUse=1 WtCom= 1.00D+00 WtEn= 0.00D+00
 Coeff-Com: -0.137D-03-0.227D-01-0.384D-01 0.608D-01 0.100D+01
 Coeff:     -0.137D-03-0.227D-01-0.384D-01 0.608D-01 0.100D+01
 Gap=     0.425 Goal=   None    Shift=    0.000
 RMSDP=2.47D-08 MaxDP=6.45D-07 DE=-1.02D-09 OVMax= 1.79D-06

 Cycle  11  Pass 1  IDiag  1:
 RMSU=  1.31D-08    CP:  1.00D+00  1.04D+00  7.35D-01  1.05D+00  1.09D+00
 E= -276.324108414313     Delta-E=       -0.000000000067 Rises=F Damp=F
 DIIS: error= 1.04D-07 at cycle   6 NSaved=   6.
 NSaved= 6 IEnMin= 6 EnMin= -276.324108414313     IErMin= 6 ErrMin= 1.04D-07
 ErrMax= 1.04D-07  0.00D+00 EMaxC= 1.00D-01 BMatC= 7.44D-12 BMatP= 4.08D-11
 IDIUse=1 WtCom= 1.00D+00 WtEn= 0.00D+00
 Coeff-Com:  0.411D-03-0.136D-01-0.258D-01-0.135D-01 0.408D+00 0.645D+00
 Coeff:      0.411D-03-0.136D-01-0.258D-01-0.135D-01 0.408D+00 0.645D+00
 Gap=     0.425 Goal=   None    Shift=    0.000
 RMSDP=4.37D-09 MaxDP=1.99D-07 DE=-6.65D-11 OVMax= 4.51D-07

 SCF Done:  E(RM062X) =  -276.324108414     A.U. after   11 cycles
            NFock= 11  Conv=0.44D-08     -V/T= 2.0068
 KE= 2.744511950672D+02 PE=-1.270793252504D+03 EE= 4.038152326089D+02
 Leave Link  502 at Sun Sep 29 02:10:11 2019, MaxMem=   671088640 cpu:            2068.9 elap:            1034.7
 (Enter /shared/centos7/gaussian/g16/l801.exe)
 DoSCS=F DFT=T ScalE2(SS,OS)=  1.000000  1.000000
 Range of M.O.s used for correlation:     1   434
 NBasis=   434 NAE=    29 NBE=    29 NFC=     0 NFV=     0
 NROrb=    434 NOA=    29 NOB=    29 NVA=   405 NVB=   405

 **** Warning!!: The largest alpha MO coefficient is  0.10481900D+02

 Leave Link  801 at Sun Sep 29 02:10:12 2019, MaxMem=   671088640 cpu:               2.2 elap:               1.1
 (Enter /shared/centos7/gaussian/g16/l1101.exe)
 Using compressed storage, NAtomX=    23.
 Will process     24 centers per pass.
 Leave Link 1101 at Sun Sep 29 02:10:55 2019, MaxMem=   671088640 cpu:              85.0 elap:              42.5
 (Enter /shared/centos7/gaussian/g16/l1102.exe)
 Symmetrizing basis deriv contribution to polar:
 IMax=3 JMax=2 DiffMx= 0.00D+00
 Leave Link 1102 at Sun Sep 29 02:10:57 2019, MaxMem=   671088640 cpu:               5.1 elap:               2.6
 (Enter /shared/centos7/gaussian/g16/l1110.exe)
 Forming Gx(P) for the SCF density, NAtomX=    23.
 Integral derivatives from FoFJK, PRISM(SPDF).
 Do as many integral derivatives as possible in FoFJK.
 G2DrvN: MDV=     671086848.
 G2DrvN: will do    24 centers at a time, making    1 passes.
 Calling FoFCou, ICntrl=  3107 FMM=F I1Cent=   0 AccDes= 0.00D+00.
 FoFJK:  IHMeth= 1 ICntrl=    3107 DoSepK=F KAlg= 0 I1Cent=           0 FoldK=F
 IRaf=         0 NMat=       1 IRICut=       1 DoRegI=T DoRafI=F ISym2E= 0 IDoP0=0 IntGTp=1.
 FoFCou: FMM=F IPFlag=           0 FMFlag=      100000 FMFlg1=           0
         NFxFlg=           0 DoJE=F BraDBF=F KetDBF=F FulRan=T
         wScrn=  0.000000 ICntrl=      3107 IOpCl=  0 I1Cent=           0 NGrid=           0
         NMat0=    1 NMatS0=      1 NMatT0=    0 NMatD0=    1 NMtDS0=    0 NMtDT0=    0
 Symmetry not used in FoFCou.
 End of G2Drv F.D. properties file   721 does not exist.
 End of G2Drv F.D. properties file   722 does not exist.
 End of G2Drv F.D. properties file   788 does not exist.
 Leave Link 1110 at Sun Sep 29 02:52:07 2019, MaxMem=   671088640 cpu:            4939.0 elap:            2470.0
 (Enter /shared/centos7/gaussian/g16/l1002.exe)
 Minotr:  Closed shell wavefunction.
          IDoAtm=11111111111111111111111
          Direct CPHF calculation.
          Differentiating once with respect to nuclear coordinates.
          Requested convergence is 1.0D-08 RMS, and 1.0D-07 maximum.
          Secondary convergence is 1.0D-12 RMS, and 1.0D-12 maximum.
          NewPWx=T KeepS1=F KeepF1=F KeepIn=T MapXYZ=F SortEE=F KeepMc=T.
         6946 words used for storage of precomputed grid.
 Two-electron integrals replicated using symmetry.
          MDV=     671088640 using IRadAn=       1.
          Solving linear equations simultaneously, MaxMat=     380.
 FoF2E skips out because all densities are zero.
 CalDSu exits because no D1Ps are significant.
 FoFJK:  IHMeth= 1 ICntrl=       0 DoSepK=F KAlg= 0 I1Cent=           0 FoldK=F
 IRaf= 870000000 NMat=      69 IRICut=     172 DoRegI=T DoRafI=T ISym2E= 2 IDoP0=3 IntGTp=3.
 FoFCou: FMM=F IPFlag=           0 FMFlag=      100000 FMFlg1=           0
         NFxFlg=           0 DoJE=F BraDBF=F KetDBF=F FulRan=T
         wScrn=  0.000000 ICntrl=         0 IOpCl=  0 I1Cent=           0 NGrid=           0
         NMat0=   69 NMatS0=     69 NMatT0=    0 NMatD0=   69 NMtDS0=    0 NMtDT0=    0
 Integrals replicated using symmetry in FoFCou.
 Raff kept on since  84.08% of shell-pairs survive, threshold=   0.20 IRatSp=84.
          There are    72 degrees of freedom in the 1st order CPHF.  IDoFFX=6 NUNeed=     0.
     66 vectors produced by pass  0 Test12= 1.63D-14 1.39D-09 XBig12= 5.47D-02 3.70D-02.
 AX will form    66 AO Fock derivatives at one time.
     66 vectors produced by pass  1 Test12= 1.63D-14 1.39D-09 XBig12= 3.15D-03 6.98D-03.
     66 vectors produced by pass  2 Test12= 1.63D-14 1.39D-09 XBig12= 5.17D-05 1.07D-03.
     66 vectors produced by pass  3 Test12= 1.63D-14 1.39D-09 XBig12= 4.12D-07 7.99D-05.
     66 vectors produced by pass  4 Test12= 1.63D-14 1.39D-09 XBig12= 2.19D-09 4.84D-06.
     66 vectors produced by pass  5 Test12= 1.63D-14 1.39D-09 XBig12= 1.14D-11 3.78D-07.
     22 vectors produced by pass  6 Test12= 1.63D-14 1.39D-09 XBig12= 4.20D-14 1.77D-08.
 InvSVY:  IOpt=1 It=  1 EMax= 4.72D-16
 Solved reduced A of dimension   418 with    72 vectors.
 End of Minotr F.D. properties file   721 does not exist.
 End of Minotr F.D. properties file   722 does not exist.
 End of Minotr F.D. properties file   788 does not exist.
 Leave Link 1002 at Sun Sep 29 04:03:59 2019, MaxMem=   671088640 cpu:            8621.9 elap:            4311.8
 (Enter /shared/centos7/gaussian/g16/l601.exe)
 Copying SCF densities to generalized density rwf, IOpCl= 0 IROHF=0.

 **********************************************************************

            Population analysis using the SCF density.

 **********************************************************************

 Orbital symmetries:
       Occupied  (A) (A) (A) (A) (A) (A) (A) (A) (A) (A) (A) (A)
                 (A) (A) (A) (A) (A) (A) (A) (A) (A) (A) (A) (A)
                 (A) (A) (A) (A) (A)
       Virtual   (A) (A) (A) (A) (A) (A) (A) (A) (A) (A) (A) (A)
                 (A) (A) (A) (A) (A) (A) (A) (A) (A) (A) (A) (A)
                 (A) (A) (A) (A) (A) (A) (A) (A) (A) (A) (A) (A)
                 (A) (A) (A) (A) (A) (A) (A) (A) (A) (A) (A) (A)
                 (A) (A) (A) (A) (A) (A) (A) (A) (A) (A) (A) (A)
                 (A) (A) (A) (A) (A) (A) (A) (A) (A) (A) (A) (A)
                 (A) (A) (A) (A) (A) (A) (A) (A) (A) (A) (A) (A)
                 (A) (A) (A) (A) (A) (A) (A) (A) (A) (A) (A) (A)
                 (A) (A) (A) (A) (A) (A) (A) (A) (A) (A) (A) (A)
                 (A) (A) (A) (A) (A) (A) (A) (A) (A) (A) (A) (A)
                 (A) (A) (A) (A) (A) (A) (A) (A) (A) (A) (A) (A)
                 (A) (A) (A) (A) (A) (A) (A) (A) (A) (A) (A) (A)
                 (A) (A) (A) (A) (A) (A) (A) (A) (A) (A) (A) (A)
                 (A) (A) (A) (A) (A) (A) (A) (A) (A) (A) (A) (A)
                 (A) (A) (A) (A) (A) (A) (A) (A) (A) (A) (A) (A)
                 (A) (A) (A) (A) (A) (A) (A) (A) (A) (A) (A) (A)
                 (A) (A) (A) (A) (A) (A) (A) (A) (A) (A) (A) (A)
                 (A) (A) (A) (A) (A) (A) (A) (A) (A) (A) (A) (A)
                 (A) (A) (A) (A) (A) (A) (A) (A) (A) (A) (A) (A)
                 (A) (A) (A) (A) (A) (A) (A) (A) (A) (A) (A) (A)
                 (A) (A) (A) (A) (A) (A) (A) (A) (A) (A) (A) (A)
                 (A) (A) (A) (A) (A) (A) (A) (A) (A) (A) (A) (A)
                 (A) (A) (A) (A) (A) (A) (A) (A) (A) (A) (A) (A)
                 (A) (A) (A) (A) (A) (A) (A) (A) (A) (A) (A) (A)
                 (A) (A) (A) (A) (A) (A) (A) (A) (A) (A) (A) (A)
                 (A) (A) (A) (A) (A) (A) (A) (A) (A) (A) (A) (A)
                 (A) (A) (A) (A) (A) (A) (A) (A) (A) (A) (A) (A)
                 (A) (A) (A) (A) (A) (A) (A) (A) (A) (A) (A) (A)
                 (A) (A) (A) (A) (A) (A) (A) (A) (A) (A) (A) (A)
                 (A) (A) (A) (A) (A) (A) (A) (A) (A) (A) (A) (A)
                 (A) (A) (A) (A) (A) (A) (A) (A) (A) (A) (A) (A)
                 (A) (A) (A) (A) (A) (A) (A) (A) (A) (A) (A) (A)
                 (A) (A) (A) (A) (A) (A) (A) (A) (A) (A) (A) (A)
                 (A) (A) (A) (A) (A) (A) (A) (A) (A)
 The electronic state is 1-A.
 Alpha  occ. eigenvalues --  -10.52832 -10.52553 -10.52516 -10.52500 -10.52419
 Alpha  occ. eigenvalues --  -10.52351 -10.52267  -0.92152  -0.88298  -0.83087
 Alpha  occ. eigenvalues --   -0.76238  -0.69344  -0.66213  -0.63933  -0.54556
 Alpha  occ. eigenvalues --   -0.53496  -0.50404  -0.49789  -0.48718  -0.45373
 Alpha  occ. eigenvalues --   -0.45181  -0.43573  -0.41234  -0.39996  -0.39299
 Alpha  occ. eigenvalues --   -0.37755  -0.37168  -0.36767  -0.35537
 Alpha virt. eigenvalues --    0.06946   0.07715   0.08582   0.08964   0.10106
 Alpha virt. eigenvalues --    0.11740   0.12227   0.13598   0.14190   0.15575
 Alpha virt. eigenvalues --    0.15862   0.16408   0.17221   0.18074   0.19415
 Alpha virt. eigenvalues --    0.20544   0.22662   0.23184   0.24535   0.25158
 Alpha virt. eigenvalues --    0.27892   0.28929   0.29151   0.29724   0.31519
 Alpha virt. eigenvalues --    0.32473   0.33795   0.34236   0.35114   0.36344
 Alpha virt. eigenvalues --    0.37236   0.39135   0.39963   0.41998   0.42733
 Alpha virt. eigenvalues --    0.44198   0.45181   0.46566   0.47752   0.48308
 Alpha virt. eigenvalues --    0.48580   0.49484   0.49699   0.50124   0.51187
 Alpha virt. eigenvalues --    0.51804   0.52234   0.53058   0.53502   0.53854
 Alpha virt. eigenvalues --    0.54177   0.54805   0.56168   0.56535   0.57200
 Alpha virt. eigenvalues --    0.57789   0.59405   0.60674   0.62267   0.64304
 Alpha virt. eigenvalues --    0.66483   0.69164   0.72199   0.73099   0.75777
 Alpha virt. eigenvalues --    0.77117   0.78884   0.80407   0.83454   0.84519
 Alpha virt. eigenvalues --    0.84778   0.85948   0.86402   0.89076   0.90897
 Alpha virt. eigenvalues --    0.91560   0.93548   0.93917   0.95318   0.96880
 Alpha virt. eigenvalues --    0.98686   0.99171   1.02209   1.03106   1.04397
 Alpha virt. eigenvalues --    1.05787   1.07439   1.08228   1.09406   1.09565
 Alpha virt. eigenvalues --    1.10485   1.11071   1.12463   1.13228   1.14023
 Alpha virt. eigenvalues --    1.14705   1.15874   1.17447   1.18418   1.19066
 Alpha virt. eigenvalues --    1.20518   1.21035   1.22449   1.23364   1.24157
 Alpha virt. eigenvalues --    1.24703   1.25304   1.25624   1.26861   1.27965
 Alpha virt. eigenvalues --    1.28093   1.29964   1.30378   1.30830   1.32504
 Alpha virt. eigenvalues --    1.34137   1.34265   1.35608   1.36171   1.37321
 Alpha virt. eigenvalues --    1.37731   1.40208   1.40445   1.41658   1.43325
 Alpha virt. eigenvalues --    1.44425   1.44887   1.46856   1.48878   1.49781
 Alpha virt. eigenvalues --    1.50583   1.51506   1.52187   1.54204   1.56022
 Alpha virt. eigenvalues --    1.56775   1.58320   1.59018   1.59818   1.62576
 Alpha virt. eigenvalues --    1.62739   1.64053   1.66233   1.67016   1.69132
 Alpha virt. eigenvalues --    1.76594   1.79632   1.81140   1.84370   2.21431
 Alpha virt. eigenvalues --    2.22911   2.25423   2.28765   2.31442   2.33994
 Alpha virt. eigenvalues --    2.37986   2.38951   2.40481   2.41568   2.42223
 Alpha virt. eigenvalues --    2.44541   2.45916   2.47671   2.49058   2.50464
 Alpha virt. eigenvalues --    2.52065   2.54055   2.56303   2.58381   2.58634
 Alpha virt. eigenvalues --    2.59361   2.60743   2.63039   2.63730   2.65900
 Alpha virt. eigenvalues --    2.67020   2.67436   2.68676   2.70072   2.72083
 Alpha virt. eigenvalues --    2.73166   2.74379   2.75940   2.76337   2.77822
 Alpha virt. eigenvalues --    2.78785   2.81611   2.82751   2.83335   2.84247
 Alpha virt. eigenvalues --    2.85266   2.86170   2.87163   2.89864   2.93008
 Alpha virt. eigenvalues --    2.94154   2.95061   2.96471   2.97311   2.98476
 Alpha virt. eigenvalues --    2.98870   3.00037   3.02239   3.03087   3.03935
 Alpha virt. eigenvalues --    3.05171   3.05836   3.06576   3.07109   3.08137
 Alpha virt. eigenvalues --    3.08428   3.10653   3.11229   3.11816   3.12176
 Alpha virt. eigenvalues --    3.13197   3.13438   3.14745   3.16302   3.17814
 Alpha virt. eigenvalues --    3.18156   3.19487   3.20286   3.21050   3.21428
 Alpha virt. eigenvalues --    3.23105   3.24096   3.25474   3.26777   3.27322
 Alpha virt. eigenvalues --    3.28167   3.29449   3.31185   3.32528   3.33719
 Alpha virt. eigenvalues --    3.35807   3.36627   3.37917   3.39888   3.40336
 Alpha virt. eigenvalues --    3.41397   3.42049   3.42508   3.45110   3.47371
 Alpha virt. eigenvalues --    3.47979   3.49764   3.51576   3.52717   3.53414
 Alpha virt. eigenvalues --    3.54588   3.55220   3.56252   3.57147   3.58884
 Alpha virt. eigenvalues --    3.59640   3.62101   3.62490   3.64246   3.65433
 Alpha virt. eigenvalues --    3.66191   3.68751   3.69650   3.71114   3.72415
 Alpha virt. eigenvalues --    3.73463   3.76535   3.76675   3.77091   3.79255
 Alpha virt. eigenvalues --    3.79847   3.80752   3.82064   3.83030   3.83532
 Alpha virt. eigenvalues --    3.84618   3.85613   3.87951   3.88859   3.89420
 Alpha virt. eigenvalues --    3.90144   3.91085   3.91638   3.93042   3.94224
 Alpha virt. eigenvalues --    3.94660   3.95847   3.96591   3.97369   3.99119
 Alpha virt. eigenvalues --    4.00396   4.01912   4.03270   4.03878   4.05082
 Alpha virt. eigenvalues --    4.06428   4.07513   4.08179   4.09262   4.10274
 Alpha virt. eigenvalues --    4.11335   4.13166   4.13774   4.15428   4.16441
 Alpha virt. eigenvalues --    4.17063   4.17346   4.19808   4.20444   4.21396
 Alpha virt. eigenvalues --    4.22095   4.23269   4.25374   4.25690   4.26993
 Alpha virt. eigenvalues --    4.28638   4.29820   4.31132   4.33222   4.34921
 Alpha virt. eigenvalues --    4.37965   4.39205   4.43155   4.43968   4.46756
 Alpha virt. eigenvalues --    4.48381   4.50466   4.53736   4.55119   4.56209
 Alpha virt. eigenvalues --    4.58337   4.59919   4.61885   4.64129   4.65893
 Alpha virt. eigenvalues --    4.67176   4.69867   4.70069   4.72327   4.73313
 Alpha virt. eigenvalues --    4.74184   4.76173   4.78466   4.79454   4.81874
 Alpha virt. eigenvalues --    4.83119   4.84019   4.85508   4.87536   4.90291
 Alpha virt. eigenvalues --    4.92555   4.93784   4.95111   4.96538   4.97579
 Alpha virt. eigenvalues --    4.98506   5.00644   5.01986   5.05386   5.06040
 Alpha virt. eigenvalues --    5.08219   5.08782   5.11777   5.15628   5.18000
 Alpha virt. eigenvalues --    5.20927   5.22893   5.24576   5.26043   5.26570
 Alpha virt. eigenvalues --    5.27533   5.29007   5.32258   5.34266   5.37309
 Alpha virt. eigenvalues --    5.38006   5.39984   5.40355   5.43373   5.44609
 Alpha virt. eigenvalues --    5.46375   5.48444   5.50472   5.52360   5.54344
 Alpha virt. eigenvalues --    5.57450   5.62274   5.65656   5.70113   5.73614
 Alpha virt. eigenvalues --    5.77155   5.80170   5.80896   5.85650   5.90794
 Alpha virt. eigenvalues --    5.95009   6.00080   6.03246  11.63655  12.15525
 Alpha virt. eigenvalues --   12.57698  12.92440  13.26403  13.41879  13.91013
          Condensed to atoms (all electrons):
               1          2          3          4          5          6
     1  C    5.056156   0.342093  -0.051236   0.306515   0.005854  -0.046045
     2  C    0.342093   5.054818   0.315358  -0.061167  -0.055180   0.008219
     3  C   -0.051236   0.315358   5.096583  -0.003634   0.326509   0.000133
     4  C    0.306515  -0.061167  -0.003634   5.098047   0.000282   0.283989
     5  C    0.005854  -0.055180   0.326509   0.000282   5.017977  -0.000006
     6  C   -0.046045   0.008219   0.000133   0.283989  -0.000006   4.963085
     7  C   -0.000504   0.007390  -0.053394   0.000012   0.316436  -0.000001
     8  H   -0.042385  -0.004676  -0.000885   0.413946   0.000537  -0.042112
     9  H   -0.051115   0.001732  -0.002048   0.405691  -0.000005  -0.036194
    10  H    0.416375  -0.042518   0.009569  -0.044598  -0.000320  -0.005347
    11  H    0.404514  -0.035134  -0.007347  -0.047969   0.000247  -0.004362
    12  H   -0.039280   0.413321  -0.044090   0.009328  -0.004998  -0.000358
    13  H   -0.040499   0.412856  -0.051906  -0.007599  -0.002741   0.000079
    14  H   -0.004233  -0.039160   0.412426  -0.001012  -0.039479   0.000569
    15  H   -0.000068  -0.043491   0.397432  -0.001256  -0.034837  -0.000061
    16  H    0.000331  -0.004956  -0.050059  -0.000095   0.412591  -0.000005
    17  H    0.000166  -0.003248  -0.042286  -0.000059   0.405475   0.000003
    18  H   -0.004334   0.001353  -0.000104  -0.062496   0.000004   0.411901
    19  H    0.004121  -0.000597  -0.000007  -0.045307   0.000000   0.405646
    20  H    0.005078  -0.000564   0.000095  -0.046619  -0.000005   0.408533
    21  H    0.000015   0.000192  -0.001906  -0.000032  -0.050080   0.000000
    22  H    0.000008  -0.000273  -0.003265  -0.000000  -0.041748  -0.000000
    23  H    0.000020  -0.000494   0.008653   0.000000  -0.042561   0.000000
               7          8          9         10         11         12
     1  C   -0.000504  -0.042385  -0.051115   0.416375   0.404514  -0.039280
     2  C    0.007390  -0.004676   0.001732  -0.042518  -0.035134   0.413321
     3  C   -0.053394  -0.000885  -0.002048   0.009569  -0.007347  -0.044090
     4  C    0.000012   0.413946   0.405691  -0.044598  -0.047969   0.009328
     5  C    0.316436   0.000537  -0.000005  -0.000320   0.000247  -0.004998
     6  C   -0.000001  -0.042112  -0.036194  -0.005347  -0.004362  -0.000358
     7  C    4.939714   0.000091  -0.000002   0.000022   0.000000  -0.000007
     8  H    0.000091   0.613065  -0.042096   0.008061  -0.007002  -0.000523
     9  H   -0.000002  -0.042096   0.606525  -0.006827   0.008642   0.000258
    10  H    0.000022   0.008061  -0.006827   0.582398  -0.035573  -0.009017
    11  H    0.000000  -0.007002   0.008642  -0.035573   0.585184  -0.004029
    12  H   -0.000007  -0.000523   0.000258  -0.009017  -0.004029   0.574850
    13  H    0.000171   0.000336   0.003598  -0.005002   0.008256  -0.032828
    14  H   -0.006770  -0.007745   0.000917  -0.000408   0.000648   0.007175
    15  H    0.000099   0.001188   0.000099   0.000181   0.002640  -0.005835
    16  H   -0.039127   0.000136  -0.000012   0.000018  -0.000047   0.000110
    17  H   -0.038090  -0.000078   0.000015  -0.000044   0.000080   0.002976
    18  H    0.000000   0.005573   0.006065   0.000948   0.000968  -0.000104
    19  H    0.000000   0.007048  -0.018788   0.001329  -0.000245   0.000021
    20  H    0.000000  -0.017675   0.005928  -0.000150   0.000867   0.000034
    21  H    0.404932   0.000026   0.000003   0.000002   0.000007  -0.000017
    22  H    0.403650  -0.000001  -0.000000  -0.000001  -0.000009   0.000039
    23  H    0.406197  -0.000002  -0.000000  -0.000001   0.000001  -0.000003
              13         14         15         16         17         18
     1  C   -0.040499  -0.004233  -0.000068   0.000331   0.000166  -0.004334
     2  C    0.412856  -0.039160  -0.043491  -0.004956  -0.003248   0.001353
     3  C   -0.051906   0.412426   0.397432  -0.050059  -0.042286  -0.000104
     4  C   -0.007599  -0.001012  -0.001256  -0.000095  -0.000059  -0.062496
     5  C   -0.002741  -0.039479  -0.034837   0.412591   0.405475   0.000004
     6  C    0.000079   0.000569  -0.000061  -0.000005   0.000003   0.411901
     7  C    0.000171  -0.006770   0.000099  -0.039127  -0.038090   0.000000
     8  H    0.000336  -0.007745   0.001188   0.000136  -0.000078   0.005573
     9  H    0.003598   0.000917   0.000099  -0.000012   0.000015   0.006065
    10  H   -0.005002  -0.000408   0.000181   0.000018  -0.000044   0.000948
    11  H    0.008256   0.000648   0.002640  -0.000047   0.000080   0.000968
    12  H   -0.032828   0.007175  -0.005835   0.000110   0.002976  -0.000104
    13  H    0.581799  -0.004451   0.007801   0.002729  -0.000095   0.000058
    14  H   -0.004451   0.583439  -0.042022  -0.006719   0.007996  -0.000048
    15  H    0.007801  -0.042022   0.586465   0.008505  -0.006749   0.000020
    16  H    0.002729  -0.006719   0.008505   0.614774  -0.041723   0.000000
    17  H   -0.000095   0.007996  -0.006749  -0.041723   0.598150  -0.000001
    18  H    0.000058  -0.000048   0.000020   0.000000  -0.000001   0.602831
    19  H   -0.000001  -0.000027   0.000003   0.000000  -0.000000  -0.034764
    20  H   -0.000024   0.000087  -0.000005  -0.000000   0.000000  -0.036317
    21  H    0.000062   0.003014  -0.000390  -0.000947   0.007767  -0.000000
    22  H   -0.000035  -0.000036   0.002305   0.008206  -0.012067  -0.000000
    23  H   -0.000003   0.000112  -0.000149  -0.012352  -0.000399   0.000000
              19         20         21         22         23
     1  C    0.004121   0.005078   0.000015   0.000008   0.000020
     2  C   -0.000597  -0.000564   0.000192  -0.000273  -0.000494
     3  C   -0.000007   0.000095  -0.001906  -0.003265   0.008653
     4  C   -0.045307  -0.046619  -0.000032  -0.000000   0.000000
     5  C    0.000000  -0.000005  -0.050080  -0.041748  -0.042561
     6  C    0.405646   0.408533   0.000000  -0.000000   0.000000
     7  C    0.000000   0.000000   0.404932   0.403650   0.406197
     8  H    0.007048  -0.017675   0.000026  -0.000001  -0.000002
     9  H   -0.018788   0.005928   0.000003  -0.000000  -0.000000
    10  H    0.001329  -0.000150   0.000002  -0.000001  -0.000001
    11  H   -0.000245   0.000867   0.000007  -0.000009   0.000001
    12  H    0.000021   0.000034  -0.000017   0.000039  -0.000003
    13  H   -0.000001  -0.000024   0.000062  -0.000035  -0.000003
    14  H   -0.000027   0.000087   0.003014  -0.000036   0.000112
    15  H    0.000003  -0.000005  -0.000390   0.002305  -0.000149
    16  H    0.000000  -0.000000  -0.000947   0.008206  -0.012352
    17  H   -0.000000   0.000000   0.007767  -0.012067  -0.000399
    18  H   -0.034764  -0.036317  -0.000000  -0.000000   0.000000
    19  H    0.613843  -0.032565  -0.000000   0.000000  -0.000000
    20  H   -0.032565   0.606722   0.000000  -0.000000  -0.000000
    21  H   -0.000000   0.000000   0.598022  -0.037558  -0.033047
    22  H    0.000000  -0.000000  -0.037558   0.606786  -0.030565
    23  H   -0.000000  -0.000000  -0.033047  -0.030565   0.602478
 Mulliken charges:
               1
     1  C   -0.261546
     2  C   -0.265876
     3  C   -0.254594
     4  C   -0.195968
     5  C   -0.213952
     6  C   -0.347664
     7  C   -0.340819
     8  H    0.115174
     9  H    0.117617
    10  H    0.130905
    11  H    0.129664
    12  H    0.132979
    13  H    0.127438
    14  H    0.135728
    15  H    0.128127
    16  H    0.108642
    17  H    0.122212
    18  H    0.108447
    19  H    0.100291
    20  H    0.106580
    21  H    0.109936
    22  H    0.104564
    23  H    0.102115
 Sum of Mulliken charges =  -0.00000
 Mulliken charges with hydrogens summed into heavy atoms:
               1
     1  C   -0.000978
     2  C   -0.005458
     3  C    0.009261
     4  C    0.036822
     5  C    0.016902
     6  C   -0.032346
     7  C   -0.024203
 APT charges:
               1
     1  C   -0.770706
     2  C   -0.686934
     3  C   -0.424949
     4  C   -0.159224
     5  C   -0.611928
     6  C   -1.585347
     7  C   -1.400114
     8  H    0.180891
     9  H    0.314757
    10  H    0.439608
    11  H    0.313870
    12  H    0.386302
    13  H    0.307687
    14  H    0.244294
    15  H    0.303325
    16  H    0.310678
    17  H    0.397390
    18  H    0.358761
    19  H    0.500195
    20  H    0.381348
    21  H    0.218482
    22  H    0.414459
    23  H    0.567153
 Sum of APT charges =  -0.00000
 APT charges with hydrogens summed into heavy atoms:
               1
     1  C   -0.017228
     2  C    0.007055
     3  C    0.122670
     4  C    0.336424
     5  C    0.096140
     6  C   -0.345042
     7  C   -0.200020
 Electronic spatial extent (au):  <R**2>=           1466.6688
 Charge=              0.0000 electrons
 Dipole moment (field-independent basis, Debye):
    X=             -0.0037    Y=              0.0572    Z=              0.0298  Tot=              0.0646
 Quadrupole moment (field-independent basis, Debye-Ang):
   XX=            -50.5161   YY=            -49.1328   ZZ=            -48.5563
   XY=             -0.2124   XZ=              0.3104   YZ=             -0.2338
 Traceless Quadrupole moment (field-independent basis, Debye-Ang):
   XX=             -1.1144   YY=              0.2689   ZZ=              0.8454
   XY=             -0.2124   XZ=              0.3104   YZ=             -0.2338
 Octapole moment (field-independent basis, Debye-Ang**2):
  XXX=             -2.2542  YYY=             -0.4374  ZZZ=              0.5699  XYY=              1.1366
  XXY=              3.4188  XXZ=              2.1545  XZZ=             -0.1753  YZZ=              0.6669
  YYZ=             -0.9291  XYZ=              1.2685
 Hexadecapole moment (field-independent basis, Debye-Ang**3):
 XXXX=          -1757.2301 YYYY=           -245.3903 ZZZZ=           -123.0844 XXXY=             -3.1843
 XXXZ=              2.1833 YYYX=             -2.6281 YYYZ=             -0.5895 ZZZX=              2.8454
 ZZZY=             -0.0711 XXYY=           -333.1909 XXZZ=           -299.0838 YYZZ=            -65.1862
 XXYZ=             -2.9568 YYXZ=             -0.7250 ZZXY=             -0.2729
 N-N= 3.162027164140D+02 E-N=-1.270793233831D+03  KE= 2.744511950672D+02
  Exact polarizability:   0.000   0.000   0.000   0.000   0.000   0.000
 Approx polarizability:  98.228   0.339  97.889   0.061   0.338 100.230
 No NMR shielding tensors so no spin-rotation constants.
 Leave Link  601 at Sun Sep 29 04:04:43 2019, MaxMem=   671088640 cpu:              88.4 elap:              44.2
 (Enter /shared/centos7/gaussian/g16/l701.exe)
 SCFChk:  SCF convergence  4.37D-09 required  1.00D-08
 ... and contract with generalized density number  0.
 Compute integral second derivatives.
 Entering OneElI...
 Calculate overlap and kinetic energy integrals
    NBasis = 485  MinDer = 2  MaxDer = 2
 Requested accuracy = 0.1000D-12
 PrmmSu-InSpLW:  IPartL=    0 NPrtUS=   20 NPrtUL=    1 DoSpLW=F IThBeg=    0 IThEnd=   19 NThAct=   20.
 PrsmSu:  NPrtUS=  20 ThrOK=T IAlg=1 NPAlg=1 LenDen=           0 ISkipM=0 DoSpLW=F IThBeg=    0 IThEnd=   19.
 Prism:   IPart=     0 DynPar=F LinDyn=F Incr=           6.
 PRISM was handed    33211589 working-precision words and 13365 shell-pairs
 PRISM was handed    33211589 working-precision words and 13365 shell-pairs
 PRISM was handed    33211589 working-precision words and 13365 shell-pairs
 PRISM was handed    33211589 working-precision words and 13365 shell-pairs
 PRISM was handed    33211589 working-precision words and 13365 shell-pairs
 PRISM was handed    33211589 working-precision words and 13365 shell-pairs
 PRISM was handed    33211589 working-precision words and 13365 shell-pairs
 PRISM was handed    33211589 working-precision words and 13365 shell-pairs
 IPart=  0 NShTot=         706 NBatch=          82 AvBLen=         8.6
 PRISM was handed    33211589 working-precision words and 13365 shell-pairs
 PRISM was handed    33211589 working-precision words and 13365 shell-pairs
 PRISM was handed    33211589 working-precision words and 13365 shell-pairs
 PRISM was handed    33211589 working-precision words and 13365 shell-pairs
 PRISM was handed    33211589 working-precision words and 13365 shell-pairs
 PRISM was handed    33211589 working-precision words and 13365 shell-pairs
 IPart=  5 NShTot=         687 NBatch=          72 AvBLen=         9.5
 PRISM was handed    33211589 working-precision words and 13365 shell-pairs
 IPart=  7 NShTot=         673 NBatch=          62 AvBLen=        10.9
 PRISM was handed    33211589 working-precision words and 13365 shell-pairs
 PRISM was handed    33211589 working-precision words and 13365 shell-pairs
 IPart=  9 NShTot=         667 NBatch=          60 AvBLen=        11.1
 PRISM was handed    33211589 working-precision words and 13365 shell-pairs
 IPart= 10 NShTot=         661 NBatch=          56 AvBLen=        11.8
 PRISM was handed    33211589 working-precision words and 13365 shell-pairs
 PRISM was handed    33211589 working-precision words and 13365 shell-pairs
 IPart= 15 NShTot=         648 NBatch=          51 AvBLen=        12.7
 IPart=  1 NShTot=         704 NBatch=          81 AvBLen=         8.7
 IPart= 12 NShTot=         657 NBatch=          53 AvBLen=        12.4
 IPart= 11 NShTot=         661 NBatch=          56 AvBLen=        11.8
 IPart= 13 NShTot=         656 NBatch=          52 AvBLen=        12.6
 IPart= 19 NShTot=         639 NBatch=          46 AvBLen=        13.9
 IPart=  8 NShTot=         671 NBatch=          62 AvBLen=        10.8
 IPart= 17 NShTot=         642 NBatch=          48 AvBLen=        13.4
 IPart= 16 NShTot=         642 NBatch=          48 AvBLen=        13.4
 IPart=  4 NShTot=         689 NBatch=          74 AvBLen=         9.3
 IPart= 18 NShTot=         640 NBatch=          46 AvBLen=        13.9
 IPart=  2 NShTot=         700 NBatch=          77 AvBLen=         9.1
 IPart=  6 NShTot=         681 NBatch=          68 AvBLen=        10.0
 IPart=  3 NShTot=         691 NBatch=          75 AvBLen=         9.2
 IPart= 14 NShTot=         650 NBatch=          51 AvBLen=        12.7
 PrSmSu:  NxtVal=            121.
 Entering OneElI...
 Calculate potential energy integrals
    NBasis = 485  MinDer = 2  MaxDer = 2
 Requested accuracy = 0.1000D-12
 PrmmSu-InSpLW:  IPartL=    0 NPrtUS=   20 NPrtUL=    1 DoSpLW=F IThBeg=    0 IThEnd=   19 NThAct=   20.
 PrsmSu:  NPrtUS=  20 ThrOK=T IAlg=1 NPAlg=1 LenDen=           0 ISkipM=0 DoSpLW=F IThBeg=    0 IThEnd=   19.
 Prism:   IPart=     0 DynPar=F LinDyn=F Incr=         134.
 PRISM was handed    33275730 working-precision words and 11656 shell-pairs
 PRISM was handed    33275730 working-precision words and 11656 shell-pairs
 PRISM was handed    33275730 working-precision words and 11656 shell-pairs
 PRISM was handed    33275730 working-precision words and 11656 shell-pairs
 PRISM was handed    33275730 working-precision words and 11656 shell-pairs
 PRISM was handed    33275730 working-precision words and 11656 shell-pairs
 PRISM was handed    33275730 working-precision words and 11656 shell-pairs
 PRISM was handed    33275730 working-precision words and 11656 shell-pairs
 PRISM was handed    33275730 working-precision words and 11656 shell-pairs
 PRISM was handed    33275730 working-precision words and 11656 shell-pairs
 PRISM was handed    33275730 working-precision words and 11656 shell-pairs
 PRISM was handed    33275730 working-precision words and 11656 shell-pairs
 PRISM was handed    33275730 working-precision words and 11656 shell-pairs
 PRISM was handed    33275730 working-precision words and 11656 shell-pairs
 PRISM was handed    33275730 working-precision words and 11656 shell-pairs
 PRISM was handed    33275730 working-precision words and 11656 shell-pairs
 PRISM was handed    33275730 working-precision words and 11656 shell-pairs
 PRISM was handed    33275730 working-precision words and 11656 shell-pairs
 PRISM was handed    33275730 working-precision words and 11656 shell-pairs
 PRISM was handed    33275730 working-precision words and 11656 shell-pairs
 IPart= 12 NShTot=       13133 NBatch=         572 AvBLen=        23.0
 IPart= 19 NShTot=       12834 NBatch=         559 AvBLen=        23.0
 IPart=  9 NShTot=       13386 NBatch=         583 AvBLen=        23.0
 IPart=  4 NShTot=       13869 NBatch=         604 AvBLen=        23.0
 IPart= 18 NShTot=       12880 NBatch=         561 AvBLen=        23.0
 IPart=  0 NShTot=       14145 NBatch=         617 AvBLen=        22.9
 IPart=  2 NShTot=       14007 NBatch=         611 AvBLen=        22.9
 IPart=  3 NShTot=       13938 NBatch=         608 AvBLen=        22.9
 IPart=  6 NShTot=       13685 NBatch=         596 AvBLen=        23.0
 IPart= 16 NShTot=       12903 NBatch=         562 AvBLen=        23.0
 IPart= 13 NShTot=       13064 NBatch=         569 AvBLen=        23.0
 IPart= 17 NShTot=       12880 NBatch=         561 AvBLen=        23.0
 IPart= 14 NShTot=       13041 NBatch=         568 AvBLen=        23.0
 IPart= 15 NShTot=       12995 NBatch=         566 AvBLen=        23.0
 IPart=  8 NShTot=       13409 NBatch=         584 AvBLen=        23.0
 IPart= 10 NShTot=       13340 NBatch=         581 AvBLen=        23.0
 IPart= 11 NShTot=       13248 NBatch=         577 AvBLen=        23.0
 IPart=  1 NShTot=       14030 NBatch=         612 AvBLen=        22.9
 IPart=  5 NShTot=       13823 NBatch=         602 AvBLen=        23.0
 IPart=  7 NShTot=       13478 NBatch=         587 AvBLen=        23.0
 PrSmSu:  NxtVal=           2681.
 Polarizability after L701:
                1             2             3 
      1  0.000000D+00
      2  0.000000D+00  0.000000D+00
      3  0.000000D+00  0.000000D+00  0.000000D+00
 Dipole Derivatives after L701:
                 1             2             3             4             5 
      1  -0.794387D+00 -0.826834D+00  0.583785D+00 -0.136010D+00  0.168623D+00
      2  -0.497545D+00 -0.733591D+00  0.110321D+00  0.291740D+00 -0.109464D+01
      3   0.302081D-01 -0.847150D-01 -0.784139D+00 -0.553212D-01  0.635433D-01
                 6             7             8             9            10 
      1  -0.513805D-01  0.439696D-02 -0.420163D+00 -0.404405D+00  0.871983D+00
      2  -0.169316D+00  0.123743D+00 -0.512776D+00  0.201517D+00 -0.450985D+00
      3  -0.830149D+00 -0.583652D-01  0.593088D-01 -0.766468D+00 -0.183465D-01
                11            12            13            14            15 
      1   0.542071D+00 -0.111619D+01 -0.434489D+00  0.145021D+01  0.749772D+00
      2  -0.595823D+00  0.167881D-01  0.303993D+00 -0.565957D+00  0.522960D-01
      3  -0.262456D-01 -0.753832D+00 -0.272754D-01  0.247355D-01 -0.835339D+00
                16            17            18            19            20 
      1  -0.276881D+01  0.338422D+00  0.478465D+00 -0.220497D+01 -0.105965D+01
      2   0.374403D+00 -0.103187D+01 -0.109506D+00 -0.111015D+00 -0.103182D+01
      3  -0.828794D-01  0.559147D-02 -0.955366D+00  0.416808D-01  0.621277D-01
                21            22            23            24            25 
      1  -0.403626D+00 -0.123470D+00 -0.400178D+00 -0.696192D-01  0.153777D+00
      2  -0.258854D-01  0.279987D+00  0.540406D+00  0.117278D+00 -0.351999D-02
      3  -0.963548D+00 -0.140654D-01  0.139334D-02  0.125736D+00  0.272455D-01
                26            27            28            29            30 
      1   0.272177D-01  0.690588D+00  0.543562D+00  0.581542D+00  0.142408D+00
      2   0.120314D+00 -0.789747D-01  0.325873D+00  0.638646D+00  0.127721D+00
      3   0.511412D-01  0.670178D+00  0.232961D-02 -0.723568D-03  0.136616D+00
                31            32            33            34            35 
      1   0.160954D+00 -0.508297D-01 -0.472668D+00  0.180424D+00 -0.106971D+00
      2   0.230704D-02  0.121416D+00 -0.201634D+00 -0.189968D+00  0.790691D+00
      3  -0.120625D-01  0.647262D-01  0.659241D+00  0.415137D-01 -0.122416D+00
                36            37            38            39            40 
      1   0.572194D-01  0.132746D+00  0.852070D-02 -0.384725D-02  0.800697D-01
      2  -0.301264D+00  0.514674D-02  0.180538D+00  0.397020D+00 -0.146909D+00
      3   0.187791D+00 -0.362906D-02  0.512577D-01  0.609778D+00  0.303992D-01
                41            42            43            44            45 
      1   0.190006D+00 -0.522182D-01  0.124094D+00  0.487195D-01  0.347964D+00
      2   0.474560D+00 -0.144160D+00 -0.193847D-02  0.135326D+00  0.135944D-01
      3  -0.797468D-01  0.178254D+00  0.191394D-01  0.394197D-01  0.650556D+00
                46            47            48            49            50 
      1   0.165898D+00 -0.854710D-01 -0.795777D+00  0.486757D+00 -0.814932D+00
      2   0.211015D-02  0.124690D+00  0.103388D+00 -0.166852D+00  0.530665D+00
      3  -0.470037D-02  0.297200D-01  0.641446D+00  0.347762D-01 -0.715507D-01
                51            52            53            54            55 
      1   0.319496D+00  0.579397D+00  0.794033D+00 -0.890078D+00  0.101448D+01
      2  -0.172571D+00  0.794251D-03  0.165573D+00 -0.656633D-01 -0.138918D+00
      3   0.174750D+00 -0.112778D+00 -0.234205D+00  0.331313D+00  0.195090D+00
                56            57            58            59            60 
      1   0.939976D-01  0.117309D+01  0.239562D+00 -0.109788D+01 -0.498105D+00
      2   0.676186D-01 -0.160378D+00 -0.299111D-01  0.737370D+00  0.275017D+00
      3   0.337463D-01  0.418489D+00 -0.146072D-01  0.192029D+00  0.167112D+00
                61            62            63            64            65 
      1  -0.200178D+00  0.905215D+00  0.402733D-01  0.608143D+00 -0.217703D+00
      2  -0.257896D+00  0.755866D+00 -0.268585D-02  0.869163D-01  0.922740D-01
      3   0.673991D-02  0.265948D-02  0.997589D-01  0.178764D+00 -0.967354D-01
                66            67            68            69 
      1   0.124585D+01  0.131607D+01 -0.679592D-01 -0.107100D+01
      2   0.170688D+00  0.198444D+00  0.905265D-01 -0.153588D+00
      3   0.542961D+00 -0.203856D+00  0.349380D-01  0.294862D+00
 Hessian after L701:
                1             2             3             4             5 
      1  0.144772D+02
      2  0.100144D+01  0.167974D+02
      3  0.670314D-01  0.302419D+00  0.177923D+02
      4 -0.264931D+01 -0.733295D+00 -0.106368D+01  0.143404D+02
      5 -0.717887D+00 -0.622765D+01  0.212129D+00 -0.313408D+00  0.171616D+02
      6 -0.106894D+01  0.204345D+00 -0.599473D+01  0.651038D-01 -0.192772D+00
      7  0.409908D+00  0.183624D+00  0.906932D-01 -0.406439D+01  0.202680D+01
      8  0.165179D+00 -0.254088D-01  0.418418D-01  0.197305D+01 -0.423611D+01
      9  0.185741D-02  0.301049D-01 -0.130993D+00  0.681387D+00  0.552404D+00
     10 -0.523915D+01 -0.158581D+01  0.801084D+00  0.245472D+00 -0.216726D+00
     11 -0.152144D+01 -0.350414D+01 -0.118139D+01 -0.212727D+00  0.958672D-01
     12  0.778683D+00 -0.118668D+01 -0.550262D+01  0.389633D-01 -0.709182D-01
     13  0.246848D+00  0.420490D-01 -0.471848D-01  0.331171D+00  0.899074D-01
     14  0.630242D-01 -0.122306D+00 -0.366582D-02  0.207429D+00 -0.634870D-01
     15 -0.547823D-01 -0.105762D-01 -0.120875D+00  0.182646D-01  0.297452D-01
     16  0.215121D+00 -0.202944D+00 -0.220232D-01  0.197439D+00 -0.162324D+00
     17 -0.315933D+00 -0.102567D-01 -0.116936D-01 -0.174494D+00 -0.554580D-01
     18  0.569107D-01 -0.531238D-01 -0.183067D+00 -0.244152D-01  0.173013D-01
     19  0.439699D-01  0.256089D-01  0.604043D-02  0.185993D+00  0.163632D+00
     20  0.213910D-01 -0.355418D-01 -0.952103D-03  0.170992D+00 -0.450288D-01
     21 -0.100773D-01 -0.129246D-02 -0.491380D-01  0.168825D-01  0.115983D-01
     22  0.125033D+00  0.597353D-01  0.110574D-01 -0.222420D-02 -0.326466D-02
     23 -0.349762D-02 -0.792785D-01  0.918037D-01 -0.366298D-01  0.161620D-01
     24  0.185375D-01  0.858831D-01  0.763113D-01 -0.541937D-02  0.101479D-01
     25  0.100690D+00  0.561071D-01 -0.871382D-01  0.168700D-01 -0.320323D-01
     26  0.354844D-01  0.241490D-01  0.151837D+00 -0.350522D-01 -0.215244D-01
     27 -0.477136D-01  0.150684D+00  0.127714D-01  0.649384D-01 -0.317364D-01
     28 -0.348346D+01  0.117844D+01  0.213834D+00 -0.813183D-01 -0.825098D-02
     29  0.120702D+01 -0.263628D+01  0.322756D+00 -0.892057D-02  0.135047D+00
     30  0.198783D+00  0.295578D+00 -0.418221D+01  0.327831D-01  0.228633D-01
     31 -0.437708D+01  0.226494D-01 -0.170038D+00 -0.490798D-01  0.519814D-01
     32  0.308707D-01 -0.432729D+01  0.133664D+00  0.260496D-01  0.563452D-01
     33 -0.100661D+00  0.213772D+00 -0.175776D+01  0.804192D-01 -0.361142D-01
     34 -0.569861D-01  0.665901D-01  0.725713D-02 -0.422864D+01 -0.643668D+00
     35  0.691854D-01  0.908026D-01 -0.365919D-01 -0.701202D+00 -0.236644D+01
     36  0.172823D-01 -0.409689D-01  0.906210D-01  0.256121D+00 -0.749692D+00
     37 -0.368552D-01  0.119502D-01  0.124944D+00 -0.449235D+01 -0.271220D-01
     38  0.335550D-01  0.840921D-01 -0.260570D-01 -0.309590D-01 -0.433910D+01
     39  0.103098D+00  0.762230D-02  0.655576D-01 -0.722171D-01  0.380543D+00
     40  0.125262D-01  0.285620D-02 -0.685778D-03  0.729823D-01 -0.123738D+00
     41  0.356342D-01 -0.258632D-02  0.183352D-02 -0.705534D-01 -0.515717D-01
     42 -0.135951D-01 -0.922798D-02 -0.188625D-01 -0.410812D-03 -0.563792D-01
     43  0.280604D-01  0.177358D-01  0.295978D-01  0.412334D-01 -0.890999D-01
     44  0.239361D-01 -0.257428D-01  0.113577D-01 -0.681375D-01 -0.674411D-02
     45  0.506081D-01  0.120844D-01  0.299136D-02 -0.570891D-01 -0.102396D+00
     46  0.191923D-01  0.190694D-02 -0.119835D-01  0.760567D-02  0.256876D-02
     47  0.131773D-02 -0.122213D-01 -0.167167D-02  0.853275D-02 -0.177691D-01
     48 -0.270573D-01  0.683324D-03 -0.358939D-02 -0.396373D-01  0.623113D-03
     49  0.283796D-01 -0.987654D-02  0.339993D-02  0.412957D-01 -0.186851D-02
     50 -0.178884D-01 -0.504190D-02 -0.498812D-02 -0.216110D-01 -0.127708D-01
[...]
 1945183,0.01858616,-0.07661613,-0.14432152,0.09939460,-0.00025149,-0.0
 0047131,-0.00021603,0.00754754,0.00771139,-0.01013155,0.00040641,0.000
 49763,-0.00001092,0.00045217,0.00159419,-0.00037566,0.00126499,0.00031
 982,-0.00020898,0.00004325,-0.00010913,-0.00019549,0.00014317,0.000218
 27,-0.00022924,0.00003478,-0.00003015,-0.00009152,-0.00067763,-0.00458
 729,-0.00333259,0.00017743,0.00144290,-0.00017845,0.08293519,0.1598953
 8,0.00023344,0.00082341,0.00022112,-0.00855327,-0.01047394,0.01020666,
 0.07594174,0.10020305,-0.14933334,0.00136582,0.00030709,0.00031145,0.0
 0521148,0.00525048,-0.00680790,-0.00029104,-0.00026414,-0.00016200,-0.
 00022917,0.00078341,0.00010849,0.00047301,-0.00106297,-0.00051025,-0.0
 0020978,0.00015656,-0.00028010,-0.00014765,0.00014286,0.00004639,0.000
 07440,-0.00003662,0.00000552,-0.00060290,-0.00368199,-0.00032069,-0.00
 005916,0.00078498,0.00103982,-0.08723574,-0.10592721,0.16050672,0.0007
 7539,0.00037919,0.00104631,-0.00384691,0.00057149,-0.00484061,-0.13091
 858,0.01921080,-0.11629850,0.00021078,0.00000838,-0.00002892,-0.019392
 51,0.00571288,-0.02378096,-0.00003594,-0.00000897,-0.00008007,0.000888
 97,-0.00124644,-0.00074075,-0.00000751,-0.00026519,-0.00023260,-0.0000
 1168,-0.00005705,-0.00004415,0.00004386,-0.00005492,0.00019364,0.00046
 742,-0.00019434,-0.00017180,-0.00019470,0.00007561,-0.00005541,0.00032
 982,-0.00072496,-0.00006481,0.00938238,-0.00174919,0.01272769,0.145167
 99,-0.00116282,0.00184828,-0.00032270,-0.01664761,0.00243640,-0.026144
 54,0.01947992,-0.05255694,0.03033015,0.00013973,0.00007225,0.00005511,
 0.00868658,-0.00334545,0.01141391,0.00004759,0.00002560,-0.00002292,0.
 00020965,0.00075555,0.00129268,0.00005143,-0.00001887,0.00003655,-0.00
 013431,-0.00010480,0.00009363,-0.00014635,0.00017578,0.00042573,0.0005
 5791,-0.00019989,0.00061086,0.00003057,0.00108286,0.00075457,-0.001058
 91,-0.00503264,-0.00303861,0.01209897,-0.00324109,0.01586643,-0.023782
 01,0.05840771,-0.00066401,0.00096643,0.00035349,-0.00846343,0.00090685
 ,-0.01375772,-0.11705742,0.03044694,-0.21181307,0.00017905,-0.00022787
 ,-0.00014373,0.00615747,-0.00222873,0.00761017,0.00004822,0.00007131,0
 .00001949,0.00037504,0.00042980,0.00090841,0.00005452,0.00015871,-0.00
 030456,-0.00003402,0.00008358,0.00029273,0.00021107,0.00002348,0.00042
 178,0.00075722,-0.00062973,0.00011690,0.00009992,-0.00021653,0.0007029
 1,-0.00052993,-0.00322654,0.00016466,-0.01171592,0.00286507,-0.0167674
 0,0.12928108,-0.02870404,0.23051069,0.00003309,-0.00004442,0.00036101,
 0.00078011,-0.00126345,-0.00105335,-0.01963288,0.00557962,-0.02380194,
 -0.00004157,-0.00006518,-0.00007827,-0.13513590,0.01738484,-0.11973567
 ,0.00002847,0.00002093,0.00002770,-0.00270752,0.00016200,-0.00349685,0
 .00004698,0.00004934,-0.00006410,0.00000578,0.00002304,0.00008680,0.00
 000803,0.00003734,0.00009951,0.00024279,-0.00020773,0.00005070,-0.0000
 0914,0.00012607,0.00013025,0.00039911,0.00059688,0.00078606,0.00093144
 ,-0.00080600,-0.00011770,-0.00454306,0.00254533,0.00213675,0.14908876,
 -0.00001606,-0.00012713,-0.00011856,0.00021463,0.00085267,0.00123157,0
 .00903902,-0.00324949,0.01159107,-0.00000224,0.00007663,0.00001284,0.0
 1799056,-0.05157679,0.02787279,-0.00002817,-0.00003216,0.00000953,-0.0
 1852266,0.00238278,-0.02638528,-0.00005219,-0.00002918,0.00002231,0.00
 001041,0.00000320,-0.00002197,0.00000174,-0.00002698,-0.00005753,-0.00
 015791,0.00005422,-0.00009983,-0.00008311,-0.00007173,0.00014684,0.000
 04924,-0.00012017,-0.00059134,-0.00059446,0.00044245,-0.00048726,0.002
 56958,-0.00071617,-0.00151101,-0.02179460,0.05786270,0.00021720,0.0000
 4082,0.00033115,0.00038663,0.00026984,0.00076896,0.00588640,-0.0017635
 1,0.00774571,-0.00003979,0.00000031,-0.00002339,-0.12034676,0.02720015
 ,-0.21475866,0.00000639,0.00000398,0.00000961,-0.00785128,0.00102130,-
 0.01187560,0.00002241,0.00001601,0.00001385,0.00000336,0.00000014,0.00
 000240,-0.00008144,0.00006151,-0.00000663,0.00005225,-0.00009652,-0.00
 013746,-0.00018226,0.00004311,-0.00007299,-0.00011637,0.00041031,0.000
 11230,-0.00063148,0.00027583,0.00070875,0.00207053,-0.00143576,0.00072
 901,0.13200740,-0.02567827,0.23249368,0.00001903,0.00014107,-0.0002933
 2,0.00060336,-0.00174597,-0.00062744,-0.01655749,-0.01688528,0.0206985
 0,-0.00019603,-0.00023019,-0.00006989,-0.10637892,-0.07440831,0.076767
 41,0.00014327,0.00013749,0.00000459,-0.00235761,-0.00292064,0.00261486
 ,0.00018761,0.00017914,0.00007268,0.00001482,-0.00001637,-0.00001792,-
 0.00000178,0.00004573,-0.00001249,-0.00006286,-0.00000319,-0.00001858,
 0.00058209,0.00091647,-0.00003567,0.00002177,0.00010203,-0.00006108,-0
 .00461167,0.00288707,0.00156682,0.00096439,-0.00057292,-0.00066432,0.0
 0950636,0.01200258,-0.01192024,0.11733178,0.00008027,0.00023719,0.0000
 4236,0.00060340,0.00157959,-0.00046339,0.00721604,0.00770905,-0.010231
 07,0.00018982,-0.00008466,-0.00006467,-0.07483006,-0.14081336,0.100095
 96,-0.00004297,-0.00004681,-0.00002822,-0.01414116,-0.02003074,0.01868
 944,-0.00008831,-0.00007198,0.00000486,-0.00001343,0.00001312,0.000013
 77,-0.00004142,0.00001693,0.00003466,-0.00001229,-0.00000195,0.0000048
 3,-0.00008254,-0.00006806,0.00032315,-0.00005111,-0.00004254,-0.000037
 32,0.00272456,-0.00077224,-0.00143974,-0.00080471,0.00048441,0.0002619
 2,-0.00141595,-0.00288129,0.00271486,0.08087651,0.15733102,-0.00010267
 ,-0.00039452,0.00023474,-0.00001601,0.00115576,-0.00003069,0.00479283,
 0.00505607,-0.00673181,-0.00002316,0.00018695,0.00001177,0.07768629,0.
 10052828,-0.15421638,-0.00007467,-0.00007794,0.00003091,-0.00809150,-0
 .01082752,0.01025797,-0.00009539,-0.00008632,-0.00001712,0.00000150,0.
 00000721,0.00001600,0.00005122,-0.00005855,-0.00004197,0.00000047,0.00
 002074,-0.00002019,-0.00002947,-0.00087742,0.00001408,0.00005161,0.000
 03681,-0.00001053,0.00151282,-0.00146933,0.00088760,-0.00011520,-0.000
 50491,0.00076864,0.01266547,0.01569071,-0.01721768,-0.08749144,-0.1065
 2055,0.16507979,0.00120418,-0.00003495,-0.00179845,0.00001087,0.000012
 86,0.00032564,0.00006210,0.00006462,-0.00007344,-0.01542120,0.00653442
 ,-0.02183658,-0.00001193,-0.00004814,0.00001567,-0.11970156,0.03306057
 ,-0.11337090,0.00000555,0.00000043,-0.00000987,0.00114459,-0.00035006,
 0.00029729,-0.00351699,0.00326231,0.00221107,-0.00010597,-0.00011142,-
 0.00000246,-0.00019350,-0.00017656,0.00095572,-0.00001696,-0.00000287,
 0.00010543,0.00028927,-0.00012093,0.00008452,-0.00001165,-0.00009343,-
 0.00002694,-0.00000420,0.00001373,0.00006299,0.00001756,-0.00000198,-0
 .00000087,-0.00001944,0.00000531,0.00001099,0.13081508,-0.00101909,0.0
 0032518,0.00035645,-0.00011511,-0.00009631,-0.00009839,0.00001645,-0.0
 0001539,0.00006346,0.01120568,-0.00568815,0.01656020,-0.00001665,-0.00
 000065,-0.00002583,0.03297026,-0.06300897,0.05278918,0.00001098,-0.000
 00014,0.00000504,-0.00070921,0.00026215,0.00049455,0.00334634,-0.00158
 791,-0.00149154,0.00002171,-0.00000814,-0.00019403,0.00008062,0.000433
 37,-0.00044750,-0.00001319,0.00001015,-0.00006135,-0.00016010,0.000015
 27,-0.00000254,0.00001852,0.00003012,0.00003896,0.00000565,0.00000596,
 -0.00006554,-0.00001879,0.00000405,0.00000041,0.00000359,-0.00000195,-
 0.00000297,-0.04040076,0.06603157,0.00017148,-0.00038342,0.00123260,0.
 00016577,-0.00011686,0.00028451,-0.00004929,0.00001757,-0.00002700,0.0
 0536885,-0.00188411,0.00781714,0.00001832,0.00000282,0.00001188,-0.114
 08718,0.05321995,-0.22420709,-0.00001444,0.00000156,-0.00000382,-0.000
 54288,0.00055840,0.00058127,0.00226096,-0.00100332,0.00070476,-0.00013
 385,0.00012417,-0.00006296,-0.00051903,-0.00015559,0.00010282,-0.00009
 291,0.00003478,-0.00000250,0.00007353,0.00000310,-0.00016085,-0.000001
 95,-0.00001798,0.00001251,0.00000229,-0.00000736,0.00000586,-0.0000005
 3,0.00000055,-0.00000086,-0.00000733,0.00000209,0.00000318,0.12434041,
 -0.05779873,0.24150859,0.00186669,0.00126169,-0.00038585,0.00006388,0.
 00011355,-0.00022520,-0.00009627,0.00023621,-0.00001675,0.00787296,0.0
 2362176,0.01345987,-0.00002682,-0.00013880,0.00005880,-0.07225614,-0.0
 7041175,-0.03725373,0.00000526,-0.00000839,-0.00000940,-0.00405160,0.0
 0328426,0.00193872,0.00128566,-0.00070079,-0.00048961,-0.00018237,-0.0
 0065323,-0.00020028,-0.00006105,-0.00012901,0.00001102,0.00002222,-0.0
 0004968,-0.00004242,-0.00001419,0.00001531,-0.00001351,-0.00003395,-0.
 00019722,0.00007699,0.00002165,-0.00001036,-0.00001542,-0.00000824,0.0
 0000947,-0.00000494,-0.00005113,0.00002359,0.00002324,-0.00599309,-0.0
 1446711,-0.00625948,0.07810880,-0.00107743,0.00065991,0.00090778,0.000
 18455,0.00024803,0.00018263,-0.00015730,-0.00018389,0.00015826,-0.0053
 7151,-0.01745305,-0.00882911,0.00001336,0.00014386,-0.00002272,-0.0694
 6981,-0.23424987,-0.09919515,-0.00000476,0.00000500,0.00001288,0.00375
 549,-0.00089741,-0.00047713,-0.00019520,0.00034616,0.00055253,0.000521
 74,0.00071135,-0.00045221,0.00006029,0.00000828,0.00003113,0.00006520,
 -0.00000084,-0.00002488,0.00002764,-0.00005443,0.00002052,0.00002985,0
 .00016293,-0.00010796,-0.00000931,0.00000485,0.00001250,0.00001287,-0.
 00001180,0.00000775,0.00005038,-0.00001611,-0.00002321,0.00259269,0.00
 789871,0.00374835,0.07339109,0.25575387,-0.00105620,-0.00072794,0.0000
 2707,0.00023490,0.00023270,0.00013426,-0.00012395,-0.00005153,0.000012
 57,-0.00220609,-0.00631627,-0.00415968,0.00002968,0.00008628,0.0000061
 8,-0.03665450,-0.09913063,-0.10055784,-0.00001770,0.00000441,0.0000050
 8,0.00155589,-0.00062198,0.00067776,0.00031987,0.00052926,0.00046572,0
 .00059078,0.00030929,-0.00008701,-0.00000894,-0.00005895,-0.00002737,0
 .00004067,-0.00000981,-0.00002825,-0.00002596,-0.00000094,-0.00002042,
 0.00001451,0.00009855,-0.00002743,-0.00000349,-0.00000058,0.00001622,0
 .00000605,-0.00000590,0.00000163,0.00002308,-0.00001063,-0.00001301,-0
 .00778555,-0.02305420,-0.01162591,0.03909756,0.11060647,0.10496351,-0.
 00362725,0.00473603,0.00004771,-0.00027446,-0.00116653,0.00134964,-0.0
 0020106,-0.00017183,-0.00004675,-0.01485082,-0.01437485,0.01576002,0.0
 0009790,0.00010008,0.00003938,-0.14361624,-0.07996294,0.10114789,-0.00
 006399,0.00000302,0.00000291,0.00111773,0.00010265,-0.00012726,0.00044
 073,-0.00056238,-0.00070803,0.00024563,0.00031749,-0.00028431,0.000144
 46,0.00000996,0.00026761,-0.00052716,0.00027635,0.00016521,0.00002116,
 -0.00001092,-0.00009521,0.00004017,0.00005079,-0.00002446,0.00001501,0
 .00000680,0.00002105,-0.00000802,-0.00000694,-0.00000621,0.00001632,-0
 .00000039,-0.00001652,0.01144809,0.00924017,-0.01069451,-0.00647639,-0
 .00441963,0.00596817,0.15604901,0.00256433,-0.00257658,-0.00038628,0.0
 0081845,0.00090704,-0.00069319,-0.00008828,0.00015652,0.00004306,0.012
 38950,0.01073826,-0.01416061,0.00000254,-0.00001782,0.00000339,-0.0809
 5875,-0.11354644,0.08439077,-0.00000316,-0.00000143,0.00000247,-0.0008
 5849,0.00080767,0.00004926,-0.00081854,0.00062265,0.00042937,0.0003228
 5,0.00031946,0.00012565,-0.00006019,-0.00013194,-0.00007075,0.00035932
 ,-0.00019727,-0.00009666,-0.00002705,0.00001551,0.00003070,-0.00002005
 ,-0.00004944,0.00001831,-0.00000657,-0.00000890,-0.00001235,-0.0000014
 3,0.00000548,-0.00000189,-0.00001685,-0.00000088,0.00001479,-0.0041990
 2,-0.00460280,0.00364719,-0.01518331,-0.01308377,0.01811177,0.08578555
 ,0.12065365,0.00140023,-0.00202312,0.00048893,0.00018072,0.00069834,-0
 .00000662,0.00003902,0.00011222,0.00002503,0.00301999,0.00365404,-0.00
 530067,-0.00005147,-0.00003614,-0.00000770,0.10158980,0.08372545,-0.15
 408482,0.00003249,0.00000507,-0.00000456,-0.00016082,-0.00008607,-0.00
 020162,-0.00003775,-0.00031755,0.00051165,-0.00000052,0.00022396,0.000
 02502,-0.00023386,-0.00013985,0.00049352,0.00019667,-0.00010716,-0.000
 06262,0.00010173,-0.00006082,0.00000166,-0.00000861,-0.00002645,0.0000
 2237,-0.00001202,0.00000542,-0.00001140,0.00000124,0.00000352,0.000000
 14,-0.00000660,-0.00000124,0.00000567,0.01648769,0.01294450,-0.0161816
 2,-0.00975005,-0.00710343,0.01023350,-0.11278412,-0.09144314,0.1640628
 5,-0.00001632,0.00000797,-0.00003352,0.00009095,0.00019001,-0.00004974
 ,0.00057574,0.00080799,-0.00058514,0.00003210,-0.00000765,0.00002938,-
 0.00361010,-0.00387763,0.00342476,-0.00000777,0.,-0.00001496,-0.104213
 66,-0.07553249,0.07795710,-0.00001830,-0.00001331,0.00000241,-0.000007
 65,-0.00000315,-0.00001128,0.00001172,-0.00002332,-0.00000834,0.000002
 45,0.00000817,0.00000160,-0.00007665,0.00008905,0.00006834,-0.00003523
 ,-0.00003346,-0.00003229,0.00044013,-0.00010715,0.00006602,-0.00000629
 ,-0.00001243,-0.00008801,-0.00020856,0.00000959,0.00009746,0.00067609,
 -0.00083478,-0.00091706,-0.00000147,0.00000140,0.00000156,0.00000344,-
 0.00000794,-0.00000138,0.00001058,0.00000052,-0.00000455,0.10925088,0.
 00004311,0.00009279,-0.00007525,0.00011412,0.00000987,-0.00034804,-0.0
 0116854,0.00121644,0.00156541,0.00000254,-0.00010158,-0.00000050,-0.01
 391123,-0.02016213,0.01933731,0.00002776,0.00003182,-0.00001819,-0.075
 14335,-0.14793614,0.10453933,0.00003275,0.00001224,0.00001877,-0.00000
 737,-0.00000397,-0.00001574,-0.00001126,0.00000975,0.00000230,-0.00000
 030,-0.00000164,-0.00000105,0.00013843,0.00035423,-0.00002544,-0.00002
 460,-0.00002093,0.00000174,0.00090373,-0.00003656,-0.00073613,0.000068
 30,-0.00004645,-0.00003716,0.00008696,0.00131621,-0.00012474,-0.000639
 53,-0.00464560,-0.00356589,-0.00000691,-0.00000020,-0.00000068,-0.0000
 0559,0.00001137,0.00000620,0.00001345,-0.00000723,-0.00000848,0.084872
 33,0.16351689,0.00005318,0.00010038,-0.00002858,-0.00029961,-0.0001802
 6,0.00014109,-0.00078239,0.00015912,0.00083030,0.00002437,0.00001278,0
 .00000942,-0.00730978,-0.01053659,0.01035981,-0.00000009,-0.00000201,-
 0.00000268,0.07820102,0.10542694,-0.15496495,0.00000419,0.00000192,-0.
 00000076,-0.00000244,-0.00000565,-0.00000418,-0.00003063,0.00001839,0.
 00001304,-0.00000362,0.00000093,0.,0.00009497,-0.00000939,-0.00013268,
 -0.00000807,-0.00000158,-0.00002027,-0.00000347,0.00043302,-0.00001082
 ,0.00012098,0.00008393,-0.00006987,-0.00006037,0.00080757,0.00091605,-
 0.00037519,-0.00355740,-0.00034403,-0.00000003,0.00000481,-0.00000173,
 -0.00000106,-0.00000209,-0.00000199,-0.00000488,-0.00000030,0.00000675
 ,-0.08565248,-0.11290268,0.16583386,-0.00002516,-0.00002775,-0.0000195
 6,0.00013530,0.00001153,0.00025021,0.00072693,0.00010398,0.00093503,0.
 00001013,-0.00000452,0.00001321,-0.00405371,0.00018871,-0.00451274,-0.
 00000531,0.00000391,-0.00000799,-0.13534322,0.01751277,-0.12342226,-0.
 00001219,-0.00000824,0.00000409,-0.00000258,-0.00000177,0.00000058,0.0
 0001657,-0.00002488,-0.00002081,0.00001053,0.00000267,-0.00000244,-0.0
 0003449,-0.00003452,-0.00001958,-0.00007628,0.00011928,0.00004726,-0.0
 0001119,-0.00010828,0.00002643,0.00049424,-0.00007752,-0.00023520,0.00
 077016,-0.00119830,0.00002266,-0.00020489,-0.00003953,0.00001861,0.000
 00207,-0.00000097,0.00000394,0.00000139,-0.00000566,-0.00000185,0.0000
 0844,0.00000005,-0.00000502,0.00955033,-0.00114534,0.01317650,0.143587
 95,0.00006972,0.00003777,0.00011796,-0.00008984,-0.00012045,0.00002613
 ,-0.00136475,0.00174878,-0.00002894,0.00000134,-0.00000933,-0.00000374
 ,-0.01796479,0.00287736,-0.02653502,0.00000303,0.00000166,-0.00000055,
 0.01800371,-0.04999556,0.02585487,0.00000920,0.00000250,-0.00000127,-0
 .00000480,-0.00000299,0.00000533,-0.00002608,0.00001637,0.00000888,0.0
 0005198,-0.00003708,-0.00000750,-0.00004748,0.00001439,-0.00002018,0.0
 0010760,0.00005123,0.00022651,0.00016424,-0.00002907,0.00006359,0.0005
 9763,-0.00014527,0.00046428,-0.00070936,-0.00540508,-0.00303698,0.0000
 0620,0.00136212,0.00075923,0.00000128,0.00000064,-0.00000132,-0.000001
 05,0.00000150,0.00000006,-0.00000078,-0.00000117,0.00000141,0.01271162
 ,-0.00279369,0.01545561,-0.01808517,0.05486138,-0.00000599,-0.00002714
 ,-0.00000521,0.00029855,-0.00021175,0.00028124,-0.00053969,0.00110822,
 0.00024905,-0.00000156,-0.00004446,-0.00001728,-0.00808588,0.00114708,
 -0.01219335,0.00000515,0.00001291,-0.00000426,-0.12322179,0.02510218,-
 0.22184957,0.00000029,0.00001256,-0.00001314,0.00000557,0.00000843,0.0
 0002206,0.00001101,-0.00000700,-0.00000156,0.00003375,-0.00003779,0.00
 000765,-0.00001386,0.00005202,-0.00002014,0.00004601,0.00020212,0.0001
 8224,-0.00001701,-0.00002652,-0.00010465,0.00069687,-0.00060469,0.0000
 2353,-0.00017679,-0.00300338,0.00030031,0.00024204,-0.00017614,0.00081
 074,0.00000628,-0.00001007,0.00000412,0.00000070,0.00000373,0.00000335
 ,0.00000452,-0.00000230,-0.00000562,-0.01208848,0.00193939,-0.01648221
 ,0.13713109,-0.02471340,0.24011645,0.00002116,-0.00007551,-0.00003829,
 0.00029524,-0.00037688,-0.00016790,0.00045891,-0.00064193,-0.00032067,
 -0.00002958,-0.00002148,-0.00001834,0.00711533,-0.00383038,-0.00260482
 ,0.00001073,-0.00000240,0.00000476,-0.24983825,0.09762870,0.06527559,0
 .00001981,0.00001319,0.00000275,0.00000255,0.00000050,-0.00000071,0.00
 000064,-0.00000126,0.00000099,-0.00001338,-0.00001081,-0.00000141,0.00
 001472,0.00007346,0.00002944,0.00002027,0.00007564,0.00004894,0.000136
 99,-0.00006434,-0.00026605,0.00019947,-0.00026296,0.00008330,0.0004362
 5,0.00056178,0.00040896,0.00037491,0.00067919,0.00015805,-0.00000141,-
 0.00000039,-0.00000374,-0.00000072,0.00001338,0.00000445,-0.00000984,-
 0.00000143,0.00000579,-0.01244240,0.00576054,0.00285890,-0.01554502,0.
 00656656,0.00566922,0.26877361,-0.00036559,-0.00052791,-0.00031642,0.0
 0202351,-0.00005636,-0.00041620,-0.00338529,-0.00510790,-0.00254015,-0
 .00002696,-0.00007326,0.00006438,0.02704798,-0.01150060,-0.00715298,0.
 00000646,0.00003424,-0.00003135,0.09650071,-0.09322734,-0.03065157,-0.
 00001272,0.00000440,0.00000937,-0.00000685,0.00000508,-0.00001143,0.00
 021192,-0.00015533,-0.00007740,0.00001030,0.00002696,0.00003187,-0.000
 01953,0.00000646,0.00011653,-0.00003298,-0.00001785,-0.00010461,0.0000
 2811,0.00020647,-0.00022114,-0.00029585,0.00011682,0.00016865,-0.00029
 831,0.00124759,0.00007136,0.00009100,0.00074474,0.00095257,-0.00000116
 ,-0.00000656,0.00000886,-0.00000064,-0.00000466,0.00000436,0.00003483,
 -0.00000057,-0.00002048,-0.01824532,0.00918449,0.00469252,0.00281954,-
 0.00243602,-0.00072400,-0.10608316,0.10153711,-0.00019588,-0.00028854,
 -0.00017099,0.00104228,-0.00030144,0.00041883,-0.00168710,-0.00265373,
 -0.00100667,0.00000497,-0.00002299,0.00003941,0.01303751,-0.00469560,-
 0.00496442,-0.00000317,0.00001547,-0.00001748,0.06469126,-0.03076943,-
 0.06821575,-0.00001521,0.00000390,-0.00000610,-0.00000126,0.00000530,-
 0.00000244,0.00011246,-0.00008212,-0.00004778,0.00000112,0.00000795,0.
 00001653,-0.00001937,-0.00007771,-0.00000069,-0.00000308,0.00009954,-0
 .00002607,-0.00048012,0.00007776,0.00024720,0.00032990,-0.00018286,0.0
 0022324,0.00022662,0.00057102,-0.00004029,-0.00038850,0.00034246,0.000
 52232,0.00000140,-0.00000486,0.00000510,0.00000080,-0.00000667,0.00000
 206,0.00001814,0.00000076,-0.00000985,0.01783859,-0.00955049,-0.006045
 57,-0.02338216,0.01136503,0.00869628,-0.07112919,0.03614723,0.07038313
 \\0.00000127,-0.00000009,0.00000046,0.00000039,-0.00000089,0.00000104,
 -0.00000009,0.00000006,-0.00000028,0.00000009,0.00000096,-0.00000026,-
 0.00000077,-0.00000092,-0.00000014,0.00000093,0.00000075,-0.00000021,-
 0.00000146,-0.00000044,-0.00000061,-0.00000041,0.00000081,-0.00000081,
 -0.00000059,-0.00000050,0.00000014,0.00000188,-0.00000024,0.00000124,0
 .00000155,0.00000115,0.00000068,0.00000157,-0.00000089,0.00000137,-0.0
 0000007,-0.00000167,0.00000084,-0.00000095,-0.00000025,-0.00000083,0.0
 0000005,0.00000129,-0.00000016,-0.00000130,-0.00000164,0.00000004,0.00
 000022,-0.00000133,0.00000021,0.00000112,0.00000212,0.00000012,0.00000
 135,0.00000106,0.00000062,0.00000048,0.00000143,-0.00000041,-0.0000020
 4,-0.00000048,-0.00000129,-0.00000133,0.00000050,-0.00000072,-0.000001
 90,-0.00000079,-0.00000104\\\@


 IF THE FACTS DO NOT CONFORM TO THE THEORY, THEY MUST BE DISPOSED OF.
 Job cpu time:       0 days  5 hours 44 minutes 12.6 seconds.
 Elapsed time:       0 days  2 hours 52 minutes  9.2 seconds.
 File lengths (MBytes):  RWF=   1488 Int=      0 D2E=      0 Chk=     32 Scr=     32
 Normal termination of Gaussian 16 at Sun Sep 29 12:25:07 2019.
Sep 29 06:22:10 2019.
