 Entering Gaussian System, Link 0=g16
 Input=tight/species/CCCCCCC/conformers/CCCCCCC_879.com
 Output=tight/species/CCCCCCC/conformers/CCCCCCC_879.log
 Initial command:
 /shared/centos7/gaussian/g16/l1.exe "/scratch/harms.n/gauss_scrdir/Gau-22067.inp" -scrdir="/scratch/harms.n/gauss_scrdir/"
 Entering Link 1 = /shared/centos7/gaussian/g16/l1.exe PID=     22068.
  
 Copyright (c) 1988,1990,1992,1993,1995,1998,2003,2009,2016,
            Gaussian, Inc.  All Rights Reserved.
  
 This is part of the Gaussian(R) 16 program.  It is based on
 the Gaussian(R) 09 system (copyright 2009, Gaussian, Inc.),
 the Gaussian(R) 03 system (copyright 2003, Gaussian, Inc.),
 the Gaussian(R) 98 system (copyright 1998, Gaussian, Inc.),
 the Gaussian(R) 94 system (copyright 1995, Gaussian, Inc.),
 the Gaussian 92(TM) system (copyright 1992, Gaussian, Inc.),
 the Gaussian 90(TM) system (copyright 1990, Gaussian, Inc.),
 the Gaussian 88(TM) system (copyright 1988, Gaussian, Inc.),
 the Gaussian 86(TM) system (copyright 1986, Carnegie Mellon
 University), and the Gaussian 82(TM) system (copyright 1983,
 Carnegie Mellon University). Gaussian is a federally registered
 trademark of Gaussian, Inc.
  
 This software contains proprietary and confidential information,
 including trade secrets, belonging to Gaussian, Inc.
  
 This software is provided under written license and may be
 used, copied, transmitted, or stored only in accord with that
 written license.
  
 The following legend is applicable only to US Government
 contracts under FAR:
  
                    RESTRICTED RIGHTS LEGEND
  
 Use, reproduction and disclosure by the US Government is
 subject to restrictions as set forth in subparagraphs (a)
 and (c) of the Commercial Computer Software - Restricted
 Rights clause in FAR 52.227-19.
  
 Gaussian, Inc.
 340 Quinnipiac St., Bldg. 40, Wallingford CT 06492
  
  
 ---------------------------------------------------------------
 Warning -- This program may not be used in any manner that
 competes with the business of Gaussian, Inc. or will provide
 assistance to any competitor of Gaussian, Inc.  The licensee
 of this program is prohibited from giving any competitor of
 Gaussian, Inc. access to this program.  By using this program,
 the user acknowledges that Gaussian, Inc. is engaged in the
 business of creating and licensing software in the field of
 computational chemistry and represents and warrants to the
 licensee that it is not a competitor of Gaussian, Inc. and that
 it will not use this program in any manner prohibited above.
 ---------------------------------------------------------------
  

 Cite this work as:
 Gaussian 16, Revision A.03,
 M. J. Frisch, G. W. Trucks, H. B. Schlegel, G. E. Scuseria, 
 M. A. Robb, J. R. Cheeseman, G. Scalmani, V. Barone, 
 G. A. Petersson, H. Nakatsuji, X. Li, M. Caricato, A. V. Marenich, 
 J. Bloino, B. G. Janesko, R. Gomperts, B. Mennucci, H. P. Hratchian, 
 J. V. Ortiz, A. F. Izmaylov, J. L. Sonnenberg, D. Williams-Young, 
 F. Ding, F. Lipparini, F. Egidi, J. Goings, B. Peng, A. Petrone, 
 T. Henderson, D. Ranasinghe, V. G. Zakrzewski, J. Gao, N. Rega, 
 G. Zheng, W. Liang, M. Hada, M. Ehara, K. Toyota, R. Fukuda, 
 J. Hasegawa, M. Ishida, T. Nakajima, Y. Honda, O. Kitao, H. Nakai, 
 T. Vreven, K. Throssell, J. A. Montgomery, Jr., J. E. Peralta, 
 F. Ogliaro, M. J. Bearpark, J. J. Heyd, E. N. Brothers, K. N. Kudin, 
 V. N. Staroverov, T. A. Keith, R. Kobayashi, J. Normand, 
 K. Raghavachari, A. P. Rendell, J. C. Burant, S. S. Iyengar, 
 J. Tomasi, M. Cossi, J. M. Millam, M. Klene, C. Adamo, R. Cammi, 
 J. W. Ochterski, R. L. Martin, K. Morokuma, O. Farkas, 
 J. B. Foresman, and D. J. Fox, Gaussian, Inc., Wallingford CT, 2016.
 
 ******************************************
 Gaussian 16:  EM64L-G16RevA.03 25-Dec-2016
                28-Sep-2019 
 ******************************************
 %nprocshared=20
 Will use up to   20 processors via shared memory.
 %mem=5GB
 ----------------------------------------------------------------------
 #p m062x/cc-pVTZ opt=(calcfc,maxcycles=900,Tight) freq IOP(7/33=1,2/16
 =3) scf=(maxcycle=900)
 ----------------------------------------------------------------------
 1/6=900,7=10,10=4,18=20,19=15,26=3,38=1/1,3;
 2/9=110,12=2,16=3,17=6,18=5,40=1/2;
 3/5=16,6=1,11=2,25=1,30=1,71=2,74=-55,140=1/1,2,3;
 4//1;
 5/5=2,7=900,38=5/2;
 8/6=4,10=90,11=11/1;
 11/6=1,8=1,9=11,15=111,16=1/1,2,10;
 10/6=1,13=1/2;
 6/7=2,8=2,9=2,10=2,28=1/1;
 7/10=1,18=20,25=1,33=1/1,2,3,16;
 1/6=900,7=10,10=4,18=20,19=15,26=3/3(2);
 2/9=110,16=3/2;
 99//99;
 2/9=110,16=3/2;
 3/5=16,6=1,11=2,25=1,30=1,71=1,74=-55/1,2,3;
 4/5=5,16=3,69=1/1;
 5/5=2,7=900,38=5/2;
 7/33=1/1,2,3,16;
 1/6=900,7=10,18=20,19=15,26=3/3(-5);
 2/9=110,16=3/2;
 6/7=2,8=2,9=2,10=2,19=2,28=1/1;
 99/9=1/99;
 Leave Link    1 at Sat Sep 28 19:36:22 2019, MaxMem=   671088640 cpu:               4.3 elap:               2.2
 (Enter /shared/centos7/gaussian/g16/l101.exe)
 ------------------------------
 Gaussian input prepared by ASE
 ------------------------------
 Symbolic Z-matrix:
 Charge =  0 Multiplicity = 1
 C                     1.37355  -1.14594   0.48536 
 C                     0.15966  -0.40522   0.9323 
 C                     0.12067  -0.10447   2.4098 
 C                     2.15464  -0.47034  -0.59098 
 C                     0.14847  -1.34257   3.27469 
 C                     2.34054  -1.27303  -1.81193 
 C                     0.14712  -1.06036   4.75465 
 H                     3.16242  -0.17757  -0.18136 
 H                     1.66873   0.4995   -0.85376 
 H                     1.06926  -2.15552   0.13647 
 H                     2.03586  -1.33452   1.3551 
 H                    -0.74152  -0.97867   0.6645 
 H                     0.07808   0.55618   0.38247 
 H                    -0.78783   0.48116   2.63069 
 H                     0.97852   0.54953   2.66966 
 H                    -0.73982  -1.9797    3.02459 
 H                     1.04112  -1.93785   3.01763 
 H                     1.89475  -2.28083  -1.71453 
 H                     1.8596   -0.78469  -2.71068 
 H                     3.41494  -1.41423  -2.0553 
 H                    -0.48679  -0.20935   5.00668 
 H                     1.18768  -0.84505   5.12441 
 H                    -0.23668  -1.95448   5.32484 
 
 ITRead=  0  0  0  0  0  0  0  0  0  0  0  0  0  0  0  0  0  0  0  0
 ITRead=  0  0  0
 MicOpt= -1 -1 -1 -1 -1 -1 -1 -1 -1 -1 -1 -1 -1 -1 -1 -1 -1 -1 -1 -1
 MicOpt= -1 -1 -1
 NAtoms=     23 NQM=       23 NQMF=       0 NMMI=      0 NMMIF=      0
                NMic=       0 NMicF=      0.
                    Isotopes and Nuclear Properties:
 (Nuclear quadrupole moments (NQMom) in fm**2, nuclear magnetic moments (NMagM)
  in nuclear magnetons)

  Atom         1           2           3           4           5           6           7           8           9          10
 IAtWgt=          12          12          12          12          12          12          12           1           1           1
 AtmWgt=  12.0000000  12.0000000  12.0000000  12.0000000  12.0000000  12.0000000  12.0000000   1.0078250   1.0078250   1.0078250
 NucSpn=           0           0           0           0           0           0           0           1           1           1
 AtZEff=  -0.0000000  -0.0000000  -0.0000000  -0.0000000  -0.0000000  -0.0000000  -0.0000000  -0.0000000  -0.0000000  -0.0000000
 NQMom=    0.0000000   0.0000000   0.0000000   0.0000000   0.0000000   0.0000000   0.0000000   0.0000000   0.0000000   0.0000000
 NMagM=    0.0000000   0.0000000   0.0000000   0.0000000   0.0000000   0.0000000   0.0000000   2.7928460   2.7928460   2.7928460
 AtZNuc=   6.0000000   6.0000000   6.0000000   6.0000000   6.0000000   6.0000000   6.0000000   1.0000000   1.0000000   1.0000000

  Atom        11          12          13          14          15          16          17          18          19          20
 IAtWgt=           1           1           1           1           1           1           1           1           1           1
 AtmWgt=   1.0078250   1.0078250   1.0078250   1.0078250   1.0078250   1.0078250   1.0078250   1.0078250   1.0078250   1.0078250
 NucSpn=           1           1           1           1           1           1           1           1           1           1
 AtZEff=  -0.0000000  -0.0000000  -0.0000000  -0.0000000  -0.0000000  -0.0000000  -0.0000000  -0.0000000  -0.0000000  -0.0000000
 NQMom=    0.0000000   0.0000000   0.0000000   0.0000000   0.0000000   0.0000000   0.0000000   0.0000000   0.0000000   0.0000000
 NMagM=    2.7928460   2.7928460   2.7928460   2.7928460   2.7928460   2.7928460   2.7928460   2.7928460   2.7928460   2.7928460
 AtZNuc=   1.0000000   1.0000000   1.0000000   1.0000000   1.0000000   1.0000000   1.0000000   1.0000000   1.0000000   1.0000000

  Atom        21          22          23
 IAtWgt=           1           1           1
 AtmWgt=   1.0078250   1.0078250   1.0078250
 NucSpn=           1           1           1
 AtZEff=  -0.0000000  -0.0000000  -0.0000000
 NQMom=    0.0000000   0.0000000   0.0000000
 NMagM=    2.7928460   2.7928460   2.7928460
 AtZNuc=   1.0000000   1.0000000   1.0000000
 Leave Link  101 at Sat Sep 28 19:36:23 2019, MaxMem=   671088640 cpu:               2.7 elap:               1.4
 (Enter /shared/centos7/gaussian/g16/l103.exe)

 GradGradGradGradGradGradGradGradGradGradGradGradGradGradGradGradGradGrad
 Berny optimization.
 Initialization pass.
                           ----------------------------
                           !    Initial Parameters    !
                           ! (Angstroms and Degrees)  !
 --------------------------                            --------------------------
 ! Name  Definition              Value          Derivative Info.                !
 --------------------------------------------------------------------------------
 ! R1    R(1,2)                  1.4906         calculate D2E/DX2 analytically  !
 ! R2    R(1,4)                  1.4917         calculate D2E/DX2 analytically  !
 ! R3    R(1,10)                 1.1107         calculate D2E/DX2 analytically  !
 ! R4    R(1,11)                 1.1093         calculate D2E/DX2 analytically  !
 ! R5    R(2,3)                  1.5083         calculate D2E/DX2 analytically  !
 ! R6    R(2,12)                 1.1012         calculate D2E/DX2 analytically  !
 ! R7    R(2,13)                 1.1105         calculate D2E/DX2 analytically  !
 ! R8    R(3,5)                  1.5105         calculate D2E/DX2 analytically  !
 ! R9    R(3,14)                 1.1032         calculate D2E/DX2 analytically  !
 ! R10   R(3,15)                 1.1096         calculate D2E/DX2 analytically  !
 ! R11   R(4,6)                  1.473          calculate D2E/DX2 analytically  !
 ! R12   R(4,8)                  1.1266         calculate D2E/DX2 analytically  !
 ! R13   R(4,9)                  1.1161         calculate D2E/DX2 analytically  !
 ! R14   R(5,7)                  1.5066         calculate D2E/DX2 analytically  !
 ! R15   R(5,16)                 1.1214         calculate D2E/DX2 analytically  !
 ! R16   R(5,17)                 1.1033         calculate D2E/DX2 analytically  !
 ! R17   R(6,18)                 1.1063         calculate D2E/DX2 analytically  !
 ! R18   R(6,19)                 1.1303         calculate D2E/DX2 analytically  !
 ! R19   R(6,20)                 1.1106         calculate D2E/DX2 analytically  !
 ! R20   R(7,21)                 1.0907         calculate D2E/DX2 analytically  !
 ! R21   R(7,22)                 1.1251         calculate D2E/DX2 analytically  !
 ! R22   R(7,23)                 1.1278         calculate D2E/DX2 analytically  !
 ! A1    A(2,1,4)              114.6904         calculate D2E/DX2 analytically  !
 ! A2    A(2,1,10)             108.8304         calculate D2E/DX2 analytically  !
 ! A3    A(2,1,11)             109.6085         calculate D2E/DX2 analytically  !
 ! A4    A(4,1,10)             109.1773         calculate D2E/DX2 analytically  !
 ! A5    A(4,1,11)             109.2742         calculate D2E/DX2 analytically  !
 ! A6    A(10,1,11)            104.7927         calculate D2E/DX2 analytically  !
 ! A7    A(1,2,3)              114.4464         calculate D2E/DX2 analytically  !
 ! A8    A(1,2,12)             109.5567         calculate D2E/DX2 analytically  !
 ! A9    A(1,2,13)             109.972          calculate D2E/DX2 analytically  !
 ! A10   A(3,2,12)             108.7172         calculate D2E/DX2 analytically  !
 ! A11   A(3,2,13)             108.0882         calculate D2E/DX2 analytically  !
 ! A12   A(12,2,13)            105.6824         calculate D2E/DX2 analytically  !
 ! A13   A(2,3,5)              113.3887         calculate D2E/DX2 analytically  !
 ! A14   A(2,3,14)             108.8603         calculate D2E/DX2 analytically  !
 ! A15   A(2,3,15)             109.0841         calculate D2E/DX2 analytically  !
 ! A16   A(5,3,14)             109.6094         calculate D2E/DX2 analytically  !
 ! A17   A(5,3,15)             109.5597         calculate D2E/DX2 analytically  !
 ! A18   A(14,3,15)            106.0757         calculate D2E/DX2 analytically  !
 ! A19   A(1,4,6)              114.6703         calculate D2E/DX2 analytically  !
 ! A20   A(1,4,8)              108.8909         calculate D2E/DX2 analytically  !
 ! A21   A(1,4,9)              109.6015         calculate D2E/DX2 analytically  !
 ! A22   A(6,4,8)              109.2756         calculate D2E/DX2 analytically  !
 ! A23   A(6,4,9)              109.4697         calculate D2E/DX2 analytically  !
 ! A24   A(8,4,9)              104.4327         calculate D2E/DX2 analytically  !
 ! A25   A(3,5,7)              114.1348         calculate D2E/DX2 analytically  !
 ! A26   A(3,5,16)             108.8695         calculate D2E/DX2 analytically  !
 ! A27   A(3,5,17)             108.8881         calculate D2E/DX2 analytically  !
 ! A28   A(7,5,16)             108.953          calculate D2E/DX2 analytically  !
 ! A29   A(7,5,17)             109.3086         calculate D2E/DX2 analytically  !
 ! A30   A(16,5,17)            106.4026         calculate D2E/DX2 analytically  !
 ! A31   A(4,6,18)             111.8762         calculate D2E/DX2 analytically  !
 ! A32   A(4,6,19)             111.7137         calculate D2E/DX2 analytically  !
 ! A33   A(4,6,20)             111.902          calculate D2E/DX2 analytically  !
 ! A34   A(18,6,19)            106.985          calculate D2E/DX2 analytically  !
 ! A35   A(18,6,20)            107.0548         calculate D2E/DX2 analytically  !
 ! A36   A(19,6,20)            106.9966         calculate D2E/DX2 analytically  !
 ! A37   A(5,7,21)             111.9421         calculate D2E/DX2 analytically  !
 ! A38   A(5,7,22)             110.9684         calculate D2E/DX2 analytically  !
 ! A39   A(5,7,23)             110.3918         calculate D2E/DX2 analytically  !
 ! A40   A(21,7,22)            108.1962         calculate D2E/DX2 analytically  !
 ! A41   A(21,7,23)            107.6971         calculate D2E/DX2 analytically  !
 ! A42   A(22,7,23)            107.4752         calculate D2E/DX2 analytically  !
 ! D1    D(4,1,2,3)           -123.5562         calculate D2E/DX2 analytically  !
 ! D2    D(4,1,2,12)           114.0613         calculate D2E/DX2 analytically  !
 ! D3    D(4,1,2,13)            -1.6798         calculate D2E/DX2 analytically  !
 ! D4    D(10,1,2,3)           113.8436         calculate D2E/DX2 analytically  !
 ! D5    D(10,1,2,12)           -8.5388         calculate D2E/DX2 analytically  !
 ! D6    D(10,1,2,13)         -124.28           calculate D2E/DX2 analytically  !
 ! D7    D(11,1,2,3)            -0.2267         calculate D2E/DX2 analytically  !
 ! D8    D(11,1,2,12)         -122.6091         calculate D2E/DX2 analytically  !
 ! D9    D(11,1,2,13)          121.6497         calculate D2E/DX2 analytically  !
 ! D10   D(2,1,4,6)           -122.8413         calculate D2E/DX2 analytically  !
 ! D11   D(2,1,4,8)            114.3982         calculate D2E/DX2 analytically  !
 ! D12   D(2,1,4,9)              0.7263         calculate D2E/DX2 analytically  !
 ! D13   D(10,1,4,6)            -0.4286         calculate D2E/DX2 analytically  !
 ! D14   D(10,1,4,8)          -123.1892         calculate D2E/DX2 analytically  !
 ! D15   D(10,1,4,9)           123.139          calculate D2E/DX2 analytically  !
 ! D16   D(11,1,4,6)           113.6503         calculate D2E/DX2 analytically  !
 ! D17   D(11,1,4,8)            -9.1103         calculate D2E/DX2 analytically  !
 ! D18   D(11,1,4,9)          -122.7821         calculate D2E/DX2 analytically  !
 ! D19   D(1,2,3,5)            -60.228          calculate D2E/DX2 analytically  !
 ! D20   D(1,2,3,14)           177.4864         calculate D2E/DX2 analytically  !
 ! D21   D(1,2,3,15)            62.1571         calculate D2E/DX2 analytically  !
 ! D22   D(12,2,3,5)            62.6098         calculate D2E/DX2 analytically  !
 ! D23   D(12,2,3,14)          -59.6758         calculate D2E/DX2 analytically  !
 ! D24   D(12,2,3,15)         -175.0051         calculate D2E/DX2 analytically  !
 ! D25   D(13,2,3,5)           176.8712         calculate D2E/DX2 analytically  !
 ! D26   D(13,2,3,14)           54.5856         calculate D2E/DX2 analytically  !
 ! D27   D(13,2,3,15)          -60.7437         calculate D2E/DX2 analytically  !
 ! D28   D(2,3,5,7)            178.4584         calculate D2E/DX2 analytically  !
 ! D29   D(2,3,5,16)           -59.5867         calculate D2E/DX2 analytically  !
 ! D30   D(2,3,5,17)            56.0298         calculate D2E/DX2 analytically  !
 ! D31   D(14,3,5,7)           -59.6731         calculate D2E/DX2 analytically  !
 ! D32   D(14,3,5,16)           62.2819         calculate D2E/DX2 analytically  !
 ! D33   D(14,3,5,17)          177.8984         calculate D2E/DX2 analytically  !
 ! D34   D(15,3,5,7)            56.3376         calculate D2E/DX2 analytically  !
 ! D35   D(15,3,5,16)          178.2925         calculate D2E/DX2 analytically  !
 ! D36   D(15,3,5,17)          -66.091          calculate D2E/DX2 analytically  !
 ! D37   D(1,4,6,18)            -2.2333         calculate D2E/DX2 analytically  !
 ! D38   D(1,4,6,19)           117.6824         calculate D2E/DX2 analytically  !
 ! D39   D(1,4,6,20)          -122.3693         calculate D2E/DX2 analytically  !
 ! D40   D(8,4,6,18)           120.3197         calculate D2E/DX2 analytically  !
 ! D41   D(8,4,6,19)          -119.7646         calculate D2E/DX2 analytically  !
 ! D42   D(8,4,6,20)             0.1837         calculate D2E/DX2 analytically  !
 ! D43   D(9,4,6,18)          -125.8712         calculate D2E/DX2 analytically  !
 ! D44   D(9,4,6,19)            -5.9555         calculate D2E/DX2 analytically  !
 ! D45   D(9,4,6,20)           113.9928         calculate D2E/DX2 analytically  !
 ! D46   D(3,5,7,21)            37.5943         calculate D2E/DX2 analytically  !
 ! D47   D(3,5,7,22)           -83.3977         calculate D2E/DX2 analytically  !
 ! D48   D(3,5,7,23)           157.5538         calculate D2E/DX2 analytically  !
 ! D49   D(16,5,7,21)          -84.3147         calculate D2E/DX2 analytically  !
 ! D50   D(16,5,7,22)          154.6932         calculate D2E/DX2 analytically  !
 ! D51   D(16,5,7,23)           35.6448         calculate D2E/DX2 analytically  !
 ! D52   D(17,5,7,21)          159.7927         calculate D2E/DX2 analytically  !
 ! D53   D(17,5,7,22)           38.8006         calculate D2E/DX2 analytically  !
 ! D54   D(17,5,7,23)          -80.2478         calculate D2E/DX2 analytically  !
 --------------------------------------------------------------------------------
 Trust Radius=3.00D-01 FncErr=1.00D-07 GrdErr=1.00D-06 EigMax=2.50D+02 EigMin=1.00D-04
 Number of steps in this run=    138 maximum allowed number of steps=    138.
 GradGradGradGradGradGradGradGradGradGradGradGradGradGradGradGradGradGrad

 Leave Link  103 at Sat Sep 28 19:36:24 2019, MaxMem=   671088640 cpu:               1.5 elap:               0.8
 (Enter /shared/centos7/gaussian/g16/l202.exe)
                          Input orientation:                          
 ---------------------------------------------------------------------
 Center     Atomic      Atomic             Coordinates (Angstroms)
 Number     Number       Type             X           Y           Z
 ---------------------------------------------------------------------
      1          6           0        1.373553   -1.145936    0.485364
      2          6           0        0.159656   -0.405216    0.932301
      3          6           0        0.120669   -0.104466    2.409802
      4          6           0        2.154638   -0.470342   -0.590975
      5          6           0        0.148465   -1.342572    3.274687
      6          6           0        2.340543   -1.273029   -1.811926
      7          6           0        0.147115   -1.060356    4.754646
      8          1           0        3.162425   -0.177572   -0.181355
      9          1           0        1.668729    0.499498   -0.853761
     10          1           0        1.069261   -2.155519    0.136473
     11          1           0        2.035857   -1.334518    1.355096
     12          1           0       -0.741520   -0.978671    0.664504
     13          1           0        0.078082    0.556182    0.382469
     14          1           0       -0.787832    0.481159    2.630691
     15          1           0        0.978522    0.549526    2.669659
     16          1           0       -0.739816   -1.979696    3.024588
     17          1           0        1.041119   -1.937846    3.017630
     18          1           0        1.894749   -2.280829   -1.714533
     19          1           0        1.859598   -0.784693   -2.710679
     20          1           0        3.414937   -1.414234   -2.055299
     21          1           0       -0.486792   -0.209346    5.006683
     22          1           0        1.187679   -0.845049    5.124415
     23          1           0       -0.236676   -1.954485    5.324840
 ---------------------------------------------------------------------
                    Distance matrix (angstroms):
                    1          2          3          4          5
     1  C    0.000000
     2  C    1.490625   0.000000
     3  C    2.521476   1.508304   0.000000
     4  C    1.491652   2.510889   3.643565   0.000000
     5  C    3.052839   2.523001   1.510531   4.441718   0.000000
     6  C    2.495749   3.611114   4.910842   1.472952   5.539284
     7  C    4.442774   3.878104   2.532334   5.740551   1.506627
     8  H    2.140631   3.210711   3.996463   1.126559   4.731321
     9  H    2.141924   2.507155   3.662255   1.116134   4.769539
    10  H    1.110665   2.127036   3.205412   2.132380   3.370035
    11  H    1.109344   2.135998   2.508661   2.132628   2.692052
    12  H    2.129226   1.101220   2.133933   3.197243   2.781646
    13  H    2.141504   1.110520   2.132686   2.512655   3.460512
    14  H    3.452746   2.137271   1.103233   4.465717   2.148809
    15  H    2.793168   2.144875   1.109570   3.613187   2.152925
    16  H    3.407220   2.768701   2.152878   4.871172   1.121392
    17  H    2.673949   2.733958   2.139618   4.051607   1.103295
    18  H    2.529659   3.678886   4.989395   2.146576   5.368627
    19  H    3.252910   4.037958   5.450313   2.163102   6.250104
    20  H    3.270199   4.532187   5.701301   2.150239   6.251698
    21  H    4.977993   4.129995   2.669045   6.195083   2.165078
    22  H    4.652513   4.338676   3.009335   5.808709   2.179217
    23  H    5.164022   4.674582   3.470981   6.551178   2.173914
                    6          7          8          9         10
     6  C    0.000000
     7  C    6.926487   0.000000
     8  H    2.129384   5.851111   0.000000
     9  H    2.123974   6.016866   1.772479   0.000000
    10  H    2.488214   4.835003   2.897347   2.896384   0.000000
    11  H    3.182239   3.898647   2.228982   2.894382   1.758804
    12  H    3.964652   4.186360   4.074067   3.209270   2.223222
    13  H    3.644189   4.661962   3.220165   2.015350   2.897632
    14  H    5.709707   2.785961   4.893471   4.263383   4.077008
    15  H    5.026074   2.762268   3.664203   3.590735   3.707092
    16  H    5.777531   2.150565   5.362201   5.195102   3.412460
    17  H    5.045304   2.141602   4.222796   4.617597   2.889504
    18  H    1.106291   6.811318   2.895052   2.919287   2.030605
    19  H    1.130281   7.664180   2.909198   2.265772   3.257310
    20  H    1.110627   7.561696   2.259372   2.855750   3.294778
    21  H    7.457793   1.090678   6.342991   6.284388   5.470634
    22  H    7.044508   1.125104   5.700556   6.146365   5.158577
    23  H    7.618391   1.127778   6.710402   6.915758   5.353974
                   11         12         13         14         15
    11  H    0.000000
    12  H    2.883985   0.000000
    13  H    2.890266   1.762687   0.000000
    14  H    3.591247   2.449315   2.410381   0.000000
    15  H    2.528964   3.051980   2.458063   1.768107   0.000000
    16  H    3.302699   2.563602   3.752389   2.492643   3.078250
    17  H    2.029169   3.104033   3.753889   3.057183   2.512374
    18  H    3.215282   3.782242   3.968165   5.805670   5.298257
    19  H    4.106568   4.265595   3.813045   6.094383   5.612885
    20  H    3.679540   4.986299   4.578194   6.573758   5.667249
    21  H    4.578631   4.417156   4.721067   2.492541   2.860894
    22  H    3.894451   4.861118   5.067613   3.446757   2.830973
    23  H    4.616019   4.788091   5.552436   3.673496   3.846656
                   16         17         18         19         20
    16  H    0.000000
    17  H    1.781440   0.000000
    18  H    5.430551   4.820756   0.000000
    19  H    6.409233   5.900270   1.797767   0.000000
    20  H    6.586879   5.625281   1.782717   1.801367   0.000000
    21  H    2.669618   3.046072   7.425465   8.086671   8.157625
    22  H    3.067887   2.377862   7.023719   7.864084   7.538763
    23  H    2.354770   2.637472   7.362218   8.386438   8.251825
                   21         22         23
    21  H    0.000000
    22  H    1.794946   0.000000
    23  H    1.791449   1.816537   0.000000
 Stoichiometry    C7H16
 Framework group  C1[X(C7H16)]
 Deg. of freedom    63
 Full point group                 C1      NOp   1
 Largest Abelian subgroup         C1      NOp   1
 Largest concise Abelian subgroup C1      NOp   1
                         Standard orientation:                         
 ---------------------------------------------------------------------
 Center     Atomic      Atomic             Coordinates (Angstroms)
 Number     Number       Type             X           Y           Z
 ---------------------------------------------------------------------
      1          6           0        0.971371   -0.286801   -0.130006
      2          6           0        0.107659    0.904834   -0.366591
      3          6           0       -1.282477    0.792078    0.207684
      4          6           0        2.256416    0.004042    0.569347
      5          6           0       -2.072064   -0.365690   -0.356078
      6          6           0        3.463700   -0.412825   -0.164326
      7          6           0       -3.450617   -0.516069    0.232909
      8          1           0        2.243553   -0.495854    1.578839
      9          1           0        2.318959    1.094371    0.799621
     10          1           0        1.188436   -0.771564   -1.105436
     11          1           0        0.405694   -1.048330    0.445082
     12          1           0        0.028760    1.093944   -1.448579
     13          1           0        0.585507    1.810845    0.062431
     14          1           0       -1.823319    1.735218    0.020336
     15          1           0       -1.212390    0.691933    1.310500
     16          1           0       -2.162450   -0.236595   -1.466341
     17          1           0       -1.503342   -1.297464   -0.196042
     18          1           0        3.213672   -0.918760   -1.115849
     19          1           0        4.121666    0.469244   -0.422338
     20          1           0        4.084509   -1.119023    0.426752
     21          1           0       -3.920838    0.449809    0.421456
     22          1           0       -3.414081   -1.084428    1.203215
     23          1           0       -4.118257   -1.090760   -0.471271
 ---------------------------------------------------------------------
 Rotational constants (GHZ):           7.6704105           0.8922162           0.8614706
 Leave Link  202 at Sat Sep 28 19:36:26 2019, MaxMem=   671088640 cpu:               3.7 elap:               1.9
 (Enter /shared/centos7/gaussian/g16/l301.exe)
 Standard basis: CC-pVTZ (5D, 7F)
 Ernie: Thresh=  0.10000D-02 Tol=  0.10000D-05 Strict=F.
 Ernie:  21 primitive shells out of 310 were deleted.
 There are   485 symmetry adapted cartesian basis functions of A   symmetry.
 There are   434 symmetry adapted basis functions of A   symmetry.
   434 basis functions,   636 primitive gaussians,   485 cartesian basis functions
    29 alpha electrons       29 beta electrons
       nuclear repulsion energy       317.2706705870 Hartrees.
 IExCor= 4336 DFT=T Ex+Corr=M062X ExCW=0 ScaHFX=  0.540000
 ScaDFX=  1.000000  1.000000  1.000000  1.000000 ScalE2=  1.000000  1.000000
 IRadAn=      5 IRanWt=     -1 IRanGd=            0 ICorTp=0 IEmpDi=  4
 NAtoms=   23 NActive=   23 NUniq=   23 SFac= 1.00D+00 NAtFMM=   60 NAOKFM=F Big=F
 Integral buffers will be    131072 words long.
 Raffenetti 2 integral format.
 Two-electron integral symmetry is turned on.
 Leave Link  301 at Sat Sep 28 19:36:27 2019, MaxMem=   671088640 cpu:               1.5 elap:               0.8
 (Enter /shared/centos7/gaussian/g16/l302.exe)
 NPDir=0 NMtPBC=     1 NCelOv=     1 NCel=       1 NClECP=     1 NCelD=      1
         NCelK=      1 NCelE2=     1 NClLst=     1 CellRange=     0.0.
 One-electron integrals computed using PRISM.
 One-electron integral symmetry used in STVInt
 NBasis=   434 RedAO= T EigKep=  3.38D-04  NBF=   434
 NBsUse=   434 1.00D-06 EigRej= -1.00D+00 NBFU=   434
 Precomputing XC quadrature grid using
 IXCGrd= 4 IRadAn=           5 IRanWt=          -1 IRanGd=           0 AccXCQ= 0.00D+00.
 Generated NRdTot=       0 NPtTot=           0 NUsed=           0 NTot=          32
 NSgBfM=   485   485   485   485   485 MxSgAt=    23 MxSgA2=    23.
 Leave Link  302 at Sat Sep 28 19:37:37 2019, MaxMem=   671088640 cpu:             140.1 elap:              70.1
 (Enter /shared/centos7/gaussian/g16/l303.exe)
 DipDrv:  MaxL=1.
 Leave Link  303 at Sat Sep 28 19:37:41 2019, MaxMem=   671088640 cpu:               8.8 elap:               4.4
 (Enter /shared/centos7/gaussian/g16/l401.exe)
 ExpMin= 1.03D-01 ExpMax= 8.24D+03 ExpMxC= 2.81D+02 IAcc=3 IRadAn=         5 AccDes= 0.00D+00
 Harris functional with IExCor= 1009 and IRadAn=       5 diagonalized for initial guess.
 HarFok:  IExCor= 1009 AccDes= 0.00D+00 IRadAn=         5 IDoV= 1 UseB2=F ITyADJ=14
 ICtDFT=  3500011 ScaDFX=  1.000000  1.000000  1.000000  1.000000
 FoFCou: FMM=F IPFlag=           0 FMFlag=      100000 FMFlg1=           0
         NFxFlg=           0 DoJE=T BraDBF=F KetDBF=T FulRan=T
         wScrn=  0.000000 ICntrl=       500 IOpCl=  0 I1Cent=   200000004 NGrid=           0
         NMat0=    1 NMatS0=      1 NMatT0=    0 NMatD0=    1 NMtDS0=    0 NMtDT0=    0
 Petite list used in FoFCou.
 Harris En= -276.321664676626    
 JPrj=0 DoOrth=F DoCkMO=F.
 Leave Link  401 at Sat Sep 28 19:38:24 2019, MaxMem=   671088640 cpu:              84.8 elap:              42.5
 (Enter /shared/centos7/gaussian/g16/l502.exe)
 Integral symmetry usage will be decided dynamically.
 Closed shell SCF:
 Using DIIS extrapolation, IDIIS=  1040.
 NGot=   671088640 LenX=   670604095 LenY=   670368385
 Requested convergence on RMS density matrix=1.00D-08 within 900 cycles.
 Requested convergence on MAX density matrix=1.00D-06.
 Requested convergence on             energy=1.00D-06.
 No special actions if energy rises.
 Fock matrices will be formed incrementally for  20 cycles.
 Integral accuracy reduced to 1.0D-05 until final iterations.

 Cycle   1  Pass 0  IDiag  1:
 FoFJK:  IHMeth= 1 ICntrl=       0 DoSepK=F KAlg= 0 I1Cent=           0 FoldK=F
 IRaf= 900000000 NMat=       1 IRICut=       1 DoRegI=T DoRafI=F ISym2E= 0 IDoP0=0 IntGTp=1.
 FoFCou: FMM=F IPFlag=           0 FMFlag=      100000 FMFlg1=           0
         NFxFlg=           0 DoJE=F BraDBF=F KetDBF=F FulRan=T
         wScrn=  0.000000 ICntrl=         0 IOpCl=  0 I1Cent=           0 NGrid=           0
         NMat0=    1 NMatS0=      1 NMatT0=    0 NMatD0=    1 NMtDS0=    0 NMtDT0=    0
 Symmetry not used in FoFCou.
 E= -275.947042964842    
 DIIS: error= 3.48D-02 at cycle   1 NSaved=   1.
 NSaved= 1 IEnMin= 1 EnMin= -275.947042964842     IErMin= 1 ErrMin= 3.48D-02
 ErrMax= 3.48D-02  0.00D+00 EMaxC= 1.00D-01 BMatC= 3.75D-01 BMatP= 3.75D-01
 IDIUse=3 WtCom= 6.52D-01 WtEn= 3.48D-01
 Coeff-Com:  0.100D+01
 Coeff-En:   0.100D+01
 Coeff:      0.100D+01
 Gap=     0.378 Goal=   None    Shift=    0.000
 GapD=    0.378 DampG=1.000 DampE=0.500 DampFc=0.5000 IDamp=-1.
 Damping current iteration by 5.00D-01
 RMSDP=1.90D-03 MaxDP=6.92D-02              OVMax= 1.75D-01

 Cycle   2  Pass 0  IDiag  1:
 RMSU=  9.46D-04    CP:  9.90D-01
 E= -276.128807029354     Delta-E=       -0.181764064512 Rises=F Damp=T
 DIIS: error= 4.21D-03 at cycle   2 NSaved=   2.
 NSaved= 2 IEnMin= 2 EnMin= -276.128807029354     IErMin= 2 ErrMin= 4.21D-03
 ErrMax= 4.21D-03  0.00D+00 EMaxC= 1.00D-01 BMatC= 1.76D-02 BMatP= 3.75D-01
 IDIUse=3 WtCom= 9.58D-01 WtEn= 4.21D-02
 Coeff-Com: -0.628D-01 0.106D+01
 Coeff-En:   0.000D+00 0.100D+01
 Coeff:     -0.602D-01 0.106D+01
 Gap=     0.445 Goal=   None    Shift=    0.000
 RMSDP=4.84D-04 MaxDP=1.53D-02 DE=-1.82D-01 OVMax= 9.12D-02

 Cycle   3  Pass 0  IDiag  1:
 RMSU=  4.75D-04    CP:  9.97D-01  9.14D-01
 E= -276.307428142012     Delta-E=       -0.178621112658 Rises=F Damp=F
 DIIS: error= 2.06D-03 at cycle   3 NSaved=   3.
 NSaved= 3 IEnMin= 3 EnMin= -276.307428142012     IErMin= 3 ErrMin= 2.06D-03
 ErrMax= 2.06D-03  0.00D+00 EMaxC= 1.00D-01 BMatC= 1.65D-03 BMatP= 1.76D-02
 IDIUse=3 WtCom= 9.79D-01 WtEn= 2.06D-02
 Coeff-Com: -0.466D-01 0.189D+00 0.857D+00
 Coeff-En:   0.000D+00 0.000D+00 0.100D+01
 Coeff:     -0.456D-01 0.186D+00 0.860D+00
 Gap=     0.418 Goal=   None    Shift=    0.000
 RMSDP=7.36D-05 MaxDP=2.71D-03 DE=-1.79D-01 OVMax= 7.78D-03

 Cycle   4  Pass 0  IDiag  1:
 RMSU=  5.80D-05    CP:  9.96D-01  9.58D-01  9.69D-01
 E= -276.308864126217     Delta-E=       -0.001435984205 Rises=F Damp=F
 DIIS: error= 4.94D-04 at cycle   4 NSaved=   4.
 NSaved= 4 IEnMin= 4 EnMin= -276.308864126217     IErMin= 4 ErrMin= 4.94D-04
 ErrMax= 4.94D-04  0.00D+00 EMaxC= 1.00D-01 BMatC= 2.08D-04 BMatP= 1.65D-03
 IDIUse=3 WtCom= 9.95D-01 WtEn= 4.94D-03
 Coeff-Com: -0.132D-01 0.364D-01 0.307D+00 0.670D+00
 Coeff-En:   0.000D+00 0.000D+00 0.000D+00 0.100D+01
 Coeff:     -0.131D-01 0.362D-01 0.305D+00 0.671D+00
 Gap=     0.418 Goal=   None    Shift=    0.000
 RMSDP=2.60D-05 MaxDP=1.31D-03 DE=-1.44D-03 OVMax= 2.69D-03

 Cycle   5  Pass 0  IDiag  1:
 RMSU=  1.69D-05    CP:  9.96D-01  9.51D-01  9.96D-01  7.70D-01
 E= -276.309051854207     Delta-E=       -0.000187727989 Rises=F Damp=F
 DIIS: error= 1.46D-04 at cycle   5 NSaved=   5.
 NSaved= 5 IEnMin= 5 EnMin= -276.309051854207     IErMin= 5 ErrMin= 1.46D-04
 ErrMax= 1.46D-04  0.00D+00 EMaxC= 1.00D-01 BMatC= 1.46D-05 BMatP= 2.08D-04
 IDIUse=3 WtCom= 9.99D-01 WtEn= 1.46D-03
 Coeff-Com: -0.426D-03-0.169D-02 0.386D-01 0.234D+00 0.729D+00
 Coeff-En:   0.000D+00 0.000D+00 0.000D+00 0.000D+00 0.100D+01
 Coeff:     -0.426D-03-0.168D-02 0.386D-01 0.234D+00 0.730D+00
 Gap=     0.418 Goal=   None    Shift=    0.000
 RMSDP=5.78D-06 MaxDP=3.16D-04 DE=-1.88D-04 OVMax= 6.54D-04

 Initial convergence to 1.0D-05 achieved.  Increase integral accuracy.
 Cycle   6  Pass 1  IDiag  1:
 E= -276.309019277695     Delta-E=        0.000032576512 Rises=F Damp=F
 DIIS: error= 4.43D-05 at cycle   1 NSaved=   1.
 NSaved= 1 IEnMin= 1 EnMin= -276.309019277695     IErMin= 1 ErrMin= 4.43D-05
 ErrMax= 4.43D-05  0.00D+00 EMaxC= 1.00D-01 BMatC= 1.44D-06 BMatP= 1.44D-06
 IDIUse=1 WtCom= 1.00D+00 WtEn= 0.00D+00
 Coeff-Com:  0.100D+01
 Coeff:      0.100D+01
 Gap=     0.418 Goal=   None    Shift=    0.000
 RMSDP=5.78D-06 MaxDP=3.16D-04 DE= 3.26D-05 OVMax= 2.49D-04

 Cycle   7  Pass 1  IDiag  1:
 RMSU=  1.45D-05    CP:  1.00D+00
 E= -276.309020019199     Delta-E=       -0.000000741504 Rises=F Damp=F
 DIIS: error= 1.55D-05 at cycle   2 NSaved=   2.
 NSaved= 2 IEnMin= 2 EnMin= -276.309020019199     IErMin= 2 ErrMin= 1.55D-05
 ErrMax= 1.55D-05  0.00D+00 EMaxC= 1.00D-01 BMatC= 1.92D-07 BMatP= 1.44D-06
 IDIUse=1 WtCom= 1.00D+00 WtEn= 0.00D+00
 Coeff-Com:  0.181D+00 0.819D+00
 Coeff:      0.181D+00 0.819D+00
 Gap=     0.418 Goal=   None    Shift=    0.000
 RMSDP=1.03D-06 MaxDP=4.65D-05 DE=-7.42D-07 OVMax= 1.10D-04

 Cycle   8  Pass 1  IDiag  1:
 RMSU=  9.59D-07    CP:  1.00D+00  1.03D+00
 E= -276.309020131184     Delta-E=       -0.000000111986 Rises=F Damp=F
 DIIS: error= 1.26D-05 at cycle   3 NSaved=   3.
 NSaved= 3 IEnMin= 3 EnMin= -276.309020131184     IErMin= 3 ErrMin= 1.26D-05
 ErrMax= 1.26D-05  0.00D+00 EMaxC= 1.00D-01 BMatC= 7.96D-08 BMatP= 1.92D-07
 IDIUse=1 WtCom= 1.00D+00 WtEn= 0.00D+00
 Coeff-Com: -0.941D-02 0.387D+00 0.623D+00
 Coeff:     -0.941D-02 0.387D+00 0.623D+00
 Gap=     0.418 Goal=   None    Shift=    0.000
 RMSDP=4.31D-07 MaxDP=1.88D-05 DE=-1.12D-07 OVMax= 5.04D-05

 Cycle   9  Pass 1  IDiag  1:
 RMSU=  2.50D-07    CP:  1.00D+00  1.04D+00  6.73D-01
 E= -276.309020207249     Delta-E=       -0.000000076065 Rises=F Damp=F
 DIIS: error= 1.15D-06 at cycle   4 NSaved=   4.
 NSaved= 4 IEnMin= 4 EnMin= -276.309020207249     IErMin= 4 ErrMin= 1.15D-06
 ErrMax= 1.15D-06  0.00D+00 EMaxC= 1.00D-01 BMatC= 6.76D-10 BMatP= 7.96D-08
 IDIUse=1 WtCom= 1.00D+00 WtEn= 0.00D+00
 Coeff-Com: -0.714D-02 0.801D-01 0.161D+00 0.766D+00
 Coeff:     -0.714D-02 0.801D-01 0.161D+00 0.766D+00
 Gap=     0.418 Goal=   None    Shift=    0.000
 RMSDP=5.62D-08 MaxDP=1.58D-06 DE=-7.61D-08 OVMax= 5.08D-06

 Cycle  10  Pass 1  IDiag  1:
 RMSU=  5.23D-08    CP:  1.00D+00  1.04D+00  6.86D-01  1.02D+00
 E= -276.309020207965     Delta-E=       -0.000000000716 Rises=F Damp=F
 DIIS: error= 2.07D-07 at cycle   5 NSaved=   5.
 NSaved= 5 IEnMin= 5 EnMin= -276.309020207965     IErMin= 5 ErrMin= 2.07D-07
 ErrMax= 2.07D-07  0.00D+00 EMaxC= 1.00D-01 BMatC= 3.26D-11 BMatP= 6.76D-10
 IDIUse=1 WtCom= 1.00D+00 WtEn= 0.00D+00
 Coeff-Com:  0.264D-03-0.289D-01-0.438D-01 0.559D-01 0.102D+01
 Coeff:      0.264D-03-0.289D-01-0.438D-01 0.559D-01 0.102D+01
 Gap=     0.418 Goal=   None    Shift=    0.000
 RMSDP=2.50D-08 MaxDP=6.32D-07 DE=-7.16D-10 OVMax= 2.09D-06

 Cycle  11  Pass 1  IDiag  1:
 RMSU=  1.19D-08    CP:  1.00D+00  1.04D+00  6.89D-01  1.10D+00  1.08D+00
 E= -276.309020208001     Delta-E=       -0.000000000035 Rises=F Damp=F
 DIIS: error= 8.57D-08 at cycle   6 NSaved=   6.
 NSaved= 6 IEnMin= 6 EnMin= -276.309020208001     IErMin= 6 ErrMin= 8.57D-08
 ErrMax= 8.57D-08  0.00D+00 EMaxC= 1.00D-01 BMatC= 4.50D-12 BMatP= 3.26D-11
 IDIUse=1 WtCom= 1.00D+00 WtEn= 0.00D+00
 Coeff-Com:  0.346D-03-0.138D-01-0.224D-01-0.467D-02 0.402D+00 0.639D+00
 Coeff:      0.346D-03-0.138D-01-0.224D-01-0.467D-02 0.402D+00 0.639D+00
 Gap=     0.418 Goal=   None    Shift=    0.000
 RMSDP=3.52D-09 MaxDP=1.55D-07 DE=-3.54D-11 OVMax= 3.53D-07

 SCF Done:  E(RM062X) =  -276.309020208     A.U. after   11 cycles
            NFock= 11  Conv=0.35D-08     -V/T= 2.0066
 KE= 2.745091312559D+02 PE=-1.272995729709D+03 EE= 4.049069076586D+02
 Leave Link  502 at Sat Sep 28 19:52:47 2019, MaxMem=   671088640 cpu:            1726.4 elap:             863.4
 (Enter /shared/centos7/gaussian/g16/l801.exe)
 DoSCS=F DFT=T ScalE2(SS,OS)=  1.000000  1.000000
 Range of M.O.s used for correlation:     1   434
 NBasis=   434 NAE=    29 NBE=    29 NFC=     0 NFV=     0
 NROrb=    434 NOA=    29 NOB=    29 NVA=   405 NVB=   405

 **** Warning!!: The largest alpha MO coefficient is  0.15798585D+02

 Leave Link  801 at Sat Sep 28 19:52:48 2019, MaxMem=   671088640 cpu:               2.2 elap:               1.1
 (Enter /shared/centos7/gaussian/g16/l1101.exe)
 Using compressed storage, NAtomX=    23.
 Will process     24 centers per pass.
 Leave Link 1101 at Sat Sep 28 19:53:22 2019, MaxMem=   671088640 cpu:              68.2 elap:              34.1
 (Enter /shared/centos7/gaussian/g16/l1102.exe)
 Symmetrizing basis deriv contribution to polar:
 IMax=3 JMax=2 DiffMx= 0.00D+00
 Leave Link 1102 at Sat Sep 28 19:53:26 2019, MaxMem=   671088640 cpu:               6.8 elap:               3.4
 (Enter /shared/centos7/gaussian/g16/l1110.exe)
 Forming Gx(P) for the SCF density, NAtomX=    23.
 Integral derivatives from FoFJK, PRISM(SPDF).
 Do as many integral derivatives as possible in FoFJK.
 G2DrvN: MDV=     671086848.
 G2DrvN: will do    24 centers at a time, making    1 passes.
 Calling FoFCou, ICntrl=  3107 FMM=F I1Cent=   0 AccDes= 0.00D+00.
 FoFJK:  IHMeth= 1 ICntrl=    3107 DoSepK=F KAlg= 0 I1Cent=           0 FoldK=F
 IRaf=         0 NMat=       1 IRICut=       1 DoRegI=T DoRafI=F ISym2E= 0 IDoP0=0 IntGTp=1.
 FoFCou: FMM=F IPFlag=           0 FMFlag=      100000 FMFlg1=           0
         NFxFlg=           0 DoJE=F BraDBF=F KetDBF=F FulRan=T
         wScrn=  0.000000 ICntrl=      3107 IOpCl=  0 I1Cent=           0 NGrid=           0
         NMat0=    1 NMatS0=      1 NMatT0=    0 NMatD0=    1 NMtDS0=    0 NMtDT0=    0
 Symmetry not used in FoFCou.
 End of G2Drv F.D. properties file   721 does not exist.
 End of G2Drv F.D. properties file   722 does not exist.
 End of G2Drv F.D. properties file   788 does not exist.
 Leave Link 1110 at Sat Sep 28 20:33:18 2019, MaxMem=   671088640 cpu:            4784.0 elap:            2392.4
 (Enter /shared/centos7/gaussian/g16/l1002.exe)
 Minotr:  Closed shell wavefunction.
          IDoAtm=11111111111111111111111
          Direct CPHF calculation.
          Differentiating once with respect to nuclear coordinates.
          Requested convergence is 1.0D-08 RMS, and 1.0D-07 maximum.
          Secondary convergence is 1.0D-12 RMS, and 1.0D-12 maximum.
          NewPWx=T KeepS1=F KeepF1=F KeepIn=T MapXYZ=F SortEE=F KeepMc=T.
         6946 words used for storage of precomputed grid.
 Two-electron integrals replicated using symmetry.
          MDV=     671088640 using IRadAn=       1.
          Solving linear equations simultaneously, MaxMat=     380.
 FoF2E skips out because all densities are zero.
 CalDSu exits because no D1Ps are significant.
 FoFJK:  IHMeth= 1 ICntrl=       0 DoSepK=F KAlg= 0 I1Cent=           0 FoldK=F
 IRaf= 880000000 NMat=      69 IRICut=     172 DoRegI=T DoRafI=T ISym2E= 2 IDoP0=3 IntGTp=3.
 FoFCou: FMM=F IPFlag=           0 FMFlag=      100000 FMFlg1=           0
         NFxFlg=           0 DoJE=F BraDBF=F KetDBF=F FulRan=T
         wScrn=  0.000000 ICntrl=         0 IOpCl=  0 I1Cent=           0 NGrid=           0
         NMat0=   69 NMatS0=     69 NMatT0=    0 NMatD0=   69 NMtDS0=    0 NMtDT0=    0
 Integrals replicated using symmetry in FoFCou.
 Raff kept on since  84.24% of shell-pairs survive, threshold=   0.20 IRatSp=84.
          There are    72 degrees of freedom in the 1st order CPHF.  IDoFFX=6 NUNeed=     0.
     66 vectors produced by pass  0 Test12= 1.63D-14 1.39D-09 XBig12= 5.58D-02 4.29D-02.
 AX will form    66 AO Fock derivatives at one time.
     66 vectors produced by pass  1 Test12= 1.63D-14 1.39D-09 XBig12= 3.33D-03 6.75D-03.
     66 vectors produced by pass  2 Test12= 1.63D-14 1.39D-09 XBig12= 5.85D-05 8.91D-04.
     66 vectors produced by pass  3 Test12= 1.63D-14 1.39D-09 XBig12= 4.42D-07 7.82D-05.
     66 vectors produced by pass  4 Test12= 1.63D-14 1.39D-09 XBig12= 2.13D-09 4.40D-06.
     66 vectors produced by pass  5 Test12= 1.63D-14 1.39D-09 XBig12= 9.46D-12 3.58D-07.
     22 vectors produced by pass  6 Test12= 1.63D-14 1.39D-09 XBig12= 3.68D-14 1.97D-08.
 InvSVY:  IOpt=1 It=  1 EMax= 3.89D-16
 Solved reduced A of dimension   418 with    72 vectors.
 End of Minotr F.D. properties file   721 does not exist.
 End of Minotr F.D. properties file   722 does not exist.
 End of Minotr F.D. properties file   788 does not exist.
 Leave Link 1002 at Sat Sep 28 21:41:04 2019, MaxMem=   671088640 cpu:            8129.5 elap:            4065.4
 (Enter /shared/centos7/gaussian/g16/l601.exe)
 Copying SCF densities to generalized density rwf, IOpCl= 0 IROHF=0.

 **********************************************************************

            Population analysis using the SCF density.

 **********************************************************************

 Orbital symmetries:
       Occupied  (A) (A) (A) (A) (A) (A) (A) (A) (A) (A) (A) (A)
                 (A) (A) (A) (A) (A) (A) (A) (A) (A) (A) (A) (A)
                 (A) (A) (A) (A) (A)
       Virtual   (A) (A) (A) (A) (A) (A) (A) (A) (A) (A) (A) (A)
                 (A) (A) (A) (A) (A) (A) (A) (A) (A) (A) (A) (A)
                 (A) (A) (A) (A) (A) (A) (A) (A) (A) (A) (A) (A)
                 (A) (A) (A) (A) (A) (A) (A) (A) (A) (A) (A) (A)
                 (A) (A) (A) (A) (A) (A) (A) (A) (A) (A) (A) (A)
                 (A) (A) (A) (A) (A) (A) (A) (A) (A) (A) (A) (A)
                 (A) (A) (A) (A) (A) (A) (A) (A) (A) (A) (A) (A)
                 (A) (A) (A) (A) (A) (A) (A) (A) (A) (A) (A) (A)
                 (A) (A) (A) (A) (A) (A) (A) (A) (A) (A) (A) (A)
                 (A) (A) (A) (A) (A) (A) (A) (A) (A) (A) (A) (A)
                 (A) (A) (A) (A) (A) (A) (A) (A) (A) (A) (A) (A)
                 (A) (A) (A) (A) (A) (A) (A) (A) (A) (A) (A) (A)
                 (A) (A) (A) (A) (A) (A) (A) (A) (A) (A) (A) (A)
                 (A) (A) (A) (A) (A) (A) (A) (A) (A) (A) (A) (A)
                 (A) (A) (A) (A) (A) (A) (A) (A) (A) (A) (A) (A)
                 (A) (A) (A) (A) (A) (A) (A) (A) (A) (A) (A) (A)
                 (A) (A) (A) (A) (A) (A) (A) (A) (A) (A) (A) (A)
                 (A) (A) (A) (A) (A) (A) (A) (A) (A) (A) (A) (A)
                 (A) (A) (A) (A) (A) (A) (A) (A) (A) (A) (A) (A)
                 (A) (A) (A) (A) (A) (A) (A) (A) (A) (A) (A) (A)
                 (A) (A) (A) (A) (A) (A) (A) (A) (A) (A) (A) (A)
                 (A) (A) (A) (A) (A) (A) (A) (A) (A) (A) (A) (A)
                 (A) (A) (A) (A) (A) (A) (A) (A) (A) (A) (A) (A)
                 (A) (A) (A) (A) (A) (A) (A) (A) (A) (A) (A) (A)
                 (A) (A) (A) (A) (A) (A) (A) (A) (A) (A) (A) (A)
                 (A) (A) (A) (A) (A) (A) (A) (A) (A) (A) (A) (A)
                 (A) (A) (A) (A) (A) (A) (A) (A) (A) (A) (A) (A)
                 (A) (A) (A) (A) (A) (A) (A) (A) (A) (A) (A) (A)
                 (A) (A) (A) (A) (A) (A) (A) (A) (A) (A) (A) (A)
                 (A) (A) (A) (A) (A) (A) (A) (A) (A) (A) (A) (A)
                 (A) (A) (A) (A) (A) (A) (A) (A) (A) (A) (A) (A)
                 (A) (A) (A) (A) (A) (A) (A) (A) (A) (A) (A) (A)
                 (A) (A) (A) (A) (A) (A) (A) (A) (A) (A) (A) (A)
                 (A) (A) (A) (A) (A) (A) (A) (A) (A)
 The electronic state is 1-A.
 Alpha  occ. eigenvalues --  -10.52740 -10.52553 -10.52514 -10.52395 -10.52178
 Alpha  occ. eigenvalues --  -10.52174 -10.52065  -0.92141  -0.88289  -0.82925
 Alpha  occ. eigenvalues --   -0.76180  -0.69670  -0.66662  -0.63273  -0.54964
 Alpha  occ. eigenvalues --   -0.52936  -0.50344  -0.50088  -0.48390  -0.45965
 Alpha  occ. eigenvalues --   -0.44996  -0.42978  -0.41349  -0.40650  -0.38941
 Alpha  occ. eigenvalues --   -0.37821  -0.36881  -0.36192  -0.35073
 Alpha virt. eigenvalues --    0.06747   0.07960   0.08361   0.08707   0.09972
 Alpha virt. eigenvalues --    0.11513   0.11704   0.13737   0.14512   0.14840
 Alpha virt. eigenvalues --    0.15418   0.16924   0.17717   0.19080   0.19131
 Alpha virt. eigenvalues --    0.21304   0.21626   0.22338   0.25013   0.26126
 Alpha virt. eigenvalues --    0.26883   0.27557   0.29406   0.29673   0.31291
 Alpha virt. eigenvalues --    0.32306   0.33206   0.35615   0.37682   0.38083
 Alpha virt. eigenvalues --    0.38672   0.39976   0.40650   0.41367   0.41699
 Alpha virt. eigenvalues --    0.43630   0.44775   0.45048   0.46300   0.47669
 Alpha virt. eigenvalues --    0.48139   0.48713   0.49180   0.50395   0.50528
 Alpha virt. eigenvalues --    0.51436   0.51782   0.52484   0.52892   0.53859
 Alpha virt. eigenvalues --    0.54040   0.54995   0.55675   0.56748   0.57249
 Alpha virt. eigenvalues --    0.58817   0.59068   0.59742   0.59823   0.60776
 Alpha virt. eigenvalues --    0.64351   0.68938   0.71634   0.73760   0.75996
 Alpha virt. eigenvalues --    0.78951   0.79946   0.81059   0.83226   0.85305
 Alpha virt. eigenvalues --    0.86567   0.86889   0.87520   0.89967   0.91484
 Alpha virt. eigenvalues --    0.92602   0.93186   0.93787   0.94989   0.97344
 Alpha virt. eigenvalues --    0.98964   1.01499   1.01834   1.02853   1.04568
 Alpha virt. eigenvalues --    1.05267   1.06142   1.07777   1.07975   1.08878
 Alpha virt. eigenvalues --    1.10109   1.11411   1.12826   1.13372   1.14233
 Alpha virt. eigenvalues --    1.15470   1.16091   1.16590   1.17828   1.18351
 Alpha virt. eigenvalues --    1.20247   1.20970   1.22094   1.22401   1.23831
 Alpha virt. eigenvalues --    1.24848   1.26188   1.27022   1.28305   1.29069
 Alpha virt. eigenvalues --    1.30406   1.30556   1.31588   1.31846   1.33060
 Alpha virt. eigenvalues --    1.34332   1.35368   1.35878   1.35940   1.36389
 Alpha virt. eigenvalues --    1.38034   1.39754   1.41070   1.42292   1.42800
 Alpha virt. eigenvalues --    1.43346   1.45141   1.46498   1.48264   1.49869
 Alpha virt. eigenvalues --    1.50086   1.51716   1.53104   1.54333   1.55623
 Alpha virt. eigenvalues --    1.56561   1.58088   1.58727   1.60118   1.61350
 Alpha virt. eigenvalues --    1.63907   1.64613   1.66124   1.67064   1.69849
 Alpha virt. eigenvalues --    1.72360   1.74036   1.80546   1.82195   2.19407
 Alpha virt. eigenvalues --    2.20660   2.24576   2.26333   2.27934   2.32547
 Alpha virt. eigenvalues --    2.34733   2.38097   2.39991   2.42364   2.43458
 Alpha virt. eigenvalues --    2.44759   2.48335   2.49565   2.51079   2.52183
 Alpha virt. eigenvalues --    2.53012   2.53992   2.54645   2.58314   2.58800
 Alpha virt. eigenvalues --    2.60532   2.61041   2.61791   2.64105   2.65427
 Alpha virt. eigenvalues --    2.67285   2.68817   2.70750   2.71538   2.72778
 Alpha virt. eigenvalues --    2.74379   2.75482   2.77321   2.77748   2.78857
 Alpha virt. eigenvalues --    2.79764   2.81877   2.82761   2.83615   2.85217
 Alpha virt. eigenvalues --    2.85960   2.86973   2.89373   2.90362   2.91143
 Alpha virt. eigenvalues --    2.93026   2.94763   2.95081   2.95950   2.97527
 Alpha virt. eigenvalues --    3.00063   3.00949   3.01490   3.02512   3.03094
 Alpha virt. eigenvalues --    3.04836   3.05500   3.06320   3.06730   3.07172
 Alpha virt. eigenvalues --    3.08727   3.09449   3.09966   3.11010   3.12303
 Alpha virt. eigenvalues --    3.13802   3.14411   3.14969   3.15789   3.16290
 Alpha virt. eigenvalues --    3.16614   3.18006   3.19817   3.20834   3.22482
 Alpha virt. eigenvalues --    3.22942   3.23957   3.25678   3.26833   3.28405
 Alpha virt. eigenvalues --    3.29440   3.30669   3.32135   3.33276   3.33873
 Alpha virt. eigenvalues --    3.35098   3.36999   3.38863   3.38946   3.40715
 Alpha virt. eigenvalues --    3.41687   3.42870   3.43302   3.46496   3.47430
 Alpha virt. eigenvalues --    3.49441   3.49698   3.50283   3.51634   3.52641
 Alpha virt. eigenvalues --    3.54316   3.55440   3.56818   3.57377   3.59192
 Alpha virt. eigenvalues --    3.61824   3.62084   3.63147   3.63703   3.64471
 Alpha virt. eigenvalues --    3.66875   3.68946   3.69555   3.71522   3.71729
 Alpha virt. eigenvalues --    3.72736   3.74270   3.76471   3.77605   3.78561
 Alpha virt. eigenvalues --    3.78893   3.79846   3.81420   3.82800   3.83300
 Alpha virt. eigenvalues --    3.84630   3.86153   3.87414   3.87847   3.88466
 Alpha virt. eigenvalues --    3.91141   3.91919   3.93568   3.95004   3.95624
 Alpha virt. eigenvalues --    3.96790   3.97579   3.98384   4.00996   4.01767
 Alpha virt. eigenvalues --    4.02229   4.02813   4.03843   4.04724   4.05695
 Alpha virt. eigenvalues --    4.06488   4.08154   4.08938   4.10630   4.11149
 Alpha virt. eigenvalues --    4.13048   4.13623   4.14231   4.14890   4.16190
 Alpha virt. eigenvalues --    4.17213   4.18015   4.19280   4.20894   4.21293
 Alpha virt. eigenvalues --    4.22237   4.23405   4.25427   4.26874   4.29139
 Alpha virt. eigenvalues --    4.29712   4.31243   4.32954   4.34114   4.35564
 Alpha virt. eigenvalues --    4.37882   4.38878   4.40117   4.42937   4.44358
 Alpha virt. eigenvalues --    4.46571   4.48144   4.50348   4.52973   4.56509
 Alpha virt. eigenvalues --    4.58515   4.60388   4.62465   4.62892   4.64589
 Alpha virt. eigenvalues --    4.67334   4.69885   4.70705   4.72398   4.72893
 Alpha virt. eigenvalues --    4.77090   4.78270   4.80274   4.81130   4.82283
 Alpha virt. eigenvalues --    4.83860   4.85292   4.86608   4.90013   4.91457
 Alpha virt. eigenvalues --    4.92938   4.94044   4.95956   4.97310   4.98991
 Alpha virt. eigenvalues --    4.99604   5.02629   5.04065   5.05055   5.08569
 Alpha virt. eigenvalues --    5.09819   5.10038   5.12748   5.16200   5.17126
 Alpha virt. eigenvalues --    5.19518   5.20506   5.23645   5.25180   5.25782
 Alpha virt. eigenvalues --    5.26782   5.28672   5.30164   5.33082   5.34680
 Alpha virt. eigenvalues --    5.35994   5.37083   5.39158   5.41907   5.42234
 Alpha virt. eigenvalues --    5.45187   5.46888   5.49036   5.50752   5.53447
 Alpha virt. eigenvalues --    5.57901   5.60560   5.67485   5.72423   5.76770
 Alpha virt. eigenvalues --    5.77372   5.80713   5.81568   5.88139   5.91443
 Alpha virt. eigenvalues --    5.92504   6.00684   6.01109  11.25171  12.12845
 Alpha virt. eigenvalues --   12.34983  12.88223  13.27245  13.52673  13.89572
          Condensed to atoms (all electrons):
               1          2          3          4          5          6
     1  C    5.150172   0.295462  -0.047502   0.306561  -0.010705  -0.056782
     2  C    0.295462   5.087781   0.323129  -0.056725  -0.048588   0.005535
     3  C   -0.047502   0.323129   5.064677   0.005499   0.314080  -0.000324
     4  C    0.306561  -0.056725   0.005499   5.053796   0.000147   0.293546
     5  C   -0.010705  -0.048588   0.314080   0.000147   5.067590  -0.000049
     6  C   -0.056782   0.005535  -0.000324   0.293546  -0.000049   4.955158
     7  C   -0.000073   0.007088  -0.052861   0.000008   0.314064   0.000000
     8  H   -0.048207   0.007188  -0.000444   0.410674   0.000187  -0.041218
     9  H   -0.054778  -0.015244   0.000431   0.422021  -0.000132  -0.045427
    10  H    0.411679  -0.044631   0.004657  -0.037092   0.000463  -0.019554
    11  H    0.410858  -0.054067  -0.003074  -0.043830  -0.007728   0.007341
    12  H   -0.055210   0.411040  -0.037674   0.007758  -0.008640  -0.000002
    13  H   -0.049502   0.421288  -0.046037  -0.018151   0.008761   0.000597
    14  H    0.010125  -0.042677   0.417198  -0.000565  -0.040495   0.000030
    15  H   -0.005822  -0.037170   0.403900   0.000919  -0.049538  -0.000033
    16  H   -0.002196   0.001299  -0.052310  -0.000036   0.403550   0.000001
    17  H    0.002185  -0.006700  -0.039967   0.000427   0.410563  -0.000000
    18  H   -0.011503   0.000534  -0.000118  -0.055847   0.000011   0.410395
    19  H    0.006135   0.000150   0.000025  -0.046978   0.000003   0.405268
    20  H    0.006258  -0.000529   0.000026  -0.045113  -0.000001   0.407033
    21  H   -0.000020   0.000320  -0.004080   0.000002  -0.049631  -0.000000
    22  H    0.000064  -0.000185  -0.002709  -0.000012  -0.043637   0.000000
    23  H    0.000011  -0.000552   0.008515  -0.000001  -0.041866   0.000000
               7          8          9         10         11         12
     1  C   -0.000073  -0.048207  -0.054778   0.411679   0.410858  -0.055210
     2  C    0.007088   0.007188  -0.015244  -0.044631  -0.054067   0.411040
     3  C   -0.052861  -0.000444   0.000431   0.004657  -0.003074  -0.037674
     4  C    0.000008   0.410674   0.422021  -0.037092  -0.043830   0.007758
     5  C    0.314064   0.000187  -0.000132   0.000463  -0.007728  -0.008640
     6  C    0.000000  -0.041218  -0.045427  -0.019554   0.007341  -0.000002
     7  C    4.939640  -0.000004   0.000003   0.000015  -0.000094   0.000219
     8  H   -0.000004   0.626831  -0.042851   0.007049  -0.020043  -0.000673
     9  H    0.000003  -0.042851   0.618787   0.004726   0.006799   0.001392
    10  H    0.000015   0.007049   0.004726   0.593690  -0.043542  -0.019333
    11  H   -0.000094  -0.020043   0.006799  -0.043542   0.606680   0.007513
    12  H    0.000219  -0.000673   0.001392  -0.019333   0.007513   0.589192
    13  H   -0.000418   0.001407   0.003980   0.006309   0.005384  -0.033563
    14  H   -0.007237   0.000015  -0.000184  -0.000525   0.000458  -0.005960
    15  H    0.000009  -0.000045   0.000429  -0.000005   0.001746   0.008348
    16  H   -0.034817  -0.000006   0.000012   0.000053   0.001175   0.004037
    17  H   -0.039128   0.000007  -0.000055  -0.001440  -0.002352   0.000063
    18  H    0.000000   0.005644   0.005944   0.004490   0.001007  -0.000042
    19  H   -0.000000   0.007403  -0.019406   0.001443  -0.000643  -0.000065
    20  H    0.000000  -0.020028   0.006724   0.000667  -0.000102   0.000033
    21  H    0.406114   0.000001  -0.000002  -0.000002  -0.000091   0.000022
    22  H    0.404448  -0.000001   0.000001  -0.000001   0.000232  -0.000013
    23  H    0.405805   0.000000  -0.000000  -0.000009   0.000074   0.000001
              13         14         15         16         17         18
     1  C   -0.049502   0.010125  -0.005822  -0.002196   0.002185  -0.011503
     2  C    0.421288  -0.042677  -0.037170   0.001299  -0.006700   0.000534
     3  C   -0.046037   0.417198   0.403900  -0.052310  -0.039967  -0.000118
     4  C   -0.018151  -0.000565   0.000919  -0.000036   0.000427  -0.055847
     5  C    0.008761  -0.040495  -0.049538   0.403550   0.410563   0.000011
     6  C    0.000597   0.000030  -0.000033   0.000001  -0.000000   0.410395
     7  C   -0.000418  -0.007237   0.000009  -0.034817  -0.039128   0.000000
     8  H    0.001407   0.000015  -0.000045  -0.000006   0.000007   0.005644
     9  H    0.003980  -0.000184   0.000429   0.000012  -0.000055   0.005944
    10  H    0.006309  -0.000525  -0.000005   0.000053  -0.001440   0.004490
    11  H    0.005384   0.000458   0.001746   0.001175  -0.002352   0.001007
    12  H   -0.033563  -0.005960   0.008348   0.004037   0.000063  -0.000042
    13  H    0.593033  -0.006947  -0.006714   0.000132  -0.000391   0.000265
    14  H   -0.006947   0.576471  -0.034580  -0.006263   0.007012   0.000003
    15  H   -0.006714  -0.034580   0.585196   0.008872  -0.005884  -0.000001
    16  H    0.000132  -0.006263   0.008872   0.607629  -0.039188  -0.000003
    17  H   -0.000391   0.007012  -0.005884  -0.039188   0.587989   0.000005
    18  H    0.000265   0.000003  -0.000001  -0.000003   0.000005   0.612138
    19  H   -0.000006  -0.000003  -0.000000  -0.000000  -0.000001  -0.035814
    20  H   -0.000108  -0.000001   0.000003   0.000000   0.000000  -0.036896
    21  H   -0.000064   0.003560  -0.000562  -0.000894   0.007850  -0.000000
    22  H    0.000030   0.000020   0.002568   0.008121  -0.011962   0.000000
    23  H    0.000024   0.000063  -0.000195  -0.012010  -0.000640   0.000000
              19         20         21         22         23
     1  C    0.006135   0.006258  -0.000020   0.000064   0.000011
     2  C    0.000150  -0.000529   0.000320  -0.000185  -0.000552
     3  C    0.000025   0.000026  -0.004080  -0.002709   0.008515
     4  C   -0.046978  -0.045113   0.000002  -0.000012  -0.000001
     5  C    0.000003  -0.000001  -0.049631  -0.043637  -0.041866
     6  C    0.405268   0.407033  -0.000000   0.000000   0.000000
     7  C   -0.000000   0.000000   0.406114   0.404448   0.405805
     8  H    0.007403  -0.020028   0.000001  -0.000001   0.000000
     9  H   -0.019406   0.006724  -0.000002   0.000001  -0.000000
    10  H    0.001443   0.000667  -0.000002  -0.000001  -0.000009
    11  H   -0.000643  -0.000102  -0.000091   0.000232   0.000074
    12  H   -0.000065   0.000033   0.000022  -0.000013   0.000001
    13  H   -0.000006  -0.000108  -0.000064   0.000030   0.000024
    14  H   -0.000003  -0.000001   0.003560   0.000020   0.000063
    15  H   -0.000000   0.000003  -0.000562   0.002568  -0.000195
    16  H   -0.000000   0.000000  -0.000894   0.008121  -0.012010
    17  H   -0.000001   0.000000   0.007850  -0.011962  -0.000640
    18  H   -0.035814  -0.036896  -0.000000   0.000000   0.000000
    19  H    0.618230  -0.033325   0.000000  -0.000000   0.000000
    20  H   -0.033325   0.611248   0.000000  -0.000000  -0.000000
    21  H    0.000000   0.000000   0.597685  -0.037736  -0.033882
    22  H   -0.000000  -0.000000  -0.037736   0.607286  -0.029888
    23  H    0.000000  -0.000000  -0.033882  -0.029888   0.601977
 Mulliken charges:
               1
     1  C   -0.257211
     2  C   -0.253745
     3  C   -0.255036
     4  C   -0.197009
     5  C   -0.218411
     6  C   -0.321516
     7  C   -0.342781
     8  H    0.107114
     9  H    0.106831
    10  H    0.130893
    11  H    0.126298
    12  H    0.131556
    13  H    0.120691
    14  H    0.130479
    15  H    0.128557
    16  H    0.112842
    17  H    0.131607
    18  H    0.099787
    19  H    0.097584
    20  H    0.104110
    21  H    0.111409
    22  H    0.103376
    23  H    0.102571
 Sum of Mulliken charges =  -0.00000
 Mulliken charges with hydrogens summed into heavy atoms:
               1
     1  C   -0.000019
     2  C   -0.001498
     3  C    0.004001
     4  C    0.016937
     5  C    0.026039
     6  C   -0.020035
     7  C   -0.025424
 APT charges:
               1
     1  C   -0.409606
     2  C   -0.674063
     3  C   -0.706081
     4  C   -0.512973
     5  C   -0.339387
     6  C   -1.479943
     7  C   -1.470647
     8  H    0.333037
     9  H    0.309463
    10  H    0.333816
    11  H    0.246760
    12  H    0.340594
    13  H    0.351536
    14  H    0.432638
    15  H    0.287054
    16  H    0.340213
    17  H    0.197298
    18  H    0.216952
    19  H    0.460220
    20  H    0.504371
    21  H    0.402992
    22  H    0.304776
    23  H    0.530979
 Sum of APT charges =  -0.00000
 APT charges with hydrogens summed into heavy atoms:
               1
     1  C    0.170971
     2  C    0.018067
     3  C    0.013612
     4  C    0.129528
     5  C    0.198123
     6  C   -0.298400
     7  C   -0.231901
 Electronic spatial extent (au):  <R**2>=           1453.2983
 Charge=             -0.0000 electrons
 Dipole moment (field-independent basis, Debye):
    X=              0.0219    Y=              0.0123    Z=             -0.0058  Tot=              0.0258
 Quadrupole moment (field-independent basis, Debye-Ang):
   XX=            -50.7827   YY=            -48.7957   ZZ=            -48.7828
   XY=              0.0156   XZ=              0.6296   YZ=             -0.3554
 Traceless Quadrupole moment (field-independent basis, Debye-Ang):
   XX=             -1.3290   YY=              0.6581   ZZ=              0.6709
   XY=              0.0156   XZ=              0.6296   YZ=             -0.3554
 Octapole moment (field-independent basis, Debye-Ang**2):
  XXX=             -0.8002  YYY=              1.2213  ZZZ=             -0.8791  XYY=              0.5110
  XXY=              2.2864  XXZ=             -0.8695  XZZ=             -0.2417  YZZ=             -1.4227
  YYZ=              0.9182  XYZ=             -0.5702
 Hexadecapole moment (field-independent basis, Debye-Ang**3):
 XXXX=          -1775.9018 YYYY=           -205.2586 ZZZZ=           -141.8370 XXXY=              0.4558
 XXXZ=             17.1715 YYYX=             -0.1523 YYYZ=             -0.5029 ZZZX=              1.1456
 ZZZY=             -1.9036 XXYY=           -315.3727 XXZZ=           -312.0408 YYZZ=            -57.8993
 XXYZ=             -1.8645 YYXZ=              1.9547 ZZXY=             -0.9514
 N-N= 3.172706705870D+02 E-N=-1.272995703664D+03  KE= 2.745091312559D+02
  Exact polarizability:   0.000   0.000   0.000   0.000   0.000   0.000
 Approx polarizability:  97.107   0.874  98.043   0.431   0.016  99.200
 No NMR shielding tensors so no spin-rotation constants.
 Leave Link  601 at Sat Sep 28 21:41:36 2019, MaxMem=   671088640 cpu:              65.4 elap:              32.8
 (Enter /shared/centos7/gaussian/g16/l701.exe)
 SCFChk:  SCF convergence  3.52D-09 required  1.00D-08
 ... and contract with generalized density number  0.
 Compute integral second derivatives.
 Entering OneElI...
 Calculate overlap and kinetic energy integrals
    NBasis = 485  MinDer = 2  MaxDer = 2
 Requested accuracy = 0.1000D-12
 PrmmSu-InSpLW:  IPartL=    0 NPrtUS=   20 NPrtUL=    1 DoSpLW=F IThBeg=    0 IThEnd=   19 NThAct=   20.
 PrsmSu:  NPrtUS=  20 ThrOK=T IAlg=1 NPAlg=1 LenDen=           0 ISkipM=0 DoSpLW=F IThBeg=    0 IThEnd=   19.
 Prism:   IPart=     0 DynPar=F LinDyn=F Incr=           6.
 PRISM was handed    33210950 working-precision words and 13392 shell-pairs
 PRISM was handed    33210950 working-precision words and 13392 shell-pairs
 PRISM was handed    33210950 working-precision words and 13392 shell-pairs
 PRISM was handed    33210950 working-precision words and 13392 shell-pairs
 PRISM was handed    33210950 working-precision words and 13392 shell-pairs
 PRISM was handed    33210950 working-precision words and 13392 shell-pairs
 PRISM was handed    33210950 working-precision words and 13392 shell-pairs
 PRISM was handed    33210950 working-precision words and 13392 shell-pairs
 PRISM was handed    33210950 working-precision words and 13392 shell-pairs
 PRISM was handed    33210950 working-precision words and 13392 shell-pairs
 PRISM was handed    33210950 working-precision words and 13392 shell-pairs
 PRISM was handed    33210950 working-precision words and 13392 shell-pairs
 PRISM was handed    33210950 working-precision words and 13392 shell-pairs
 IPart=  1 NShTot=         706 NBatch=          80 AvBLen=         8.8
 PRISM was handed    33210950 working-precision words and 13392 shell-pairs
 IPart= 12 NShTot=         656 NBatch=          53 AvBLen=        12.4
 PRISM was handed    33210950 working-precision words and 13392 shell-pairs
 PRISM was handed    33210950 working-precision words and 13392 shell-pairs
 PRISM was handed    33210950 working-precision words and 13392 shell-pairs
 PRISM was handed    33210950 working-precision words and 13392 shell-pairs
 PRISM was handed    33210950 working-precision words and 13392 shell-pairs
 IPart= 14 NShTot=         652 NBatch=          52 AvBLen=        12.5
 PRISM was handed    33210950 working-precision words and 13392 shell-pairs
 IPart=  0 NShTot=         707 NBatch=          81 AvBLen=         8.7
 IPart= 17 NShTot=         643 NBatch=          48 AvBLen=        13.4
 IPart=  2 NShTot=         702 NBatch=          78 AvBLen=         9.0
 IPart=  8 NShTot=         668 NBatch=          59 AvBLen=        11.3
 IPart=  6 NShTot=         685 NBatch=          69 AvBLen=         9.9
 IPart= 15 NShTot=         651 NBatch=          52 AvBLen=        12.5
 IPart= 19 NShTot=         640 NBatch=          46 AvBLen=        13.9
 IPart= 16 NShTot=         646 NBatch=          49 AvBLen=        13.2
 IPart= 18 NShTot=         640 NBatch=          46 AvBLen=        13.9
 IPart= 11 NShTot=         662 NBatch=          56 AvBLen=        11.8
 IPart=  4 NShTot=         692 NBatch=          73 AvBLen=         9.5
 IPart= 13 NShTot=         654 NBatch=          52 AvBLen=        12.6
 IPart=  7 NShTot=         674 NBatch=          62 AvBLen=        10.9
 IPart= 10 NShTot=         664 NBatch=          57 AvBLen=        11.6
 IPart=  9 NShTot=         667 NBatch=          59 AvBLen=        11.3
 IPart=  5 NShTot=         687 NBatch=          71 AvBLen=         9.7
 IPart=  3 NShTot=         696 NBatch=          76 AvBLen=         9.2
 PrSmSu:  NxtVal=            121.
 Entering OneElI...
 Calculate potential energy integrals
    NBasis = 485  MinDer = 2  MaxDer = 2
 Requested accuracy = 0.1000D-12
 PrmmSu-InSpLW:  IPartL=    0 NPrtUS=   20 NPrtUL=    1 DoSpLW=F IThBeg=    0 IThEnd=   19 NThAct=   20.
 PrsmSu:  NPrtUS=  20 ThrOK=T IAlg=1 NPAlg=1 LenDen=           0 ISkipM=0 DoSpLW=F IThBeg=    0 IThEnd=   19.
 Prism:   IPart=     0 DynPar=F LinDyn=F Incr=         134.
 PRISM was handed    33276145 working-precision words and 11670 shell-pairs
 PRISM was handed    33276145 working-precision words and 11670 shell-pairs
 PRISM was handed    33276145 working-precision words and 11670 shell-pairs
 PRISM was handed    33276145 working-precision words and 11670 shell-pairs
 PRISM was handed    33276145 working-precision words and 11670 shell-pairs
 PRISM was handed    33276145 working-precision words and 11670 shell-pairs
 PRISM was handed    33276145 working-precision words and 11670 shell-pairs
 PRISM was handed    33276145 working-precision words and 11670 shell-pairs
 PRISM was handed    33276145 working-precision words and 11670 shell-pairs
 PRISM was handed    33276145 working-precision words and 11670 shell-pairs
 PRISM was handed    33276145 working-precision words and 11670 shell-pairs
 PRISM was handed    33276145 working-precision words and 11670 shell-pairs
 PRISM was handed    33276145 working-precision words and 11670 shell-pairs
 PRISM was handed    33276145 working-precision words and 11670 shell-pairs
 PRISM was handed    33276145 working-precision words and 11670 shell-pairs
 PRISM was handed    33276145 working-precision words and 11670 shell-pairs
 PRISM was handed    33276145 working-precision words and 11670 shell-pairs
 PRISM was handed    33276145 working-precision words and 11670 shell-pairs
 PRISM was handed    33276145 working-precision words and 11670 shell-pairs
 PRISM was handed    33276145 working-precision words and 11670 shell-pairs
 IPart=  5 NShTot=       13823 NBatch=         602 AvBLen=        23.0
 IPart= 14 NShTot=       13087 NBatch=         570 AvBLen=        23.0
 IPart= 18 NShTot=       12834 NBatch=         559 AvBLen=        23.0
 IPart=  4 NShTot=       13915 NBatch=         607 AvBLen=        22.9
 IPart= 16 NShTot=       12903 NBatch=         562 AvBLen=        23.0
 IPart=  6 NShTot=       13685 NBatch=         596 AvBLen=        23.0
 IPart=  7 NShTot=       13524 NBatch=         589 AvBLen=        23.0
 IPart= 10 NShTot=       13340 NBatch=         581 AvBLen=        23.0
 IPart= 13 NShTot=       13110 NBatch=         571 AvBLen=        23.0
 IPart= 19 NShTot=       12811 NBatch=         558 AvBLen=        23.0
 IPart=  3 NShTot=       14007 NBatch=         611 AvBLen=        22.9
 IPart= 12 NShTot=       13179 NBatch=         574 AvBLen=        23.0
 IPart=  8 NShTot=       13409 NBatch=         584 AvBLen=        23.0
 IPart= 17 NShTot=       12857 NBatch=         560 AvBLen=        23.0
 IPart=  1 NShTot=       14099 NBatch=         615 AvBLen=        22.9
 IPart=  2 NShTot=       14053 NBatch=         613 AvBLen=        22.9
 IPart= 15 NShTot=       12972 NBatch=         565 AvBLen=        23.0
 IPart=  0 NShTot=       14168 NBatch=         618 AvBLen=        22.9
 IPart=  9 NShTot=       13363 NBatch=         582 AvBLen=        23.0
 IPart= 11 NShTot=       13271 NBatch=         578 AvBLen=        23.0
 PrSmSu:  NxtVal=           2681.
 Polarizability after L701:
                1             2             3 
      1  0.000000D+00
      2  0.000000D+00  0.000000D+00
      3  0.000000D+00  0.000000D+00  0.000000D+00
 Dipole Derivatives after L701:
                 1             2             3             4             5 
      1  -0.607150D-03  0.513364D+00  0.546834D+00 -0.214950D+00 -0.313910D+00
      2  -0.163386D+00 -0.594934D+00 -0.658345D-01 -0.388358D+00 -0.936649D+00
      3   0.341206D+00 -0.109255D+00 -0.633277D+00 -0.108373D+00  0.147044D+00
                 6             7             8             9            10 
      1  -0.110724D+00 -0.546316D+00  0.815367D+00  0.462902D+00  0.509940D-01
      2   0.189521D+00  0.501791D+00 -0.818803D+00 -0.166654D+00 -0.933540D-01
      3  -0.870589D+00 -0.577074D-01  0.662009D-01 -0.753122D+00 -0.102794D+00
                11            12            13            14            15 
      1  -0.836707D+00 -0.159292D+01  0.388627D+00 -0.556862D+00 -0.108732D+01
      2  -0.691359D+00  0.145235D+00  0.301875D+00 -0.640853D+00 -0.122005D-01
      3  -0.300646D-01 -0.898554D+00 -0.835626D-01  0.189645D-01 -0.765935D+00
                16            17            18            19            20 
      1  -0.260294D+01  0.578341D+00  0.965835D+00 -0.244852D+01 -0.270827D+00
      2   0.109859D+00 -0.991017D+00 -0.401277D-01 -0.224249D+00 -0.100114D+01
      3  -0.108886D+00  0.721107D-01 -0.845867D+00 -0.610695D-01  0.158528D-01
                21            22            23            24            25 
      1   0.570206D+00  0.155216D+00 -0.353117D+00  0.697433D+00  0.222464D+00
      2   0.959759D-01  0.162674D-02  0.226457D+00 -0.189403D+00  0.371068D-01
      3  -0.962286D+00 -0.639582D-02 -0.285355D+00  0.617439D+00  0.176183D-01
                26            27            28            29            30 
      1   0.799460D+00  0.174702D+00  0.232822D+00 -0.203325D+00 -0.387057D+00
      2   0.540943D+00  0.670815D-01 -0.672650D-01  0.241901D+00  0.231951D+00
      3   0.258119D+00  0.164984D+00 -0.809027D-01  0.158997D+00  0.526726D+00
                31            32            33            34            35 
      1   0.109747D+00 -0.908762D-01  0.613564D-01  0.141046D+00 -0.325271D-01
      2   0.192127D+00  0.379917D+00 -0.208744D+00 -0.459380D-01  0.195683D+00
      3  -0.816974D-01 -0.143668D+00  0.250617D+00  0.174566D-01 -0.554722D-01
                36            37            38            39            40 
      1  -0.893424D-02  0.250349D+00  0.171083D+00  0.101600D+00  0.462717D+00
      2  -0.360731D+00  0.284706D+00  0.666413D+00  0.281262D+00 -0.306677D+00
      3   0.685053D+00  0.259226D-01  0.392694D-01  0.137847D+00  0.114435D-01
                41            42            43            44            45 
      1  -0.569282D+00  0.121684D+00  0.104198D+00  0.193870D-01 -0.398459D+00
      2   0.698935D+00 -0.124498D+00  0.206828D-01  0.126836D+00  0.214966D+00
      3  -0.143584D-01  0.136262D+00  0.468914D-01 -0.424022D-01  0.630129D+00
                46            47            48            49            50 
      1   0.235034D+00 -0.358256D-01  0.760052D+00 -0.108034D+00  0.432406D+00
      2   0.210367D-01  0.122505D+00  0.572382D-01 -0.261819D+00  0.559702D+00
      3   0.868638D-01 -0.563701D-01  0.663099D+00 -0.252953D-01  0.308865D-01
                51            52            53            54            55 
      1  -0.668544D-01 -0.799405D-01 -0.488094D+00 -0.921775D+00  0.939127D+00
      2  -0.998753D-01  0.784202D-01  0.244570D+00  0.313813D+00  0.114450D+00
      3   0.140226D+00  0.112564D+00  0.214957D+00  0.486227D+00 -0.104937D+00
                56            57            58            59            60 
      1   0.118514D+01 -0.338640D+00  0.884307D+00 -0.956718D+00  0.782841D+00
      2   0.321896D+00 -0.301164D-01 -0.235521D+00  0.375879D+00 -0.261804D+00
      3  -0.113527D+00  0.119637D+00  0.881228D-01 -0.146446D+00  0.252926D+00
                61            62            63            64            65 
      1   0.736170D+00 -0.115888D+01 -0.311117D+00  0.721806D-01  0.608596D+00
      2  -0.100187D+00  0.341690D+00  0.368874D-01 -0.396687D-01  0.321260D+00
      3  -0.700815D-01  0.124904D+00  0.131117D+00  0.278297D-01 -0.269418D+00
                66            67            68            69 
      1  -0.101209D+01  0.101631D+01  0.743815D+00  0.990451D+00
      2  -0.369786D+00  0.262741D+00  0.310165D+00  0.295844D+00
      3   0.520886D+00  0.115783D+00  0.119032D+00  0.266456D+00
 Hessian after L701:
                1             2             3             4             5 
      1  0.144431D+02
      2  0.678888D+00  0.170075D+02
      3 -0.478585D+00  0.174057D-01  0.179041D+02
      4 -0.466814D+01 -0.188126D+01  0.352546D+00  0.144473D+02
      5 -0.191796D+01 -0.390726D+01 -0.439635D+00  0.351306D+00  0.171631D+02
      6  0.346384D+00 -0.430048D+00 -0.596694D+01  0.183156D+00  0.314874D+00
      7  0.342867D+00 -0.247939D+00 -0.388919D-01 -0.259208D+01  0.231231D+00
      8 -0.308235D+00  0.708454D-01  0.252373D-01  0.256163D+00 -0.612684D+01
      9  0.185803D-01  0.261941D-02 -0.147688D+00 -0.138465D+01 -0.109409D+00
     10 -0.296884D+01  0.553281D+00  0.154888D+01  0.243001D+00 -0.212991D-01
     11  0.569808D+00 -0.592579D+01  0.197611D+00 -0.182416D+00 -0.197696D-01
     12  0.151140D+01  0.196683D+00 -0.520481D+01  0.134866D+00 -0.193835D-01
     13  0.271205D+00  0.132196D+00 -0.139305D-01  0.350721D+00  0.203996D+00
     14 -0.219139D-01 -0.172777D+00 -0.230501D-02  0.233284D+00 -0.425880D-03
     15 -0.333045D-01  0.297098D-02 -0.180630D+00  0.310478D-01  0.556381D-01
     16  0.311083D+00 -0.846852D-01 -0.876350D-01  0.216776D+00 -0.116559D+00
     17  0.166949D-01 -0.109282D+00  0.267347D-01 -0.150400D+00 -0.105712D+00
     18  0.326976D-01  0.128291D-01 -0.768788D-01  0.449760D-01 -0.955048D-02
     19  0.109183D+00  0.271939D-01 -0.166446D-01  0.207178D+00  0.118742D+00
     20  0.916469D-03 -0.731740D-01  0.115602D-02  0.132803D+00 -0.822778D-01
     21  0.226541D-02  0.315669D-02 -0.724876D-01 -0.615216D-01 -0.252021D-01
     22 -0.102863D-01 -0.157842D-01 -0.137889D+00  0.239958D-01 -0.474624D-01
     23 -0.974610D-02  0.139541D+00 -0.448824D-01 -0.586962D-01 -0.132243D-01
     24 -0.119015D+00 -0.672532D-01  0.386299D-01  0.903584D-01 -0.529416D-01
     25 -0.160031D-01 -0.138040D+00 -0.124240D+00 -0.274940D-01 -0.316574D-02
     26 -0.104636D+00  0.123308D+00 -0.795399D-01  0.230797D-01  0.283050D-01
     27 -0.112164D+00 -0.915921D-01  0.503875D-01 -0.214780D-01  0.872281D-03
     28 -0.443933D+01 -0.184997D+00 -0.388822D+00  0.631162D-01  0.117678D+00
     29 -0.194839D+00 -0.382591D+01  0.109734D+01  0.956292D-01 -0.784661D-01
     30 -0.409251D+00  0.108905D+01 -0.250565D+01 -0.649879D-02 -0.236062D-01
     31 -0.399918D+01  0.939112D+00 -0.594691D+00  0.162731D+00  0.150804D+00
     32  0.108846D+01 -0.310816D+01 -0.924987D+00  0.118341D+00 -0.157677D+00
     33 -0.677022D+00 -0.902632D+00 -0.395359D+01 -0.564685D-01  0.774594D-01
     34  0.778128D-01  0.128569D+00 -0.759518D-01 -0.447931D+01 -0.117290D-01
     35  0.137351D+00 -0.500353D-01  0.121003D+00 -0.256497D-01 -0.428163D+01
     36 -0.795362D-01  0.136991D+00  0.159564D+00  0.159834D+00 -0.520460D+00
     37  0.121922D+00  0.133163D+00  0.201968D-01 -0.401464D+01  0.941591D+00
     38  0.111274D+00 -0.119694D+00  0.280233D-01  0.103723D+01 -0.253558D+01
     39  0.130307D-01  0.445826D-01  0.146894D+00  0.387955D+00  0.730302D+00
     40  0.110254D+00 -0.112165D+00 -0.221373D-02 -0.577295D-01  0.409288D-01
     41 -0.139844D+00  0.328061D-01  0.369409D-02  0.393989D-01  0.117824D+00
     42 -0.275188D-02  0.546144D-02 -0.527760D-01  0.529377D-01 -0.356371D-01
     43  0.153701D-01  0.553200D-02  0.167637D-02 -0.312162D-01 -0.444771D-01
     44 -0.545697D-02 -0.174080D-01 -0.463395D-02 -0.193518D-01  0.662682D-01
     45 -0.319807D-01 -0.110675D-01 -0.196308D-02  0.883211D-01  0.448419D-01
     46  0.909108D-02  0.473944D-02  0.203044D-01  0.374826D-01  0.256898D-01
     47 -0.714068D-02 -0.141055D-01 -0.331491D-02  0.275062D-01 -0.276639D-01
     48  0.371201D-01  0.101636D-01  0.808643D-02  0.554288D-01  0.126190D-01
     49  0.212337D-01  0.534863D-01 -0.104027D-01  0.180001D-02 -0.614365D-02
     50  0.104237D+00  0.136337D-01 -0.144832D-03  0.281365D-01 -0.214576D-03
[...]
 .00004306,-0.00000731,-0.00000234,-0.00000486,-0.00004394,0.00019350,0
 .00026560,0.00002429,-0.00009441,0.00002437,-0.00004077,-0.00002314,-0
 .00043361,-0.00022273,0.00068346,-0.00039839,-0.11696956,0.19785988,-0
 .00163829,0.00305787,-0.00611345,0.02119508,-0.02434464,-0.01441815,0.
 05601596,-0.07068923,-0.08371336,0.00126398,-0.00173983,-0.00012974,-0
 .00513483,0.00705136,0.00205931,-0.00004509,0.00033805,-0.00074691,-0.
 00084109,0.00100246,0.00114119,0.00006143,0.00007574,-0.00000403,-0.00
 009891,-0.00003368,-0.00002434,-0.00016870,-0.00012300,0.00009134,0.00
 005933,0.00022582,0.00018322,-0.00064989,-0.00029601,0.00111960,0.0002
 2661,0.00034812,0.00131366,-0.06434419,0.07455066,0.09478172,0.0010617
 3,0.00002728,0.00041348,0.00094176,0.00075446,0.00044561,-0.26133965,-
 0.02738238,-0.08906791,0.00038849,-0.00008443,0.00019376,-0.01180074,-
 0.00210764,-0.00450895,-0.00002172,0.00001540,-0.00009300,0.00019692,0
 .00048441,-0.00047160,-0.00002458,0.00001387,-0.00002679,-0.00012243,0
 .00002021,0.00015925,0.00000788,0.00006643,0.00005189,0.00030377,-0.00
 045631,-0.00049348,0.00138279,0.00041544,0.00065860,0.00034016,0.00032
 645,-0.00063550,-0.01776672,-0.00214204,-0.00706804,0.28417738,-0.0007
 9134,-0.00019774,-0.00034249,0.00414289,0.00010278,0.00202832,-0.02644
 791,-0.05116562,-0.01251448,0.00014111,0.00002717,-0.00007304,-0.03021
 384,-0.00622312,-0.01110393,-0.00001564,-0.00002809,0.00000312,0.00018
 192,0.00090980,-0.00142835,-0.00001127,-0.00003069,0.00002190,0.000023
 31,-0.00003383,0.00003073,-0.00002186,0.00003285,-0.00001339,0.0000851
 7,0.00008570,-0.00015688,-0.00034807,0.00062689,0.00110063,0.00035719,
 0.00005608,-0.00018082,0.02129362,0.00272448,0.00951832,0.03275275,0.0
 5676568,-0.00184686,0.00048532,0.00167479,-0.03129495,-0.00383626,-0.0
 1565775,-0.08846126,-0.01271618,-0.08430920,0.00024227,0.00016149,-0.0
 0006541,0.00848793,0.00097156,0.00236574,0.00010475,0.00000814,0.00006
 786,0.00085909,-0.00015205,0.00118638,-0.00002286,0.00002919,-0.000029
 77,0.00017332,-0.00001716,0.00031580,0.00008412,-0.00001999,-0.0000478
 1,0.00112772,-0.00037253,-0.00000503,0.00063735,0.00068760,-0.00641174
 ,0.00027607,0.00026354,0.00121119,0.01151316,0.00217620,0.00464148,0.0
 9825863,0.01101701,0.09504099,-0.00010911,-0.00014785,0.00030022,0.000
 38714,0.00059474,-0.00077114,-0.01219839,-0.00298099,-0.00465250,0.000
 00141,0.00007284,-0.00000851,-0.24799882,-0.03324548,-0.10082207,-0.00
 000709,-0.00002861,0.00003110,0.00509820,0.00105264,0.00284516,0.00001
 337,0.00000418,-0.00002131,0.00002462,-0.00003223,0.00007953,-0.000344
 72,0.00012410,0.00006208,0.00025659,0.00008456,-0.00010095,0.00018812,
 -0.00024637,0.00090537,0.00042312,0.00011449,0.00013788,0.00067440,-0.
 00021587,0.00009536,0.00078085,-0.00262732,0.00077792,0.26887388,0.000
 05076,0.00015039,0.00017082,-0.00012906,0.00143482,-0.00149020,-0.0290
 3518,-0.00645653,-0.01220978,-0.00005207,0.00003242,0.00002269,-0.0328
 4075,-0.05438244,-0.01850610,0.00000551,-0.00000010,0.00001112,0.00199
 003,-0.00001067,0.00096332,-0.00000164,-0.00000108,-0.00000046,-0.0000
 0235,0.00000895,0.00001204,-0.00005603,-0.00009301,0.00009962,0.000076
 29,-0.00015385,-0.00008196,0.00061446,0.00007485,0.00071658,0.00046318
 ,0.00011062,-0.00023741,0.00058156,0.00096589,-0.00056847,-0.00232141,
 -0.00524152,0.00179630,0.04033103,0.05895522,-0.00001317,0.00004842,0.
 00009951,0.00120968,0.00008290,0.00123176,0.00871384,0.00175540,0.0029
 3051,-0.00006976,-0.00005451,-0.00003709,-0.09970493,-0.01869081,-0.09
 683587,-0.00000001,-0.00000990,0.00000332,-0.03009521,-0.00477585,-0.0
 1712593,-0.00000156,0.00000173,0.00003165,-0.00000206,0.00000430,-0.00
 002220,-0.00014286,-0.00025444,0.00009045,-0.00011025,-0.00000435,0.00
 007352,-0.00040105,0.00001602,0.00013256,-0.00004103,-0.00008803,0.000
 12050,-0.00043709,-0.00041681,0.00000788,0.00102370,0.00208972,-0.0001
 6478,0.10973363,0.01776886,0.10914096,0.00048130,0.00089496,0.00096255
 ,0.00004064,0.00087264,-0.00007372,0.00819456,-0.01016008,-0.00438637,
 -0.00017512,-0.00040683,-0.00014373,-0.15201138,0.11852365,0.04674248,
 0.00003361,0.00002334,-0.00002648,-0.00229985,0.00192385,0.00128557,-0
 .00001707,-0.00007209,0.00014589,0.00001006,0.00002620,-0.00003554,-0.
 00022863,-0.00076647,0.00061570,-0.00030064,0.00003340,-0.00020541,0.0
 0002579,0.00000660,0.00007286,0.00004395,0.00002948,-0.00019728,0.0003
 6791,-0.00313757,0.00080435,0.00096815,0.00056681,-0.00048237,-0.01835
 713,0.02079475,0.00859038,0.16141702,-0.00004753,-0.00048679,-0.000328
 85,0.00035668,0.00030545,-0.00092557,0.01893488,-0.02390621,-0.0085687
 6,-0.00003789,0.00060089,0.00018835,0.11757178,-0.18371325,-0.05617957
 ,-0.00003593,0.00001902,0.00006408,-0.00215860,0.00222126,0.00103296,0
 .00006390,0.00006841,-0.00025368,-0.00003331,-0.00000711,-0.00009742,0
 .00017291,0.00106911,0.00029610,-0.00019100,-0.00014832,0.00014980,-0.
 00007288,-0.00000269,0.00006099,-0.00018625,0.00019537,0.00006841,-0.0
 0279270,-0.00478391,0.00208279,-0.00016386,0.00133029,-0.00039630,-0.0
 0305064,0.00379020,0.00219783,-0.12785028,0.20198750,0.00019779,-0.000
 02242,-0.00087139,-0.00063394,-0.00016389,0.00052355,-0.00660117,0.006
 81053,0.00266698,-0.00003276,-0.00001692,-0.00002242,0.04653764,-0.056
 04219,-0.06884297,0.00002543,-0.00000505,0.00002681,0.02231616,-0.0244
 8609,-0.01260301,-0.00001674,-0.00000242,0.00004716,0.00000650,0.00001
 452,0.00002874,0.00067916,0.00055257,-0.00199275,0.00004931,-0.0001373
 9,0.00011795,0.00002005,0.00004040,-0.00003732,0.00014390,-0.00019592,
 0.00006802,0.00086838,0.00186596,-0.00022884,0.00012650,-0.00066632,0.
 00019154,-0.00888958,0.01122199,0.00415427,-0.05466386,0.06047502,0.08
 061237,0.00053881,-0.00064948,-0.00129018,0.00037197,0.00010741,0.0003
 2595,0.00000347,0.00002489,0.00001382,-0.01918731,-0.00001389,-0.00798
 326,-0.00001942,0.00003078,0.00002946,-0.26621558,-0.00549497,-0.10070
 067,-0.00000272,-0.00001471,-0.00000406,0.00090298,0.00013587,-0.00000
 703,-0.00086726,0.00318524,0.00236167,-0.00008484,0.00001952,0.0000522
 0,0.00017918,0.00001871,0.00107220,0.00025938,-0.00014032,-0.00013526,
 -0.00002796,-0.00002512,-0.00004530,-0.00000428,0.00000112,0.00001581,
 0.00001047,0.00001083,0.00005798,0.00002292,-0.00000114,-0.00000404,-0
 .00000972,-0.00001043,-0.00000566,0.29083913,-0.00041636,0.00047825,0.
 00113493,-0.00004022,-0.00008887,0.00006232,-0.00009570,0.00001673,-0.
 00000980,0.02235760,-0.00008185,0.00972618,-0.00001117,0.00000360,-0.0
 0000241,-0.00604165,-0.04728461,-0.00185969,0.00000390,-0.00000033,0.0
 0000088,-0.00048388,0.00067331,0.00084325,0.00302885,-0.00252116,-0.00
 263451,-0.00011420,-0.00001680,-0.00013330,-0.00037391,0.00023379,-0.0
 0038166,-0.00015899,0.00000792,0.00002235,0.00003761,-0.00003953,0.000
 02550,0.00000738,-0.00000564,0.00001244,0.00000143,0.00000923,-0.00004
 057,0.00000468,-0.00000767,0.00000176,-0.00000396,-0.00000598,-0.00000
 346,0.00266558,0.04929713,0.00091763,0.00030036,0.00170819,0.00018992,
 -0.00010757,0.00001290,-0.00010334,0.00003985,-0.00001280,0.01501585,0
 .00082905,0.00589977,0.00001759,-0.00000580,-0.00000066,-0.10140696,-0
 .00163703,-0.09368877,-0.00000699,0.00000166,-0.00000486,-0.00069894,0
 .00058979,0.00039120,0.00239430,-0.00213026,-0.00094622,-0.00004183,0.
 00010681,-0.00004338,-0.00043676,-0.00019141,-0.00004053,-0.00014390,0
 .00000462,-0.00011010,-0.00000728,0.00003245,0.00002734,-0.00001753,0.
 00000172,0.00004130,-0.00000136,-0.00000820,-0.00003860,-0.00000544,-0
 .00000105,0.00000124,-0.00000035,0.00001752,-0.00000714,0.10958129,0.0
 0404680,0.09843006,0.00070836,0.00021656,-0.00106812,-0.00002574,0.000
 23909,-0.00013108,-0.00001309,-0.00013143,-0.00001763,0.00799721,0.020
 87284,-0.00152341,0.00002410,-0.00000725,0.00002739,-0.08425209,-0.092
 65007,0.00827898,-0.00000798,-0.00000661,0.00000116,-0.00187873,0.0032
 5050,0.00250502,0.00095851,-0.00046539,-0.00077517,0.00002952,-0.00047
 132,0.00000612,-0.00004590,-0.00014888,0.00007125,-0.00003470,0.000014
 52,-0.00000498,-0.00006752,-0.00013933,0.00004408,0.00000419,0.0000079
 4,-0.00003071,-0.00000005,-0.00000071,-0.00000397,-0.00001182,0.000005
 62,0.00000084,0.00000401,-0.00000144,0.00000287,-0.01062425,-0.0275105
 4,0.00395519,0.08922980,-0.00075610,0.00066039,0.00119414,0.00023554,0
 .00035116,-0.00013087,0.00005491,0.00006374,0.00001143,-0.00791773,-0.
 02175709,0.00167915,-0.00000098,-0.00006706,-0.00005994,-0.09185067,-0
 .27322761,0.02176191,0.00001133,0.00003630,-0.00000191,0.00355037,-0.0
 0151359,-0.00221801,0.00017404,0.00072004,0.00045552,0.00028423,0.0005
 0142,-0.00095710,0.00005993,-0.00002918,-0.00005956,0.00002506,-0.0000
 4332,0.00000726,-0.00011747,0.00026734,0.00017001,0.00000602,-0.000002
 75,-0.00001193,-0.00000108,0.00000336,-0.00000004,0.00001945,-0.000002
 38,0.00000317,-0.00001996,0.00000473,-0.00000850,-0.00000177,0.0002793
 5,-0.00025149,0.09836906,0.29952345,-0.00108640,-0.00103670,0.00125324
 ,0.00017912,-0.00011537,-0.00008350,-0.00000239,0.00007954,-0.00000273
 ,-0.00610694,-0.01439754,0.00034731,0.00003549,-0.00004579,-0.00001708
 ,0.00844781,0.02233770,-0.04963702,-0.00001008,0.00002647,-0.00000695,
 0.00202316,-0.00211832,-0.00092113,-0.00017300,0.00081399,0.00034566,0
 .00039153,0.00033679,-0.00013820,-0.00005277,0.00001652,-0.00004741,-0
 .00002849,0.00001079,0.00000153,0.00001703,0.00021696,-0.00005491,-0.0
 0000798,0.00000758,0.00003307,0.00000371,-0.00000665,-0.00000250,0.000
 00050,0.00000055,-0.00000159,-0.00002109,0.00003012,-0.00001559,-0.004
 72586,-0.01370240,0.00061941,-0.01128127,-0.02213729,0.04985028,-0.002
 50930,0.00344048,0.00065998,0.00059158,-0.00035008,0.00131081,-0.00034
 005,0.00036291,0.00006341,-0.00221933,-0.00612780,0.02013303,0.0000317
 2,0.00004812,0.00001135,-0.04935961,-0.00549204,0.02273904,-0.00001576
 ,-0.00002197,-0.00000797,0.00068972,-0.00016532,-0.00066429,0.00030843
 ,-0.00084033,-0.00031253,0.00001709,0.00018670,-0.00039721,0.00030008,
 0.00008534,0.00035402,-0.00000899,-0.00009578,-0.00006458,0.00001175,0
 .00005828,0.00001327,-0.00003191,-0.00001074,0.00018088,0.00002050,-0.
 00000050,-0.00000876,-0.00000360,-0.00000517,-0.00000421,-0.00000504,-
 0.00000155,-0.00001301,0.00391178,0.00714233,-0.02920011,-0.00199457,-
 0.00212702,0.01239829,0.05060284,0.00291154,-0.00334154,-0.00083422,0.
 00013390,0.00081353,-0.00132425,0.00033109,-0.00034915,-0.00007397,0.0
 0092976,0.00537992,-0.02355966,-0.00000702,-0.00007907,-0.00000223,-0.
 00577991,-0.05991320,0.05782922,0.00000948,0.00002819,0.00000085,-0.00
 089498,0.00068193,0.00028588,-0.00043487,0.00076593,0.00075381,0.00028
 623,0.00032534,-0.00017800,-0.00004510,-0.00014904,0.00019646,0.000050
 73,0.00000446,0.00000325,-0.00011284,0.00002048,0.00005562,0.00002272,
 0.00000736,-0.00017251,-0.00002089,0.00000504,0.00000988,0.00000883,0.
 00000274,0.00000338,-0.00001304,0.00000701,0.00000297,0.00015135,-0.00
 094865,-0.00163628,-0.00144360,-0.00577425,0.02968327,0.00391906,0.062
 50512,0.00248581,-0.00324101,0.00019530,-0.00028971,0.00078373,-0.0007
 4742,0.00028826,-0.00031521,0.00001148,0.00001410,0.00381939,-0.012510
 36,-0.00005233,-0.00003555,-0.00001609,0.02346890,0.05682317,-0.302009
 50,0.00002081,0.00002357,0.00001507,-0.00038647,-0.00035213,0.00027085
 ,0.00035210,0.00010825,0.00056861,-0.00009466,0.00002738,0.00024824,-0
 .00002015,0.00002747,0.00038846,0.00011792,-0.00003425,-0.00001911,-0.
 00002495,-0.00007862,-0.00001175,0.00002759,0.00000990,-0.00017794,-0.
 00002979,0.00002279,0.00000457,0.00000735,0.00000117,0.00000605,0.0000
 0587,-0.00002016,0.00001615,0.00137401,0.00289386,-0.01224804,-0.00005
 410,0.00056264,-0.00153471,-0.02721385,-0.06103235,0.32758711,-0.00001
 820,0.00011076,-0.00013205,0.00021160,-0.00034845,0.00003048,-0.000157
 79,0.00055239,-0.00039442,0.00003467,-0.00005928,-0.00002341,-0.002107
 65,0.00169881,0.00091927,0.,0.00000777,-0.00001493,-0.15815175,0.11960
 739,0.05283775,-0.00000568,-0.00000645,0.00001745,0.00000210,0.0000013
 0,0.00000708,-0.00000781,-0.00006261,-0.00002796,0.00001230,0.00000529
 ,0.00000079,-0.00002629,0.00001141,-0.00001331,-0.00002869,-0.00002372
 ,0.00006344,0.00000173,-0.00055903,0.00036752,-0.00003591,0.00007475,0
 .00004316,0.00060703,-0.00050819,0.00023562,0.00134034,-0.00032997,0.0
 0050538,0.00000312,0.00000238,-0.00000236,-0.00000184,-0.00000474,-0.0
 0000460,0.00000327,-0.00000552,0.00000290,0.16807713,-0.00006703,-0.00
 011095,0.00012416,-0.00004694,0.00021380,0.00002048,-0.00083357,0.0012
 1566,0.00053469,-0.00000991,0.00000102,0.00001986,-0.00165907,0.000464
 49,0.00011781,-0.00000435,-0.00000025,-0.00000398,0.11988620,-0.177827
 40,-0.05746694,-0.00000010,0.00000605,-0.00000303,-0.00000355,-0.00000
 074,-0.00000427,0.00003479,0.00000670,-0.00000912,0.00000175,0.0000025
 1,-0.00000552,-0.00001468,-0.00002004,-0.00003583,0.00002191,0.0000183
 5,-0.00006006,0.00035697,0.00030166,-0.00009981,-0.00003408,-0.0000377
 5,-0.00003561,-0.00011721,0.00002171,-0.00049779,-0.00073399,0.0010241
 6,0.00051518,-0.00000143,-0.00000191,0.00000321,0.00000199,0.00000163,
 0.00000546,0.00000355,0.00000217,-0.00001095,-0.13216040,0.19029696,-0
 .00004419,-0.00028937,-0.00013846,-0.00032766,0.00002699,0.00002077,-0
 .00005425,-0.00202666,0.00149598,0.00001341,0.00019898,0.00008754,0.02
 317412,-0.02408520,-0.01209663,-0.00001397,-0.00000155,0.00001559,0.05
 212173,-0.05665453,-0.07108357,0.00001646,0.00002587,-0.00008061,-0.00
 000994,-0.00000664,-0.00001977,0.00006557,0.00027348,0.00010269,-0.000
 01600,-0.00001013,0.00002791,-0.00001857,-0.00002812,-0.00004269,-0.00
 002796,0.00003941,0.00000349,-0.00019516,0.00109629,0.00013862,-0.0000
 4489,0.00012177,-0.00000651,-0.00056593,-0.00015701,0.00146858,0.00059
 222,0.00098285,-0.00663580,-0.00000096,-0.00000176,0.00000503,0.000000
 79,0.00000560,0.00001303,0.00000181,0.00000481,-0.00000876,-0.05900883
 ,0.06321696,0.08045103,-0.00003603,-0.00002161,-0.00003544,0.00034517,
 0.00012232,0.00013890,0.00072547,0.00028729,0.00035675,0.00001220,0.00
 000587,0.00001389,0.00436931,0.00047945,0.00206137,-0.00000787,0.00000
 268,-0.00000843,-0.25258335,-0.03519417,-0.10603663,0.00000252,0.00000
 547,-0.00001198,-0.00000047,-0.00000151,0.00000083,0.00000332,0.000034
 45,0.00001941,0.00001198,0.00000435,0.00000114,-0.00009219,-0.00008211
 ,0.00013290,-0.00000480,0.00002912,-0.00009772,-0.00011558,-0.00001249
 ,-0.00015958,0.00010673,0.00047059,-0.00038854,0.00141187,-0.00037142,
 0.00139369,0.00066573,0.00000076,-0.00062133,0.00000482,-0.00000042,0.
 00000324,-0.00000088,0.00000111,0.00000268,0.00000422,-0.00000210,-0.0
 0000790,-0.01788081,-0.00402727,-0.00893458,0.27248637,-0.00003752,0.0
 0004077,-0.00003572,0.00003044,-0.00010340,0.00008784,0.00099010,0.000
 47104,0.00023571,0.00002605,-0.00003031,0.00000180,0.00119227,-0.00061
 258,0.00039502,-0.00000420,0.00000831,-0.00001289,-0.03526079,-0.05400
 128,-0.01822679,-0.00000106,-0.00000313,0.00000508,0.00000105,-0.00000
 130,0.00000540,-0.00001114,-0.00001552,-0.00001782,0.00001603,0.000017
 91,0.00000451,-0.00007887,-0.00006539,-0.00002497,-0.00000980,-0.00000
 135,-0.00000718,0.00014584,-0.00004136,-0.00007838,-0.00020029,0.00025
 531,0.00010080,0.00003572,0.00073520,0.00035769,-0.00039553,-0.0001120
 8,-0.00020286,0.00000547,0.00000252,0.00000081,-0.00000343,-0.00000423
 ,-0.00000147,0.00000570,-0.00000529,-0.00000560,0.02050628,0.00387856,
 0.01153607,0.03910187,0.05319921,-0.00006503,-0.00009800,0.00001495,0.
 00029310,-0.00001249,-0.00004270,-0.00130998,-0.00122153,0.00156528,0.
 00001792,0.00003916,0.00001741,-0.03073075,-0.00473637,-0.01704876,-0.
 00000978,-0.00000313,0.00000115,-0.10521223,-0.01807619,-0.10033346,0.
 00000574,0.00000784,-0.00001760,0.00000557,-0.00001052,0.00002252,-0.0
 0006375,0.00006822,0.00004320,0.00008275,0.00002292,-0.00002227,0.0001
 5612,-0.00005868,0.00030127,0.00011383,0.00004202,-0.00000317,0.000075
 92,0.00015756,-0.00002012,0.00085965,0.00066489,-0.00001936,0.00159122
 ,0.00056538,-0.00654718,0.00018324,-0.00038871,0.00143458,0.00001043,0
 .00000149,-0.00000052,-0.00000396,0.00000460,0.00000171,0.00000330,-0.
 00000021,-0.00000179,0.00923530,0.00260846,0.00428196,0.11626062,0.020
 02275,0.11266988,0.00002098,-0.00004317,-0.00007834,0.00038539,-0.0004
 2873,-0.00013791,0.00043056,0.00053162,0.00112400,-0.00000334,0.000019
 81,-0.00001189,-0.00236959,-0.00219553,0.00026783,0.00000140,-0.000011
 85,0.00000712,-0.08018725,-0.08408914,0.02543838,0.00000153,0.00000444
 ,-0.00000311,-0.00000179,-0.00000168,-0.00000212,0.00001328,0.00002016
 ,0.00000866,-0.00000795,-0.00000202,-0.00000895,-0.00000109,-0.0000123
 2,0.00011483,-0.00000934,-0.00001613,0.00011484,0.00005744,-0.00035369
 ,-0.00010701,0.00042422,0.00037751,-0.00013390,0.00026717,0.00041120,0
 .00012587,-0.00018847,-0.00013664,-0.00000102,-0.00000471,-0.00000075,
 -0.00000186,0.00000348,0.00000646,0.00000154,-0.00000481,0.00000517,0.
 00000831,0.00812913,0.01940641,-0.00672322,-0.00942775,-0.02605418,0.0
 0850077,0.08247151,0.00005131,-0.00010283,0.00015021,-0.00027397,0.000
 09892,-0.00039930,0.00031442,0.00081518,0.00084813,-0.00005219,0.00006
 938,-0.00002242,0.00091627,0.00064285,-0.00108827,0.00000848,-0.000027
 07,0.00003698,-0.08422569,-0.26492146,0.06565955,-0.00000030,-0.000002
 20,0.00000195,0.00000629,-0.00000201,0.00000372,0.00000329,0.00000265,
 -0.00000966,-0.00000556,-0.00000195,-0.00000737,0.00003297,0.00000580,
 0.00004247,-0.00001704,-0.00002037,0.00006254,-0.00010881,0.00050820,-
 0.00010614,0.00003628,0.00002370,-0.00012032,0.00024531,0.00006625,0.0
 0046131,-0.00013587,0.00054293,0.00045430,-0.00000353,0.00000118,-0.00
 000555,0.00000186,0.00000855,-0.00000421,-0.00001419,0.00001095,0.0000
 2251,-0.00851017,-0.01945640,0.00573189,-0.00083223,-0.00361159,0.0004
 0056,0.09256306,0.28534934,-0.00013365,0.00023464,0.00006234,0.0009506
 5,0.00205712,0.00014162,-0.00018640,-0.00188332,-0.00696065,0.00006742
 ,-0.00011103,0.00000635,0.01204793,0.03127780,-0.00768679,-0.00001307,
 0.00002707,-0.00004431,0.02502405,0.06445974,-0.06613888,-0.00001473,-
 0.00001970,0.00002177,-0.00000673,0.00000924,0.00000140,-0.00000708,-0
 .00009175,-0.00000284,0.00003068,-0.00000971,0.00000463,-0.00008536,-0
 .00003025,0.00003361,0.00005998,0.00013303,-0.00075735,-0.00028050,-0.
 00011970,0.00002449,0.00024651,-0.00012462,0.00005812,-0.00072986,-0.0
 0009801,0.00124188,0.00023510,-0.00048782,0.00136910,0.00000744,-0.000
 00218,0.00000518,0.00000067,-0.00001878,-0.00000192,0.00001733,-0.0000
 1573,-0.00002640,-0.00464425,-0.00893336,0.00200059,-0.00408329,-0.014
 13979,0.00370302,-0.02850283,-0.07211286,0.07294505\\-0.00000008,0.000
 00029,-0.00000040,0.00000097,0.00000025,0.00000051,0.00000103,-0.00000
 058,0.00000076,-0.00000059,0.00000106,0.00000032,0.00000013,-0.0000005
 4,0.00000011,-0.00000134,0.00000091,-0.00000080,0.00000044,-0.00000135
 ,-0.00000017,0.00000033,0.00000078,0.00000060,-0.00000040,0.00000215,0
 .00000029,-0.00000092,0.00000047,-0.00000078,-0.00000015,-0.00000083,-
 0.00000035,0.00000043,0.00000146,0.00000111,0.00000126,0.00000029,0.00
 000148,0.00000157,-0.00000033,0.00000145,0.00000117,-0.00000157,0.0000
 0052,-0.00000022,0.00000059,0.00000002,-0.00000059,-0.00000077,-0.0000
 0080,-0.00000117,-0.00000015,-0.00000118,-0.00000197,0.00000119,-0.000
 00149,-0.00000142,0.00000149,-0.00000079,0.00000099,-0.00000109,0.0000
 0058,0.00000069,-0.00000239,-0.00000026,-0.00000016,-0.00000132,-0.000
 00074\\\@


 ALL OUR THINKING ABOUT NATURE MUST NECESSARILY MOVE IN CIRCLES OR SPIRALS;
 FOR WE CAN ONLY UNDERSTAND NATURE IF WE THINK ABOUT HER, AND WE CAN ONLY
 THINK BECAUSE OUR BRAIN IS BUILT IN ACCORDANCE WITH NATURE'S LAWS.

                                             -- TIMOTHY FERRIS, "GALAXIES"
 Job cpu time:       0 days  4 hours 55 minutes 32.2 seconds.
 Elapsed time:       0 days  2 hours 27 minutes 47.7 seconds.
 File lengths (MBytes):  RWF=   1488 Int=      0 D2E=      0 Chk=     32 Scr=     32
 Normal termination of Gaussian 16 at Sun Sep 29 07:22:24 2019.
