 Entering Gaussian System, Link 0=g16
 Input=tight/species/CC(C)OC=CO/conformers/CC(C)OC=CO_48.com
 Output=tight/species/CC(C)OC=CO/conformers/CC(C)OC=CO_48.log
 Initial command:
 /shared/centos7/gaussian/g16/l1.exe "/scratch/harms.n/gauss_scrdir/Gau-43793.inp" -scrdir="/scratch/harms.n/gauss_scrdir/"
 Entering Link 1 = /shared/centos7/gaussian/g16/l1.exe PID=     43794.
  
 Copyright (c) 1988,1990,1992,1993,1995,1998,2003,2009,2016,
            Gaussian, Inc.  All Rights Reserved.
  
 This is part of the Gaussian(R) 16 program.  It is based on
 the Gaussian(R) 09 system (copyright 2009, Gaussian, Inc.),
 the Gaussian(R) 03 system (copyright 2003, Gaussian, Inc.),
 the Gaussian(R) 98 system (copyright 1998, Gaussian, Inc.),
 the Gaussian(R) 94 system (copyright 1995, Gaussian, Inc.),
 the Gaussian 92(TM) system (copyright 1992, Gaussian, Inc.),
 the Gaussian 90(TM) system (copyright 1990, Gaussian, Inc.),
 the Gaussian 88(TM) system (copyright 1988, Gaussian, Inc.),
 the Gaussian 86(TM) system (copyright 1986, Carnegie Mellon
 University), and the Gaussian 82(TM) system (copyright 1983,
 Carnegie Mellon University). Gaussian is a federally registered
 trademark of Gaussian, Inc.
  
 This software contains proprietary and confidential information,
 including trade secrets, belonging to Gaussian, Inc.
  
 This software is provided under written license and may be
 used, copied, transmitted, or stored only in accord with that
 written license.
  
 The following legend is applicable only to US Government
 contracts under FAR:
  
                    RESTRICTED RIGHTS LEGEND
  
 Use, reproduction and disclosure by the US Government is
 subject to restrictions as set forth in subparagraphs (a)
 and (c) of the Commercial Computer Software - Restricted
 Rights clause in FAR 52.227-19.
  
 Gaussian, Inc.
 340 Quinnipiac St., Bldg. 40, Wallingford CT 06492
  
  
 ---------------------------------------------------------------
 Warning -- This program may not be used in any manner that
 competes with the business of Gaussian, Inc. or will provide
 assistance to any competitor of Gaussian, Inc.  The licensee
 of this program is prohibited from giving any competitor of
 Gaussian, Inc. access to this program.  By using this program,
 the user acknowledges that Gaussian, Inc. is engaged in the
 business of creating and licensing software in the field of
 computational chemistry and represents and warrants to the
 licensee that it is not a competitor of Gaussian, Inc. and that
 it will not use this program in any manner prohibited above.
 ---------------------------------------------------------------
  

 Cite this work as:
 Gaussian 16, Revision A.03,
 M. J. Frisch, G. W. Trucks, H. B. Schlegel, G. E. Scuseria, 
 M. A. Robb, J. R. Cheeseman, G. Scalmani, V. Barone, 
 G. A. Petersson, H. Nakatsuji, X. Li, M. Caricato, A. V. Marenich, 
 J. Bloino, B. G. Janesko, R. Gomperts, B. Mennucci, H. P. Hratchian, 
 J. V. Ortiz, A. F. Izmaylov, J. L. Sonnenberg, D. Williams-Young, 
 F. Ding, F. Lipparini, F. Egidi, J. Goings, B. Peng, A. Petrone, 
 T. Henderson, D. Ranasinghe, V. G. Zakrzewski, J. Gao, N. Rega, 
 G. Zheng, W. Liang, M. Hada, M. Ehara, K. Toyota, R. Fukuda, 
 J. Hasegawa, M. Ishida, T. Nakajima, Y. Honda, O. Kitao, H. Nakai, 
 T. Vreven, K. Throssell, J. A. Montgomery, Jr., J. E. Peralta, 
 F. Ogliaro, M. J. Bearpark, J. J. Heyd, E. N. Brothers, K. N. Kudin, 
 V. N. Staroverov, T. A. Keith, R. Kobayashi, J. Normand, 
 K. Raghavachari, A. P. Rendell, J. C. Burant, S. S. Iyengar, 
 J. Tomasi, M. Cossi, J. M. Millam, M. Klene, C. Adamo, R. Cammi, 
 J. W. Ochterski, R. L. Martin, K. Morokuma, O. Farkas, 
 J. B. Foresman, and D. J. Fox, Gaussian, Inc., Wallingford CT, 2016.
 
 ******************************************
 Gaussian 16:  EM64L-G16RevA.03 25-Dec-2016
                26-Sep-2019 
 ******************************************
 %nprocshared=20
 Will use up to   20 processors via shared memory.
 %mem=5GB
 ----------------------------------------------------------------------
 #p m062x/cc-pVTZ opt=(calcfc,maxcycles=900,Tight) freq IOP(7/33=1,2/16
 =3) scf=(maxcycle=900)
 ----------------------------------------------------------------------
 1/6=900,7=10,10=4,18=20,19=15,26=3,38=1/1,3;
 2/9=110,12=2,16=3,17=6,18=5,40=1/2;
 3/5=16,6=1,11=2,25=1,30=1,71=2,74=-55,140=1/1,2,3;
 4//1;
 5/5=2,7=900,38=5/2;
 8/6=4,10=90,11=11/1;
 11/6=1,8=1,9=11,15=111,16=1/1,2,10;
 10/6=1,13=1/2;
 6/7=2,8=2,9=2,10=2,28=1/1;
 7/10=1,18=20,25=1,33=1/1,2,3,16;
 1/6=900,7=10,10=4,18=20,19=15,26=3/3(2);
 2/9=110,16=3/2;
 99//99;
 2/9=110,16=3/2;
 3/5=16,6=1,11=2,25=1,30=1,71=1,74=-55/1,2,3;
 4/5=5,16=3,69=1/1;
 5/5=2,7=900,38=5/2;
 7/33=1/1,2,3,16;
 1/6=900,7=10,18=20,19=15,26=3/3(-5);
 2/9=110,16=3/2;
 6/7=2,8=2,9=2,10=2,19=2,28=1/1;
 99/9=1/99;
 Leave Link    1 at Thu Sep 26 22:27:53 2019, MaxMem=   671088640 cpu:               3.5 elap:               2.2
 (Enter /shared/centos7/gaussian/g16/l101.exe)
 ------------------------------
 Gaussian input prepared by ASE
 ------------------------------
 Symbolic Z-matrix:
 Charge =  0 Multiplicity = 1
 O                     3.2151    0.41992  -0.8314 
 O                     0.25477   0.86419  -0.29155 
 C                     2.61417   0.46381  -2.10845 
 C                     1.8045   -0.79284  -2.42825 
 C                     3.67155   0.7263   -3.12977 
 C                     2.43424  -0.06909   0.19086 
 C                     1.17262   0.1281    0.44283 
 H                     1.90988   1.34085  -2.14204 
 H                     2.30123  -1.69813  -2.02092 
 H                     0.78589  -0.73521  -2.00327 
 H                     1.70576  -0.91569  -3.54081 
 H                     4.42896  -0.11133  -3.16717 
 H                     4.21629   1.66649  -2.90311 
 H                     3.21265   0.82729  -4.15387 
 H                     3.03194  -0.65395   0.90809 
 H                     0.70978  -0.3318    1.30347 
 H                     0.76596   1.34173  -1.00738 
 
 ITRead=  0  0  0  0  0  0  0  0  0  0  0  0  0  0  0  0  0
 MicOpt= -1 -1 -1 -1 -1 -1 -1 -1 -1 -1 -1 -1 -1 -1 -1 -1 -1
 NAtoms=     17 NQM=       17 NQMF=       0 NMMI=      0 NMMIF=      0
                NMic=       0 NMicF=      0.
                    Isotopes and Nuclear Properties:
 (Nuclear quadrupole moments (NQMom) in fm**2, nuclear magnetic moments (NMagM)
  in nuclear magnetons)

  Atom         1           2           3           4           5           6           7           8           9          10
 IAtWgt=          16          16          12          12          12          12          12           1           1           1
 AtmWgt=  15.9949146  15.9949146  12.0000000  12.0000000  12.0000000  12.0000000  12.0000000   1.0078250   1.0078250   1.0078250
 NucSpn=           0           0           0           0           0           0           0           1           1           1
 AtZEff=  -0.0000000  -0.0000000  -0.0000000  -0.0000000  -0.0000000  -0.0000000  -0.0000000  -0.0000000  -0.0000000  -0.0000000
 NQMom=    0.0000000   0.0000000   0.0000000   0.0000000   0.0000000   0.0000000   0.0000000   0.0000000   0.0000000   0.0000000
 NMagM=    0.0000000   0.0000000   0.0000000   0.0000000   0.0000000   0.0000000   0.0000000   2.7928460   2.7928460   2.7928460
 AtZNuc=   8.0000000   8.0000000   6.0000000   6.0000000   6.0000000   6.0000000   6.0000000   1.0000000   1.0000000   1.0000000

  Atom        11          12          13          14          15          16          17
 IAtWgt=           1           1           1           1           1           1           1
 AtmWgt=   1.0078250   1.0078250   1.0078250   1.0078250   1.0078250   1.0078250   1.0078250
 NucSpn=           1           1           1           1           1           1           1
 AtZEff=  -0.0000000  -0.0000000  -0.0000000  -0.0000000  -0.0000000  -0.0000000  -0.0000000
 NQMom=    0.0000000   0.0000000   0.0000000   0.0000000   0.0000000   0.0000000   0.0000000
 NMagM=    2.7928460   2.7928460   2.7928460   2.7928460   2.7928460   2.7928460   2.7928460
 AtZNuc=   1.0000000   1.0000000   1.0000000   1.0000000   1.0000000   1.0000000   1.0000000
 Leave Link  101 at Thu Sep 26 22:27:57 2019, MaxMem=   671088640 cpu:               4.0 elap:               4.0
 (Enter /shared/centos7/gaussian/g16/l103.exe)

 GradGradGradGradGradGradGradGradGradGradGradGradGradGradGradGradGradGrad
 Berny optimization.
 Initialization pass.
                           ----------------------------
                           !    Initial Parameters    !
                           ! (Angstroms and Degrees)  !
 --------------------------                            --------------------------
 ! Name  Definition              Value          Derivative Info.                !
 --------------------------------------------------------------------------------
 ! R1    R(1,3)                  1.412          calculate D2E/DX2 analytically  !
 ! R2    R(1,6)                  1.3762         calculate D2E/DX2 analytically  !
 ! R3    R(2,7)                  1.3869         calculate D2E/DX2 analytically  !
 ! R4    R(2,17)                 1.0009         calculate D2E/DX2 analytically  !
 ! R5    R(3,4)                  1.5287         calculate D2E/DX2 analytically  !
 ! R6    R(3,5)                  1.4933         calculate D2E/DX2 analytically  !
 ! R7    R(3,8)                  1.1253         calculate D2E/DX2 analytically  !
 ! R8    R(4,9)                  1.1101         calculate D2E/DX2 analytically  !
 ! R9    R(4,10)                 1.1052         calculate D2E/DX2 analytically  !
 ! R10   R(4,11)                 1.1237         calculate D2E/DX2 analytically  !
 ! R11   R(5,12)                 1.1299         calculate D2E/DX2 analytically  !
 ! R12   R(5,13)                 1.11           calculate D2E/DX2 analytically  !
 ! R13   R(5,14)                 1.1267         calculate D2E/DX2 analytically  !
 ! R14   R(6,7)                  1.3016         calculate D2E/DX2 analytically  !
 ! R15   R(6,15)                 1.1017         calculate D2E/DX2 analytically  !
 ! R16   R(7,16)                 1.08           calculate D2E/DX2 analytically  !
 ! A1    A(3,1,6)              116.1914         calculate D2E/DX2 analytically  !
 ! A2    A(7,2,17)             107.0921         calculate D2E/DX2 analytically  !
 ! A3    A(1,3,4)              112.8952         calculate D2E/DX2 analytically  !
 ! A4    A(1,3,5)              108.8238         calculate D2E/DX2 analytically  !
 ! A5    A(1,3,8)              108.516          calculate D2E/DX2 analytically  !
 ! A6    A(4,3,5)              112.113          calculate D2E/DX2 analytically  !
 ! A7    A(4,3,8)              107.6344         calculate D2E/DX2 analytically  !
 ! A8    A(5,3,8)              106.6024         calculate D2E/DX2 analytically  !
 ! A9    A(3,4,9)              110.8926         calculate D2E/DX2 analytically  !
 ! A10   A(3,4,10)             111.3967         calculate D2E/DX2 analytically  !
 ! A11   A(3,4,11)             110.0925         calculate D2E/DX2 analytically  !
 ! A12   A(9,4,10)             108.2917         calculate D2E/DX2 analytically  !
 ! A13   A(9,4,11)             108.2692         calculate D2E/DX2 analytically  !
 ! A14   A(10,4,11)            107.7848         calculate D2E/DX2 analytically  !
 ! A15   A(3,5,12)             111.5286         calculate D2E/DX2 analytically  !
 ! A16   A(3,5,13)             110.8989         calculate D2E/DX2 analytically  !
 ! A17   A(3,5,14)             110.4252         calculate D2E/DX2 analytically  !
 ! A18   A(12,5,13)            107.8009         calculate D2E/DX2 analytically  !
 ! A19   A(12,5,14)            108.0216         calculate D2E/DX2 analytically  !
 ! A20   A(13,5,14)            108.0324         calculate D2E/DX2 analytically  !
 ! A21   A(1,6,7)              129.7893         calculate D2E/DX2 analytically  !
 ! A22   A(1,6,15)             111.3704         calculate D2E/DX2 analytically  !
 ! A23   A(7,6,15)             118.7037         calculate D2E/DX2 analytically  !
 ! A24   A(2,7,6)              128.2707         calculate D2E/DX2 analytically  !
 ! A25   A(2,7,16)             111.3668         calculate D2E/DX2 analytically  !
 ! A26   A(6,7,16)             120.3415         calculate D2E/DX2 analytically  !
 ! D1    D(6,1,3,4)            -42.5537         calculate D2E/DX2 analytically  !
 ! D2    D(6,1,3,5)           -167.7012         calculate D2E/DX2 analytically  !
 ! D3    D(6,1,3,8)             76.6712         calculate D2E/DX2 analytically  !
 ! D4    D(3,1,6,7)            -40.4625         calculate D2E/DX2 analytically  !
 ! D5    D(3,1,6,15)           143.9181         calculate D2E/DX2 analytically  !
 ! D6    D(17,2,7,6)            -7.9075         calculate D2E/DX2 analytically  !
 ! D7    D(17,2,7,16)          173.7761         calculate D2E/DX2 analytically  !
 ! D8    D(1,3,4,9)            -37.1053         calculate D2E/DX2 analytically  !
 ! D9    D(1,3,4,10)            83.5838         calculate D2E/DX2 analytically  !
 ! D10   D(1,3,4,11)          -156.9018         calculate D2E/DX2 analytically  !
 ! D11   D(5,3,4,9)             86.2384         calculate D2E/DX2 analytically  !
 ! D12   D(5,3,4,10)          -153.0725         calculate D2E/DX2 analytically  !
 ! D13   D(5,3,4,11)           -33.5581         calculate D2E/DX2 analytically  !
 ! D14   D(8,3,4,9)           -156.8392         calculate D2E/DX2 analytically  !
 ! D15   D(8,3,4,10)           -36.1501         calculate D2E/DX2 analytically  !
 ! D16   D(8,3,4,11)            83.3644         calculate D2E/DX2 analytically  !
 ! D17   D(1,3,5,12)            63.2147         calculate D2E/DX2 analytically  !
 ! D18   D(1,3,5,13)           -56.945          calculate D2E/DX2 analytically  !
 ! D19   D(1,3,5,14)          -176.6663         calculate D2E/DX2 analytically  !
 ! D20   D(4,3,5,12)           -62.3892         calculate D2E/DX2 analytically  !
 ! D21   D(4,3,5,13)           177.4511         calculate D2E/DX2 analytically  !
 ! D22   D(4,3,5,14)            57.7298         calculate D2E/DX2 analytically  !
 ! D23   D(8,3,5,12)          -179.9292         calculate D2E/DX2 analytically  !
 ! D24   D(8,3,5,13)            59.911          calculate D2E/DX2 analytically  !
 ! D25   D(8,3,5,14)           -59.8103         calculate D2E/DX2 analytically  !
 ! D26   D(1,6,7,2)              2.2859         calculate D2E/DX2 analytically  !
 ! D27   D(1,6,7,16)          -179.5309         calculate D2E/DX2 analytically  !
 ! D28   D(15,6,7,2)           177.6343         calculate D2E/DX2 analytically  !
 ! D29   D(15,6,7,16)           -4.1824         calculate D2E/DX2 analytically  !
 --------------------------------------------------------------------------------
 Trust Radius=3.00D-01 FncErr=1.00D-07 GrdErr=1.00D-06 EigMax=2.50D+02 EigMin=1.00D-04
 Number of steps in this run=    102 maximum allowed number of steps=    102.
 GradGradGradGradGradGradGradGradGradGradGradGradGradGradGradGradGradGrad

 Leave Link  103 at Thu Sep 26 22:27:58 2019, MaxMem=   671088640 cpu:               1.1 elap:               1.1
 (Enter /shared/centos7/gaussian/g16/l202.exe)
                          Input orientation:                          
 ---------------------------------------------------------------------
 Center     Atomic      Atomic             Coordinates (Angstroms)
 Number     Number       Type             X           Y           Z
 ---------------------------------------------------------------------
      1          8           0        3.215096    0.419921   -0.831405
      2          8           0        0.254765    0.864187   -0.291547
      3          6           0        2.614167    0.463807   -2.108447
      4          6           0        1.804496   -0.792844   -2.428253
      5          6           0        3.671551    0.726300   -3.129772
      6          6           0        2.434235   -0.069091    0.190857
      7          6           0        1.172619    0.128104    0.442832
      8          1           0        1.909885    1.340849   -2.142045
      9          1           0        2.301235   -1.698131   -2.020924
     10          1           0        0.785893   -0.735207   -2.003270
     11          1           0        1.705759   -0.915688   -3.540813
     12          1           0        4.428961   -0.111327   -3.167168
     13          1           0        4.216290    1.666491   -2.903111
     14          1           0        3.212650    0.827291   -4.153867
     15          1           0        3.031944   -0.653947    0.908091
     16          1           0        0.709781   -0.331801    1.303466
     17          1           0        0.765963    1.341726   -1.007380
 ---------------------------------------------------------------------
                    Distance matrix (angstroms):
                    1          2          3          4          5
     1  O    0.000000
     2  O    3.041772   0.000000
     3  C    1.412047   3.004697   0.000000
     4  C    2.451635   3.116557   1.528729   0.000000
     5  C    2.363199   4.443980   1.493342   2.507154   0.000000
     6  C    1.376189   2.419465   2.367098   2.789288   3.631828
     7  C    2.424984   1.386935   2.949539   3.080672   4.400682
     8  H    2.066268   2.528037   1.125320   2.155381   2.111100
     9  H    2.595427   3.707325   2.186221   1.110050   2.997529
    10  H    2.934044   2.402114   2.188900   1.105209   3.425206
    11  H    3.376810   3.978828   2.186295   1.123668   2.594113
    12  H    2.685420   5.161853   2.178335   2.810387   1.129905
    13  H    2.616924   4.812238   2.155165   3.477149   1.109989
    14  H    3.347344   4.864973   2.161955   2.754174   1.126748
    15  H    2.052457   3.384758   3.243980   3.557683   4.314918
    16  H    3.376294   2.044870   3.987584   3.916208   5.435555
    17  H    2.622774   1.000891   2.323564   2.766553   3.650444
                    6          7          8          9         10
     6  C    0.000000
     7  C    1.301558   0.000000
     8  H    2.775843   2.948881   0.000000
     9  H    2.750170   3.267874   3.066468   0.000000
    10  H    2.823993   2.622647   2.364873   1.795494   0.000000
    11  H    3.895224   4.152489   2.662740   1.810213   1.800769
    12  H    3.906026   4.867564   3.083088   2.891200   3.875026
    13  H    3.969962   4.777646   2.450462   3.970689   4.283163
    14  H    4.504005   5.077423   2.451197   3.428976   3.599391
    15  H    1.101697   2.070062   3.813339   3.194274   3.677957
    16  H    2.068975   1.080011   4.013671   3.930795   3.332121
    17  H    2.491849   1.934260   1.611218   3.553176   2.303441
                   11         12         13         14         15
    11  H    0.000000
    12  H    2.863990   0.000000
    13  H    3.657469   1.809860   0.000000
    14  H    2.384225   1.825922   1.809957   0.000000
    15  H    4.649734   4.342099   4.616532   5.277323   0.000000
    16  H    4.979953   5.819576   5.829585   6.114763   2.377508
    17  H    3.520997   4.493729   3.950193   4.018868   3.575809
                   16         17
    16  H    0.000000
    17  H    2.853745   0.000000
 Stoichiometry    C5H10O2
 Framework group  C1[X(C5H10O2)]
 Deg. of freedom    45
 Full point group                 C1      NOp   1
 Largest Abelian subgroup         C1      NOp   1
 Largest concise Abelian subgroup C1      NOp   1
                         Standard orientation:                         
 ---------------------------------------------------------------------
 Center     Atomic      Atomic             Coordinates (Angstroms)
 Number     Number       Type             X           Y           Z
 ---------------------------------------------------------------------
      1          8           0        0.295076    1.104592   -0.092035
      2          8           0       -1.895771   -0.912974   -0.710090
      3          6           0        0.963587   -0.132961   -0.216270
      4          6           0        0.722353   -1.061373    0.974053
      5          6           0        2.416977    0.125066   -0.442433
      6          6           0       -0.997278    1.052340    0.378056
      7          6           0       -1.948453    0.206094    0.107528
      8          1           0        0.582330   -0.654150   -1.137872
      9          1           0        0.679458   -0.486117    1.922448
     10          1           0       -0.224855   -1.620119    0.864121
     11          1           0        1.555672   -1.810909    1.054089
     12          1           0        2.887399    0.649391    0.441011
     13          1           0        2.571244    0.763307   -1.337377
     14          1           0        2.967607   -0.844239   -0.606188
     15          1           0       -1.224908    1.915679    1.023476
     16          1           0       -2.921228    0.314446    0.564025
     17          1           0       -1.010286   -0.895224   -1.176336
 ---------------------------------------------------------------------
 Rotational constants (GHZ):           4.6089895           1.8153386           1.6021376
 Leave Link  202 at Thu Sep 26 22:28:01 2019, MaxMem=   671088640 cpu:               2.5 elap:               2.5
 (Enter /shared/centos7/gaussian/g16/l301.exe)
 Standard basis: CC-pVTZ (5D, 7F)
 Ernie: Thresh=  0.10000D-02 Tol=  0.10000D-05 Strict=F.
 Ernie:  21 primitive shells out of 262 were deleted.
 There are   395 symmetry adapted cartesian basis functions of A   symmetry.
 There are   350 symmetry adapted basis functions of A   symmetry.
   350 basis functions,   534 primitive gaussians,   395 cartesian basis functions
    28 alpha electrons       28 beta electrons
       nuclear repulsion energy       324.7665074114 Hartrees.
 IExCor= 4336 DFT=T Ex+Corr=M062X ExCW=0 ScaHFX=  0.540000
 ScaDFX=  1.000000  1.000000  1.000000  1.000000 ScalE2=  1.000000  1.000000
 IRadAn=      5 IRanWt=     -1 IRanGd=            0 ICorTp=0 IEmpDi=  4
 NAtoms=   17 NActive=   17 NUniq=   17 SFac= 1.00D+00 NAtFMM=   60 NAOKFM=F Big=F
 Integral buffers will be    131072 words long.
 Raffenetti 2 integral format.
 Two-electron integral symmetry is turned on.
 Leave Link  301 at Thu Sep 26 22:28:03 2019, MaxMem=   671088640 cpu:               2.4 elap:               1.8
 (Enter /shared/centos7/gaussian/g16/l302.exe)
 NPDir=0 NMtPBC=     1 NCelOv=     1 NCel=       1 NClECP=     1 NCelD=      1
         NCelK=      1 NCelE2=     1 NClLst=     1 CellRange=     0.0.
 One-electron integrals computed using PRISM.
 One-electron integral symmetry used in STVInt
 NBasis=   350 RedAO= T EigKep=  2.86D-04  NBF=   350
 NBsUse=   350 1.00D-06 EigRej= -1.00D+00 NBFU=   350
 Precomputing XC quadrature grid using
 IXCGrd= 4 IRadAn=           5 IRanWt=          -1 IRanGd=           0 AccXCQ= 0.00D+00.
 Generated NRdTot=       0 NPtTot=           0 NUsed=           0 NTot=          32
 NSgBfM=   395   395   395   395   395 MxSgAt=    17 MxSgA2=    17.
 Leave Link  302 at Thu Sep 26 22:29:37 2019, MaxMem=   671088640 cpu:             188.0 elap:              94.6
 (Enter /shared/centos7/gaussian/g16/l303.exe)
 DipDrv:  MaxL=1.
 Leave Link  303 at Thu Sep 26 22:29:45 2019, MaxMem=   671088640 cpu:               9.6 elap:               7.3
 (Enter /shared/centos7/gaussian/g16/l401.exe)
 ExpMin= 1.03D-01 ExpMax= 1.53D+04 ExpMxC= 5.22D+02 IAcc=3 IRadAn=         5 AccDes= 0.00D+00
 Harris functional with IExCor= 1009 and IRadAn=       5 diagonalized for initial guess.
 HarFok:  IExCor= 1009 AccDes= 0.00D+00 IRadAn=         5 IDoV= 1 UseB2=F ITyADJ=14
 ICtDFT=  3500011 ScaDFX=  1.000000  1.000000  1.000000  1.000000
 FoFCou: FMM=F IPFlag=           0 FMFlag=      100000 FMFlg1=           0
         NFxFlg=           0 DoJE=T BraDBF=F KetDBF=T FulRan=T
         wScrn=  0.000000 ICntrl=       500 IOpCl=  0 I1Cent=   200000004 NGrid=           0
         NMat0=    1 NMatS0=      1 NMatT0=    0 NMatD0=    1 NMtDS0=    0 NMtDT0=    0
 Petite list used in FoFCou.
 Harris En= -346.804226212995    
 JPrj=0 DoOrth=F DoCkMO=F.
 Leave Link  401 at Thu Sep 26 22:30:31 2019, MaxMem=   671088640 cpu:              91.9 elap:              46.3
 (Enter /shared/centos7/gaussian/g16/l502.exe)
 Integral symmetry usage will be decided dynamically.
 Closed shell SCF:
 Using DIIS extrapolation, IDIIS=  1040.
 NGot=   671088640 LenX=   670765141 LenY=   670608675
 Requested convergence on RMS density matrix=1.00D-08 within 900 cycles.
 Requested convergence on MAX density matrix=1.00D-06.
 Requested convergence on             energy=1.00D-06.
 No special actions if energy rises.
 Fock matrices will be formed incrementally for  20 cycles.
 Integral accuracy reduced to 1.0D-05 until final iterations.

 Cycle   1  Pass 0  IDiag  1:
 FoFJK:  IHMeth= 1 ICntrl=       0 DoSepK=F KAlg= 0 I1Cent=           0 FoldK=F
 IRaf= 970000000 NMat=       1 IRICut=       1 DoRegI=T DoRafI=F ISym2E= 0 IDoP0=0 IntGTp=1.
 FoFCou: FMM=F IPFlag=           0 FMFlag=      100000 FMFlg1=           0
         NFxFlg=           0 DoJE=F BraDBF=F KetDBF=F FulRan=T
         wScrn=  0.000000 ICntrl=         0 IOpCl=  0 I1Cent=           0 NGrid=           0
         NMat0=    1 NMatS0=      1 NMatT0=    0 NMatD0=    1 NMtDS0=    0 NMtDT0=    0
 Symmetry not used in FoFCou.
 E= -346.708837536365    
 DIIS: error= 2.07D-02 at cycle   1 NSaved=   1.
 NSaved= 1 IEnMin= 1 EnMin= -346.708837536365     IErMin= 1 ErrMin= 2.07D-02
 ErrMax= 2.07D-02  0.00D+00 EMaxC= 1.00D-01 BMatC= 2.78D-01 BMatP= 2.78D-01
 IDIUse=3 WtCom= 7.93D-01 WtEn= 2.07D-01
 Coeff-Com:  0.100D+01
 Coeff-En:   0.100D+01
 Coeff:      0.100D+01
 Gap=     0.362 Goal=   None    Shift=    0.000
 GapD=    0.362 DampG=1.000 DampE=0.500 DampFc=0.5000 IDamp=-1.
 Damping current iteration by 5.00D-01
 RMSDP=1.85D-03 MaxDP=8.62D-02              OVMax= 1.40D-01

 Cycle   2  Pass 0  IDiag  1:
 RMSU=  9.27D-04    CP:  1.00D+00
 E= -346.824732742179     Delta-E=       -0.115895205814 Rises=F Damp=T
 DIIS: error= 3.64D-03 at cycle   2 NSaved=   2.
 NSaved= 2 IEnMin= 2 EnMin= -346.824732742179     IErMin= 2 ErrMin= 3.64D-03
 ErrMax= 3.64D-03  0.00D+00 EMaxC= 1.00D-01 BMatC= 2.11D-02 BMatP= 2.78D-01
 IDIUse=3 WtCom= 9.64D-01 WtEn= 3.64D-02
 Coeff-Com: -0.148D+00 0.115D+01
 Coeff-En:   0.000D+00 0.100D+01
 Coeff:     -0.143D+00 0.114D+01
 Gap=     0.334 Goal=   None    Shift=    0.000
 RMSDP=4.16D-04 MaxDP=1.45D-02 DE=-1.16D-01 OVMax= 6.74D-02

 Cycle   3  Pass 0  IDiag  1:
 RMSU=  4.15D-04    CP:  1.00D+00  1.01D+00
 E= -346.927562501302     Delta-E=       -0.102829759122 Rises=F Damp=F
 DIIS: error= 1.95D-03 at cycle   3 NSaved=   3.
 NSaved= 3 IEnMin= 3 EnMin= -346.927562501302     IErMin= 3 ErrMin= 1.95D-03
 ErrMax= 1.95D-03  0.00D+00 EMaxC= 1.00D-01 BMatC= 2.96D-03 BMatP= 2.11D-02
 IDIUse=3 WtCom= 9.81D-01 WtEn= 1.95D-02
 Coeff-Com: -0.824D-01 0.293D+00 0.789D+00
 Coeff-En:   0.000D+00 0.000D+00 0.100D+01
 Coeff:     -0.808D-01 0.288D+00 0.793D+00
 Gap=     0.336 Goal=   None    Shift=    0.000
 RMSDP=1.32D-04 MaxDP=4.62D-03 DE=-1.03D-01 OVMax= 1.11D-02

 Cycle   4  Pass 0  IDiag  1:
 RMSU=  1.01D-04    CP:  1.00D+00  1.09D+00  8.91D-01
 E= -346.929233703357     Delta-E=       -0.001671202056 Rises=F Damp=F
 DIIS: error= 9.94D-04 at cycle   4 NSaved=   4.
 NSaved= 4 IEnMin= 4 EnMin= -346.929233703357     IErMin= 4 ErrMin= 9.94D-04
 ErrMax= 9.94D-04  0.00D+00 EMaxC= 1.00D-01 BMatC= 8.05D-04 BMatP= 2.96D-03
 IDIUse=3 WtCom= 9.90D-01 WtEn= 9.94D-03
 Coeff-Com: -0.274D-01 0.720D-01 0.390D+00 0.566D+00
 Coeff-En:   0.000D+00 0.000D+00 0.149D+00 0.851D+00
 Coeff:     -0.272D-01 0.713D-01 0.387D+00 0.568D+00
 Gap=     0.332 Goal=   None    Shift=    0.000
 RMSDP=5.05D-05 MaxDP=2.08D-03 DE=-1.67D-03 OVMax= 5.49D-03

 Cycle   5  Pass 0  IDiag  1:
 RMSU=  2.98D-05    CP:  1.00D+00  1.08D+00  9.31D-01  6.40D-01
 E= -346.929812396170     Delta-E=       -0.000578692813 Rises=F Damp=F
 DIIS: error= 2.11D-04 at cycle   5 NSaved=   5.
 NSaved= 5 IEnMin= 5 EnMin= -346.929812396170     IErMin= 5 ErrMin= 2.11D-04
 ErrMax= 2.11D-04  0.00D+00 EMaxC= 1.00D-01 BMatC= 3.37D-05 BMatP= 8.05D-04
 IDIUse=3 WtCom= 9.98D-01 WtEn= 2.11D-03
 Coeff-Com: -0.547D-02 0.105D-01 0.109D+00 0.240D+00 0.646D+00
 Coeff-En:   0.000D+00 0.000D+00 0.000D+00 0.000D+00 0.100D+01
 Coeff:     -0.546D-02 0.105D-01 0.108D+00 0.240D+00 0.647D+00
 Gap=     0.332 Goal=   None    Shift=    0.000
 RMSDP=1.24D-05 MaxDP=3.43D-04 DE=-5.79D-04 OVMax= 1.42D-03

 Cycle   6  Pass 0  IDiag  1:
 RMSU=  8.45D-06    CP:  1.00D+00  1.08D+00  9.37D-01  6.82D-01  7.51D-01
 E= -346.929836519397     Delta-E=       -0.000024123227 Rises=F Damp=F
 DIIS: error= 5.16D-05 at cycle   6 NSaved=   6.
 NSaved= 6 IEnMin= 6 EnMin= -346.929836519397     IErMin= 6 ErrMin= 5.16D-05
 ErrMax= 5.16D-05  0.00D+00 EMaxC= 1.00D-01 BMatC= 1.71D-06 BMatP= 3.37D-05
 IDIUse=1 WtCom= 1.00D+00 WtEn= 0.00D+00
 Coeff-Com: -0.169D-03-0.787D-03 0.167D-01 0.597D-01 0.230D+00 0.694D+00
 Coeff:     -0.169D-03-0.787D-03 0.167D-01 0.597D-01 0.230D+00 0.694D+00
 Gap=     0.332 Goal=   None    Shift=    0.000
 RMSDP=3.78D-06 MaxDP=1.26D-04 DE=-2.41D-05 OVMax= 5.32D-04

 Initial convergence to 1.0D-05 achieved.  Increase integral accuracy.
 Cycle   7  Pass 1  IDiag  1:
 E= -346.929831576988     Delta-E=        0.000004942409 Rises=F Damp=F
 DIIS: error= 3.35D-05 at cycle   1 NSaved=   1.
 NSaved= 1 IEnMin= 1 EnMin= -346.929831576988     IErMin= 1 ErrMin= 3.35D-05
 ErrMax= 3.35D-05  0.00D+00 EMaxC= 1.00D-01 BMatC= 8.04D-07 BMatP= 8.04D-07
 IDIUse=1 WtCom= 1.00D+00 WtEn= 0.00D+00
 Coeff-Com:  0.100D+01
 Coeff:      0.100D+01
 Gap=     0.332 Goal=   None    Shift=    0.000
 RMSDP=3.78D-06 MaxDP=1.26D-04 DE= 4.94D-06 OVMax= 3.97D-04

 Cycle   8  Pass 1  IDiag  1:
 RMSU=  7.94D-06    CP:  1.00D+00
 E= -346.929831706294     Delta-E=       -0.000000129306 Rises=F Damp=F
 DIIS: error= 2.43D-05 at cycle   2 NSaved=   2.
 NSaved= 2 IEnMin= 2 EnMin= -346.929831706294     IErMin= 2 ErrMin= 2.43D-05
 ErrMax= 2.43D-05  0.00D+00 EMaxC= 1.00D-01 BMatC= 4.32D-07 BMatP= 8.04D-07
 IDIUse=1 WtCom= 1.00D+00 WtEn= 0.00D+00
 Coeff-Com:  0.399D+00 0.601D+00
 Coeff:      0.399D+00 0.601D+00
 Gap=     0.332 Goal=   None    Shift=    0.000
 RMSDP=1.96D-06 MaxDP=5.55D-05 DE=-1.29D-07 OVMax= 3.56D-04

 Cycle   9  Pass 1  IDiag  1:
 RMSU=  1.95D-06    CP:  1.00D+00  9.76D-01
 E= -346.929832015629     Delta-E=       -0.000000309335 Rises=F Damp=F
 DIIS: error= 1.17D-05 at cycle   3 NSaved=   3.
 NSaved= 3 IEnMin= 3 EnMin= -346.929832015629     IErMin= 3 ErrMin= 1.17D-05
 ErrMax= 1.17D-05  0.00D+00 EMaxC= 1.00D-01 BMatC= 8.95D-08 BMatP= 4.32D-07
 IDIUse=1 WtCom= 1.00D+00 WtEn= 0.00D+00
 Coeff-Com: -0.473D-02 0.308D+00 0.697D+00
 Coeff:     -0.473D-02 0.308D+00 0.697D+00
 Gap=     0.332 Goal=   None    Shift=    0.000
 RMSDP=6.65D-07 MaxDP=1.81D-05 DE=-3.09D-07 OVMax= 1.07D-04

 Cycle  10  Pass 1  IDiag  1:
 RMSU=  2.94D-07    CP:  1.00D+00  1.01D+00  7.28D-01
 E= -346.929832088215     Delta-E=       -0.000000072586 Rises=F Damp=F
 DIIS: error= 2.54D-06 at cycle   4 NSaved=   4.
 NSaved= 4 IEnMin= 4 EnMin= -346.929832088215     IErMin= 4 ErrMin= 2.54D-06
 ErrMax= 2.54D-06  0.00D+00 EMaxC= 1.00D-01 BMatC= 3.20D-09 BMatP= 8.95D-08
 IDIUse=1 WtCom= 1.00D+00 WtEn= 0.00D+00
 Coeff-Com: -0.139D-01 0.129D+00 0.325D+00 0.560D+00
 Coeff:     -0.139D-01 0.129D+00 0.325D+00 0.560D+00
 Gap=     0.332 Goal=   None    Shift=    0.000
 RMSDP=1.03D-07 MaxDP=5.51D-06 DE=-7.26D-08 OVMax= 1.00D-05

 Cycle  11  Pass 1  IDiag  1:
 RMSU=  9.52D-08    CP:  1.00D+00  1.01D+00  7.41D-01  9.20D-01
 E= -346.929832090837     Delta-E=       -0.000000002622 Rises=F Damp=F
 DIIS: error= 3.32D-07 at cycle   5 NSaved=   5.
 NSaved= 5 IEnMin= 5 EnMin= -346.929832090837     IErMin= 5 ErrMin= 3.32D-07
 ErrMax= 3.32D-07  0.00D+00 EMaxC= 1.00D-01 BMatC= 8.71D-11 BMatP= 3.20D-09
 IDIUse=1 WtCom= 1.00D+00 WtEn= 0.00D+00
 Coeff-Com: -0.137D-02-0.124D-01-0.280D-01 0.796D-01 0.962D+00
 Coeff:     -0.137D-02-0.124D-01-0.280D-01 0.796D-01 0.962D+00
 Gap=     0.332 Goal=   None    Shift=    0.000
 RMSDP=4.19D-08 MaxDP=1.33D-06 DE=-2.62D-09 OVMax= 4.32D-06

 Cycle  12  Pass 1  IDiag  1:
 RMSU=  2.27D-08    CP:  1.00D+00  1.01D+00  7.46D-01  1.02D+00  1.12D+00
 E= -346.929832090963     Delta-E=       -0.000000000126 Rises=F Damp=F
 DIIS: error= 1.68D-07 at cycle   6 NSaved=   6.
 NSaved= 6 IEnMin= 6 EnMin= -346.929832090963     IErMin= 6 ErrMin= 1.68D-07
 ErrMax= 1.68D-07  0.00D+00 EMaxC= 1.00D-01 BMatC= 1.41D-11 BMatP= 8.71D-11
 IDIUse=1 WtCom= 1.00D+00 WtEn= 0.00D+00
 Coeff-Com:  0.859D-03-0.169D-01-0.430D-01-0.253D-01 0.339D+00 0.745D+00
 Coeff:      0.859D-03-0.169D-01-0.430D-01-0.253D-01 0.339D+00 0.745D+00
 Gap=     0.332 Goal=   None    Shift=    0.000
 RMSDP=1.21D-08 MaxDP=4.15D-07 DE=-1.26D-10 OVMax= 1.27D-06

 Cycle  13  Pass 1  IDiag  1:
 RMSU=  8.02D-09    CP:  1.00D+00  1.01D+00  7.46D-01  1.04D+00  1.17D+00
                    CP:  9.71D-01
 E= -346.929832090981     Delta-E=       -0.000000000018 Rises=F Damp=F
 DIIS: error= 3.01D-08 at cycle   7 NSaved=   7.
 NSaved= 7 IEnMin= 7 EnMin= -346.929832090981     IErMin= 7 ErrMin= 3.01D-08
 ErrMax= 3.01D-08  0.00D+00 EMaxC= 1.00D-01 BMatC= 8.53D-13 BMatP= 1.41D-11
 IDIUse=1 WtCom= 1.00D+00 WtEn= 0.00D+00
 Coeff-Com:  0.347D-03-0.415D-02-0.112D-01-0.119D-01 0.472D-01 0.229D+00
 Coeff-Com:  0.751D+00
 Coeff:      0.347D-03-0.415D-02-0.112D-01-0.119D-01 0.472D-01 0.229D+00
 Coeff:      0.751D+00
 Gap=     0.332 Goal=   None    Shift=    0.000
 RMSDP=2.79D-09 MaxDP=9.99D-08 DE=-1.83D-11 OVMax= 4.99D-07

 SCF Done:  E(RM062X) =  -346.929832091     A.U. after   13 cycles
            NFock= 13  Conv=0.28D-08     -V/T= 2.0063
 KE= 3.447596906077D+02 PE=-1.459224983090D+03 EE= 4.427689529801D+02
 Leave Link  502 at Thu Sep 26 22:45:09 2019, MaxMem=   671088640 cpu:            1753.7 elap:             878.3
 (Enter /shared/centos7/gaussian/g16/l801.exe)
 DoSCS=F DFT=T ScalE2(SS,OS)=  1.000000  1.000000
 Range of M.O.s used for correlation:     1   350
 NBasis=   350 NAE=    28 NBE=    28 NFC=     0 NFV=     0
 NROrb=    350 NOA=    28 NOB=    28 NVA=   322 NVB=   322

 **** Warning!!: The largest alpha MO coefficient is  0.11386091D+02

 Leave Link  801 at Thu Sep 26 22:45:11 2019, MaxMem=   671088640 cpu:               1.2 elap:               1.2
 (Enter /shared/centos7/gaussian/g16/l1101.exe)
 Using compressed storage, NAtomX=    17.
 Will process     18 centers per pass.
 Leave Link 1101 at Thu Sep 26 22:45:59 2019, MaxMem=   671088640 cpu:              93.7 elap:              48.0
 (Enter /shared/centos7/gaussian/g16/l1102.exe)
 Symmetrizing basis deriv contribution to polar:
 IMax=3 JMax=2 DiffMx= 0.00D+00
 Leave Link 1102 at Thu Sep 26 22:46:03 2019, MaxMem=   671088640 cpu:               6.0 elap:               4.3
 (Enter /shared/centos7/gaussian/g16/l1110.exe)
 Forming Gx(P) for the SCF density, NAtomX=    17.
 Integral derivatives from FoFJK, PRISM(SPDF).
 Do as many integral derivatives as possible in FoFJK.
 G2DrvN: MDV=     671087280.
 G2DrvN: will do    18 centers at a time, making    1 passes.
 Calling FoFCou, ICntrl=  3107 FMM=F I1Cent=   0 AccDes= 0.00D+00.
 FoFJK:  IHMeth= 1 ICntrl=    3107 DoSepK=F KAlg= 0 I1Cent=           0 FoldK=F
 IRaf=         0 NMat=       1 IRICut=       1 DoRegI=T DoRafI=F ISym2E= 0 IDoP0=0 IntGTp=1.
 FoFCou: FMM=F IPFlag=           0 FMFlag=      100000 FMFlg1=           0
         NFxFlg=           0 DoJE=F BraDBF=F KetDBF=F FulRan=T
         wScrn=  0.000000 ICntrl=      3107 IOpCl=  0 I1Cent=           0 NGrid=           0
         NMat0=    1 NMatS0=      1 NMatT0=    0 NMatD0=    1 NMtDS0=    0 NMtDT0=    0
 Symmetry not used in FoFCou.
 End of G2Drv F.D. properties file   721 does not exist.
 End of G2Drv F.D. properties file   722 does not exist.
 End of G2Drv F.D. properties file   788 does not exist.
 Leave Link 1110 at Thu Sep 26 23:07:57 2019, MaxMem=   671088640 cpu:            2624.7 elap:            1314.1
 (Enter /shared/centos7/gaussian/g16/l1002.exe)
 Minotr:  Closed shell wavefunction.
          IDoAtm=11111111111111111
          Direct CPHF calculation.
          Differentiating once with respect to nuclear coordinates.
          Requested convergence is 1.0D-08 RMS, and 1.0D-07 maximum.
          Secondary convergence is 1.0D-12 RMS, and 1.0D-12 maximum.
          NewPWx=T KeepS1=F KeepF1=F KeepIn=T MapXYZ=F SortEE=F KeepMc=T.
         5088 words used for storage of precomputed grid.
 Two-electron integrals replicated using symmetry.
          MDV=     671088640 using IRadAn=       1.
          Solving linear equations simultaneously, MaxMat=     380.
 FoF2E skips out because all densities are zero.
 CalDSu exits because no D1Ps are significant.
 FoFJK:  IHMeth= 1 ICntrl=       0 DoSepK=F KAlg= 0 I1Cent=           0 FoldK=F
 IRaf= 960000000 NMat=      51 IRICut=     127 DoRegI=T DoRafI=T ISym2E= 2 IDoP0=3 IntGTp=3.
 FoFCou: FMM=F IPFlag=           0 FMFlag=      100000 FMFlg1=           0
         NFxFlg=           0 DoJE=F BraDBF=F KetDBF=F FulRan=T
         wScrn=  0.000000 ICntrl=         0 IOpCl=  0 I1Cent=           0 NGrid=           0
         NMat0=   51 NMatS0=     51 NMatT0=    0 NMatD0=   51 NMtDS0=    0 NMtDT0=    0
 Integrals replicated using symmetry in FoFCou.
 Raff kept on since  93.15% of shell-pairs survive, threshold=   0.20 IRatSp=93.
          There are    54 degrees of freedom in the 1st order CPHF.  IDoFFX=6 NUNeed=     0.
     48 vectors produced by pass  0 Test12= 1.67D-14 1.85D-09 XBig12= 7.05D-02 6.27D-02.
 AX will form    48 AO Fock derivatives at one time.
     48 vectors produced by pass  1 Test12= 1.67D-14 1.85D-09 XBig12= 9.75D-03 2.56D-02.
     48 vectors produced by pass  2 Test12= 1.67D-14 1.85D-09 XBig12= 3.65D-04 2.84D-03.
     48 vectors produced by pass  3 Test12= 1.67D-14 1.85D-09 XBig12= 4.84D-06 2.29D-04.
     48 vectors produced by pass  4 Test12= 1.67D-14 1.85D-09 XBig12= 3.26D-08 1.53D-05.
     48 vectors produced by pass  5 Test12= 1.67D-14 1.85D-09 XBig12= 1.66D-10 1.19D-06.
     26 vectors produced by pass  6 Test12= 1.67D-14 1.85D-09 XBig12= 6.95D-13 9.19D-08.
      6 vectors produced by pass  7 Test12= 1.67D-14 1.85D-09 XBig12= 2.63D-15 5.98D-09.
 InvSVY:  IOpt=1 It=  1 EMax= 2.78D-16
 Solved reduced A of dimension   320 with    54 vectors.
 End of Minotr F.D. properties file   721 does not exist.
 End of Minotr F.D. properties file   722 does not exist.
 End of Minotr F.D. properties file   788 does not exist.
 Leave Link 1002 at Thu Sep 26 23:50:04 2019, MaxMem=   671088640 cpu:            5050.7 elap:            2526.8
 (Enter /shared/centos7/gaussian/g16/l601.exe)
 Copying SCF densities to generalized density rwf, IOpCl= 0 IROHF=0.

 **********************************************************************

            Population analysis using the SCF density.

 **********************************************************************

 Orbital symmetries:
       Occupied  (A) (A) (A) (A) (A) (A) (A) (A) (A) (A) (A) (A)
                 (A) (A) (A) (A) (A) (A) (A) (A) (A) (A) (A) (A)
                 (A) (A) (A) (A)
       Virtual   (A) (A) (A) (A) (A) (A) (A) (A) (A) (A) (A) (A)
                 (A) (A) (A) (A) (A) (A) (A) (A) (A) (A) (A) (A)
                 (A) (A) (A) (A) (A) (A) (A) (A) (A) (A) (A) (A)
                 (A) (A) (A) (A) (A) (A) (A) (A) (A) (A) (A) (A)
                 (A) (A) (A) (A) (A) (A) (A) (A) (A) (A) (A) (A)
                 (A) (A) (A) (A) (A) (A) (A) (A) (A) (A) (A) (A)
                 (A) (A) (A) (A) (A) (A) (A) (A) (A) (A) (A) (A)
                 (A) (A) (A) (A) (A) (A) (A) (A) (A) (A) (A) (A)
                 (A) (A) (A) (A) (A) (A) (A) (A) (A) (A) (A) (A)
                 (A) (A) (A) (A) (A) (A) (A) (A) (A) (A) (A) (A)
                 (A) (A) (A) (A) (A) (A) (A) (A) (A) (A) (A) (A)
                 (A) (A) (A) (A) (A) (A) (A) (A) (A) (A) (A) (A)
                 (A) (A) (A) (A) (A) (A) (A) (A) (A) (A) (A) (A)
                 (A) (A) (A) (A) (A) (A) (A) (A) (A) (A) (A) (A)
                 (A) (A) (A) (A) (A) (A) (A) (A) (A) (A) (A) (A)
                 (A) (A) (A) (A) (A) (A) (A) (A) (A) (A) (A) (A)
                 (A) (A) (A) (A) (A) (A) (A) (A) (A) (A) (A) (A)
                 (A) (A) (A) (A) (A) (A) (A) (A) (A) (A) (A) (A)
                 (A) (A) (A) (A) (A) (A) (A) (A) (A) (A) (A) (A)
                 (A) (A) (A) (A) (A) (A) (A) (A) (A) (A) (A) (A)
                 (A) (A) (A) (A) (A) (A) (A) (A) (A) (A) (A) (A)
                 (A) (A) (A) (A) (A) (A) (A) (A) (A) (A) (A) (A)
                 (A) (A) (A) (A) (A) (A) (A) (A) (A) (A) (A) (A)
                 (A) (A) (A) (A) (A) (A) (A) (A) (A) (A) (A) (A)
                 (A) (A) (A) (A) (A) (A) (A) (A) (A) (A) (A) (A)
                 (A) (A) (A) (A) (A) (A) (A) (A) (A) (A) (A) (A)
                 (A) (A) (A) (A) (A) (A) (A) (A) (A) (A)
 The electronic state is 1-A.
 Alpha  occ. eigenvalues --  -19.65097 -19.65045 -10.61077 -10.58478 -10.57993
 Alpha  occ. eigenvalues --  -10.54271 -10.53722  -1.19255  -1.16101  -0.90280
 Alpha  occ. eigenvalues --   -0.84367  -0.78656  -0.71154  -0.67377  -0.59409
 Alpha  occ. eigenvalues --   -0.58512  -0.55439  -0.52156  -0.49806  -0.47615
 Alpha  occ. eigenvalues --   -0.46760  -0.45600  -0.44661  -0.43389  -0.42668
 Alpha  occ. eigenvalues --   -0.39858  -0.36850  -0.28006
 Alpha virt. eigenvalues --    0.05190   0.07432   0.08799   0.09221   0.11168
 Alpha virt. eigenvalues --    0.11477   0.13625   0.14393   0.14654   0.16600
 Alpha virt. eigenvalues --    0.16975   0.19962   0.22200   0.22344   0.23725
 Alpha virt. eigenvalues --    0.27205   0.28663   0.31047   0.31879   0.32516
 Alpha virt. eigenvalues --    0.33244   0.34976   0.36742   0.38402   0.38907
 Alpha virt. eigenvalues --    0.39465   0.42176   0.43684   0.44828   0.45787
 Alpha virt. eigenvalues --    0.46844   0.47988   0.48726   0.49473   0.49932
 Alpha virt. eigenvalues --    0.50788   0.51503   0.52496   0.53430   0.54151
 Alpha virt. eigenvalues --    0.55499   0.57946   0.60752   0.61333   0.63695
 Alpha virt. eigenvalues --    0.66419   0.67103   0.70617   0.72416   0.73763
 Alpha virt. eigenvalues --    0.74976   0.76413   0.78128   0.80118   0.83473
 Alpha virt. eigenvalues --    0.84381   0.85421   0.86691   0.89108   0.90945
 Alpha virt. eigenvalues --    0.93246   0.94616   0.96200   0.97635   0.99242
 Alpha virt. eigenvalues --    1.02297   1.02645   1.05161   1.06113   1.07007
 Alpha virt. eigenvalues --    1.08795   1.10167   1.12186   1.15015   1.15691
 Alpha virt. eigenvalues --    1.16035   1.16883   1.18014   1.18748   1.19418
 Alpha virt. eigenvalues --    1.23154   1.24007   1.25595   1.26522   1.27616
 Alpha virt. eigenvalues --    1.29147   1.29857   1.32183   1.32614   1.33742
 Alpha virt. eigenvalues --    1.34640   1.37381   1.38899   1.40696   1.41121
 Alpha virt. eigenvalues --    1.44133   1.47727   1.49136   1.50412   1.52495
 Alpha virt. eigenvalues --    1.53647   1.55066   1.57204   1.60606   1.61947
 Alpha virt. eigenvalues --    1.63583   1.64721   1.73984   1.77662   1.86400
 Alpha virt. eigenvalues --    1.95197   1.98797   2.01449   2.02896   2.06108
 Alpha virt. eigenvalues --    2.09314   2.11045   2.13502   2.18997   2.21790
 Alpha virt. eigenvalues --    2.29530   2.30273   2.31864   2.32378   2.34627
 Alpha virt. eigenvalues --    2.35089   2.37045   2.41577   2.44035   2.45704
 Alpha virt. eigenvalues --    2.50154   2.51123   2.54486   2.54857   2.58824
 Alpha virt. eigenvalues --    2.60657   2.63309   2.64431   2.65591   2.67310
 Alpha virt. eigenvalues --    2.68560   2.72334   2.75365   2.78049   2.78749
 Alpha virt. eigenvalues --    2.80123   2.81623   2.82115   2.85439   2.86844
 Alpha virt. eigenvalues --    2.88714   2.90360   2.91676   2.92217   2.94459
 Alpha virt. eigenvalues --    2.97022   2.97965   2.98482   3.00113   3.01524
 Alpha virt. eigenvalues --    3.03434   3.04388   3.05119   3.06929   3.07781
 Alpha virt. eigenvalues --    3.09115   3.09652   3.11809   3.12826   3.14855
 Alpha virt. eigenvalues --    3.16007   3.17618   3.20867   3.21136   3.22856
 Alpha virt. eigenvalues --    3.24503   3.25169   3.26124   3.27483   3.29252
 Alpha virt. eigenvalues --    3.31249   3.31563   3.32210   3.34562   3.37087
 Alpha virt. eigenvalues --    3.38885   3.39857   3.41273   3.42428   3.44067
 Alpha virt. eigenvalues --    3.46360   3.47127   3.48278   3.48756   3.51799
 Alpha virt. eigenvalues --    3.53734   3.55657   3.56458   3.59215   3.62126
 Alpha virt. eigenvalues --    3.64502   3.67839   3.69199   3.70745   3.71339
 Alpha virt. eigenvalues --    3.72271   3.74321   3.75914   3.77789   3.79046
 Alpha virt. eigenvalues --    3.80969   3.83924   3.85680   3.86191   3.87759
 Alpha virt. eigenvalues --    3.88447   3.89653   3.91476   3.92341   3.92830
 Alpha virt. eigenvalues --    3.94037   3.96935   3.97727   4.01335   4.02763
 Alpha virt. eigenvalues --    4.03572   4.04746   4.06750   4.07726   4.09132
 Alpha virt. eigenvalues --    4.11112   4.13201   4.14104   4.15263   4.18109
 Alpha virt. eigenvalues --    4.19787   4.21599   4.25062   4.27401   4.28913
 Alpha virt. eigenvalues --    4.29655   4.33156   4.36205   4.40740   4.42897
 Alpha virt. eigenvalues --    4.44927   4.50350   4.51424   4.51782   4.56068
 Alpha virt. eigenvalues --    4.59135   4.64927   4.65264   4.70761   4.71092
 Alpha virt. eigenvalues --    4.72371   4.72899   4.75769   4.78032   4.79432
 Alpha virt. eigenvalues --    4.81742   4.83557   4.90468   4.92398   4.93591
 Alpha virt. eigenvalues --    4.97039   4.98066   5.00099   5.01152   5.05139
 Alpha virt. eigenvalues --    5.06380   5.07551   5.10395   5.12276   5.17093
 Alpha virt. eigenvalues --    5.19322   5.21319   5.23364   5.26721   5.28931
 Alpha virt. eigenvalues --    5.31097   5.34168   5.36072   5.42317   5.45479
 Alpha virt. eigenvalues --    5.50546   5.53217   5.59010   5.64315   5.72172
 Alpha virt. eigenvalues --    5.75329   5.77140   5.79039   5.79871   5.85012
 Alpha virt. eigenvalues --    5.88844   6.05401   6.14289   6.22046   6.37857
 Alpha virt. eigenvalues --    6.39336   6.40961   6.60992   6.66237   6.70351
 Alpha virt. eigenvalues --    6.75159   6.79616   6.81721   6.86891   6.98451
 Alpha virt. eigenvalues --    7.04121   7.15966   7.27516   7.37780   7.39271
 Alpha virt. eigenvalues --   10.04622  11.08612  11.76828  12.18038  13.21090
 Alpha virt. eigenvalues --   13.31742  14.23677
          Condensed to atoms (all electrons):
               1          2          3          4          5          6
     1  O    7.830262   0.002207   0.312775  -0.069241  -0.041296   0.357871
     2  O    0.002207   7.802559   0.010389  -0.023083   0.000941  -0.071317
     3  C    0.312775   0.010389   4.945650   0.310209   0.303709  -0.080350
     4  C   -0.069241  -0.023083   0.310209   5.135386  -0.052746   0.019994
     5  C   -0.041296   0.000941   0.303709  -0.052746   4.976561  -0.001108
     6  C    0.357871  -0.071317  -0.080350   0.019994  -0.001108   5.028716
     7  C   -0.072596   0.319874  -0.011289   0.005864   0.000970   0.494883
     8  H   -0.048902  -0.010043   0.377685  -0.091138  -0.037286  -0.014313
     9  H    0.001230   0.000087  -0.035328   0.382052  -0.003180  -0.001248
    10  H    0.006000   0.023759  -0.020630   0.374931   0.008044  -0.026469
    11  H    0.003409  -0.000030  -0.031227   0.397809  -0.010322   0.001884
    12  H    0.002571  -0.000043  -0.041706  -0.008184   0.401206  -0.000307
    13  H    0.001537   0.000029  -0.031262   0.010276   0.397086   0.000247
    14  H    0.003843   0.000010  -0.045060  -0.007745   0.401990  -0.000177
    15  H   -0.043089   0.004317   0.005994   0.003311  -0.000465   0.417945
    16  H    0.003900  -0.036593  -0.000230   0.000621   0.000064  -0.063262
    17  H    0.003109   0.334999   0.006631   0.000024   0.000705  -0.010368
               7          8          9         10         11         12
     1  O   -0.072596  -0.048902   0.001230   0.006000   0.003409   0.002571
     2  O    0.319874  -0.010043   0.000087   0.023759  -0.000030  -0.000043
     3  C   -0.011289   0.377685  -0.035328  -0.020630  -0.031227  -0.041706
     4  C    0.005864  -0.091138   0.382052   0.374931   0.397809  -0.008184
     5  C    0.000970  -0.037286  -0.003180   0.008044  -0.010322   0.401206
     6  C    0.494883  -0.014313  -0.001248  -0.026469   0.001884  -0.000307
     7  C    5.012563   0.015324  -0.000169  -0.010885   0.000113   0.000222
     8  H    0.015324   0.725900   0.009347  -0.005280   0.002015   0.010717
     9  H   -0.000169   0.009347   0.557686  -0.025637  -0.026574   0.002435
    10  H   -0.010885  -0.005280  -0.025637   0.555017  -0.027811   0.000139
    11  H    0.000113   0.002015  -0.026574  -0.027811   0.572258   0.000026
    12  H    0.000222   0.010717   0.002435   0.000139   0.000026   0.570009
    13  H   -0.000145  -0.012874  -0.000528  -0.000607   0.000321  -0.029133
    14  H    0.000011  -0.001215   0.000919   0.000206  -0.000869  -0.030567
    15  H   -0.078892  -0.001578  -0.001196  -0.000836   0.000015  -0.000244
    16  H    0.405604  -0.000547  -0.000210   0.000579  -0.000013  -0.000007
    17  H   -0.038716   0.003691   0.000039  -0.005749   0.000147  -0.000094
              13         14         15         16         17
     1  O    0.001537   0.003843  -0.043089   0.003900   0.003109
     2  O    0.000029   0.000010   0.004317  -0.036593   0.334999
     3  C   -0.031262  -0.045060   0.005994  -0.000230   0.006631
     4  C    0.010276  -0.007745   0.003311   0.000621   0.000024
     5  C    0.397086   0.401990  -0.000465   0.000064   0.000705
     6  C    0.000247  -0.000177   0.417945  -0.063262  -0.010368
     7  C   -0.000145   0.000011  -0.078892   0.405604  -0.038716
     8  H   -0.012874  -0.001215  -0.001578  -0.000547   0.003691
     9  H   -0.000528   0.000919  -0.001196  -0.000210   0.000039
    10  H   -0.000607   0.000206  -0.000836   0.000579  -0.005749
    11  H    0.000321  -0.000869   0.000015  -0.000013   0.000147
    12  H   -0.029133  -0.030567  -0.000244  -0.000007  -0.000094
    13  H    0.567257  -0.029669   0.000099  -0.000000   0.000183
    14  H   -0.029669   0.602571   0.000017  -0.000005  -0.000117
    15  H    0.000099   0.000017   0.560376  -0.004972  -0.000108
    16  H   -0.000000  -0.000005  -0.004972   0.533103   0.006712
    17  H    0.000183  -0.000117  -0.000108   0.006712   0.426151
 Mulliken charges:
               1
     1  O   -0.253587
     2  O   -0.358063
     3  C    0.024040
     4  C   -0.388341
     5  C   -0.344872
     6  C   -0.052622
     7  C   -0.042734
     8  H    0.078496
     9  H    0.140276
    10  H    0.155230
    11  H    0.118851
    12  H    0.122960
    13  H    0.127182
    14  H    0.105859
    15  H    0.139307
    16  H    0.155257
    17  H    0.272762
 Sum of Mulliken charges =  -0.00000
 Mulliken charges with hydrogens summed into heavy atoms:
               1
     1  O   -0.253587
     2  O   -0.085301
     3  C    0.102537
     4  C    0.026016
     5  C    0.011129
     6  C    0.086685
     7  C    0.112522
 APT charges:
               1
     1  O   -0.184598
     2  O   -0.233078
     3  C   -0.066821
     4  C   -1.033354
     5  C   -1.302332
     6  C   -0.504619
     7  C   -0.415688
     8  H    0.244290
     9  H    0.322155
    10  H    0.270068
    11  H    0.452175
    12  H    0.396117
    13  H    0.398184
    14  H    0.418310
    15  H    0.478227
    16  H    0.563438
    17  H    0.197526
 Sum of APT charges =  -0.00000
 APT charges with hydrogens summed into heavy atoms:
               1
     1  O   -0.184598
     2  O   -0.035552
     3  C    0.177469
     4  C    0.011043
     5  C   -0.089720
     6  C   -0.026392
     7  C    0.147750
 Electronic spatial extent (au):  <R**2>=            839.2982
 Charge=             -0.0000 electrons
 Dipole moment (field-independent basis, Debye):
    X=              1.2353    Y=             -0.4544    Z=              0.3613  Tot=              1.3649
 Quadrupole moment (field-independent basis, Debye-Ang):
   XX=            -43.9598   YY=            -46.0825   ZZ=            -43.1592
   XY=             -3.7903   XZ=             -2.7633   YZ=              1.6637
 Traceless Quadrupole moment (field-independent basis, Debye-Ang):
   XX=              0.4407   YY=             -1.6820   ZZ=              1.2413
   XY=             -3.7903   XZ=             -2.7633   YZ=              1.6637
 Octapole moment (field-independent basis, Debye-Ang**2):
  XXX=             -3.3442  YYY=              0.6758  ZZZ=             -5.7615  XYY=              0.5161
  XXY=              5.8360  XXZ=              6.4177  XZZ=             -0.3453  YZZ=              0.6921
  YYZ=              1.4461  XYZ=             -0.4993
 Hexadecapole moment (field-independent basis, Debye-Ang**3):
 XXXX=           -697.8511 YYYY=           -242.9460 ZZZZ=           -154.9506 XXXY=             -7.0761
 XXXZ=            -17.1873 YYYX=             -1.2605 YYYZ=              9.1546 ZZZX=              5.1862
 ZZZY=              6.7037 XXYY=           -163.9545 XXZZ=           -148.8778 YYZZ=            -64.1095
 XXYZ=             -0.2323 YYXZ=             -3.7679 ZZXY=              3.3309
 N-N= 3.247665074114D+02 E-N=-1.459224979751D+03  KE= 3.447596906076D+02
  Exact polarizability:   0.000   0.000   0.000   0.000   0.000   0.000
 Approx polarizability:  87.692   6.395  81.214   0.292   6.968  72.392
 No NMR shielding tensors so no spin-rotation constants.
 Leave Link  601 at Thu Sep 26 23:50:47 2019, MaxMem=   671088640 cpu:              86.8 elap:              43.5
 (Enter /shared/centos7/gaussian/g16/l701.exe)
 SCFChk:  SCF convergence  2.79D-09 required  1.00D-08
 ... and contract with generalized density number  0.
 Compute integral second derivatives.
 Entering OneElI...
 Calculate overlap and kinetic energy integrals
    NBasis = 395  MinDer = 2  MaxDer = 2
 Requested accuracy = 0.1000D-12
 PrmmSu-InSpLW:  IPartL=    0 NPrtUS=   20 NPrtUL=    1 DoSpLW=F IThBeg=    0 IThEnd=   19 NThAct=   20.
 PrsmSu:  NPrtUS=  20 ThrOK=T IAlg=1 NPAlg=1 LenDen=           0 ISkipM=0 DoSpLW=F IThBeg=    0 IThEnd=   19.
 Prism:   IPart=     0 DynPar=F LinDyn=F Incr=           4.
 PRISM was handed    33309600 working-precision words and  8478 shell-pairs
 PRISM was handed    33309600 working-precision words and  8478 shell-pairs
 PRISM was handed    33309600 working-precision words and  8478 shell-pairs
 PRISM was handed    33309600 working-precision words and  8478 shell-pairs
 PRISM was handed    33309600 working-precision words and  8478 shell-pairs
 PRISM was handed    33309600 working-precision words and  8478 shell-pairs
 PRISM was handed    33309600 working-precision words and  8478 shell-pairs
 PRISM was handed    33309600 working-precision words and  8478 shell-pairs
 PRISM was handed    33309600 working-precision words and  8478 shell-pairs
 PRISM was handed    33309600 working-precision words and  8478 shell-pairs
 PRISM was handed    33309600 working-precision words and  8478 shell-pairs
 PRISM was handed    33309600 working-precision words and  8478 shell-pairs
 PRISM was handed    33309600 working-precision words and  8478 shell-pairs
 PRISM was handed    33309600 working-precision words and  8478 shell-pairs
 IPart=  5 NShTot=         438 NBatch=          59 AvBLen=         7.4
 PRISM was handed    33309600 working-precision words and  8478 shell-pairs
 IPart=  1 NShTot=         463 NBatch=          78 AvBLen=         5.9
 PRISM was handed    33309600 working-precision words and  8478 shell-pairs
 PRISM was handed    33309600 working-precision words and  8478 shell-pairs
 PRISM was handed    33309600 working-precision words and  8478 shell-pairs
 IPart=  0 NShTot=         470 NBatch=          83 AvBLen=         5.7
 PRISM was handed    33309600 working-precision words and  8478 shell-pairs
 PRISM was handed    33309600 working-precision words and  8478 shell-pairs
 IPart=  4 NShTot=         441 NBatch=          62 AvBLen=         7.1
 IPart= 11 NShTot=         411 NBatch=          44 AvBLen=         9.3
 IPart= 17 NShTot=         406 NBatch=          39 AvBLen=        10.4
 IPart= 12 NShTot=         408 NBatch=          41 AvBLen=        10.0
 IPart= 13 NShTot=         407 NBatch=          40 AvBLen=        10.2
 IPart= 19 NShTot=         400 NBatch=          38 AvBLen=        10.5
 IPart=  6 NShTot=         437 NBatch=          59 AvBLen=         7.4
 IPart=  8 NShTot=         418 NBatch=          48 AvBLen=         8.7
 IPart=  2 NShTot=         457 NBatch=          74 AvBLen=         6.2
 IPart= 14 NShTot=         406 NBatch=          39 AvBLen=        10.4
 IPart=  9 NShTot=         415 NBatch=          47 AvBLen=         8.8
 IPart=  3 NShTot=         449 NBatch=          68 AvBLen=         6.6
 IPart=  7 NShTot=         426 NBatch=          50 AvBLen=         8.5
 IPart= 18 NShTot=         401 NBatch=          38 AvBLen=        10.6
 IPart= 15 NShTot=         406 NBatch=          39 AvBLen=        10.4
 IPart= 10 NShTot=         413 NBatch=          46 AvBLen=         9.0
 IPart= 16 NShTot=         406 NBatch=          39 AvBLen=        10.4
 PrSmSu:  NxtVal=             81.
 Entering OneElI...
 Calculate potential energy integrals
    NBasis = 395  MinDer = 2  MaxDer = 2
 Requested accuracy = 0.1000D-12
 PrmmSu-InSpLW:  IPartL=    0 NPrtUS=   20 NPrtUL=    1 DoSpLW=F IThBeg=    0 IThEnd=   19 NThAct=   20.
 PrsmSu:  NPrtUS=  20 ThrOK=T IAlg=1 NPAlg=1 LenDen=           0 ISkipM=0 DoSpLW=F IThBeg=    0 IThEnd=   19.
 Prism:   IPart=     0 DynPar=F LinDyn=F Incr=          67.
 PRISM was handed    33350354 working-precision words and  7901 shell-pairs
 PRISM was handed    33350354 working-precision words and  7901 shell-pairs
 PRISM was handed    33350354 working-precision words and  7901 shell-pairs
 PRISM was handed    33350354 working-precision words and  7901 shell-pairs
 PRISM was handed    33350354 working-precision words and  7901 shell-pairs
 PRISM was handed    33350354 working-precision words and  7901 shell-pairs
 PRISM was handed    33350354 working-precision words and  7901 shell-pairs
 PRISM was handed    33350354 working-precision words and  7901 shell-pairs
 PRISM was handed    33350354 working-precision words and  7901 shell-pairs
 PRISM was handed    33350354 working-precision words and  7901 shell-pairs
 PRISM was handed    33350354 working-precision words and  7901 shell-pairs
 PRISM was handed    33350354 working-precision words and  7901 shell-pairs
 PRISM was handed    33350354 working-precision words and  7901 shell-pairs
 PRISM was handed    33350354 working-precision words and  7901 shell-pairs
 PRISM was handed    33350354 working-precision words and  7901 shell-pairs
 PRISM was handed    33350354 working-precision words and  7901 shell-pairs
 PRISM was handed    33350354 working-precision words and  7901 shell-pairs
 PRISM was handed    33350354 working-precision words and  7901 shell-pairs
 PRISM was handed    33350354 working-precision words and  7901 shell-pairs
 IPart=  5 NShTot=        6953 NBatch=         409 AvBLen=        17.0
 PRISM was handed    33350354 working-precision words and  7901 shell-pairs
 IPart=  2 NShTot=        7225 NBatch=         425 AvBLen=        17.0
 IPart=  0 NShTot=        7395 NBatch=         435 AvBLen=        17.0
 IPart= 10 NShTot=        6545 NBatch=         385 AvBLen=        17.0
 IPart=  4 NShTot=        7038 NBatch=         414 AvBLen=        17.0
 IPart=  1 NShTot=        7293 NBatch=         429 AvBLen=        17.0
 IPart= 16 NShTot=        6426 NBatch=         378 AvBLen=        17.0
 IPart= 18 NShTot=        6358 NBatch=         374 AvBLen=        17.0
 IPart=  9 NShTot=        6596 NBatch=         388 AvBLen=        17.0
 IPart=  8 NShTot=        6647 NBatch=         391 AvBLen=        17.0
 IPart= 11 NShTot=        6528 NBatch=         384 AvBLen=        17.0
 IPart= 17 NShTot=        6409 NBatch=         377 AvBLen=        17.0
 IPart=  7 NShTot=        6698 NBatch=         394 AvBLen=        17.0
 IPart= 19 NShTot=        6307 NBatch=         371 AvBLen=        17.0
 IPart= 12 NShTot=        6494 NBatch=         382 AvBLen=        17.0
 IPart=  6 NShTot=        6885 NBatch=         405 AvBLen=        17.0
 IPart= 15 NShTot=        6443 NBatch=         379 AvBLen=        17.0
 IPart= 14 NShTot=        6460 NBatch=         380 AvBLen=        17.0
 IPart=  3 NShTot=        7123 NBatch=         419 AvBLen=        17.0
 IPart= 13 NShTot=        6494 NBatch=         382 AvBLen=        17.0
 PrSmSu:  NxtVal=           1341.
 Polarizability after L701:
                1             2             3 
      1  0.000000D+00
      2  0.000000D+00  0.000000D+00
      3  0.000000D+00  0.000000D+00  0.000000D+00
 Dipole Derivatives after L701:
                 1             2             3             4             5 
      1  -0.256530D+00  0.247811D-01 -0.576195D-01  0.213898D+00  0.244927D+00
      2   0.232256D+00 -0.764104D-01 -0.730495D-01  0.449228D+00 -0.294790D+00
      3  -0.320381D-01 -0.133089D-01 -0.220853D+00  0.603311D+00  0.468735D-01
                 6             7             8             9            10 
      1   0.704920D-01  0.345926D+00  0.159677D+00  0.146161D+00 -0.843448D+00
      2  -0.812938D-01  0.470989D-01 -0.241707D+00 -0.269061D+00 -0.310032D-01
      3  -0.618342D+00 -0.233879D+00 -0.199795D+00 -0.304681D+00  0.861256D-01
                11            12            13            14            15 
      1   0.308970D+00 -0.364140D+00 -0.197050D+01 -0.182397D+00  0.190012D+00
      2  -0.118583D+01  0.361649D+00  0.129904D-02 -0.952114D+00 -0.366043D-01
      3   0.157695D+00 -0.107079D+01  0.170095D+00 -0.109161D-01 -0.984377D+00
                16            17            18            19            20 
      1  -0.656944D+00 -0.937819D-01  0.391062D+00 -0.812096D+00  0.272477D+00
      2   0.224164D-02 -0.529986D+00 -0.491202D+00 -0.106639D+00 -0.338289D+00
      3   0.238654D+00 -0.378646D+00 -0.326927D+00  0.136579D+00 -0.201503D+00
                21            22            23            24            25 
      1   0.295234D+00  0.865581D-01 -0.968898D-01 -0.162479D+00  0.928240D-01
      2  -0.158049D+00  0.714578D-01  0.224231D+00  0.138007D+00  0.179816D-01
      3  -0.966782D-01  0.121746D+00  0.138403D+00  0.422080D+00 -0.749409D-01
                26            27            28            29            30 
      1   0.107624D+00  0.227254D+00  0.249695D+00  0.355212D-01 -0.745050D-02
      2   0.789043D-01 -0.101414D+00  0.521981D+00  0.439413D+00  0.358329D-01
      3   0.374765D+00  0.794736D+00 -0.293050D+00 -0.125214D+00  0.121095D+00
                31            32            33            34            35 
      1   0.596034D+00 -0.446651D+00  0.653126D-01  0.657769D+00  0.500510D+00
      2  -0.535052D+00  0.610574D+00 -0.922918D-01  0.141477D+00  0.235402D+00
      3   0.272101D+00 -0.275718D+00  0.149916D+00  0.952753D-01  0.110728D+00
                36            37            38            39            40 
      1   0.841009D+00  0.305867D+00  0.527554D+00 -0.796855D+00  0.680244D+00
      2   0.223520D+00  0.676217D-01  0.301452D+00 -0.280349D+00 -0.195945D+00
      3   0.295180D+00 -0.858887D-01 -0.309914D+00  0.587235D+00 -0.125204D+00
                41            42            43            44            45 
      1  -0.926628D+00 -0.143131D+00  0.306872D+00 -0.376304D+00 -0.284416D+00
      2   0.448702D+00  0.514213D-01 -0.164152D+00  0.774011D+00  0.498337D+00
      3   0.195593D+00  0.125984D+00 -0.953324D-01  0.386542D+00  0.353799D+00
                46            47            48            49            50 
      1   0.128495D+01 -0.103543D+00 -0.587298D+00 -0.281116D+00  0.441544D-01
      2  -0.944801D-01  0.173305D+00  0.101785D+00 -0.425371D+00  0.333130D+00
      3  -0.220052D+00  0.671870D-01  0.232056D+00 -0.563502D+00  0.372288D-01
                51 
      1   0.176851D+00
      2   0.172763D+00
      3   0.540564D+00
 Hessian after L701:
                1             2             3             4             5 
      1  0.621743D+01
      2  0.304367D+01  0.119116D+02
      3  0.305377D+01 -0.711709D-01  0.179861D+02
      4  0.290852D+00  0.611450D+00  0.169250D+00  0.950885D+01
      5  0.548474D+00  0.150699D+00  0.168974D+00 -0.631674D+00  0.100666D+02
      6  0.127951D+00  0.139126D+00 -0.344079D+00  0.184386D+01 -0.460312D+01
      7 -0.619650D+01 -0.404427D+01 -0.561883D+00  0.438568D+00  0.281459D+00
      8 -0.379188D+01 -0.266563D+01  0.592179D+00  0.336298D+00 -0.255000D+00
      9 -0.618583D+00  0.578329D+00 -0.955935D+01  0.236457D+00  0.630792D-01
     10 -0.517785D-01 -0.233252D-01  0.120713D+00  0.156519D+00 -0.762875D-01
     11 -0.264062D-01  0.514020D-01 -0.480139D+00  0.129160D-01 -0.149966D+00
     12  0.937678D-01 -0.320197D+00  0.351898D+00  0.164133D+00 -0.615689D-01
     13  0.323774D+00 -0.164527D+00 -0.112790D+00  0.181316D+00  0.680677D-01
     14 -0.223588D+00 -0.214994D+00  0.123370D-01  0.716968D-01 -0.784627D-01
     15 -0.973827D-01  0.121637D-01 -0.149546D+00  0.278333D-01  0.571770D-02
     16 -0.875071D+00  0.865740D-01 -0.330526D+01  0.254683D+00  0.220754D+00
     17 -0.253883D+00 -0.956841D+01 -0.160539D+00  0.115156D+00  0.129321D+00
     18 -0.321048D+01 -0.213104D+00 -0.883820D+01  0.228257D+00 -0.170289D+00
     19  0.193228D+00  0.165913D+00  0.439986D+00 -0.874814D+01 -0.468760D+00
     20  0.313237D+00  0.208419D+00 -0.392227D-01 -0.200815D+00 -0.303248D+01
     21  0.403595D+00 -0.530394D-02  0.148496D+00 -0.345697D+00  0.441084D+01
     22  0.145249D+00  0.305901D+00  0.121200D+00 -0.117261D+00 -0.151571D-03
     23  0.265015D+00 -0.314548D+00  0.687156D-01 -0.261057D-01 -0.954288D-02
     24  0.132837D+00  0.261757D-01  0.468136D+00 -0.732699D-01 -0.122366D-01
     25 -0.670862D-01 -0.398032D-02 -0.633712D-02  0.952493D-02  0.824399D-02
     26 -0.140126D-02  0.267639D-01 -0.576884D-01  0.172637D-01 -0.155954D-01
     27  0.128516D-02 -0.128596D+00  0.475220D-01  0.607575D-01  0.152098D-01
     28 -0.464741D-01  0.868653D-01 -0.250579D-01  0.187237D-02  0.181026D-02
     29  0.500346D-01  0.167843D+00 -0.479914D-01 -0.792102D-01 -0.166284D+00
     30 -0.113362D-01 -0.510207D-01 -0.598854D-01  0.177826D+00 -0.350601D-02
     31 -0.476392D-02 -0.863013D-01  0.301253D-01  0.477226D-01 -0.146692D-01
     32 -0.676263D-01  0.106705D+00 -0.520127D-01 -0.340996D-01 -0.951573D-02
     33  0.240542D-01 -0.532448D-01 -0.258473D-01  0.291182D-01 -0.605392D-02
     34  0.992422D-01 -0.472045D-01  0.279603D-02  0.246505D-01  0.107441D-01
     35 -0.891712D-02 -0.539253D-01  0.523278D-02  0.165135D-01 -0.295424D-02
     36  0.488601D-01 -0.995580D-02 -0.527191D-01  0.220872D-01  0.661713D-02
     37  0.875724D-01 -0.355685D-01 -0.288100D-01  0.251739D-01  0.126738D-01
     38  0.126662D-02 -0.559718D-01 -0.831148D-02  0.241733D-01 -0.183749D-02
     39 -0.833509D-01  0.167752D-01 -0.385589D-01 -0.248177D-01 -0.892369D-02
     40  0.611877D-01 -0.113880D+00 -0.232504D-01  0.376842D-01  0.598984D-03
     41 -0.103530D+00  0.569279D-01  0.225192D-01 -0.201127D-01 -0.936401D-02
     42 -0.238954D-01  0.249117D-01 -0.393970D-01 -0.197861D-02  0.674034D-04
     43 -0.269518D+00  0.156483D+00  0.171192D+00 -0.459719D-01  0.109893D-01
     44  0.156447D+00  0.174904D+00  0.121703D-01  0.458210D-01  0.119836D+00
     45  0.173835D+00 -0.662657D-02  0.161226D+00  0.362774D-01  0.104601D+00
     46  0.166104D+00  0.439389D-01 -0.496008D-01  0.143209D+00  0.993445D-01
     47  0.258756D-01 -0.373319D-01 -0.115224D-01  0.114836D+00 -0.892956D-01
     48 -0.648414D-01 -0.190122D-01 -0.245996D-01  0.729092D-01 -0.176404D+00
     49 -0.734512D-01  0.182632D-01  0.395085D-02 -0.220925D+01 -0.716177D-01
     50  0.732171D-01  0.555979D-01  0.464703D-01 -0.374108D+00 -0.664615D+01
     51  0.499107D-01  0.807507D-01 -0.311786D-01 -0.262301D+01  0.266987D+00
                6             7             8             9            10 
      6  0.116566D+02
      7  0.525108D-01  0.177421D+02
      8  0.308050D-01  0.251699D+01  0.171927D+02
      9 -0.359210D+00  0.905468D+00  0.337010D+00  0.220971D+02
     10  0.236333D+00 -0.618698D+01  0.386405D+00 -0.461617D+00  0.145534D+02
     11 -0.118710D-01  0.487084D+00 -0.418012D+01 -0.243818D+01  0.208133D+00
     12 -0.377663D-01 -0.550340D+00 -0.243324D+01 -0.348933D+01  0.319823D-01
     13  0.733259D-02 -0.192515D+01  0.571053D+00 -0.752622D+00  0.127507D+00
     14  0.189813D-02  0.562674D+00 -0.634346D+01 -0.808605D-01  0.195403D+00
     15 -0.978726D-01 -0.750798D+00 -0.779029D-01 -0.627140D+01 -0.184512D+00
     16  0.309988D+00  0.393727D+00 -0.204535D+00 -0.663879D-01  0.220988D-02
     17 -0.121339D+00 -0.103780D+00  0.141167D+00 -0.617459D-01 -0.398520D+00
     18  0.182397D+00 -0.875517D-01 -0.254270D-01  0.113263D+00  0.102995D+00
     19 -0.577877D+00  0.157963D+00 -0.116172D+00  0.820366D-01  0.252242D+00
     20  0.433630D+01 -0.982481D-01 -0.117889D+00 -0.345721D-01 -0.182576D+00
     21 -0.541993D+01  0.398607D-01 -0.181891D-01 -0.123811D+00  0.704140D-01
     22 -0.310069D-01 -0.458531D+01  0.349991D+00  0.633730D+00  0.350551D+00
     23  0.511013D-03  0.442958D+00 -0.392875D+01  0.138447D+01  0.727259D-02
     24  0.144407D-01  0.791539D+00  0.136205D+01 -0.250854D+01 -0.890407D-02
     25  0.302218D-01  0.820002D-01  0.792154D-02  0.114875D-01 -0.418573D+01
     26  0.158371D-01 -0.599415D-02  0.101400D+00  0.707474D-01 -0.965550D-01
     27  0.299556D-01  0.309428D-01  0.427659D-02 -0.108832D+00 -0.188814D+00
     28  0.112298D+00 -0.277713D-01 -0.225451D-01  0.795139D-01 -0.233578D+01
     29 -0.397388D-01 -0.958965D-01  0.146125D-01  0.684642D-01  0.138659D+01
     30 -0.568979D-01  0.125398D+00  0.672075D-01 -0.361567D-01  0.767515D-01
     31  0.236975D-01  0.480432D-01  0.118342D-01 -0.204010D-01 -0.272238D+01
     32 -0.108682D-01  0.538508D-01 -0.425301D-01  0.241379D-01 -0.135546D+01
     33 -0.729066D-02 -0.510986D-01  0.451501D-01  0.539140D-01  0.288942D+00
     34  0.580096D-02  0.128232D-01 -0.761447D-01 -0.751477D-01 -0.100766D-01
     35  0.262515D-02 -0.423491D-01  0.436787D-01 -0.214802D-01  0.150241D-01
     36 -0.469756D-02 -0.122788D-01 -0.747239D-02  0.912478D-01  0.633092D-02
     37 -0.486048D-02  0.906262D-02 -0.743526D-01  0.536050D-01  0.106431D-01
     38 -0.454399D-02 -0.282151D-01  0.121356D-01 -0.115770D-02  0.690345D-01
     39 -0.545529D-02  0.120312D-01  0.139948D-01  0.641407D-01 -0.902234D-01
     40 -0.186205D-02 -0.312466D-01  0.149976D+00 -0.205650D-02  0.162632D-01
     41  0.120093D-02  0.976397D-01  0.607510D-01 -0.987515D-03 -0.279253D-01
     42 -0.100144D-01  0.165663D-01 -0.253313D-01  0.842124D-01 -0.125694D-01
     43  0.140740D-01  0.447259D-01 -0.843074D-01 -0.535434D-01  0.153818D-01
     44  0.106356D+00 -0.103758D+00  0.436195D-01  0.618332D-01 -0.771945D-01
     45  0.303541D-01 -0.787706D-01  0.721298D-01 -0.622761D-02 -0.153799D-01
     46  0.706167D-01  0.376639D-01 -0.985322D-03 -0.542000D-03  0.541120D-01
     47 -0.198406D+00 -0.589590D-02 -0.131028D-01  0.000000D+00 -0.232719D-01
     48 -0.750832D-01 -0.162970D-01 -0.612914D-03 -0.131621D-01 -0.554611D-02
     49 -0.221908D+01 -0.136675D-01  0.404513D-01  0.486027D-01 -0.460834D-01
     50  0.355218D+00  0.857465D-01 -0.636270D-01  0.509136D-01 -0.673799D-02
     51 -0.549544D+01  0.134700D+00  0.633793D-01 -0.278438D-01  0.331041D-01
               11            12            13            14            15 
     11  0.139818D+02
     12  0.194178D+01  0.147032D+02
     13  0.134856D+00 -0.107751D+00  0.114337D+02
     14 -0.224842D-01 -0.109028D+00 -0.238023D+00  0.151932D+02
     15 -0.964620D-01 -0.683639D-01  0.836090D+00  0.685533D-01  0.151448D+02
     16 -0.371603D+00  0.872555D-01  0.166210D+00 -0.118662D+00 -0.525114D-01
     17  0.672572D-01 -0.672991D-01 -0.880181D-01 -0.940913D-01  0.139999D-01
     18 -0.856336D-01 -0.312032D+00 -0.452116D-01  0.208590D-01 -0.117984D+00
     19 -0.199814D+00  0.357539D-01  0.127604D+00 -0.806814D-02 -0.240778D-01
     20 -0.164703D+00 -0.316459D-01  0.775379D-02 -0.799930D-01 -0.499005D-02
     21 -0.354750D-01 -0.226200D+00 -0.231061D-01 -0.360198D-02 -0.725859D-01
     22 -0.201243D-04  0.250673D-01 -0.157240D+00 -0.489227D-01 -0.942126D-01
     23  0.331769D+00  0.932104D-01 -0.549455D-01  0.105100D+00 -0.111572D-01
     24  0.167633D+00 -0.454611D+00 -0.967784D-01  0.114154D-02  0.858088D-01
     25 -0.655098D-01 -0.886197D-01 -0.666290D-02 -0.210876D-03 -0.229623D-01
     26 -0.363088D+01  0.100521D+01 -0.546474D-02 -0.203623D-01  0.122610D-01
     27  0.123958D+01 -0.215298D+01 -0.161289D-01  0.280599D-02  0.260046D-01
     28  0.112033D+01  0.224532D+00  0.911496D-01  0.927111D-01 -0.708041D-01
     29 -0.359582D+01  0.203358D+00  0.102542D+00  0.144634D-01 -0.496565D-01
     30  0.864157D-01 -0.434494D+01 -0.704981D-01 -0.409855D-01 -0.167465D-01
     31 -0.127330D+01  0.207888D+00 -0.623789D-03 -0.113467D-01  0.965362D-02
     32 -0.274851D+01 -0.147350D+00  0.384621D-02  0.522238D-02 -0.208336D-02
     33 -0.215800D+00 -0.398743D+01  0.132534D-03  0.670869D-02 -0.236752D-01
     34  0.661833D-03 -0.508724D-02 -0.335046D+01  0.638960D+00  0.108645D+01
     35  0.366089D-02 -0.631378D-02  0.529959D+00 -0.329706D+01  0.956274D+00
     36  0.105437D-02  0.370489D-02  0.881671D+00  0.928852D+00 -0.236451D+01
     37  0.785247D-01 -0.930250D-01 -0.392710D+01  0.345117D+00 -0.477768D+00
     38  0.187261D-01 -0.883503D-01  0.220227D+00 -0.312561D+01 -0.113559D+01
     39 -0.968927D-01  0.655629D-01 -0.313929D+00 -0.117726D+01 -0.230171D+01
     40 -0.154514D-01 -0.878952D-03 -0.312448D+01 -0.125788D+01 -0.187303D+00
     41 -0.850275D-02  0.136724D-01 -0.109129D+01 -0.202948D+01  0.295088D+00
     42  0.974265D-02 -0.170175D-01 -0.195585D+00  0.350463D+00 -0.375252D+01
     43 -0.623266D-01 -0.756995D-02  0.471855D-02 -0.932899D-02 -0.414059D-02
     44  0.745833D-01  0.175832D-01 -0.138448D-01  0.393906D-02  0.708775D-02
     45  0.205366D-01 -0.259427D-01 -0.843367D-02  0.899317D-02 -0.612572D-02
     46 -0.185299D-01 -0.372103D-02  0.153421D-01 -0.217707D-02 -0.386296D-02
     47 -0.836680D-02  0.292056D-03 -0.156299D-02 -0.457332D-02  0.846093D-03
     48  0.152181D-03 -0.131471D-01 -0.610326D-02  0.116898D-02 -0.444685D-02
     49 -0.954581D-02 -0.133884D-01  0.204109D-01  0.116424D-01  0.103100D-01
     50 -0.198739D-01 -0.101114D-01  0.193735D-01 -0.113861D-01  0.584758D-02
     51 -0.643908D-02  0.541589D-02  0.237114D-01  0.795399D-02 -0.915328D-02
               16            17            18            19            20 
     16  0.100112D+02
     17 -0.408124D+01  0.191466D+02
     18  0.309290D+01 -0.389731D+01  0.244779D+02
     19 -0.536116D+01  0.557669D+01  0.299328D+00  0.150710D+02
     20  0.507552D+01 -0.720167D+01  0.310079D+01 -0.433880D+01  0.148244D+02
     21  0.181610D+00  0.302801D+01 -0.123891D+02  0.947611D+00 -0.713916D+01
     22 -0.639067D-01  0.408713D-01  0.637910D-01  0.156154D+00 -0.134544D+00
     23  0.282074D-01  0.431013D-01 -0.110074D-01 -0.154508D+00 -0.219902D-01
     24  0.461186D-01  0.318991D-02  0.965019D-03 -0.128860D+00  0.599336D-01
     25 -0.349623D-01 -0.134756D-01  0.199967D-01  0.139310D-01 -0.139103D-01
     26 -0.429651D-02 -0.158921D-01 -0.163845D-01 -0.656637D-02 -0.167110D-01
     27  0.371041D-01 -0.474853D-01  0.294582D-01  0.476573D-01 -0.107114D-01
     28  0.540442D-01  0.578584D-01  0.215159D-02 -0.532659D-01  0.156799D-01
     29  0.411595D-01 -0.922241D-01 -0.305422D-01 -0.108284D-01  0.336168D-01
     30  0.209444D-02  0.584721D-02  0.721430D-01  0.327405D-01 -0.481235D-01
     31  0.216298D-01 -0.444151D-01  0.828935D-02  0.235639D-01 -0.153317D-01
     32 -0.493942D-01  0.274062D-01 -0.764499D-02 -0.239322D-01 -0.223066D-02
     33  0.121120D-01 -0.935785D-02 -0.182728D-01  0.861885D-02 -0.534075D-02
     34  0.274414D-01 -0.276333D-02  0.232158D-02  0.292003D-01  0.564009D-02
     35  0.247169D-02 -0.115543D-01  0.148210D-02  0.797219D-02 -0.584067D-02
     36  0.150283D-01  0.575414D-03 -0.924620D-02  0.135287D-01  0.372453D-02
     37  0.231945D-01  0.146688D-02 -0.181005D-01  0.122850D-01  0.532040D-02
     38  0.749699D-02 -0.129141D-01 -0.353413D-02  0.941925D-02 -0.394796D-02
     39 -0.314678D-01 -0.224392D-02  0.185110D-02 -0.182991D-01 -0.594719D-02
     40  0.119428D-01 -0.829023D-02 -0.358366D-02  0.176947D-01 -0.300585D-02
     41 -0.165574D-01  0.559784D-03  0.228141D-02 -0.136006D-01 -0.483430D-02
     42 -0.424660D-02  0.191293D-02 -0.670759D-02 -0.390382D-02  0.137110D-03
     43 -0.427549D+01 -0.561434D+00 -0.460258D+00  0.231953D+00 -0.191631D+00
     44 -0.481829D+00 -0.262584D+01  0.139555D+01 -0.256590D+00 -0.225351D+00
     45 -0.394686D+00  0.137404D+01 -0.340576D+01 -0.179394D+00 -0.312482D+00
     46 -0.381229D+00 -0.227198D+00  0.527764D-02 -0.217828D+01 -0.222626D+00
     47 -0.187731D+00  0.180855D+00  0.309700D-01 -0.260766D+00 -0.432220D+01
     48  0.208928D-01  0.312063D-01  0.232272D+00 -0.108231D+01  0.118966D+00
     49  0.255269D-01 -0.902993D-02 -0.126088D-03  0.540492D-01 -0.216639D-01
     50  0.536612D-01 -0.113674D+00 -0.910523D-01  0.984115D-01  0.133452D+00
     51  0.494501D-01 -0.914666D-01 -0.129121D-01  0.107461D+00  0.123454D-01
               21            22            23            24            25 
     21  0.218092D+02
     22 -0.729908D-01  0.423523D+01
     23  0.504391D-01 -0.528632D+00  0.392386D+01
     24 -0.505723D-01 -0.805796D+00 -0.166252D+01  0.234392D+01
     25  0.223867D-01 -0.363918D-01  0.740123D-03  0.698963D-02  0.414132D+01
     26 -0.153656D-02  0.129374D-02 -0.360781D-01  0.131572D-01  0.866724D-01
     27  0.117063D-01  0.880184D-02  0.263234D-01  0.153198D+00  0.843338D-01
     28  0.298868D-01  0.962327D-02 -0.145443D-01  0.176566D-01  0.322296D-01
     29 -0.664561D-01 -0.162877D-01  0.114118D-02  0.347984D-01 -0.140026D+00
     30  0.356083D-01  0.305674D-01  0.339420D-01 -0.496623D-01 -0.128619D+00
     31  0.596939D-02 -0.177754D-02 -0.536540D-02  0.245387D-01  0.330146D-01
     32 -0.565885D-02 -0.122649D-01 -0.507033D-02 -0.289722D-01  0.122229D+00
     33 -0.956179D-02  0.167301D-01 -0.153340D-01  0.274989D-01  0.918070D-01
     34  0.265163D-02  0.594434D-01  0.664509D-01  0.862459D-01  0.146224D-01
     35  0.867581D-03  0.548320D-01  0.611528D-04  0.466520D-01  0.141101D-01
     36 -0.581779D-02  0.701494D-01  0.451554D-01  0.220427D-01 -0.931582D-02
     37 -0.712966D-02 -0.466208D-01 -0.633602D-01  0.353443D-02 -0.120106D-02
     38 -0.338951D-02 -0.555688D-01 -0.539582D-02  0.443151D-02 -0.231229D-03
     39 -0.393409D-03  0.105618D-01  0.515500D-02  0.324541D-01 -0.149559D-03
     40 -0.261974D-02 -0.145227D-01  0.610305D-02  0.327624D-02  0.850269D-02
     41  0.144600D-02 -0.256628D-02 -0.927103D-03 -0.533459D-02 -0.537430D-02
     42 -0.582499D-02 -0.296291D-02  0.907321D-03  0.585483D-03 -0.132336D-01
     43 -0.137010D+00 -0.458199D-02  0.912269D-02  0.628749D-02 -0.268153D-02
     44 -0.331368D+00  0.114265D-01 -0.652566D-02 -0.590202D-02  0.307795D-02
     45  0.729744D-01  0.916282D-02 -0.851920D-02 -0.260304D-02 -0.187674D-02
     46 -0.110719D+01 -0.629327D-02 -0.165290D-02 -0.296566D-02  0.163858D-02
     47  0.136354D+00  0.196247D-02  0.381923D-03  0.694731D-03 -0.648499D-03
     48 -0.383657D+01  0.318357D-02  0.176846D-02  0.245969D-02 -0.484895D-03
     49 -0.823905D-02  0.776621D-01  0.232435D-01 -0.244928D-02 -0.206931D-02
     50 -0.178234D-01  0.326791D-01 -0.765878D-01 -0.488417D-02  0.371296D-03
     51  0.624645D-01  0.140245D-01 -0.205556D-02 -0.855187D-01  0.437604D-02
               26            27            28            29            30 
     26  0.374213D+01
     27 -0.799297D+00  0.192415D+01
     28 -0.102583D+00 -0.115411D+00  0.245771D+01
     29 -0.405167D-01 -0.159885D+00 -0.127613D+01  0.353280D+01
     30 -0.131372D+00 -0.112955D-01 -0.190921D+00  0.655236D-01  0.440317D+01
[...]
   yy         0.614867D+02      0.911138D+01      0.101378D+02
   zx         0.103249D+02      0.152999D+01      0.170234D+01
   zy         0.152060D+01      0.225329D+00      0.250713D+00
   zz         0.837415D+02      0.124092D+02      0.138071D+02

 ----------------------------------------------------------------------

 Test job not archived.
 1\1\GINC-C2000\Freq\RM062X\CC-pVTZ\C5H10O2\HARMS.N\27-Sep-2019\0\\#P G
 eom=AllCheck Guess=TCheck SCRF=Check Test GenChk RM062X/CC-pVTZ Freq\\
 Gaussian input prepared by ASE\\0,1\O,2.4544202263,0.352234547,-1.0231
 81307\O,1.7553493049,1.890456407,1.1399043679\C,2.2986612691,0.0476395
 708,-2.4118858807\C,2.5659418514,-1.4263575561,-2.6655800671\C,3.27144
 04526,0.9367353917,-3.1572305319\C,1.4058952382,-0.0157828729,-0.21852
 38455\C,1.103996724,0.7414246219,0.8272752536\H,1.2726263936,0.2968423
 095,-2.7024581955\H,3.5854676114,-1.6698899801,-2.3657392681\H,1.88143
 40227,-2.0631573589,-2.106824734\H,2.4486425579,-1.65431153,-3.7248298
 257\H,4.2887525937,0.7250156899,-2.826847769\H,3.0551625429,1.98646297
 24,-2.9664639155\H,3.2092175475,0.754473234,-4.2293783248\H,0.88019576
 96,-0.9330159238,-0.4420076601\H,0.3205101245,0.4795695315,1.520666074
 7\H,2.4375754187,2.0223008277,0.4703502604\\Version=EM64L-G16RevA.03\S
 tate=1-A\HF=-346.9479196\RMSD=2.096e-09\RMSF=8.291e-07\ZeroPoint=0.147
 5354\Thermal=0.1560271\Dipole=-0.0528877,-0.4340218,-0.8567922\DipoleD
 eriv=-0.6890143,0.1020102,0.6836868,-0.1139132,-0.4388001,-0.018827,0.
 4769639,-0.3330538,-1.4957825,-0.4260324,-0.4623386,-0.3445975,-0.1399
 605,-1.0327681,-0.5667284,-0.0104937,-0.1389146,-0.4558265,0.3002301,0
 .0022407,-0.0031983,-0.0673201,0.5363922,0.2111056,-0.2244087,0.179849
 6,1.0857957,0.0605836,0.0039963,0.0047096,0.0245416,-0.149389,-0.08071
 9,0.0503194,0.0060697,-0.0160862,0.0263329,-0.048151,0.0745859,-0.0535
 667,-0.0264852,0.0420063,0.0655109,-0.0000075,-0.0158759,0.3956797,-0.
 0328263,-0.7920137,0.1482442,-0.0990684,-0.1923735,-0.4651642,0.057367
 6,0.3790351,0.1293465,0.4654432,0.2302899,0.2800313,0.8139487,0.616683
 8,-0.0169695,0.2821732,0.1936969,-0.1363364,0.0252075,-0.0931852,0.047
 9437,-0.0331158,-0.004605,0.0330893,-0.0057279,-0.0335225,-0.0868107,0
 .0584921,-0.0300563,-0.0053676,0.0389242,-0.0071925,-0.0554223,0.01319
 45,0.0573444,-0.0147311,-0.0689556,0.0661811,-0.0567937,-0.0228455,0.0
 604258,0.0649588,0.077152,0.0268591,0.0643726,0.008235,-0.0133302,0.01
 94264,0.0478941,-0.025128,-0.009077,-0.057732,-0.1239142,-0.0815711,0.
 0100613,-0.0172593,0.0522661,0.0404333,0.0325953,-0.0733002,0.0202773,
 0.0469369,0.0426567,0.0294494,0.0193401,0.0062633,-0.1207612,-0.004958
 ,0.0113701,-0.0427803,0.0664586,0.0496543,-0.0113088,-0.0096591,-0.015
 3563,0.0603866,-0.0472503,0.0144886,-0.0219499,-0.119994,0.043069,-0.0
 525867,0.1001796,-0.0867205,-0.008089,-0.0325375,0.0102371,-0.0465529,
 0.0947294,0.0490565,-0.0680543,0.0579266,-0.0581895,0.0632924,-0.01796
 15,0.0808995,-0.0003323,0.0486308,0.2735141,0.0390855,0.0663999,0.0184
 718,0.3300509,0.0354639,0.0469981,0.0109675,0.2615149\Polar=59.5248839
 ,1.7711396,67.2120264,-10.9978154,9.9393605,79.2524675\Quadrupole=0.94
 36059,-0.0514931,-0.8921128,2.0288468,-0.8834512,-1.6516423\PG=C01 [X(
 C5H10O2)]\NImag=0\\0.32029077,0.10165401,0.14702557,-0.12239901,0.0361
 6856,0.48158002,0.00837007,0.00795007,-0.00823643,0.39190916,0.0128808
 0,0.00558081,-0.00432279,0.19563390,0.34421566,-0.00576622,0.00228580,
 -0.00144729,-0.23233844,0.06329257,0.36185631,-0.08837066,-0.02097221,
 -0.04131920,0.00033059,0.00021448,-0.00019353,0.62233600,-0.01697048,-
 0.07593148,-0.03883766,0.00383776,0.00260985,-0.00051264,-0.01092298,0
 .50674789,-0.01396754,-0.02936418,-0.19016166,0.00211407,0.00582449,0.
 00198179,0.01120085,-0.02216368,0.46646524,0.00405056,-0.00519521,-0.0
 0217193,-0.00021492,-0.00036809,-0.00026728,-0.09047745,0.02853843,0.0
 0468214,0.57839812,-0.00044424,-0.00762915,-0.01230929,-0.00026844,-0.
 00016439,-0.00029079,0.02364933,-0.19521768,-0.01080773,0.02395279,0.4
 9363009,0.00707173,-0.04347669,-0.03054595,0.00050720,-0.00031918,-0.0
 0056684,0.00315072,-0.00307314,-0.07325603,0.00415126,-0.01998222,0.58
 479314,0.00380267,0.00151052,0.00078079,-0.00006534,0.00034796,-0.0000
 7816,-0.14290096,-0.05276188,0.04289464,0.00424016,0.00106293,-0.00394
 673,0.53925321,0.00479894,0.00581659,-0.00437574,-0.00053942,-0.000863
 79,0.00003777,-0.05183640,-0.12692837,0.04044919,-0.02410989,-0.028139
 87,0.01754621,-0.03569642,0.56181187,0.03170445,0.02115464,-0.04177658
 ,-0.00070860,-0.00061086,-0.00016476,0.03074803,0.03151933,-0.09639825
 ,-0.00281679,0.00100781,0.00551975,0.02859268,0.02929132,0.57119189,-0
 .20738342,-0.06889644,0.11514096,-0.00212054,-0.03822038,-0.01904436,-
 0.00099018,0.00692938,0.01701305,0.00051918,0.00166617,-0.00380411,-0.
 00028159,-0.00100963,-0.00325306,0.41401111,-0.06869952,-0.08287547,0.
 01335999,-0.01622128,-0.04881575,-0.03991623,0.01071827,0.00083121,0.0
 0545670,0.00035465,0.00056032,-0.00451872,-0.00017708,-0.00052789,-0.0
 0050978,0.16149787,0.61718993,0.08639142,0.00688660,-0.15549657,0.0026
 8270,-0.01624285,-0.00060001,0.03461742,0.01165999,-0.04037423,0.00009
 529,-0.00061783,0.00251714,0.00017320,-0.00191373,-0.00478847,-0.19664
 395,0.29965991,0.64026166,-0.02824984,0.01041068,0.05642601,-0.1332767
 8,-0.09893120,0.01283552,-0.00422189,-0.00569164,-0.00793578,0.0000897
 5,-0.00026123,0.00064104,0.00065032,0.00107160,0.00205254,-0.09967971,
 0.03746724,0.08762065,0.48147911,-0.01564311,0.00856093,0.01786316,-0.
 12763221,-0.25485317,-0.05021406,-0.00428898,-0.00480510,-0.00367113,0
 .00008531,-0.00021176,0.00026900,-0.00033537,0.00118929,0.00167759,0.0
 5571955,-0.23318216,-0.22819085,0.14963382,0.57056744,0.02560312,-0.01
 496544,-0.03209452,-0.01562056,-0.08270295,-0.10530226,0.00245487,0.00
 060508,0.00286347,-0.00000937,0.00045908,-0.00062106,-0.00048143,-0.00
 015249,-0.00054698,0.10814026,-0.20961139,-0.37674411,-0.28402292,0.24
 379971,0.68377881,-0.00136104,-0.00106675,-0.00691855,-0.00032885,-0.0
 0064826,0.00015295,-0.27293290,0.05561074,-0.05757481,-0.00438878,0.00
 163983,-0.00061675,-0.01973395,0.00398882,-0.00379322,0.00128582,-0.00
 174054,0.00162227,0.00118136,0.00108267,-0.00037098,0.29474186,-0.0084
 2378,0.00385572,-0.00581078,-0.00009468,-0.00033772,-0.00008421,0.0573
 8192,-0.06709981,0.01507189,0.03218748,-0.00954397,0.00750870,-0.02035
 828,0.00414537,-0.00448976,-0.00051853,0.00059128,0.00118797,0.0000599
 3,-0.00017090,0.00022858,-0.05834363,0.07307320,-0.03281547,0.00310893
 ,-0.03395005,0.00014194,0.00038948,-0.00013186,-0.05017851,0.01507844,
 -0.06133758,0.00486555,-0.00054196,0.00371292,0.01676662,-0.00373240,0
 .00581351,-0.00581932,-0.00113242,0.00462678,0.00102423,-0.00101789,-0
 .00077001,0.06483260,-0.01395214,0.08195724,0.00115109,-0.00076103,0.0
 0102165,0.00007684,0.00016231,0.00008087,-0.00794088,0.00231922,-0.002
 56726,-0.28377368,0.05329060,-0.06969754,0.00104949,-0.00079482,0.0003
 1713,-0.00033193,-0.00008053,0.00019481,0.00008804,-0.00005493,-0.0000
 9927,0.00124243,0.00106878,0.00039085,0.30677262,-0.00186151,0.0030607
 5,0.00097444,-0.00002989,0.00002151,0.00001518,0.03418438,-0.01031903,
 0.01091525,0.05182023,-0.05828915,0.01554334,0.00141298,0.00193500,-0.
 00013436,-0.00012634,-0.00001000,-0.00013464,-0.00003035,0.00007489,0.
 00012830,0.00052451,-0.00625478,-0.00151139,-0.06002839,0.06536883,0.0
 0014880,0.00080218,0.00161297,0.00000910,0.00006456,-0.00000008,0.0054
 2512,-0.00236974,0.00006551,-0.07012667,0.01710175,-0.06772565,-0.0001
 8634,0.00029963,-0.00021255,0.00063381,0.00029287,-0.00057929,-0.00017
 671,-0.00012182,0.00001607,0.00046369,-0.00124158,0.00058846,0.0767250
 2,-0.01784371,0.06801974,-0.00016484,-0.00087428,-0.00045835,0.0001459
 3,0.00010280,0.00013529,0.00454568,0.00423170,-0.00530015,-0.15727780,
 -0.09876500,0.08918389,0.00047770,0.00097453,0.00036806,-0.00064547,-0
 .00004917,0.00033283,0.00008132,0.00012490,-0.00021920,0.00051773,-0.0
 0070720,-0.00048085,-0.01762513,-0.01733967,0.01661504,0.16697468,0.00
 061467,0.00290186,0.00018844,0.00027180,0.00071192,0.00026799,-0.02269
 324,-0.01738279,0.01913124,-0.09808437,-0.13690706,0.07970142,0.002861
 48,-0.00599647,-0.00244588,-0.00075881,-0.00068574,0.00007471,0.000324
 47,-0.00011175,-0.00051273,0.00030429,0.00130076,-0.00005709,0.0045910
 2,0.00403882,-0.00473717,0.10729215,0.14920359,-0.00046597,0.00122375,
 0.00099984,0.00003200,0.00018046,0.00001374,-0.00499272,-0.00402640,0.
 00182440,0.08895028,0.08144427,-0.11895249,-0.00000817,-0.00104027,0.0
 0009642,0.00061029,-0.00039190,-0.00063857,-0.00014500,-0.00023128,-0.
 00003783,0.00000049,0.00059494,-0.00004054,-0.00607711,-0.00657701,0.0
 0483437,-0.09926830,-0.08798886,0.12690842,0.00091584,0.00148942,0.001
 21142,0.00005443,0.00016056,0.00015969,-0.00129297,0.00022019,0.006174
 93,-0.04963237,-0.00529711,-0.02923529,-0.00005189,-0.00020983,-0.0000
 6659,0.00013639,-0.00001965,-0.00005897,0.00012029,0.00003874,-0.00015
 540,-0.00010874,-0.00045723,-0.00013549,-0.00140143,-0.00724958,-0.029
 50589,0.00203977,0.00558813,0.02038809,0.04896814,0.00192505,-0.007946
 88,-0.00578633,0.00013516,-0.00007384,-0.00009811,-0.00556019,-0.00104
 087,-0.02957982,-0.00506085,-0.05877546,-0.05217617,-0.00020795,0.0011
 6741,-0.00010680,-0.00196477,-0.00115737,0.00129761,0.00041946,0.00022
 048,-0.00042743,0.00065094,0.00102334,0.00067441,-0.00016002,0.0004501
 7,0.00750124,0.00337315,0.00406126,0.01851826,0.00617612,0.06212252,0.
 00128566,-0.00170171,0.00015915,-0.00013926,-0.00035971,-0.00014690,-0
 .00096855,0.00150876,-0.00568655,-0.02908764,-0.05459573,-0.30334303,0
 .00003858,0.00067335,-0.00026942,-0.00077760,-0.00022111,0.00074653,0.
 00016481,0.00021036,0.00003980,0.00029602,-0.00045336,0.00027940,0.000
 04242,-0.00120941,-0.00685600,-0.00223068,-0.00346718,-0.01493178,0.03
 137107,0.05932876,0.32891548,0.00208879,0.00041680,-0.00049741,0.00014
 334,0.00015175,0.00006861,-0.02505925,0.00406487,-0.00761418,0.0010341
 4,0.00133197,-0.00026652,-0.27849019,0.05039046,-0.07710784,0.00040106
 ,0.00009350,0.00029514,0.00001694,-0.00016884,-0.00012395,-0.00120603,
 -0.00310965,0.00276561,0.00052760,-0.00095770,-0.00004652,0.00044266,0
 .00005556,0.00022348,0.00002223,-0.00003205,0.00011575,0.30507104,0.00
 142452,0.00030978,-0.00117578,-0.00007553,0.00004868,-0.00002749,-0.02
 055695,0.00312487,-0.00706285,-0.00095376,0.00161194,-0.00082404,0.051
 74857,-0.05901530,0.01696315,-0.00001539,-0.00016260,0.00000171,0.0001
 1322,0.00001565,-0.00003585,-0.00251037,-0.00182063,0.00235141,0.00029
 074,-0.00032909,0.00035778,0.00034925,0.00011422,0.00005022,-0.0000251
 9,-0.00008810,-0.00006021,-0.05285594,0.06099121,-0.00089103,-0.000405
 36,0.00212469,-0.00003586,-0.00004242,0.00000740,0.01748596,-0.0028961
 3,0.00400894,-0.00012652,-0.00110759,0.00010817,-0.07888288,0.01619414
 ,-0.07233318,0.00030891,0.00006970,-0.00034049,-0.00016646,0.00002383,
 0.00011104,0.00223172,0.00205980,-0.00126064,-0.00037098,-0.00000926,0
 .00017192,0.00004000,-0.00014812,-0.00007677,-0.00013715,0.00002702,0.
 00002228,0.08374655,-0.01971088,0.07423185,0.00061318,0.00116607,-0.00
 158679,-0.00013944,-0.00009175,-0.00005314,0.00448067,-0.02350761,-0.0
 0491658,-0.00274272,-0.00191568,0.00283782,-0.06003849,0.05668802,0.01
 054719,-0.00021989,-0.00008269,-0.00018990,0.00009823,0.00018232,0.000
 06579,0.00090791,0.00042719,-0.00088555,0.00022256,-0.00031184,0.00021
 895,0.00053700,-0.00145046,0.00007405,-0.00014337,0.00025798,0.0000930
 1,-0.00497476,0.02890200,0.00671400,0.06204140,0.00064149,0.00220770,-
 0.00061166,0.00012776,0.00026962,-0.00005725,0.00514157,-0.01974023,-0
 .00502846,-0.00382606,-0.00110411,0.00284087,0.05434076,-0.29896586,-0
 .04643120,-0.00014427,0.00017228,0.00017789,-0.00010935,-0.00025045,-0
 .00004484,-0.00022573,0.00086051,-0.00011890,-0.00006940,0.00035795,-0
 .00003771,0.00027099,-0.00125126,-0.00025343,0.00004782,0.00029210,-0.
 00006413,0.00066682,-0.00475585,-0.00092837,-0.05759018,0.32512086,-0.
 00067923,-0.00042610,0.00173693,-0.00006485,-0.00015990,0.00012708,-0.
 00425495,0.01690135,0.00122735,0.00208513,0.00138442,-0.00172290,0.009
 94218,-0.04869933,-0.05590527,0.00022969,0.00001314,-0.00013822,0.0000
 1041,0.00013765,0.00009306,-0.00042017,-0.00073978,0.00034923,0.000145
 47,-0.00022816,-0.00007403,0.00012847,0.00095196,0.00049079,0.00009677
 ,0.00019965,0.00031909,-0.00151034,0.01057389,0.00117756,-0.01253002,0
 .05079048,0.05636475,-0.00342452,-0.00297294,0.00434209,0.00027029,0.0
 0025880,0.00008817,0.00274497,0.00634991,0.01939452,0.00044450,0.00047
 046,-0.00023354,-0.04816005,-0.00416680,-0.01741793,0.00117487,0.00004
 240,0.00087158,-0.00053061,-0.00041473,0.00009591,0.00020119,0.0008189
 2,-0.00067618,-0.00000560,-0.00008564,-0.00014498,-0.00015863,0.000223
 92,-0.00008218,0.00020015,-0.00030545,-0.00005512,0.00009091,-0.005961
 98,-0.02988464,-0.00088848,0.00060993,0.00696024,0.04831931,-0.0036396
 3,-0.00145857,0.00357454,0.00019721,0.00027293,-0.00002774,0.00495444,
 0.00319814,0.01707893,0.00030290,0.00029967,-0.00011696,-0.00388423,-0
 .05569340,-0.04678069,0.00051748,0.00057351,0.00091962,-0.00048058,-0.
 00050588,0.00012612,0.00012138,0.00055892,-0.00056071,0.00009921,-0.00
 002502,0.00004797,0.00007485,0.00024060,-0.00016789,-0.00039761,-0.000
 74470,0.00018070,-0.00017693,-0.00008293,0.00703526,-0.00267079,-0.003
 19501,-0.03075111,0.00513722,0.05661678,0.00419252,0.00225547,-0.00229
 853,-0.00017397,-0.00027521,-0.00010650,-0.00464051,-0.00532742,-0.014
 16726,-0.00062973,-0.00082041,0.00011261,-0.01556248,-0.04409189,-0.30
 980463,-0.00120368,-0.00016781,0.00010884,0.00044788,0.00042957,-0.000
 12906,0.00044478,-0.00006952,0.00042498,0.00011590,0.00004374,-0.00003
 757,0.00012666,0.00002011,0.00043322,0.00008039,0.00045259,0.00063360,
 0.00015651,-0.00140543,-0.00797425,-0.00034762,-0.00041693,-0.00382991
 ,0.01674361,0.04927411,0.33669042,-0.01766399,-0.02349097,0.00175904,0
 .00582153,-0.00068241,0.00572379,0.00021885,-0.00111749,-0.00383114,-0
 .00031346,-0.00021493,0.00025678,0.00007943,0.00032030,0.00050691,-0.1
 0643838,-0.12368593,-0.02016842,0.00471931,0.00702549,-0.00021045,0.00
 027173,0.00016153,0.00036628,0.00000605,0.00001646,-0.00007537,0.00017
 128,0.00095146,0.00075130,0.00023670,0.00035876,-0.00018868,0.00007008
 ,-0.00001085,-0.00010903,0.00006867,0.00015940,-0.00011918,-0.00009091
 ,-0.00004322,0.00021267,0.11545134,-0.00616151,-0.00360737,0.00461351,
 -0.00244909,0.00329181,-0.00501920,-0.00097184,0.00024701,-0.00310198,
 0.00034198,-0.00013311,0.00031815,0.00029920,-0.00006491,0.00034770,-0
 .12540628,-0.25930285,-0.06727245,-0.00782868,-0.01059025,0.00098456,0
 .00036698,-0.00030962,0.00056931,0.00012441,-0.00003031,-0.00004859,0.
 00091648,-0.00010278,-0.00127129,-0.00003703,0.00026161,0.00010940,0.0
 0010437,0.00007577,-0.00011051,-0.00001949,0.00006809,-0.00002452,-0.0
 0005724,-0.00004459,0.00008092,0.13844907,0.27108303,0.01454676,0.0184
 6698,0.00157124,0.00604176,-0.00423296,-0.00022244,0.00067181,0.001966
 74,0.00298627,0.00032568,-0.00038187,-0.00020912,-0.00019497,-0.000067
 10,-0.00037612,-0.02124241,-0.06600474,-0.06263866,-0.01590233,-0.0193
 1688,0.00117841,-0.00011939,0.00024476,-0.00046997,-0.00019432,0.00002
 109,0.00016416,0.00099839,-0.00109025,-0.00092014,-0.00016055,0.000070
 24,0.00010434,-0.00019077,-0.00000498,0.00005013,-0.00001639,-0.000101
 12,0.00006796,0.00001159,-0.00002493,-0.00012519,0.01647235,0.06845176
 ,0.06080440,0.00743529,-0.00146253,0.00218778,-0.01298863,-0.00844481,
 0.00903790,-0.00041866,-0.00080878,0.00093735,0.00001766,0.00004036,-0
 .00010526,0.00008730,0.00011662,0.00030055,-0.00267058,-0.00213641,0.0
 0216541,-0.20019867,-0.05369664,0.14752739,-0.00021399,-0.00002220,0.0
 0003477,-0.00001310,0.00001954,0.00001651,-0.00002177,0.00002600,0.000
 01007,-0.00002385,-0.00002383,-0.00002136,-0.00002523,0.00000048,-0.00
 001291,0.00000139,0.00000673,-0.00002073,-0.00008468,-0.00004251,0.000
 04002,-0.00179745,0.00187579,-0.00135573,0.20974226,-0.00413729,-0.000
 21759,-0.00578872,-0.02588331,-0.01049056,0.01965764,0.00107193,0.0008
 6803,-0.00036529,-0.00001655,-0.00001119,-0.00005511,-0.00014267,-0.00
 021696,-0.00051468,0.01411248,0.00918235,-0.00852532,-0.05101995,-0.06
 381165,0.03395018,0.00009509,0.00001569,-0.00006985,0.00000730,-0.0000
 1483,0.00000227,0.00002031,-0.00002630,0.00000007,0.00002057,-0.000030
 82,-0.00000689,0.00001546,-0.00002186,0.00002296,-0.00001862,0.0000218
 0,-0.00000094,0.00012000,0.00011069,-0.00008658,0.00133947,-0.00110892
 ,0.00139845,0.06729075,0.06972215,0.00381336,-0.00446344,-0.00097813,-
 0.00852222,-0.00222194,0.00922989,0.00089615,-0.00074939,0.00167216,0.
 00000729,0.00006092,-0.00040083,-0.00004470,-0.00002020,-0.00007561,0.
 01520479,0.01032069,-0.00755324,0.15166878,0.03644905,-0.18015891,-0.0
 0023153,0.00000220,-0.00005424,-0.00001160,0.00003217,0.00002266,-0.00
 002938,-0.00000235,0.00003022,-0.00001253,-0.00012410,-0.00003486,-0.0
 0003967,-0.00001005,0.00002347,0.00000230,0.00000143,0.00001791,-0.000
 01575,0.00003183,-0.00002870,-0.00200347,0.00088109,-0.00148919,-0.159
 45361,-0.03750423,0.17886941,-0.00209996,0.00109478,0.00071795,-0.2579
 8768,-0.06252647,0.22945834,-0.00005096,-0.00032135,-0.00070411,0.0000
 2710,0.00006219,0.00010530,0.00008216,0.00001391,0.00002650,0.00323325
 ,0.00271888,-0.00000146,-0.02236718,-0.01165799,0.01742619,-0.00007573
 ,-0.00007056,-0.00019708,-0.00004497,0.00004281,0.00000646,-0.00004010
 ,-0.00011808,-0.00000059,-0.00003933,0.00001848,0.00006159,-0.00015334
 ,0.00013718,0.00009033,0.00017614,-0.00004828,0.00000112,-0.00010270,-
 0.00006921,-0.00000298,-0.00081078,0.00045290,0.00030851,0.00117271,-0
 .00287496,-0.00122821,0.27908137,0.00204157,0.00034679,0.00227610,-0.0
 3495983,-0.04142358,0.01069076,0.00048648,0.00083835,-0.00278257,0.000
 03102,0.00002489,0.00081454,-0.00002051,0.00034731,0.00006250,-0.00338
 210,-0.00238105,0.00103166,-0.03514745,-0.01213561,0.02817151,0.000150
 03,0.00011264,0.00052278,-0.00000449,-0.00003571,-0.00006991,0.0000042
 4,-0.00010888,-0.00006363,-0.00004832,0.00025915,0.00012812,0.00000957
 ,-0.00001576,-0.00007408,0.00003553,-0.00010814,0.00007730,-0.00006679
 ,-0.00012113,0.00010469,0.00046385,0.00026739,0.00060482,-0.00273856,-
 0.00397004,-0.00268369,0.07314575,0.05810338,0.00222667,0.00245002,-0.
 00103556,0.25431142,0.04173920,-0.26452726,-0.00010296,0.00071651,-0.0
 0171357,0.00007333,-0.00000282,0.00058017,0.00019717,-0.00039843,0.000
 03024,-0.00549326,-0.00669890,0.00163091,-0.00454265,0.00190400,0.0083
 2409,0.00000087,-0.00005770,0.00026241,-0.00001604,-0.00002555,-0.0000
 1069,0.00005829,0.00011375,-0.00003330,-0.00001450,0.00022896,0.000048
 87,0.00002556,0.00001942,-0.00005214,-0.00002714,0.00028333,-0.0003013
 6,0.00000261,0.00016094,0.00009791,0.00065663,0.00049213,-0.00047605,-
 0.00128816,-0.00211396,0.00090798,-0.24606784,-0.03881091,0.25626736\\
 -0.00000020,-0.00000009,-0.00000017,-0.00000026,0.00000015,0.00000008,
 -0.00000057,0.00000061,0.00000007,0.00000110,0.00000022,-0.00000012,-0
 .00000132,0.00000093,-0.00000023,0.00000105,-0.00000095,0.00000034,-0.
 00000042,-0.00000145,-0.00000003,-0.00000038,-0.00000092,0.00000057,0.
 00000136,0.00000102,-0.00000025,0.00000164,-0.00000027,0.00000041,0.00
 000095,0.,-0.00000002,-0.00000074,0.00000164,-0.00000065,-0.00000201,0
 .00000071,-0.00000028,-0.00000136,0.00000059,-0.00000058,0.00000135,-0
 .00000117,0.00000043,0.00000060,-0.00000144,0.00000056,-0.00000081,0.0
 0000041,-0.00000013\\\@


 ... THE UNIVERSE IS NOT ONLY QUEERER THAN WE SUPPOSE,
 BUT QUEERER THAN WE CAN SUPPOSE ... 

                                   -- J. B. S. HALDANE
 Job cpu time:       0 days  3 hours 17 minutes 43.0 seconds.
 Elapsed time:       0 days  1 hours 39 minutes 14.1 seconds.
 File lengths (MBytes):  RWF=   1392 Int=      0 D2E=      0 Chk=     32 Scr=     32
 Normal termination of Gaussian 16 at Fri Sep 27 10:36:37 2019.
