 Entering Gaussian System, Link 0=g16
 Input=tight/species/CC(C)OC=CO/conformers/CC(C)OC=CO_64.com
 Output=tight/species/CC(C)OC=CO/conformers/CC(C)OC=CO_64.log
 Initial command:
 /shared/centos7/gaussian/g16/l1.exe "/scratch/harms.n/gauss_scrdir/Gau-32710.inp" -scrdir="/scratch/harms.n/gauss_scrdir/"
 Entering Link 1 = /shared/centos7/gaussian/g16/l1.exe PID=     32711.
  
 Copyright (c) 1988,1990,1992,1993,1995,1998,2003,2009,2016,
            Gaussian, Inc.  All Rights Reserved.
  
 This is part of the Gaussian(R) 16 program.  It is based on
 the Gaussian(R) 09 system (copyright 2009, Gaussian, Inc.),
 the Gaussian(R) 03 system (copyright 2003, Gaussian, Inc.),
 the Gaussian(R) 98 system (copyright 1998, Gaussian, Inc.),
 the Gaussian(R) 94 system (copyright 1995, Gaussian, Inc.),
 the Gaussian 92(TM) system (copyright 1992, Gaussian, Inc.),
 the Gaussian 90(TM) system (copyright 1990, Gaussian, Inc.),
 the Gaussian 88(TM) system (copyright 1988, Gaussian, Inc.),
 the Gaussian 86(TM) system (copyright 1986, Carnegie Mellon
 University), and the Gaussian 82(TM) system (copyright 1983,
 Carnegie Mellon University). Gaussian is a federally registered
 trademark of Gaussian, Inc.
  
 This software contains proprietary and confidential information,
 including trade secrets, belonging to Gaussian, Inc.
  
 This software is provided under written license and may be
 used, copied, transmitted, or stored only in accord with that
 written license.
  
 The following legend is applicable only to US Government
 contracts under FAR:
  
                    RESTRICTED RIGHTS LEGEND
  
 Use, reproduction and disclosure by the US Government is
 subject to restrictions as set forth in subparagraphs (a)
 and (c) of the Commercial Computer Software - Restricted
 Rights clause in FAR 52.227-19.
  
 Gaussian, Inc.
 340 Quinnipiac St., Bldg. 40, Wallingford CT 06492
  
  
 ---------------------------------------------------------------
 Warning -- This program may not be used in any manner that
 competes with the business of Gaussian, Inc. or will provide
 assistance to any competitor of Gaussian, Inc.  The licensee
 of this program is prohibited from giving any competitor of
 Gaussian, Inc. access to this program.  By using this program,
 the user acknowledges that Gaussian, Inc. is engaged in the
 business of creating and licensing software in the field of
 computational chemistry and represents and warrants to the
 licensee that it is not a competitor of Gaussian, Inc. and that
 it will not use this program in any manner prohibited above.
 ---------------------------------------------------------------
  

 Cite this work as:
 Gaussian 16, Revision A.03,
 M. J. Frisch, G. W. Trucks, H. B. Schlegel, G. E. Scuseria, 
 M. A. Robb, J. R. Cheeseman, G. Scalmani, V. Barone, 
 G. A. Petersson, H. Nakatsuji, X. Li, M. Caricato, A. V. Marenich, 
 J. Bloino, B. G. Janesko, R. Gomperts, B. Mennucci, H. P. Hratchian, 
 J. V. Ortiz, A. F. Izmaylov, J. L. Sonnenberg, D. Williams-Young, 
 F. Ding, F. Lipparini, F. Egidi, J. Goings, B. Peng, A. Petrone, 
 T. Henderson, D. Ranasinghe, V. G. Zakrzewski, J. Gao, N. Rega, 
 G. Zheng, W. Liang, M. Hada, M. Ehara, K. Toyota, R. Fukuda, 
 J. Hasegawa, M. Ishida, T. Nakajima, Y. Honda, O. Kitao, H. Nakai, 
 T. Vreven, K. Throssell, J. A. Montgomery, Jr., J. E. Peralta, 
 F. Ogliaro, M. J. Bearpark, J. J. Heyd, E. N. Brothers, K. N. Kudin, 
 V. N. Staroverov, T. A. Keith, R. Kobayashi, J. Normand, 
 K. Raghavachari, A. P. Rendell, J. C. Burant, S. S. Iyengar, 
 J. Tomasi, M. Cossi, J. M. Millam, M. Klene, C. Adamo, R. Cammi, 
 J. W. Ochterski, R. L. Martin, K. Morokuma, O. Farkas, 
 J. B. Foresman, and D. J. Fox, Gaussian, Inc., Wallingford CT, 2016.
 
 ******************************************
 Gaussian 16:  EM64L-G16RevA.03 25-Dec-2016
                27-Sep-2019 
 ******************************************
 %nprocshared=20
 Will use up to   20 processors via shared memory.
 %mem=5GB
 ----------------------------------------------------------------------
 #p m062x/cc-pVTZ opt=(calcfc,maxcycles=900,Tight) freq IOP(7/33=1,2/16
 =3) scf=(maxcycle=900)
 ----------------------------------------------------------------------
 1/6=900,7=10,10=4,18=20,19=15,26=3,38=1/1,3;
 2/9=110,12=2,16=3,17=6,18=5,40=1/2;
 3/5=16,6=1,11=2,25=1,30=1,71=2,74=-55,140=1/1,2,3;
 4//1;
 5/5=2,7=900,38=5/2;
 8/6=4,10=90,11=11/1;
 11/6=1,8=1,9=11,15=111,16=1/1,2,10;
 10/6=1,13=1/2;
 6/7=2,8=2,9=2,10=2,28=1/1;
 7/10=1,18=20,25=1,33=1/1,2,3,16;
 1/6=900,7=10,10=4,18=20,19=15,26=3/3(2);
 2/9=110,16=3/2;
 99//99;
 2/9=110,16=3/2;
 3/5=16,6=1,11=2,25=1,30=1,71=1,74=-55/1,2,3;
 4/5=5,16=3,69=1/1;
 5/5=2,7=900,38=5/2;
 7/33=1/1,2,3,16;
 1/6=900,7=10,18=20,19=15,26=3/3(-5);
 2/9=110,16=3/2;
 6/7=2,8=2,9=2,10=2,19=2,28=1/1;
 99/9=1/99;
 Leave Link    1 at Fri Sep 27 02:43:37 2019, MaxMem=   671088640 cpu:               3.8 elap:               1.9
 (Enter /shared/centos7/gaussian/g16/l101.exe)
 ------------------------------
 Gaussian input prepared by ASE
 ------------------------------
 Symbolic Z-matrix:
 Charge =  0 Multiplicity = 1
 O                    -0.11865  -1.47999   1.8597 
 O                     2.73526   0.51155   0.73753 
 C                    -0.9903   -0.46408   2.30918 
 C                    -1.51227   0.38386   1.14921 
 C                    -0.42073   0.34584   3.42708 
 C                     1.08194  -1.04208   1.34909 
 C                     1.4949    0.18957   1.26801 
 H                    -1.8672   -1.03159   2.7279 
 H                    -0.87275   0.25958   0.25044 
 H                    -2.53898   0.08227   0.87281 
 H                    -1.53167   1.47728   1.40747 
 H                     0.11184   1.26745   3.04804 
 H                     0.31307  -0.24194   4.01709 
 H                    -1.23484   0.68916   4.12631 
 H                     1.69959  -1.88644   1.00371 
 H                     0.91457   1.03215   1.61398 
 H                     2.83881   1.50339   0.82314 
 
 ITRead=  0  0  0  0  0  0  0  0  0  0  0  0  0  0  0  0  0
 MicOpt= -1 -1 -1 -1 -1 -1 -1 -1 -1 -1 -1 -1 -1 -1 -1 -1 -1
 NAtoms=     17 NQM=       17 NQMF=       0 NMMI=      0 NMMIF=      0
                NMic=       0 NMicF=      0.
                    Isotopes and Nuclear Properties:
 (Nuclear quadrupole moments (NQMom) in fm**2, nuclear magnetic moments (NMagM)
  in nuclear magnetons)

  Atom         1           2           3           4           5           6           7           8           9          10
 IAtWgt=          16          16          12          12          12          12          12           1           1           1
 AtmWgt=  15.9949146  15.9949146  12.0000000  12.0000000  12.0000000  12.0000000  12.0000000   1.0078250   1.0078250   1.0078250
 NucSpn=           0           0           0           0           0           0           0           1           1           1
 AtZEff=  -0.0000000  -0.0000000  -0.0000000  -0.0000000  -0.0000000  -0.0000000  -0.0000000  -0.0000000  -0.0000000  -0.0000000
 NQMom=    0.0000000   0.0000000   0.0000000   0.0000000   0.0000000   0.0000000   0.0000000   0.0000000   0.0000000   0.0000000
 NMagM=    0.0000000   0.0000000   0.0000000   0.0000000   0.0000000   0.0000000   0.0000000   2.7928460   2.7928460   2.7928460
 AtZNuc=   8.0000000   8.0000000   6.0000000   6.0000000   6.0000000   6.0000000   6.0000000   1.0000000   1.0000000   1.0000000

  Atom        11          12          13          14          15          16          17
 IAtWgt=           1           1           1           1           1           1           1
 AtmWgt=   1.0078250   1.0078250   1.0078250   1.0078250   1.0078250   1.0078250   1.0078250
 NucSpn=           1           1           1           1           1           1           1
 AtZEff=  -0.0000000  -0.0000000  -0.0000000  -0.0000000  -0.0000000  -0.0000000  -0.0000000
 NQMom=    0.0000000   0.0000000   0.0000000   0.0000000   0.0000000   0.0000000   0.0000000
 NMagM=    2.7928460   2.7928460   2.7928460   2.7928460   2.7928460   2.7928460   2.7928460
 AtZNuc=   1.0000000   1.0000000   1.0000000   1.0000000   1.0000000   1.0000000   1.0000000
 Leave Link  101 at Fri Sep 27 02:43:38 2019, MaxMem=   671088640 cpu:               2.4 elap:               1.2
 (Enter /shared/centos7/gaussian/g16/l103.exe)

 GradGradGradGradGradGradGradGradGradGradGradGradGradGradGradGradGradGrad
 Berny optimization.
 Initialization pass.
                           ----------------------------
                           !    Initial Parameters    !
                           ! (Angstroms and Degrees)  !
 --------------------------                            --------------------------
 ! Name  Definition              Value          Derivative Info.                !
 --------------------------------------------------------------------------------
 ! R1    R(1,3)                  1.412          calculate D2E/DX2 analytically  !
 ! R2    R(1,6)                  1.3762         calculate D2E/DX2 analytically  !
 ! R3    R(2,7)                  1.3869         calculate D2E/DX2 analytically  !
 ! R4    R(2,17)                 1.0009         calculate D2E/DX2 analytically  !
 ! R5    R(3,4)                  1.5287         calculate D2E/DX2 analytically  !
 ! R6    R(3,5)                  1.4933         calculate D2E/DX2 analytically  !
 ! R7    R(3,8)                  1.1253         calculate D2E/DX2 analytically  !
 ! R8    R(4,9)                  1.1101         calculate D2E/DX2 analytically  !
 ! R9    R(4,10)                 1.1052         calculate D2E/DX2 analytically  !
 ! R10   R(4,11)                 1.1237         calculate D2E/DX2 analytically  !
 ! R11   R(5,12)                 1.1299         calculate D2E/DX2 analytically  !
 ! R12   R(5,13)                 1.11           calculate D2E/DX2 analytically  !
 ! R13   R(5,14)                 1.1267         calculate D2E/DX2 analytically  !
 ! R14   R(6,7)                  1.3016         calculate D2E/DX2 analytically  !
 ! R15   R(6,15)                 1.1017         calculate D2E/DX2 analytically  !
 ! R16   R(7,16)                 1.08           calculate D2E/DX2 analytically  !
 ! A1    A(3,1,6)              115.3216         calculate D2E/DX2 analytically  !
 ! A2    A(7,2,17)             106.8495         calculate D2E/DX2 analytically  !
 ! A3    A(1,3,4)              111.6106         calculate D2E/DX2 analytically  !
 ! A4    A(1,3,5)              113.1446         calculate D2E/DX2 analytically  !
 ! A5    A(1,3,8)              103.6886         calculate D2E/DX2 analytically  !
 ! A6    A(4,3,5)              113.4164         calculate D2E/DX2 analytically  !
 ! A7    A(4,3,8)              107.2172         calculate D2E/DX2 analytically  !
 ! A8    A(5,3,8)              106.9885         calculate D2E/DX2 analytically  !
 ! A9    A(3,4,9)              110.827          calculate D2E/DX2 analytically  !
 ! A10   A(3,4,10)             110.8296         calculate D2E/DX2 analytically  !
 ! A11   A(3,4,11)             111.7919         calculate D2E/DX2 analytically  !
 ! A12   A(9,4,10)             107.5875         calculate D2E/DX2 analytically  !
 ! A13   A(9,4,11)             107.7577         calculate D2E/DX2 analytically  !
 ! A14   A(10,4,11)            107.8767         calculate D2E/DX2 analytically  !
 ! A15   A(3,5,12)             111.7789         calculate D2E/DX2 analytically  !
 ! A16   A(3,5,13)             111.2754         calculate D2E/DX2 analytically  !
 ! A17   A(3,5,14)             110.7469         calculate D2E/DX2 analytically  !
 ! A18   A(12,5,13)            107.3754         calculate D2E/DX2 analytically  !
 ! A19   A(12,5,14)            107.47           calculate D2E/DX2 analytically  !
 ! A20   A(13,5,14)            108.0077         calculate D2E/DX2 analytically  !
 ! A21   A(1,6,7)              126.9433         calculate D2E/DX2 analytically  !
 ! A22   A(1,6,15)             111.1948         calculate D2E/DX2 analytically  !
 ! A23   A(7,6,15)             121.8596         calculate D2E/DX2 analytically  !
 ! A24   A(2,7,6)              121.8209         calculate D2E/DX2 analytically  !
 ! A25   A(2,7,16)             114.9578         calculate D2E/DX2 analytically  !
 ! A26   A(6,7,16)             123.2173         calculate D2E/DX2 analytically  !
 ! D1    D(6,1,3,4)             67.7888         calculate D2E/DX2 analytically  !
 ! D2    D(6,1,3,5)            -61.5723         calculate D2E/DX2 analytically  !
 ! D3    D(6,1,3,8)           -177.1133         calculate D2E/DX2 analytically  !
 ! D4    D(3,1,6,7)              1.5419         calculate D2E/DX2 analytically  !
 ! D5    D(3,1,6,15)          -179.0069         calculate D2E/DX2 analytically  !
 ! D6    D(17,2,7,6)          -177.3927         calculate D2E/DX2 analytically  !
 ! D7    D(17,2,7,16)            1.8944         calculate D2E/DX2 analytically  !
 ! D8    D(1,3,4,9)            -18.3304         calculate D2E/DX2 analytically  !
 ! D9    D(1,3,4,10)           101.0509         calculate D2E/DX2 analytically  !
 ! D10   D(1,3,4,11)          -138.5633         calculate D2E/DX2 analytically  !
 ! D11   D(5,3,4,9)            110.8877         calculate D2E/DX2 analytically  !
 ! D12   D(5,3,4,10)          -129.7309         calculate D2E/DX2 analytically  !
 ! D13   D(5,3,4,11)            -9.3452         calculate D2E/DX2 analytically  !
 ! D14   D(8,3,4,9)           -131.2373         calculate D2E/DX2 analytically  !
 ! D15   D(8,3,4,10)           -11.8559         calculate D2E/DX2 analytically  !
 ! D16   D(8,3,4,11)           108.5298         calculate D2E/DX2 analytically  !
 ! D17   D(1,3,5,12)            92.9034         calculate D2E/DX2 analytically  !
 ! D18   D(1,3,5,13)           -27.1419         calculate D2E/DX2 analytically  !
 ! D19   D(1,3,5,14)          -147.2917         calculate D2E/DX2 analytically  !
 ! D20   D(4,3,5,12)           -35.53           calculate D2E/DX2 analytically  !
 ! D21   D(4,3,5,13)          -155.5752         calculate D2E/DX2 analytically  !
 ! D22   D(4,3,5,14)            84.2749         calculate D2E/DX2 analytically  !
 ! D23   D(8,3,5,12)          -153.5376         calculate D2E/DX2 analytically  !
 ! D24   D(8,3,5,13)            86.4171         calculate D2E/DX2 analytically  !
 ! D25   D(8,3,5,14)           -33.7327         calculate D2E/DX2 analytically  !
 ! D26   D(1,6,7,2)            179.6273         calculate D2E/DX2 analytically  !
 ! D27   D(1,6,7,16)             0.3999         calculate D2E/DX2 analytically  !
 ! D28   D(15,6,7,2)             0.2297         calculate D2E/DX2 analytically  !
 ! D29   D(15,6,7,16)         -178.9977         calculate D2E/DX2 analytically  !
 --------------------------------------------------------------------------------
 Trust Radius=3.00D-01 FncErr=1.00D-07 GrdErr=1.00D-06 EigMax=2.50D+02 EigMin=1.00D-04
 Number of steps in this run=    102 maximum allowed number of steps=    102.
 GradGradGradGradGradGradGradGradGradGradGradGradGradGradGradGradGradGrad

 Leave Link  103 at Fri Sep 27 02:43:39 2019, MaxMem=   671088640 cpu:               1.5 elap:               0.7
 (Enter /shared/centos7/gaussian/g16/l202.exe)
                          Input orientation:                          
 ---------------------------------------------------------------------
 Center     Atomic      Atomic             Coordinates (Angstroms)
 Number     Number       Type             X           Y           Z
 ---------------------------------------------------------------------
      1          8           0       -0.118646   -1.479990    1.859701
      2          8           0        2.735262    0.511555    0.737528
      3          6           0       -0.990299   -0.464085    2.309185
      4          6           0       -1.512268    0.383863    1.149208
      5          6           0       -0.420735    0.345839    3.427080
      6          6           0        1.081939   -1.042075    1.349094
      7          6           0        1.494897    0.189567    1.268007
      8          1           0       -1.867202   -1.031591    2.727903
      9          1           0       -0.872749    0.259577    0.250442
     10          1           0       -2.538979    0.082274    0.872814
     11          1           0       -1.531673    1.477276    1.407474
     12          1           0        0.111842    1.267454    3.048038
     13          1           0        0.313075   -0.241944    4.017088
     14          1           0       -1.234837    0.689162    4.126315
     15          1           0        1.699595   -1.886437    1.003709
     16          1           0        0.914573    1.032153    1.613977
     17          1           0        2.838806    1.503387    0.823144
 ---------------------------------------------------------------------
                    Distance matrix (angstroms):
                    1          2          3          4          5
     1  O    0.000000
     2  O    3.656544   0.000000
     3  C    1.412047   4.159541   0.000000
     4  C    2.433296   4.269343   1.528729   0.000000
     5  C    2.425198   4.149876   1.493342   2.526181   0.000000
     6  C    1.376189   2.349735   2.355848   2.967013   2.915881
     7  C    2.396048   1.386935   2.772636   3.015776   2.890617
     8  H    2.003068   5.246481   1.125320   2.149829   2.116230
     9  H    2.486861   3.649450   2.185389   1.110050   3.209796
    10  H    3.045099   5.293411   2.181761   1.105209   3.328769
    11  H    3.308561   4.425853   2.207951   1.123668   2.567712
    12  H    3.002285   3.576615   2.181478   2.650287   1.129905
    13  H    2.524571   4.146115   2.159876   3.456624   1.109989
    14  H    3.329960   5.222748   2.166042   3.005552   1.126748
    15  H    2.050347   2.625609   3.311025   3.935923   3.918110
    16  H    2.727414   2.086646   2.520036   2.554574   2.354022
    17  H    4.326836   1.000891   4.554263   4.504608   4.329551
                    6          7          8          9         10
     6  C    0.000000
     7  C    1.301558   0.000000
     8  H    3.255558   3.863448   0.000000
     9  H    2.592709   2.578000   2.965445   0.000000
    10  H    3.821264   4.054608   2.265687   1.787486   0.000000
    11  H    3.630634   3.292077   2.854912   1.804354   1.801821
    12  H    3.026784   2.498638   3.050362   3.132376   3.628099
    13  H    2.889560   3.023302   2.653139   3.980619   4.257440
    14  H    4.009687   3.983838   2.305739   3.916381   3.557298
    15  H    1.101697   2.102748   4.052857   3.433619   4.675304
    16  H    2.097760   1.080011   3.638426   2.377103   3.657679
    17  H    3.137289   1.931351   5.674569   3.956095   5.562608
                   11         12         13         14         15
    11  H    0.000000
    12  H    2.331655   0.000000
    13  H    3.628898   1.804948   0.000000
    14  H    2.846284   1.819518   1.809674   0.000000
    15  H    4.681739   4.080107   3.702331   4.999527   0.000000
    16  H    2.494974   1.660203   2.785690   3.324071   3.083319
    17  H    4.409446   3.527343   4.430212   5.307397   3.580686
                   16         17
    16  H    0.000000
    17  H    2.133108   0.000000
 Stoichiometry    C5H10O2
 Framework group  C1[X(C5H10O2)]
 Deg. of freedom    45
 Full point group                 C1      NOp   1
 Largest Abelian subgroup         C1      NOp   1
 Largest concise Abelian subgroup C1      NOp   1
                         Standard orientation:                         
 ---------------------------------------------------------------------
 Center     Atomic      Atomic             Coordinates (Angstroms)
 Number     Number       Type             X           Y           Z
 ---------------------------------------------------------------------
      1          8           0       -0.551610    1.262678   -0.265636
      2          8           0        2.686463   -0.390442    0.124738
      3          6           0       -1.429502    0.171007   -0.088326
      4          6           0       -1.402895   -0.344960    1.350452
      5          6           0       -1.242705   -0.904025   -1.107877
      6          6           0        0.787776    0.963502   -0.163499
      7          6           0        1.313704   -0.208122    0.048044
      8          1           0       -2.447738    0.616941   -0.263491
      9          1           0       -0.490135    0.003007    1.877709
     10          1           0       -2.277064    0.024673    1.916743
     11          1           0       -1.415175   -1.467821    1.391229
     12          1           0       -0.524496   -1.699980   -0.751062
     13          1           0       -0.838022   -0.493555   -2.056465
     14          1           0       -2.222454   -1.410870   -1.337578
     15          1           0        1.408272    1.864267   -0.295191
     16          1           0        0.727322   -1.107573    0.164515
     17          1           0        2.842404   -1.371394    0.248018
 ---------------------------------------------------------------------
 Rotational constants (GHZ):           4.2203679           1.6872758           1.6281344
 Leave Link  202 at Fri Sep 27 02:43:41 2019, MaxMem=   671088640 cpu:               3.7 elap:               1.9
 (Enter /shared/centos7/gaussian/g16/l301.exe)
 Standard basis: CC-pVTZ (5D, 7F)
 Ernie: Thresh=  0.10000D-02 Tol=  0.10000D-05 Strict=F.
 Ernie:  21 primitive shells out of 262 were deleted.
 There are   395 symmetry adapted cartesian basis functions of A   symmetry.
 There are   350 symmetry adapted basis functions of A   symmetry.
   350 basis functions,   534 primitive gaussians,   395 cartesian basis functions
    28 alpha electrons       28 beta electrons
       nuclear repulsion energy       322.5838439015 Hartrees.
 IExCor= 4336 DFT=T Ex+Corr=M062X ExCW=0 ScaHFX=  0.540000
 ScaDFX=  1.000000  1.000000  1.000000  1.000000 ScalE2=  1.000000  1.000000
 IRadAn=      5 IRanWt=     -1 IRanGd=            0 ICorTp=0 IEmpDi=  4
 NAtoms=   17 NActive=   17 NUniq=   17 SFac= 1.00D+00 NAtFMM=   60 NAOKFM=F Big=F
 Integral buffers will be    131072 words long.
 Raffenetti 2 integral format.
 Two-electron integral symmetry is turned on.
 Leave Link  301 at Fri Sep 27 02:43:42 2019, MaxMem=   671088640 cpu:               1.6 elap:               0.8
 (Enter /shared/centos7/gaussian/g16/l302.exe)
 NPDir=0 NMtPBC=     1 NCelOv=     1 NCel=       1 NClECP=     1 NCelD=      1
         NCelK=      1 NCelE2=     1 NClLst=     1 CellRange=     0.0.
 One-electron integrals computed using PRISM.
 One-electron integral symmetry used in STVInt
 NBasis=   350 RedAO= T EigKep=  2.79D-04  NBF=   350
 NBsUse=   350 1.00D-06 EigRej= -1.00D+00 NBFU=   350
 Precomputing XC quadrature grid using
 IXCGrd= 4 IRadAn=           5 IRanWt=          -1 IRanGd=           0 AccXCQ= 0.00D+00.
 Generated NRdTot=       0 NPtTot=           0 NUsed=           0 NTot=          32
 NSgBfM=   395   395   395   395   395 MxSgAt=    17 MxSgA2=    17.
 Leave Link  302 at Fri Sep 27 02:44:38 2019, MaxMem=   671088640 cpu:             112.1 elap:              56.1
 (Enter /shared/centos7/gaussian/g16/l303.exe)
 DipDrv:  MaxL=1.
 Leave Link  303 at Fri Sep 27 02:44:42 2019, MaxMem=   671088640 cpu:               8.8 elap:               4.4
 (Enter /shared/centos7/gaussian/g16/l401.exe)
 ExpMin= 1.03D-01 ExpMax= 1.53D+04 ExpMxC= 5.22D+02 IAcc=3 IRadAn=         5 AccDes= 0.00D+00
 Harris functional with IExCor= 1009 and IRadAn=       5 diagonalized for initial guess.
 HarFok:  IExCor= 1009 AccDes= 0.00D+00 IRadAn=         5 IDoV= 1 UseB2=F ITyADJ=14
 ICtDFT=  3500011 ScaDFX=  1.000000  1.000000  1.000000  1.000000
 FoFCou: FMM=F IPFlag=           0 FMFlag=      100000 FMFlg1=           0
         NFxFlg=           0 DoJE=T BraDBF=F KetDBF=T FulRan=T
         wScrn=  0.000000 ICntrl=       500 IOpCl=  0 I1Cent=   200000004 NGrid=           0
         NMat0=    1 NMatS0=      1 NMatT0=    0 NMatD0=    1 NMtDS0=    0 NMtDT0=    0
 Petite list used in FoFCou.
 Harris En= -346.796508637325    
 JPrj=0 DoOrth=F DoCkMO=F.
 Leave Link  401 at Fri Sep 27 02:45:12 2019, MaxMem=   671088640 cpu:              60.0 elap:              30.0
 (Enter /shared/centos7/gaussian/g16/l502.exe)
 Integral symmetry usage will be decided dynamically.
 Closed shell SCF:
 Using DIIS extrapolation, IDIIS=  1040.
 NGot=   671088640 LenX=   670765141 LenY=   670608675
 Requested convergence on RMS density matrix=1.00D-08 within 900 cycles.
 Requested convergence on MAX density matrix=1.00D-06.
 Requested convergence on             energy=1.00D-06.
 No special actions if energy rises.
 Fock matrices will be formed incrementally for  20 cycles.
 Integral accuracy reduced to 1.0D-05 until final iterations.

 Cycle   1  Pass 0  IDiag  1:
 FoFJK:  IHMeth= 1 ICntrl=       0 DoSepK=F KAlg= 0 I1Cent=           0 FoldK=F
 IRaf= 970000000 NMat=       1 IRICut=       1 DoRegI=T DoRafI=F ISym2E= 0 IDoP0=0 IntGTp=1.
 FoFCou: FMM=F IPFlag=           0 FMFlag=      100000 FMFlg1=           0
         NFxFlg=           0 DoJE=F BraDBF=F KetDBF=F FulRan=T
         wScrn=  0.000000 ICntrl=         0 IOpCl=  0 I1Cent=           0 NGrid=           0
         NMat0=    1 NMatS0=      1 NMatT0=    0 NMatD0=    1 NMtDS0=    0 NMtDT0=    0
 Symmetry not used in FoFCou.
 E= -346.687400878376    
 DIIS: error= 2.09D-02 at cycle   1 NSaved=   1.
 NSaved= 1 IEnMin= 1 EnMin= -346.687400878376     IErMin= 1 ErrMin= 2.09D-02
 ErrMax= 2.09D-02  0.00D+00 EMaxC= 1.00D-01 BMatC= 2.86D-01 BMatP= 2.86D-01
 IDIUse=3 WtCom= 7.91D-01 WtEn= 2.09D-01
 Coeff-Com:  0.100D+01
 Coeff-En:   0.100D+01
 Coeff:      0.100D+01
 Gap=     0.345 Goal=   None    Shift=    0.000
 GapD=    0.345 DampG=1.000 DampE=0.500 DampFc=0.5000 IDamp=-1.
 Damping current iteration by 5.00D-01
 RMSDP=1.97D-03 MaxDP=1.01D-01              OVMax= 1.35D-01

 Cycle   2  Pass 0  IDiag  1:
 RMSU=  9.83D-04    CP:  9.99D-01
 E= -346.805735325931     Delta-E=       -0.118334447555 Rises=F Damp=T
 DIIS: error= 5.17D-03 at cycle   2 NSaved=   2.
 NSaved= 2 IEnMin= 2 EnMin= -346.805735325931     IErMin= 2 ErrMin= 5.17D-03
 ErrMax= 5.17D-03  0.00D+00 EMaxC= 1.00D-01 BMatC= 2.13D-02 BMatP= 2.86D-01
 IDIUse=3 WtCom= 9.48D-01 WtEn= 5.17D-02
 Coeff-Com: -0.129D+00 0.113D+01
 Coeff-En:   0.000D+00 0.100D+01
 Coeff:     -0.122D+00 0.112D+01
 Gap=     0.311 Goal=   None    Shift=    0.000
 RMSDP=4.45D-04 MaxDP=1.62D-02 DE=-1.18D-01 OVMax= 6.99D-02

 Cycle   3  Pass 0  IDiag  1:
 RMSU=  4.43D-04    CP:  1.00D+00  9.73D-01
 E= -346.913291643383     Delta-E=       -0.107556317452 Rises=F Damp=F
 DIIS: error= 2.41D-03 at cycle   3 NSaved=   3.
 NSaved= 3 IEnMin= 3 EnMin= -346.913291643383     IErMin= 3 ErrMin= 2.41D-03
 ErrMax= 2.41D-03  0.00D+00 EMaxC= 1.00D-01 BMatC= 3.00D-03 BMatP= 2.13D-02
 IDIUse=3 WtCom= 9.76D-01 WtEn= 2.41D-02
 Coeff-Com: -0.776D-01 0.284D+00 0.794D+00
 Coeff-En:   0.000D+00 0.000D+00 0.100D+01
 Coeff:     -0.757D-01 0.277D+00 0.799D+00
 Gap=     0.309 Goal=   None    Shift=    0.000
 RMSDP=1.13D-04 MaxDP=5.39D-03 DE=-1.08D-01 OVMax= 1.06D-02

 Cycle   4  Pass 0  IDiag  1:
 RMSU=  9.78D-05    CP:  1.00D+00  1.02D+00  9.39D-01
 E= -346.914954062469     Delta-E=       -0.001662419087 Rises=F Damp=F
 DIIS: error= 1.34D-03 at cycle   4 NSaved=   4.
 NSaved= 4 IEnMin= 4 EnMin= -346.914954062469     IErMin= 4 ErrMin= 1.34D-03
 ErrMax= 1.34D-03  0.00D+00 EMaxC= 1.00D-01 BMatC= 7.38D-04 BMatP= 3.00D-03
 IDIUse=3 WtCom= 9.87D-01 WtEn= 1.34D-02
 Coeff-Com: -0.270D-01 0.712D-01 0.382D+00 0.574D+00
 Coeff-En:   0.000D+00 0.000D+00 0.111D+00 0.889D+00
 Coeff:     -0.266D-01 0.702D-01 0.378D+00 0.578D+00
 Gap=     0.305 Goal=   None    Shift=    0.000
 RMSDP=4.79D-05 MaxDP=1.96D-03 DE=-1.66D-03 OVMax= 6.05D-03

 Cycle   5  Pass 0  IDiag  1:
 RMSU=  2.86D-05    CP:  1.00D+00  1.03D+00  9.57D-01  6.19D-01
 E= -346.915449894137     Delta-E=       -0.000495831667 Rises=F Damp=F
 DIIS: error= 2.30D-04 at cycle   5 NSaved=   5.
 NSaved= 5 IEnMin= 5 EnMin= -346.915449894137     IErMin= 5 ErrMin= 2.30D-04
 ErrMax= 2.30D-04  0.00D+00 EMaxC= 1.00D-01 BMatC= 3.23D-05 BMatP= 7.38D-04
 IDIUse=3 WtCom= 9.98D-01 WtEn= 2.30D-03
 Coeff-Com: -0.531D-02 0.105D-01 0.100D+00 0.239D+00 0.656D+00
 Coeff-En:   0.000D+00 0.000D+00 0.000D+00 0.000D+00 0.100D+01
 Coeff:     -0.530D-02 0.105D-01 0.100D+00 0.238D+00 0.657D+00
 Gap=     0.306 Goal=   None    Shift=    0.000
 RMSDP=1.45D-05 MaxDP=4.10D-04 DE=-4.96D-04 OVMax= 1.86D-03

 Cycle   6  Pass 0  IDiag  1:
 RMSU=  8.69D-06    CP:  1.00D+00  1.02D+00  9.68D-01  6.75D-01  7.40D-01
 E= -346.915473099314     Delta-E=       -0.000023205178 Rises=F Damp=F
 DIIS: error= 6.55D-05 at cycle   6 NSaved=   6.
 NSaved= 6 IEnMin= 6 EnMin= -346.915473099314     IErMin= 6 ErrMin= 6.55D-05
 ErrMax= 6.55D-05  0.00D+00 EMaxC= 1.00D-01 BMatC= 2.49D-06 BMatP= 3.23D-05
 IDIUse=1 WtCom= 1.00D+00 WtEn= 0.00D+00
 Coeff-Com: -0.198D-03-0.818D-03 0.162D-01 0.627D-01 0.276D+00 0.646D+00
 Coeff:     -0.198D-03-0.818D-03 0.162D-01 0.627D-01 0.276D+00 0.646D+00
 Gap=     0.306 Goal=   None    Shift=    0.000
 RMSDP=3.97D-06 MaxDP=1.62D-04 DE=-2.32D-05 OVMax= 6.17D-04

 Initial convergence to 1.0D-05 achieved.  Increase integral accuracy.
 Cycle   7  Pass 1  IDiag  1:
 E= -346.915469216583     Delta-E=        0.000003882731 Rises=F Damp=F
 DIIS: error= 2.93D-05 at cycle   1 NSaved=   1.
 NSaved= 1 IEnMin= 1 EnMin= -346.915469216583     IErMin= 1 ErrMin= 2.93D-05
 ErrMax= 2.93D-05  0.00D+00 EMaxC= 1.00D-01 BMatC= 7.04D-07 BMatP= 7.04D-07
 IDIUse=1 WtCom= 1.00D+00 WtEn= 0.00D+00
 Coeff-Com:  0.100D+01
 Coeff:      0.100D+01
 Gap=     0.306 Goal=   None    Shift=    0.000
 RMSDP=3.97D-06 MaxDP=1.62D-04 DE= 3.88D-06 OVMax= 3.86D-04

 Cycle   8  Pass 1  IDiag  1:
 RMSU=  6.60D-06    CP:  1.00D+00
 E= -346.915469400550     Delta-E=       -0.000000183966 Rises=F Damp=F
 DIIS: error= 2.36D-05 at cycle   2 NSaved=   2.
 NSaved= 2 IEnMin= 2 EnMin= -346.915469400550     IErMin= 2 ErrMin= 2.36D-05
 ErrMax= 2.36D-05  0.00D+00 EMaxC= 1.00D-01 BMatC= 3.67D-07 BMatP= 7.04D-07
 IDIUse=1 WtCom= 1.00D+00 WtEn= 0.00D+00
 Coeff-Com:  0.391D+00 0.609D+00
 Coeff:      0.391D+00 0.609D+00
 Gap=     0.306 Goal=   None    Shift=    0.000
 RMSDP=1.82D-06 MaxDP=8.06D-05 DE=-1.84D-07 OVMax= 2.98D-04

 Cycle   9  Pass 1  IDiag  1:
 RMSU=  1.80D-06    CP:  1.00D+00  9.60D-01
 E= -346.915469639565     Delta-E=       -0.000000239015 Rises=F Damp=F
 DIIS: error= 1.15D-05 at cycle   3 NSaved=   3.
 NSaved= 3 IEnMin= 3 EnMin= -346.915469639565     IErMin= 3 ErrMin= 1.15D-05
 ErrMax= 1.15D-05  0.00D+00 EMaxC= 1.00D-01 BMatC= 8.05D-08 BMatP= 3.67D-07
 IDIUse=1 WtCom= 1.00D+00 WtEn= 0.00D+00
 Coeff-Com: -0.131D-01 0.313D+00 0.700D+00
 Coeff:     -0.131D-01 0.313D+00 0.700D+00
 Gap=     0.306 Goal=   None    Shift=    0.000
 RMSDP=6.06D-07 MaxDP=2.47D-05 DE=-2.39D-07 OVMax= 1.02D-04

 Cycle  10  Pass 1  IDiag  1:
 RMSU=  2.66D-07    CP:  1.00D+00  1.01D+00  7.56D-01
 E= -346.915469702764     Delta-E=       -0.000000063200 Rises=F Damp=F
 DIIS: error= 1.84D-06 at cycle   4 NSaved=   4.
 NSaved= 4 IEnMin= 4 EnMin= -346.915469702764     IErMin= 4 ErrMin= 1.84D-06
 ErrMax= 1.84D-06  0.00D+00 EMaxC= 1.00D-01 BMatC= 2.24D-09 BMatP= 8.05D-08
 IDIUse=1 WtCom= 1.00D+00 WtEn= 0.00D+00
 Coeff-Com: -0.147D-01 0.126D+00 0.315D+00 0.574D+00
 Coeff:     -0.147D-01 0.126D+00 0.315D+00 0.574D+00
 Gap=     0.306 Goal=   None    Shift=    0.000
 RMSDP=9.22D-08 MaxDP=4.39D-06 DE=-6.32D-08 OVMax= 8.47D-06

 Cycle  11  Pass 1  IDiag  1:
 RMSU=  8.63D-08    CP:  1.00D+00  1.01D+00  7.68D-01  9.62D-01
 E= -346.915469704508     Delta-E=       -0.000000001744 Rises=F Damp=F
 DIIS: error= 3.77D-07 at cycle   5 NSaved=   5.
 NSaved= 5 IEnMin= 5 EnMin= -346.915469704508     IErMin= 5 ErrMin= 3.77D-07
 ErrMax= 3.77D-07  0.00D+00 EMaxC= 1.00D-01 BMatC= 9.36D-11 BMatP= 2.24D-09
 IDIUse=1 WtCom= 1.00D+00 WtEn= 0.00D+00
 Coeff-Com: -0.216D-02-0.823D-02-0.226D-02 0.126D+00 0.887D+00
 Coeff:     -0.216D-02-0.823D-02-0.226D-02 0.126D+00 0.887D+00
 Gap=     0.306 Goal=   None    Shift=    0.000
 RMSDP=3.55D-08 MaxDP=1.41D-06 DE=-1.74D-09 OVMax= 2.76D-06

 Cycle  12  Pass 1  IDiag  1:
 RMSU=  2.10D-08    CP:  1.00D+00  1.01D+00  7.76D-01  1.05D+00  1.08D+00
 E= -346.915469704586     Delta-E=       -0.000000000077 Rises=F Damp=F
 DIIS: error= 2.19D-07 at cycle   6 NSaved=   6.
 NSaved= 6 IEnMin= 6 EnMin= -346.915469704586     IErMin= 6 ErrMin= 2.19D-07
 ErrMax= 2.19D-07  0.00D+00 EMaxC= 1.00D-01 BMatC= 1.96D-11 BMatP= 9.36D-11
 IDIUse=1 WtCom= 1.00D+00 WtEn= 0.00D+00
 Coeff-Com:  0.687D-03-0.173D-01-0.335D-01-0.656D-02 0.381D+00 0.676D+00
 Coeff:      0.687D-03-0.173D-01-0.335D-01-0.656D-02 0.381D+00 0.676D+00
 Gap=     0.306 Goal=   None    Shift=    0.000
 RMSDP=1.21D-08 MaxDP=4.87D-07 DE=-7.74D-11 OVMax= 1.21D-06

 Cycle  13  Pass 1  IDiag  1:
 RMSU=  8.74D-09    CP:  1.00D+00  1.01D+00  7.78D-01  1.06D+00  1.13D+00
                    CP:  9.53D-01
 E= -346.915469704598     Delta-E=       -0.000000000013 Rises=F Damp=F
 DIIS: error= 4.41D-08 at cycle   7 NSaved=   7.
 NSaved= 7 IEnMin= 7 EnMin= -346.915469704598     IErMin= 7 ErrMin= 4.41D-08
 ErrMax= 4.41D-08  0.00D+00 EMaxC= 1.00D-01 BMatC= 1.31D-12 BMatP= 1.96D-11
 IDIUse=1 WtCom= 1.00D+00 WtEn= 0.00D+00
 Coeff-Com:  0.401D-03-0.575D-02-0.117D-01-0.119D-01 0.711D-01 0.254D+00
 Coeff-Com:  0.704D+00
 Coeff:      0.401D-03-0.575D-02-0.117D-01-0.119D-01 0.711D-01 0.254D+00
 Coeff:      0.704D+00
 Gap=     0.306 Goal=   None    Shift=    0.000
 RMSDP=3.14D-09 MaxDP=1.42D-07 DE=-1.25D-11 OVMax= 3.21D-07

 SCF Done:  E(RM062X) =  -346.915469705     A.U. after   13 cycles
            NFock= 13  Conv=0.31D-08     -V/T= 2.0061
 KE= 3.448200325346D+02 PE=-1.455208142079D+03 EE= 4.408887959387D+02
 Leave Link  502 at Fri Sep 27 02:55:45 2019, MaxMem=   671088640 cpu:            1265.8 elap:             633.0
 (Enter /shared/centos7/gaussian/g16/l801.exe)
 DoSCS=F DFT=T ScalE2(SS,OS)=  1.000000  1.000000
 Range of M.O.s used for correlation:     1   350
 NBasis=   350 NAE=    28 NBE=    28 NFC=     0 NFV=     0
 NROrb=    350 NOA=    28 NOB=    28 NVA=   322 NVB=   322

 **** Warning!!: The largest alpha MO coefficient is  0.11168072D+02

 Leave Link  801 at Fri Sep 27 02:55:46 2019, MaxMem=   671088640 cpu:               1.6 elap:               0.8
 (Enter /shared/centos7/gaussian/g16/l1101.exe)
 Using compressed storage, NAtomX=    17.
 Will process     18 centers per pass.
 Leave Link 1101 at Fri Sep 27 02:56:17 2019, MaxMem=   671088640 cpu:              61.4 elap:              30.7
 (Enter /shared/centos7/gaussian/g16/l1102.exe)
 Symmetrizing basis deriv contribution to polar:
 IMax=3 JMax=2 DiffMx= 0.00D+00
 Leave Link 1102 at Fri Sep 27 02:56:19 2019, MaxMem=   671088640 cpu:               4.4 elap:               2.2
 (Enter /shared/centos7/gaussian/g16/l1110.exe)
 Forming Gx(P) for the SCF density, NAtomX=    17.
 Integral derivatives from FoFJK, PRISM(SPDF).
 Do as many integral derivatives as possible in FoFJK.
 G2DrvN: MDV=     671087280.
 G2DrvN: will do    18 centers at a time, making    1 passes.
 Calling FoFCou, ICntrl=  3107 FMM=F I1Cent=   0 AccDes= 0.00D+00.
 FoFJK:  IHMeth= 1 ICntrl=    3107 DoSepK=F KAlg= 0 I1Cent=           0 FoldK=F
 IRaf=         0 NMat=       1 IRICut=       1 DoRegI=T DoRafI=F ISym2E= 0 IDoP0=0 IntGTp=1.
 FoFCou: FMM=F IPFlag=           0 FMFlag=      100000 FMFlg1=           0
         NFxFlg=           0 DoJE=F BraDBF=F KetDBF=F FulRan=T
         wScrn=  0.000000 ICntrl=      3107 IOpCl=  0 I1Cent=           0 NGrid=           0
         NMat0=    1 NMatS0=      1 NMatT0=    0 NMatD0=    1 NMtDS0=    0 NMtDT0=    0
 Symmetry not used in FoFCou.
 End of G2Drv F.D. properties file   721 does not exist.
 End of G2Drv F.D. properties file   722 does not exist.
 End of G2Drv F.D. properties file   788 does not exist.
 Leave Link 1110 at Fri Sep 27 03:15:34 2019, MaxMem=   671088640 cpu:            2309.9 elap:            1155.1
 (Enter /shared/centos7/gaussian/g16/l1002.exe)
 Minotr:  Closed shell wavefunction.
          IDoAtm=11111111111111111
          Direct CPHF calculation.
          Differentiating once with respect to nuclear coordinates.
          Requested convergence is 1.0D-08 RMS, and 1.0D-07 maximum.
          Secondary convergence is 1.0D-12 RMS, and 1.0D-12 maximum.
          NewPWx=T KeepS1=F KeepF1=F KeepIn=T MapXYZ=F SortEE=F KeepMc=T.
         5088 words used for storage of precomputed grid.
 Two-electron integrals replicated using symmetry.
          MDV=     671088640 using IRadAn=       1.
          Solving linear equations simultaneously, MaxMat=     380.
 FoF2E skips out because all densities are zero.
 CalDSu exits because no D1Ps are significant.
 FoFJK:  IHMeth= 1 ICntrl=       0 DoSepK=F KAlg= 0 I1Cent=           0 FoldK=F
 IRaf= 960000000 NMat=      51 IRICut=     127 DoRegI=T DoRafI=T ISym2E= 2 IDoP0=3 IntGTp=3.
 FoFCou: FMM=F IPFlag=           0 FMFlag=      100000 FMFlg1=           0
         NFxFlg=           0 DoJE=F BraDBF=F KetDBF=F FulRan=T
         wScrn=  0.000000 ICntrl=         0 IOpCl=  0 I1Cent=           0 NGrid=           0
         NMat0=   51 NMatS0=     51 NMatT0=    0 NMatD0=   51 NMtDS0=    0 NMtDT0=    0
 Integrals replicated using symmetry in FoFCou.
 Raff kept on since  93.38% of shell-pairs survive, threshold=   0.20 IRatSp=93.
          There are    54 degrees of freedom in the 1st order CPHF.  IDoFFX=6 NUNeed=     0.
     48 vectors produced by pass  0 Test12= 1.67D-14 1.85D-09 XBig12= 7.65D-02 6.85D-02.
 AX will form    48 AO Fock derivatives at one time.
     48 vectors produced by pass  1 Test12= 1.67D-14 1.85D-09 XBig12= 6.30D-03 3.16D-02.
     48 vectors produced by pass  2 Test12= 1.67D-14 1.85D-09 XBig12= 1.95D-04 2.96D-03.
     48 vectors produced by pass  3 Test12= 1.67D-14 1.85D-09 XBig12= 2.16D-06 2.02D-04.
     48 vectors produced by pass  4 Test12= 1.67D-14 1.85D-09 XBig12= 1.43D-08 1.85D-05.
     48 vectors produced by pass  5 Test12= 1.67D-14 1.85D-09 XBig12= 7.84D-11 1.02D-06.
     30 vectors produced by pass  6 Test12= 1.67D-14 1.85D-09 XBig12= 4.05D-13 5.40D-08.
      6 vectors produced by pass  7 Test12= 1.67D-14 1.85D-09 XBig12= 1.68D-15 5.12D-09.
 InvSVY:  IOpt=1 It=  1 EMax= 3.33D-16
 Solved reduced A of dimension   324 with    54 vectors.
 End of Minotr F.D. properties file   721 does not exist.
 End of Minotr F.D. properties file   722 does not exist.
 End of Minotr F.D. properties file   788 does not exist.
 Leave Link 1002 at Fri Sep 27 03:48:32 2019, MaxMem=   671088640 cpu:            3955.0 elap:            1977.7
 (Enter /shared/centos7/gaussian/g16/l601.exe)
 Copying SCF densities to generalized density rwf, IOpCl= 0 IROHF=0.

 **********************************************************************

            Population analysis using the SCF density.

 **********************************************************************

 Orbital symmetries:
       Occupied  (A) (A) (A) (A) (A) (A) (A) (A) (A) (A) (A) (A)
                 (A) (A) (A) (A) (A) (A) (A) (A) (A) (A) (A) (A)
                 (A) (A) (A) (A)
       Virtual   (A) (A) (A) (A) (A) (A) (A) (A) (A) (A) (A) (A)
                 (A) (A) (A) (A) (A) (A) (A) (A) (A) (A) (A) (A)
                 (A) (A) (A) (A) (A) (A) (A) (A) (A) (A) (A) (A)
                 (A) (A) (A) (A) (A) (A) (A) (A) (A) (A) (A) (A)
                 (A) (A) (A) (A) (A) (A) (A) (A) (A) (A) (A) (A)
                 (A) (A) (A) (A) (A) (A) (A) (A) (A) (A) (A) (A)
                 (A) (A) (A) (A) (A) (A) (A) (A) (A) (A) (A) (A)
                 (A) (A) (A) (A) (A) (A) (A) (A) (A) (A) (A) (A)
                 (A) (A) (A) (A) (A) (A) (A) (A) (A) (A) (A) (A)
                 (A) (A) (A) (A) (A) (A) (A) (A) (A) (A) (A) (A)
                 (A) (A) (A) (A) (A) (A) (A) (A) (A) (A) (A) (A)
                 (A) (A) (A) (A) (A) (A) (A) (A) (A) (A) (A) (A)
                 (A) (A) (A) (A) (A) (A) (A) (A) (A) (A) (A) (A)
                 (A) (A) (A) (A) (A) (A) (A) (A) (A) (A) (A) (A)
                 (A) (A) (A) (A) (A) (A) (A) (A) (A) (A) (A) (A)
                 (A) (A) (A) (A) (A) (A) (A) (A) (A) (A) (A) (A)
                 (A) (A) (A) (A) (A) (A) (A) (A) (A) (A) (A) (A)
                 (A) (A) (A) (A) (A) (A) (A) (A) (A) (A) (A) (A)
                 (A) (A) (A) (A) (A) (A) (A) (A) (A) (A) (A) (A)
                 (A) (A) (A) (A) (A) (A) (A) (A) (A) (A) (A) (A)
                 (A) (A) (A) (A) (A) (A) (A) (A) (A) (A) (A) (A)
                 (A) (A) (A) (A) (A) (A) (A) (A) (A) (A) (A) (A)
                 (A) (A) (A) (A) (A) (A) (A) (A) (A) (A) (A) (A)
                 (A) (A) (A) (A) (A) (A) (A) (A) (A) (A) (A) (A)
                 (A) (A) (A) (A) (A) (A) (A) (A) (A) (A) (A) (A)
                 (A) (A) (A) (A) (A) (A) (A) (A) (A) (A) (A) (A)
                 (A) (A) (A) (A) (A) (A) (A) (A) (A) (A)
 The electronic state is 1-A.
 Alpha  occ. eigenvalues --  -19.64515 -19.64328 -10.59719 -10.57619 -10.57460
 Alpha  occ. eigenvalues --  -10.53745 -10.53413  -1.18241  -1.15860  -0.88979
 Alpha  occ. eigenvalues --   -0.84701  -0.78449  -0.70776  -0.64660  -0.60823
 Alpha  occ. eigenvalues --   -0.56660  -0.54273  -0.52555  -0.49810  -0.48376
 Alpha  occ. eigenvalues --   -0.47404  -0.45448  -0.44353  -0.42217  -0.39860
 Alpha  occ. eigenvalues --   -0.38928  -0.37734  -0.26445
 Alpha virt. eigenvalues --    0.04155   0.07012   0.07949   0.09839   0.10704
 Alpha virt. eigenvalues --    0.11942   0.12986   0.13756   0.15565   0.15935
 Alpha virt. eigenvalues --    0.18843   0.20664   0.20880   0.23810   0.26847
 Alpha virt. eigenvalues --    0.27390   0.29113   0.31354   0.32316   0.33288
 Alpha virt. eigenvalues --    0.34563   0.35760   0.37662   0.40189   0.40896
 Alpha virt. eigenvalues --    0.41179   0.42321   0.44320   0.44810   0.46715
 Alpha virt. eigenvalues --    0.47344   0.47628   0.49039   0.49812   0.50437
 Alpha virt. eigenvalues --    0.51593   0.52052   0.52579   0.53933   0.55461
 Alpha virt. eigenvalues --    0.55900   0.56671   0.58436   0.59078   0.63229
 Alpha virt. eigenvalues --    0.66244   0.68043   0.69219   0.69560   0.72799
 Alpha virt. eigenvalues --    0.73645   0.76864   0.78765   0.80891   0.83273
 Alpha virt. eigenvalues --    0.84054   0.86958   0.89778   0.90923   0.91527
 Alpha virt. eigenvalues --    0.93232   0.94277   0.97462   0.99179   1.01170
 Alpha virt. eigenvalues --    1.02712   1.03717   1.05201   1.06183   1.08012
 Alpha virt. eigenvalues --    1.08477   1.09312   1.11352   1.12828   1.13786
 Alpha virt. eigenvalues --    1.15204   1.16567   1.17781   1.18724   1.20076
 Alpha virt. eigenvalues --    1.24451   1.24834   1.25923   1.26998   1.29872
 Alpha virt. eigenvalues --    1.30896   1.31780   1.33663   1.35328   1.36395
 Alpha virt. eigenvalues --    1.37094   1.38121   1.39988   1.42283   1.42898
 Alpha virt. eigenvalues --    1.44967   1.46840   1.48894   1.51583   1.54102
 Alpha virt. eigenvalues --    1.55026   1.55681   1.58137   1.59257   1.61498
 Alpha virt. eigenvalues --    1.64587   1.70692   1.73026   1.77391   1.83782
 Alpha virt. eigenvalues --    1.88588   1.89593   1.97869   2.01721   2.04018
 Alpha virt. eigenvalues --    2.07165   2.08884   2.18881   2.19200   2.23271
 Alpha virt. eigenvalues --    2.25000   2.28597   2.30010   2.31977   2.35237
 Alpha virt. eigenvalues --    2.38991   2.42611   2.43475   2.45047   2.47950
 Alpha virt. eigenvalues --    2.52106   2.53242   2.56009   2.58265   2.60763
 Alpha virt. eigenvalues --    2.62959   2.64544   2.64795   2.65886   2.66953
 Alpha virt. eigenvalues --    2.71516   2.74332   2.74985   2.79880   2.80271
 Alpha virt. eigenvalues --    2.81625   2.83340   2.84398   2.84854   2.85900
 Alpha virt. eigenvalues --    2.88874   2.90358   2.91809   2.92978   2.94691
 Alpha virt. eigenvalues --    2.96931   2.97354   2.99751   3.00458   3.00888
 Alpha virt. eigenvalues --    3.02776   3.03119   3.04542   3.06230   3.07970
 Alpha virt. eigenvalues --    3.10047   3.10515   3.11851   3.12541   3.13812
 Alpha virt. eigenvalues --    3.17152   3.19950   3.20554   3.22190   3.23267
 Alpha virt. eigenvalues --    3.24977   3.27473   3.29373   3.31042   3.31745
 Alpha virt. eigenvalues --    3.32945   3.34515   3.35430   3.37321   3.39716
 Alpha virt. eigenvalues --    3.40042   3.41735   3.43763   3.44583   3.46043
 Alpha virt. eigenvalues --    3.46675   3.49654   3.50444   3.52479   3.54050
 Alpha virt. eigenvalues --    3.55054   3.56380   3.57673   3.59004   3.62793
 Alpha virt. eigenvalues --    3.63184   3.67766   3.68157   3.71077   3.72420
 Alpha virt. eigenvalues --    3.73643   3.75463   3.77498   3.78152   3.79713
 Alpha virt. eigenvalues --    3.82074   3.83045   3.85290   3.86642   3.87435
 Alpha virt. eigenvalues --    3.88757   3.91499   3.92555   3.94706   3.95837
 Alpha virt. eigenvalues --    3.97477   3.98323   3.99085   4.00624   4.03314
 Alpha virt. eigenvalues --    4.04254   4.05157   4.06260   4.07095   4.08512
 Alpha virt. eigenvalues --    4.10564   4.12611   4.13625   4.16866   4.19159
 Alpha virt. eigenvalues --    4.20166   4.25235   4.25761   4.28171   4.30578
 Alpha virt. eigenvalues --    4.31985   4.33654   4.35852   4.40216   4.43022
 Alpha virt. eigenvalues --    4.44588   4.49956   4.51482   4.53383   4.54713
 Alpha virt. eigenvalues --    4.62469   4.62805   4.65933   4.68990   4.71650
 Alpha virt. eigenvalues --    4.71959   4.75989   4.78413   4.79180   4.82111
 Alpha virt. eigenvalues --    4.85204   4.87442   4.89561   4.92196   4.94811
 Alpha virt. eigenvalues --    4.98374   4.98971   5.00357   5.05796   5.08036
 Alpha virt. eigenvalues --    5.08795   5.09699   5.12186   5.13911   5.19646
 Alpha virt. eigenvalues --    5.22795   5.24912   5.25911   5.27955   5.28574
 Alpha virt. eigenvalues --    5.32458   5.33821   5.35107   5.39027   5.45970
 Alpha virt. eigenvalues --    5.52712   5.55408   5.68836   5.71489   5.74066
 Alpha virt. eigenvalues --    5.78679   5.79764   5.81823   5.83958   5.86230
 Alpha virt. eigenvalues --    5.92774   5.99813   6.04152   6.24628   6.29003
 Alpha virt. eigenvalues --    6.33277   6.38936   6.57963   6.62482   6.72285
 Alpha virt. eigenvalues --    6.74260   6.76853   6.78000   6.82483   6.96988
 Alpha virt. eigenvalues --    7.05689   7.19215   7.27140   7.34521   7.44547
 Alpha virt. eigenvalues --   10.63112  10.95807  11.73635  11.87897  12.96791
 Alpha virt. eigenvalues --   13.48686  14.46935
          Condensed to atoms (all electrons):
               1          2          3          4          5          6
     1  O    7.827194   0.001832   0.312296  -0.047664  -0.069811   0.381887
     2  O    0.001832   7.796747  -0.000546  -0.000589  -0.000368  -0.062754
     3  C    0.312296  -0.000546   4.924176   0.295419   0.275536  -0.087033
     4  C   -0.047664  -0.000589   0.295419   5.096976  -0.088176  -0.012600
     5  C   -0.069811  -0.000368   0.275536  -0.088176   5.160088   0.010636
     6  C    0.381887  -0.062754  -0.087033  -0.012600   0.010636   4.983042
     7  C   -0.094597   0.331508   0.002929   0.002838  -0.000194   0.495036
     8  H   -0.030989   0.000011   0.414754  -0.050438  -0.049765   0.007819
     9  H   -0.006379   0.000388  -0.037775   0.402203   0.001965   0.005274
    10  H    0.001525  -0.000031  -0.035282   0.398159   0.005271   0.000307
    11  H    0.005115   0.000162  -0.047235   0.387686   0.001452   0.001826
    12  H    0.005217   0.001476  -0.042079  -0.005597   0.384215  -0.001602
    13  H    0.004000   0.000125  -0.033527   0.010694   0.382746  -0.004328
    14  H    0.003405  -0.000041  -0.032927   0.001972   0.392617   0.000993
    15  H   -0.032598   0.003198   0.005546   0.000387  -0.000546   0.409170
    16  H   -0.002776  -0.052157   0.004922   0.002809  -0.010185  -0.078502
    17  H   -0.000322   0.336394   0.000190  -0.000201  -0.000068   0.006483
               7          8          9         10         11         12
     1  O   -0.094597  -0.030989  -0.006379   0.001525   0.005115   0.005217
     2  O    0.331508   0.000011   0.000388  -0.000031   0.000162   0.001476
     3  C    0.002929   0.414754  -0.037775  -0.035282  -0.047235  -0.042079
     4  C    0.002838  -0.050438   0.402203   0.398159   0.387686  -0.005597
     5  C   -0.000194  -0.049765   0.001965   0.005271   0.001452   0.384215
     6  C    0.495036   0.007819   0.005274   0.000307   0.001826  -0.001602
     7  C    4.984989  -0.001193  -0.001023   0.000986  -0.006197  -0.020590
     8  H   -0.001193   0.592846   0.004061  -0.013815   0.005365   0.008118
     9  H   -0.001023   0.004061   0.554874  -0.027185  -0.035631   0.001525
    10  H    0.000986  -0.013815  -0.027185   0.580256  -0.031299   0.000210
    11  H   -0.006197   0.005365  -0.035631  -0.031299   0.609903  -0.000544
    12  H   -0.020590   0.008118   0.001525   0.000210  -0.000544   0.653938
    13  H   -0.002880  -0.001508  -0.000328  -0.000443   0.000029  -0.032771
    14  H    0.000679  -0.013958  -0.000298  -0.000134  -0.000415  -0.036459
    15  H   -0.068834  -0.000404  -0.000683   0.000089  -0.000001  -0.000213
    16  H    0.443961  -0.000385  -0.006996   0.000675   0.000395  -0.009609
    17  H   -0.046051  -0.000003   0.000092  -0.000005  -0.000007  -0.000028
              13         14         15         16         17
     1  O    0.004000   0.003405  -0.032598  -0.002776  -0.000322
     2  O    0.000125  -0.000041   0.003198  -0.052157   0.336394
     3  C   -0.033527  -0.032927   0.005546   0.004922   0.000190
     4  C    0.010694   0.001972   0.000387   0.002809  -0.000201
     5  C    0.382746   0.392617  -0.000546  -0.010185  -0.000068
     6  C   -0.004328   0.000993   0.409170  -0.078502   0.006483
     7  C   -0.002880   0.000679  -0.068834   0.443961  -0.046051
     8  H   -0.001508  -0.013958  -0.000404  -0.000385  -0.000003
     9  H   -0.000328  -0.000298  -0.000683  -0.006996   0.000092
    10  H   -0.000443  -0.000134   0.000089   0.000675  -0.000005
    11  H    0.000029  -0.000415  -0.000001   0.000395  -0.000007
    12  H   -0.032771  -0.036459  -0.000213  -0.009609  -0.000028
    13  H    0.547293  -0.019627  -0.000129  -0.000539   0.000042
    14  H   -0.019627   0.581400   0.000088   0.001369  -0.000015
    15  H   -0.000129   0.000088   0.529952   0.005269  -0.000688
    16  H   -0.000539   0.001369   0.005269   0.600926  -0.009529
    17  H    0.000042  -0.000015  -0.000688  -0.009529   0.448906
 Mulliken charges:
               1
     1  O   -0.257333
     2  O   -0.355354
     3  C    0.080635
     4  C   -0.393878
     5  C   -0.395414
     6  C   -0.055656
     7  C   -0.021366
     8  H    0.129484
     9  H    0.145914
    10  H    0.120716
    11  H    0.109396
    12  H    0.094794
    13  H    0.151150
    14  H    0.121351
    15  H    0.150397
    16  H    0.110352
    17  H    0.264810
 Sum of Mulliken charges =  -0.00000
 Mulliken charges with hydrogens summed into heavy atoms:
               1
     1  O   -0.257333
     2  O   -0.090544
     3  C    0.210119
     4  C   -0.017851
     5  C   -0.028119
     6  C    0.094741
     7  C    0.088987
 APT charges:
               1
     1  O   -0.164246
     2  O   -0.553848
     3  C   -0.289912
     4  C   -1.071706
     5  C   -1.044123
     6  C   -0.429009
     7  C   -0.244664
     8  H    0.482482
     9  H    0.227051
    10  H    0.485030
    11  H    0.307635
    12  H    0.185994
    13  H    0.309463
    14  H    0.495191
    15  H    0.474569
    16  H    0.196477
    17  H    0.633618
 Sum of APT charges =  -0.00000
 APT charges with hydrogens summed into heavy atoms:
               1
     1  O   -0.164246
     2  O    0.079770
     3  C    0.192570
     4  C   -0.051990
     5  C   -0.053475
     6  C    0.045559
     7  C   -0.048187
 Electronic spatial extent (au):  <R**2>=            856.2724
 Charge=             -0.0000 electrons
 Dipole moment (field-independent basis, Debye):
    X=             -0.8018    Y=             -2.5672    Z=              0.3248  Tot=              2.7090
 Quadrupole moment (field-independent basis, Debye-Ang):
   XX=            -44.0016   YY=            -41.5912   ZZ=            -45.2899
   XY=             -2.8117   XZ=              0.3560   YZ=             -0.4340
 Traceless Quadrupole moment (field-independent basis, Debye-Ang):
   XX=             -0.3740   YY=              2.0364   ZZ=             -1.6623
   XY=             -2.8117   XZ=              0.3560   YZ=             -0.4340
 Octapole moment (field-independent basis, Debye-Ang**2):
  XXX=             -4.8315  YYY=             -3.8232  ZZZ=             -1.2497  XYY=             17.6112
  XXY=            -10.1754  XXZ=              0.9522  XZZ=              1.0690  YZZ=              1.2155
  YYZ=              1.2516  XYZ=             -3.1886
 Hexadecapole moment (field-independent basis, Debye-Ang**3):
 XXXX=           -666.3492 YYYY=           -214.4844 ZZZZ=           -221.8813 XXXY=            -51.3668
 XXXZ=              7.4041 YYYX=            -16.5933 YYYZ=             -5.9464 ZZZX=              2.6764
 ZZZY=             -1.1325 XXYY=           -116.4527 XXZZ=           -149.5031 YYZZ=            -77.0487
 XXYZ=             -3.8981 YYXZ=              2.0281 ZZXY=             -4.6743
 N-N= 3.225838439015D+02 E-N=-1.455208140299D+03  KE= 3.448200325346D+02
  Exact polarizability:   0.000   0.000   0.000   0.000   0.000   0.000
 Approx polarizability:  85.367  -7.115  86.827   1.866  -3.719  66.850
 No NMR shielding tensors so no spin-rotation constants.
 Leave Link  601 at Fri Sep 27 03:49:02 2019, MaxMem=   671088640 cpu:              59.4 elap:              29.7
 (Enter /shared/centos7/gaussian/g16/l701.exe)
 SCFChk:  SCF convergence  3.14D-09 required  1.00D-08
 ... and contract with generalized density number  0.
 Compute integral second derivatives.
 Entering OneElI...
 Calculate overlap and kinetic energy integrals
    NBasis = 395  MinDer = 2  MaxDer = 2
 Requested accuracy = 0.1000D-12
 PrmmSu-InSpLW:  IPartL=    0 NPrtUS=   20 NPrtUL=    1 DoSpLW=F IThBeg=    0 IThEnd=   19 NThAct=   20.
 PrsmSu:  NPrtUS=  20 ThrOK=T IAlg=1 NPAlg=1 LenDen=           0 ISkipM=0 DoSpLW=F IThBeg=    0 IThEnd=   19.
 Prism:   IPart=     0 DynPar=F LinDyn=F Incr=           4.
 PRISM was handed    33309695 working-precision words and  8472 shell-pairs
 PRISM was handed    33309695 working-precision words and  8472 shell-pairs
 PRISM was handed    33309695 working-precision words and  8472 shell-pairs
 PRISM was handed    33309695 working-precision words and  8472 shell-pairs
 PRISM was handed    33309695 working-precision words and  8472 shell-pairs
 PRISM was handed    33309695 working-precision words and  8472 shell-pairs
 PRISM was handed    33309695 working-precision words and  8472 shell-pairs
 PRISM was handed    33309695 working-precision words and  8472 shell-pairs
 PRISM was handed    33309695 working-precision words and  8472 shell-pairs
 IPart=  1 NShTot=         462 NBatch=          76 AvBLen=         6.1
 PRISM was handed    33309695 working-precision words and  8472 shell-pairs
 PRISM was handed    33309695 working-precision words and  8472 shell-pairs
 IPart=  4 NShTot=         443 NBatch=          64 AvBLen=         6.9
 PRISM was handed    33309695 working-precision words and  8472 shell-pairs
 PRISM was handed    33309695 working-precision words and  8472 shell-pairs
 PRISM was handed    33309695 working-precision words and  8472 shell-pairs
 PRISM was handed    33309695 working-precision words and  8472 shell-pairs
 IPart= 10 NShTot=         414 NBatch=          46 AvBLen=         9.0
 IPart=  0 NShTot=         467 NBatch=          80 AvBLen=         5.8
 IPart=  5 NShTot=         440 NBatch=          62 AvBLen=         7.1
 IPart=  6 NShTot=         433 NBatch=          60 AvBLen=         7.2
 PRISM was handed    33309695 working-precision words and  8472 shell-pairs
 PRISM was handed    33309695 working-precision words and  8472 shell-pairs
 PRISM was handed    33309695 working-precision words and  8472 shell-pairs
 PRISM was handed    33309695 working-precision words and  8472 shell-pairs
 PRISM was handed    33309695 working-precision words and  8472 shell-pairs
 IPart=  9 NShTot=         417 NBatch=          48 AvBLen=         8.7
 IPart= 14 NShTot=         406 NBatch=          39 AvBLen=        10.4
 IPart=  7 NShTot=         424 NBatch=          53 AvBLen=         8.0
 IPart=  3 NShTot=         448 NBatch=          68 AvBLen=         6.6
 IPart= 18 NShTot=         401 NBatch=          39 AvBLen=        10.3
 IPart=  8 NShTot=         421 NBatch=          52 AvBLen=         8.1
 IPart= 16 NShTot=         404 NBatch=          39 AvBLen=        10.4
 IPart= 15 NShTot=         405 NBatch=          39 AvBLen=        10.4
 IPart= 17 NShTot=         403 NBatch=          39 AvBLen=        10.3
 IPart= 13 NShTot=         408 NBatch=          41 AvBLen=        10.0
 IPart= 19 NShTot=         399 NBatch=          38 AvBLen=        10.5
 IPart= 12 NShTot=         408 NBatch=          41 AvBLen=        10.0
 IPart=  2 NShTot=         455 NBatch=          73 AvBLen=         6.2
 IPart= 11 NShTot=         414 NBatch=          46 AvBLen=         9.0
 PrSmSu:  NxtVal=             81.
 Entering OneElI...
 Calculate potential energy integrals
    NBasis = 395  MinDer = 2  MaxDer = 2
 Requested accuracy = 0.1000D-12
 PrmmSu-InSpLW:  IPartL=    0 NPrtUS=   20 NPrtUL=    1 DoSpLW=F IThBeg=    0 IThEnd=   19 NThAct=   20.
 PrsmSu:  NPrtUS=  20 ThrOK=T IAlg=1 NPAlg=1 LenDen=           0 ISkipM=0 DoSpLW=F IThBeg=    0 IThEnd=   19.
 Prism:   IPart=     0 DynPar=F LinDyn=F Incr=          67.
 PRISM was handed    33350182 working-precision words and  7898 shell-pairs
 PRISM was handed    33350182 working-precision words and  7898 shell-pairs
 PRISM was handed    33350182 working-precision words and  7898 shell-pairs
 PRISM was handed    33350182 working-precision words and  7898 shell-pairs
 PRISM was handed    33350182 working-precision words and  7898 shell-pairs
 PRISM was handed    33350182 working-precision words and  7898 shell-pairs
 PRISM was handed    33350182 working-precision words and  7898 shell-pairs
 PRISM was handed    33350182 working-precision words and  7898 shell-pairs
 PRISM was handed    33350182 working-precision words and  7898 shell-pairs
 PRISM was handed    33350182 working-precision words and  7898 shell-pairs
 PRISM was handed    33350182 working-precision words and  7898 shell-pairs
 PRISM was handed    33350182 working-precision words and  7898 shell-pairs
 PRISM was handed    33350182 working-precision words and  7898 shell-pairs
 PRISM was handed    33350182 working-precision words and  7898 shell-pairs
 PRISM was handed    33350182 working-precision words and  7898 shell-pairs
 PRISM was handed    33350182 working-precision words and  7898 shell-pairs
 PRISM was handed    33350182 working-precision words and  7898 shell-pairs
 PRISM was handed    33350182 working-precision words and  7898 shell-pairs
 PRISM was handed    33350182 working-precision words and  7898 shell-pairs
 PRISM was handed    33350182 working-precision words and  7898 shell-pairs
 IPart=  0 NShTot=        7412 NBatch=         436 AvBLen=        17.0
 IPart=  8 NShTot=        6698 NBatch=         394 AvBLen=        17.0
 IPart= 10 NShTot=        6596 NBatch=         388 AvBLen=        17.0
 IPart=  4 NShTot=        7055 NBatch=         415 AvBLen=        17.0
 IPart=  5 NShTot=        6987 NBatch=         411 AvBLen=        17.0
 IPart=  3 NShTot=        7123 NBatch=         419 AvBLen=        17.0
 IPart=  6 NShTot=        6885 NBatch=         405 AvBLen=        17.0
 IPart=  7 NShTot=        6715 NBatch=         395 AvBLen=        17.0
 IPart= 17 NShTot=        6375 NBatch=         375 AvBLen=        17.0
 IPart= 18 NShTot=        6307 NBatch=         371 AvBLen=        17.0
 IPart=  2 NShTot=        7208 NBatch=         424 AvBLen=        17.0
 IPart=  9 NShTot=        6630 NBatch=         390 AvBLen=        17.0
 IPart=  1 NShTot=        7310 NBatch=         430 AvBLen=        17.0
 IPart= 16 NShTot=        6375 NBatch=         375 AvBLen=        17.0
 IPart= 11 NShTot=        6494 NBatch=         382 AvBLen=        17.0
 IPart= 15 NShTot=        6409 NBatch=         377 AvBLen=        17.0
 IPart= 12 NShTot=        6460 NBatch=         380 AvBLen=        17.0
 IPart= 14 NShTot=        6460 NBatch=         380 AvBLen=        17.0
 IPart= 19 NShTot=        6307 NBatch=         371 AvBLen=        17.0
 IPart= 13 NShTot=        6460 NBatch=         380 AvBLen=        17.0
 PrSmSu:  NxtVal=           1341.
 Polarizability after L701:
                1             2             3 
      1  0.000000D+00
      2  0.000000D+00  0.000000D+00
      3  0.000000D+00  0.000000D+00  0.000000D+00
 Dipole Derivatives after L701:
                 1             2             3             4             5 
      1  -0.245222D+00 -0.484145D-01  0.578554D-02 -0.123547D+00  0.165556D+01
      2  -0.224142D+00 -0.203729D-01 -0.556046D-01  0.175081D+00 -0.112741D+01
      3   0.300998D-01 -0.390799D-01 -0.227144D+00 -0.121735D-01  0.128713D+00
                 6             7             8             9            10 
      1  -0.222607D+00 -0.954592D+00  0.568715D+00 -0.256001D+00 -0.873822D+00
      2   0.978405D-01  0.938487D-01 -0.143299D+00  0.634075D-01 -0.625868D-03
      3  -0.410591D+00 -0.113437D+00  0.995209D-01  0.228154D+00 -0.157768D-01
                11            12            13            14            15 
      1  -0.271704D+00  0.846930D+00 -0.832701D+00 -0.590588D+00 -0.545270D+00
      2  -0.101310D+01  0.108744D+00  0.131303D-01 -0.109180D+01 -0.168369D+00
      3   0.144678D+00 -0.132819D+01  0.104197D+00 -0.247091D+00 -0.120787D+01
                16            17            18            19            20 
      1  -0.553661D+00 -0.890441D-01  0.504913D-01 -0.355802D+00 -0.318796D+00
      2  -0.166756D+00 -0.737718D+00  0.145453D+00 -0.162940D+00 -0.452446D+00
      3   0.347800D-01  0.117999D+00  0.435184D-02  0.106992D-02  0.893514D-01
                21            22            23            24            25 
      1   0.962214D-02  0.100886D+01 -0.289414D+00  0.115426D+00  0.487158D-01
      2   0.797798D-01 -0.212868D+00  0.258753D+00 -0.264160D-01  0.457228D-01
      3   0.742557D-01  0.868083D-01 -0.281913D-01  0.179833D+00  0.598881D+00
                26            27            28            29            30 
      1   0.108939D-01 -0.735609D-01  0.828336D+00 -0.326996D+00 -0.454072D+00
      2   0.154254D+00  0.236191D-01 -0.505652D-01  0.127987D+00  0.135506D-02
      3   0.171275D+00  0.478182D+00 -0.568606D+00  0.235580D+00  0.498766D+00
                31            32            33            34            35 
      1   0.687777D-01  0.505417D+00 -0.454629D-01  0.314449D-01  0.892764D-01
      2  -0.811311D-02  0.709455D+00 -0.127757D-01 -0.475290D+00  0.497686D+00
      3   0.157981D-01 -0.458000D+00  0.144672D+00 -0.159732D+00  0.135174D+00
                36            37            38            39            40 
      1  -0.260148D-01  0.227246D-02 -0.817833D-01  0.258065D+00  0.907756D+00
      2  -0.247436D+00 -0.758010D-01  0.804980D-01  0.110817D+00  0.469277D+00
      3   0.288513D-01 -0.365021D+00 -0.278733D+00  0.845620D+00  0.440046D+00
                41            42            43            44            45 
      1   0.381230D+00  0.182053D+00  0.472452D+00  0.514473D+00 -0.759815D-01
      2   0.373429D+00  0.127888D+00  0.434820D+00  0.840652D+00 -0.113914D+00
      3   0.237097D+00  0.204387D+00 -0.668895D-01 -0.118035D+00  0.110601D+00
                46            47            48            49            50 
      1  -0.344246D-01 -0.234486D+00  0.204952D-01  0.605159D+00 -0.147433D+01
      2   0.274526D+00  0.544306D+00 -0.374359D-01 -0.129304D+00  0.999126D+00
      3  -0.366833D-01 -0.628970D-01  0.795497D-01  0.266398D-01 -0.127360D+00
                51 
      1   0.210102D+00
      2  -0.969535D-01
      3   0.296570D+00
 Hessian after L701:
                1             2             3             4             5 
      1  0.556793D+01
      2 -0.190916D+01  0.121022D+02
      3  0.125738D-02  0.110660D+01  0.181133D+02
      4  0.348605D+00 -0.283326D+00  0.684139D-01  0.469482D+01
      5 -0.245748D+00 -0.993318D-01 -0.282904D-01  0.294744D+01  0.936689D+01
      6  0.586468D-01 -0.282325D-01 -0.203219D+00 -0.749625D+00  0.778710D+00
      7 -0.489440D+01  0.431490D+01 -0.705043D+00  0.156877D+00 -0.210711D-01
      8  0.413577D+01 -0.389270D+01 -0.921947D+00 -0.860090D-02 -0.102690D+00
      9 -0.649219D+00 -0.904870D+00 -0.926361D+01  0.720098D-02 -0.356489D-03
     10 -0.241348D+00  0.422437D-01 -0.218926D+00  0.175585D+00  0.269114D-01
     11  0.268874D-01 -0.482096D-02 -0.515374D+00 -0.105284D-01 -0.114275D+00
     12 -0.140160D+00 -0.414340D+00  0.475875D+00 -0.421005D-01  0.254693D-02
     13 -0.182895D+00 -0.696031D-02  0.126562D+00  0.191256D+00  0.811881D-01
     14 -0.490528D-01  0.363852D+00  0.548601D+00  0.143212D-01 -0.125614D+00
     15  0.485758D-01  0.391884D+00  0.288570D+00  0.700923D-01  0.168798D-01
     16 -0.585475D-01 -0.189163D+01  0.646745D+00 -0.318944D+00 -0.708841D-01
     17 -0.158181D+01 -0.964298D+01 -0.113730D+00 -0.809414D-01  0.514363D-01
     18  0.611619D+00 -0.124879D+00 -0.100479D+02 -0.247400D-02  0.193080D-01
     19 -0.135309D+00 -0.129806D+00  0.557876D-01  0.545958D+00 -0.130572D+01
     20 -0.187191D+00  0.458117D+00 -0.470068D-01 -0.134166D+01 -0.819515D+01
     21  0.461710D-01 -0.332634D-01  0.524056D+00  0.467997D+00 -0.650406D-01
     22  0.635332D-01 -0.242814D+00  0.802982D-01  0.302895D-01  0.622432D-03
     23 -0.281323D+00 -0.632518D-01  0.185053D-01 -0.970830D-02 -0.722576D-02
     24  0.835720D-01  0.228049D-01  0.812409D-01  0.402719D-02  0.155270D-03
     25 -0.262032D-01 -0.257689D-01  0.458766D-01  0.611284D-02 -0.843981D-02
     26  0.115501D-01 -0.179221D-01 -0.181855D-01 -0.138762D-01 -0.241314D-01
     27 -0.924251D-02 -0.480126D-01  0.472200D-01 -0.473806D-01  0.177831D-02
     28  0.251180D-01  0.423349D-01 -0.900610D-01  0.211247D-01  0.340347D-02
     29  0.188954D-01 -0.327666D-01 -0.293170D-01 -0.564407D-02 -0.874099D-02
     30 -0.738867D-01 -0.492664D-01  0.544399D-01 -0.141173D-01 -0.228812D-02
     31 -0.409387D-01  0.500678D-01 -0.203487D-01  0.228247D-01  0.133667D-01
     32  0.532885D-01  0.140596D+00 -0.815504D-01  0.297971D-01  0.317191D-02
     33 -0.240005D-01 -0.804330D-01 -0.203304D-01 -0.116974D-01 -0.452884D-02
     34 -0.588829D-01 -0.280461D-01 -0.181354D-02  0.296010D-01  0.195922D-01
     35  0.161249D-03  0.187918D+00  0.158757D-01  0.543666D-01 -0.161803D-02
     36  0.421400D-02  0.462392D-02 -0.634017D-01  0.368833D-02 -0.128687D-02
     37 -0.786230D-01  0.189379D-02 -0.142135D-01  0.890578D-02  0.303250D-03
     38  0.221665D-01  0.770558D-01  0.677467D-01 -0.538200D-02 -0.180370D-01
     39  0.156661D-01  0.148225D+00 -0.149499D-01  0.405336D-01  0.813369D-02
     40  0.223531D-01  0.101352D+00  0.379125D-01  0.226226D-01  0.137988D-01
     41  0.757134D-01  0.772668D-01  0.443807D-01  0.104398D-01 -0.180953D-02
     42  0.335433D-01  0.528360D-01 -0.266194D-01  0.830765D-02  0.373689D-02
     43 -0.295488D+00  0.597778D-03 -0.162003D-01  0.898232D-02 -0.664405D-01
     44  0.295203D-01  0.202620D+00 -0.157380D-01 -0.132086D+00  0.508617D-01
     45 -0.230107D-01 -0.174722D-01  0.101554D+00  0.248028D-01 -0.228353D-01
     46 -0.250390D-01 -0.230828D-01  0.864794D-03 -0.375434D+00 -0.712096D-01
     47 -0.774035D-01  0.121906D+00 -0.242159D-01 -0.143088D+00  0.291174D+00
     48  0.936637D-02 -0.217539D-01 -0.402435D-01  0.251040D-01 -0.399840D-02
     49  0.101275D-01 -0.127928D-01  0.288766D-02 -0.556918D+01 -0.131711D+01
     50 -0.422546D-01  0.222044D-01 -0.635909D-02 -0.102152D+01 -0.106491D+01
     51  0.688737D-02 -0.445560D-02 -0.596850D-02  0.147227D+00 -0.702624D+00
                6             7             8             9            10 
      6  0.146945D+02
      7  0.185544D-02  0.179491D+02
      8  0.190361D-02 -0.316485D+01  0.174427D+02
      9 -0.970861D-01  0.394072D+00  0.182785D+00  0.202355D+02
     10 -0.103061D+00 -0.585152D+01  0.420429D-01 -0.310860D+00  0.145057D+02
     11  0.238033D-02 -0.554783D-02 -0.542135D+01 -0.151732D+01 -0.321583D+00
     12 -0.868905D-01 -0.221426D+00 -0.150014D+01 -0.203566D+01  0.699051D+00
     13  0.119010D+00 -0.628290D+01 -0.114897D+00 -0.692018D-01  0.377438D-01
     14  0.128217D-01 -0.192848D+00 -0.383080D+01  0.234896D+01  0.161504D-01
     15 -0.819049D-01 -0.115700D+00  0.235047D+01 -0.422517D+01  0.139080D-01
     16  0.181701D-01  0.312727D+00  0.152021D+00  0.344917D-01 -0.564592D-01
     17  0.102232D-01 -0.713231D-02  0.957154D-01  0.603665D-01  0.143155D+00
     18  0.204179D+00  0.876361D-01  0.714048D-01  0.231898D+00 -0.114506D+00
     19  0.447298D+00  0.196910D+00 -0.680251D-01  0.915296D-01  0.421518D+00
     20 -0.611803D-01 -0.788614D-01 -0.243035D+00  0.198011D-02  0.363795D-01
     21 -0.841395D+01  0.975471D-01  0.518533D-02 -0.133616D+00 -0.145666D+00
     22  0.161827D-02 -0.232013D+01 -0.914334D+00  0.376685D+00  0.174276D+00
     23 -0.467696D-03 -0.837302D+00 -0.419706D+01 -0.147032D+00  0.258346D-01
     24 -0.717216D-02  0.356616D+00 -0.150805D+00 -0.450233D+01 -0.778223D-01
     25 -0.164552D-01  0.979391D-01  0.173061D-01 -0.402011D-02 -0.256253D+01
     26  0.952666D-02  0.244571D-01  0.936323D-01  0.210172D-01  0.586975D+00
     27  0.388126D-02 -0.902296D-01  0.531750D-02 -0.510276D-01  0.135735D+01
     28 -0.110014D-01  0.110662D+00 -0.311544D-01 -0.630743D-02 -0.259989D+01
     29  0.221700D-02 -0.375417D-01  0.696745D-01  0.513849D-01 -0.532603D+00
     30 -0.139196D-02 -0.298119D-02  0.334405D-01 -0.398731D-01 -0.104507D+01
     31 -0.106779D-01  0.120236D+00 -0.612010D-01  0.616613D-01 -0.398160D+01
     32 -0.951436D-02 -0.305208D-01  0.780958D-02  0.169538D+00 -0.162968D-01
     33 -0.953889D-02  0.352034D-01  0.200611D+00 -0.594761D-01  0.144778D-01
     34  0.916643D-02  0.108094D+00  0.241162D-01  0.467360D-01 -0.185215D-01
     35  0.986820D-02  0.893112D-01 -0.736678D-01 -0.123850D+00  0.358039D-02
     36 -0.293829D-01  0.877801D-01 -0.151662D+00  0.606775D-01  0.239522D-01
     37  0.131337D-01  0.479305D-01  0.618009D-02  0.156499D-01 -0.459997D-01
     38 -0.439526D-02  0.317540D-01  0.841904D-01 -0.721527D-01 -0.203205D-02
     39  0.807600D-02  0.826161D-01 -0.309008D-01 -0.541872D-01 -0.580490D-01
     40  0.758811D-02  0.856694D-01 -0.341640D-01  0.968725D-03 -0.163777D-01
     41  0.274986D-02 -0.373740D-01 -0.751268D-01 -0.390140D-01  0.190597D-01
     42 -0.520241D-02 -0.267895D-01 -0.670456D-01  0.518359D-01  0.361224D-01
     43  0.135690D-01  0.101426D+00  0.106895D+00 -0.142587D-01  0.203334D-01
     44 -0.246852D-01  0.107470D+00  0.340940D-01 -0.975247D-02  0.353927D-01
     45 -0.686803D-01 -0.144898D-01 -0.970210D-02 -0.426804D-01 -0.184160D-01
     46  0.111693D-01  0.447305D-01 -0.806806D-01  0.230711D-01  0.250465D-01
     47 -0.580295D-02 -0.133168D+00  0.104646D-01 -0.205545D-01 -0.751958D-01
     48  0.236271D+00  0.297696D-01 -0.179790D-01 -0.683835D-01 -0.510951D-01
     49  0.189595D+00  0.166826D-01 -0.642736D-02  0.179945D-02  0.140279D-01
     50 -0.696122D+00 -0.216763D-01 -0.181863D-02 -0.113534D-02 -0.300149D-01
     51 -0.614253D+01  0.356177D-02 -0.933740D-03 -0.677993D-02 -0.138847D-02
               11            12            13            14            15 
     11  0.150333D+02
     12  0.113276D+01  0.126434D+02
     13 -0.740642D-03 -0.107426D-01  0.146068D+02
     14  0.834415D-01 -0.590828D-01 -0.429518D+00  0.138979D+02
     15  0.995215D-01  0.778168D-01 -0.362757D+00 -0.164894D+01  0.141154D+02
     16  0.126811D+00 -0.556992D-01  0.328829D-01  0.291268D+00  0.568252D-01
     17 -0.643244D-01 -0.604762D-01  0.336325D+00  0.128265D-01  0.753256D-01
     18 -0.892300D-01 -0.381140D-01  0.656158D-01  0.692794D-01 -0.248285D+00
     19  0.105988D-01 -0.991457D-01  0.463934D+00  0.933099D-01  0.251943D-01
     20 -0.259957D+00 -0.542136D-03  0.169318D+00 -0.242872D+00  0.381434D-01
     21  0.202775D-01 -0.207005D+00  0.128893D-01 -0.233565D-01 -0.348158D+00
     22  0.420141D-01 -0.107652D+00  0.135207D+00  0.132214D+00  0.761639D-01
     23  0.761685D-01  0.143113D+00  0.102904D+00 -0.104695D+00 -0.123427D+00
     24  0.132520D+00 -0.101186D+00  0.658658D-01 -0.118344D+00  0.950674D-01
     25  0.607110D+00  0.102619D+01 -0.130349D-01  0.979127D-02  0.395778D-01
     26 -0.413033D+01  0.374833D+00  0.133391D-01 -0.230311D-01  0.312856D-01
     27  0.501529D+00 -0.365350D+01  0.343331D-01  0.313423D-01  0.598160D-01
     28 -0.587167D+00 -0.101102D+01 -0.166370D-01 -0.187653D-01 -0.652682D-01
     29 -0.374266D+01  0.420797D+00 -0.181256D-01 -0.288402D-01  0.457831D-01
     30  0.481153D+00 -0.323181D+01 -0.491070D-01  0.435971D-01  0.978644D-01
     31  0.946380D-01  0.875322D-02 -0.497439D-01  0.627601D-02 -0.202299D-01
     32 -0.136592D+01 -0.122330D+00  0.919425D-02 -0.156195D-01 -0.825123D-01
     33 -0.308001D+00 -0.404159D+01 -0.225340D-01 -0.421769D-01  0.789394D-01
     34 -0.182424D-01 -0.475726D-02 -0.309918D+01 -0.116427D+01  0.538369D+00
     35  0.433253D-02  0.162553D-01 -0.140363D+01 -0.282549D+01 -0.717841D+00
     36  0.638603D-02 -0.117372D-01  0.469732D+00 -0.528999D+00 -0.400740D+01
     37 -0.188672D-02 -0.504785D-01 -0.376105D+01  0.327353D+00 -0.767589D+00
     38 -0.628839D-01  0.672381D-02  0.311881D+00 -0.386527D+01 -0.685517D+00
     39  0.641319D-03  0.203634D+00 -0.957185D+00 -0.879107D+00 -0.214342D+01
     40  0.324978D-01  0.532752D-01 -0.207189D+01  0.986318D+00  0.475024D+00
     41 -0.852677D-02  0.537642D-01  0.102425D+01 -0.329833D+01  0.238446D+00
     42  0.562411D-01  0.641937D-01  0.540843D+00  0.266483D+00 -0.370786D+01
     43  0.252770D-01 -0.117032D-01  0.149720D-01  0.164516D-01  0.154869D-02
     44  0.104725D-01 -0.915473D-02  0.305807D-01  0.579928D-02 -0.793501D-03
     45 -0.138600D-01 -0.838872D-02  0.610385D-02  0.503257D-02 -0.112807D-01
     46 -0.140161D-01 -0.323464D-01 -0.248726D-01 -0.337826D-01 -0.182977D-01
     47 -0.356130D-01  0.193177D-01 -0.736769D-01 -0.576000D-02 -0.277219D-01
     48  0.104668D-01 -0.427397D-01  0.182517D-01 -0.237498D-01 -0.330550D-01
     49 -0.612130D-02 -0.379193D-04  0.194020D-01 -0.522073D-02  0.456298D-02
     50  0.291614D-02 -0.403948D-02 -0.314394D-01  0.247147D-02 -0.982785D-03
     51 -0.878639D-04 -0.627488D-02  0.123202D-01 -0.236365D-02 -0.698637D-02
               16            17            18            19            20 
     16  0.112018D+02
     17  0.362843D+01  0.155753D+02
     18 -0.119450D+01  0.219863D+01  0.283935D+02
     19 -0.822934D+01 -0.381616D+01  0.779559D+00  0.104598D+02
     20 -0.353955D+01 -0.290663D+01 -0.195622D+01  0.354987D+01  0.149431D+02
     21  0.742290D+00 -0.195779D+01 -0.143573D+02 -0.102099D+01  0.216375D+01
     22  0.248720D+00  0.663410D-02  0.117515D-01  0.160648D-01 -0.116349D-01
     23 -0.630249D-02 -0.594787D-01 -0.416157D-03 -0.106774D-01 -0.579546D-02
     24  0.162962D-01  0.110559D-02 -0.544530D-01  0.194502D-02 -0.104333D-02
     25 -0.636965D-01  0.999519D-02 -0.261092D-01 -0.268850D-01  0.978610D-02
     26  0.182769D-01 -0.513035D-01 -0.396937D-01 -0.807006D-02 -0.444451D-01
     27 -0.779377D-01 -0.650697D-01  0.830234D-01 -0.646972D-01 -0.472759D-02
     28  0.317143D-01  0.138161D-01 -0.209034D-01  0.464080D-01 -0.856510D-02
     29  0.787533D-02 -0.121489D-01 -0.204853D-02 -0.957613D-02 -0.150757D-01
     30 -0.267882D-01 -0.620253D-02 -0.547059D-02 -0.340859D-01  0.324350D-02
     31  0.135905D-01  0.356885D-01 -0.247513D-01 -0.303233D-01 -0.159720D-01
     32  0.498511D-01  0.274326D-01 -0.320114D-01  0.130410D-03 -0.153099D-02
     33 -0.304651D-01 -0.256050D-01 -0.273779D-02  0.751733D-02  0.605049D-02
     34 -0.201640D-01 -0.676178D-02  0.150202D-01 -0.118280D+00 -0.756283D-01
     35  0.267261D-01  0.305437D-01  0.449416D-01 -0.511493D-01  0.239600D-01
     36  0.134475D-01  0.178449D-01 -0.563738D-02 -0.374870D-01 -0.879965D-02
     37 -0.409994D-01 -0.119117D-01 -0.586349D-02 -0.259617D-01  0.328461D-02
     38 -0.102361D-01 -0.167797D-01  0.779766D-02 -0.461349D-02 -0.180360D-01
     39  0.162338D-01  0.282576D-01  0.418426D-01  0.501118D-01  0.883168D-02
     40  0.305150D-01  0.327432D-01  0.117340D-01  0.440931D-01  0.121648D-01
     41  0.352898D-01  0.486335D-02  0.747981D-02  0.190848D-01 -0.119659D-01
     42  0.136102D-01  0.746508D-02 -0.123082D-01  0.203286D-01  0.604280D-02
     43 -0.352302D+01  0.140775D+01 -0.211994D+00  0.313947D+00 -0.616169D-01
     44  0.139889D+01 -0.252519D+01 -0.295168D+00 -0.313008D-01 -0.424038D+00
     45 -0.208282D+00 -0.292739D+00 -0.445583D+01  0.668518D-02  0.114149D+00
     46  0.399106D+00  0.120372D-01  0.142829D-02 -0.400482D+01  0.136415D+01
     47 -0.813721D-01 -0.643158D+00  0.144411D+00  0.174263D+01 -0.303787D+01
     48  0.157407D-01  0.147732D+00  0.316828D+00 -0.221438D+00 -0.288944D+00
     49  0.400750D-01 -0.121853D+00  0.167430D-01  0.622619D-01  0.175726D+00
     50 -0.135474D+00  0.123905D+00 -0.235797D-01  0.194737D-01 -0.187386D-01
     51  0.198272D-01 -0.253319D-01 -0.432796D-01 -0.811532D-02  0.262793D-01
               21            22            23            24            25 
     21  0.276773D+02
     22 -0.794751D-04  0.150228D+01
     23 -0.188872D-03  0.112227D+01  0.432959D+01
     24 -0.859755D-02 -0.495461D+00  0.184745D+00  0.458223D+01
     25 -0.609470D-02  0.339302D-01 -0.157728D-01  0.428627D-01  0.277202D+01
     26  0.735048D-02 -0.120027D-01 -0.155781D-01 -0.978040D-02 -0.434400D+00
     27  0.105231D-01  0.574488D-01 -0.161947D-01  0.283129D-01 -0.111814D+01
     28 -0.247786D-01  0.370554D-01  0.209223D-02 -0.674910D-02 -0.230160D+00
     29  0.394766D-02  0.613522D-02  0.291219D-01  0.392060D-01 -0.886092D-02
     30 -0.348242D-03 -0.138142D-01  0.399900D-01 -0.102177D+00  0.809619D-02
     31  0.260664D-02 -0.683286D-02 -0.248549D-01  0.182857D-01  0.363346D-01
     32 -0.444566D-02 -0.455395D-01  0.403688D-01 -0.466365D-01 -0.194856D+00
     33  0.269389D-02  0.297661D-01 -0.459899D-01  0.118204D-01 -0.433818D-01
     34 -0.258525D-01  0.432640D-01 -0.718533D-01 -0.106393D-01 -0.120496D-01
     35  0.119051D-01 -0.932587D-01  0.611466D-01  0.130549D-01  0.602904D-02
     36  0.354183D-01 -0.150619D-01  0.149081D-01 -0.297849D-01  0.205896D-02
     37  0.169822D-01  0.774632D-02 -0.313224D-02 -0.312159D-02 -0.229395D-02
     38 -0.413782D-03  0.409216D-03 -0.663391D-03  0.110751D-02 -0.458991D-03
     39  0.546895D-01 -0.136366D-01  0.472865D-02  0.402236D-02  0.631989D-02
     40  0.155424D-01  0.380576D-01  0.110751D-01  0.376139D-02  0.506251D-02
     41  0.617162D-02  0.183275D-01 -0.851172D-01 -0.667824D-01  0.334512D-02
     42 -0.936211D-02  0.112549D-01 -0.714229D-01  0.524050D-02  0.331681D-02
     43  0.132134D-01  0.184840D-03 -0.421800D-02  0.102226D-02 -0.589930D-02
     44  0.116698D+00  0.613635D-02 -0.162699D-02  0.730082D-03 -0.677855D-02
     45  0.248589D+00 -0.108839D-02  0.315681D-04 -0.614991D-03  0.366728D-02
     46 -0.161174D+00 -0.689926D-02  0.230783D-02 -0.898094D-03 -0.919768D-02
     47 -0.273326D+00 -0.720957D-02  0.193019D-02 -0.102870D-02  0.304959D-01
     48 -0.517020D+01  0.571174D-03 -0.463837D-03 -0.120319D-02  0.379255D-01
     49 -0.306081D-01  0.325504D-02 -0.134007D-02  0.436446D-03  0.547464D-03
     50  0.225456D-01 -0.797019D-02  0.217282D-02 -0.100899D-02  0.147762D-02
     51  0.952980D-01  0.123515D-02 -0.419258D-03 -0.415676D-03 -0.168791D-02
               26            27            28            29            30 
     26  0.425021D+01
     27 -0.290013D+00  0.323338D+01
     28  0.140739D-01 -0.292799D-02  0.251377D+01
     29  0.110583D+00  0.108481D-01  0.437071D+00  0.375931D+01
     30  0.109647D-01  0.119814D+00  0.122687D+01 -0.471918D+00  0.301304D+01
[...]
   yx         0.935267D+01      0.138592D+01      0.154205D+01
   yy         0.661269D+02      0.979899D+01      0.109029D+02
   zx        -0.484975D+01     -0.718659D+00     -0.799616D+00
   zy        -0.112981D+01     -0.167420D+00     -0.186280D+00
   zz         0.641781D+02      0.951021D+01      0.105815D+02

 ----------------------------------------------------------------------

 Test job not archived.
 1\1\GINC-C0236\Freq\RM062X\CC-pVTZ\C5H10O2\HARMS.N\27-Sep-2019\0\\#P G
 eom=AllCheck Guess=TCheck SCRF=Check Test GenChk RM062X/CC-pVTZ Freq\\
 Gaussian input prepared by ASE\\0,1\O,0.0626438384,-1.349787385,1.8092
 332965\O,2.8069301638,0.6353725122,0.4765505736\C,-0.9904751403,-0.517
 4133789,2.2966499091\C,-1.6401101967,0.3087850338,1.1961585462\C,-0.57
 8401928,0.2970945634,3.5142217513\C,1.2110371105,-0.8448101134,1.30415
 96937\C,1.6094207897,0.4097823051,1.1294598496\H,-1.7212076602,-1.2557
 490614,2.6282065517\H,-1.8620983467,-0.3231419792,0.3376060162\H,-2.57
 5505869,0.7257524363,1.5695513936\H,-1.0146023471,1.1333499809,0.86273
 27386\H,0.0670371014,1.1350179424,3.261498196\H,-0.0561058695,-0.33776
 3678,4.2285159097\H,-1.4717450738,0.6958403147,3.994902583\H,1.8745238
 499,-1.6379688291,0.9834526785\H,1.0385386146,1.2867462214,1.396665861
 3\H,3.3427227303,1.2348765374,1.0011412617\\Version=EM64L-G16RevA.03\S
 tate=1-A\HF=-346.934288\RMSD=5.233e-09\RMSF=1.240e-06\ZeroPoint=0.1470
 984\Thermal=0.15585\Dipole=-0.3079879,0.6612289,0.6271314\DipoleDeriv=
 -1.4601274,-0.275942,0.481375,0.0143285,-0.6052093,-0.012349,0.4712522
 ,0.1101021,-0.5618836,-1.0545615,-0.3214454,0.3360191,-0.1387776,-0.50
 76455,0.1688384,0.4094733,0.3110581,-0.4333142,0.8161886,-0.1113009,-0
 .14082,-0.3803906,0.3473647,0.1690792,-0.1492403,0.0485231,0.5622976,-
 0.044533,0.0446157,-0.0257112,0.0971959,-0.0062736,0.0050995,-0.066404
 ,0.0794998,-0.0770029,-0.0137229,-0.0268764,-0.0499451,0.0653818,-0.00
 05645,-0.07731,-0.0028649,-0.0861631,-0.1055353,0.925315,0.374755,-0.4
 358256,0.3075852,0.3778849,-0.1085137,-0.4346184,-0.1653232,0.1263081,
 0.6531161,0.3167746,-0.4058114,-0.0406974,0.0526907,-0.0392806,-0.4568
 061,-0.2279293,-0.0135688,-0.0762997,-0.0578247,0.0363965,-0.0671231,-
 0.0590051,0.0305027,0.0381171,0.0263417,-0.011518,0.0707919,0.0011315,
 -0.0305925,-0.0301518,0.0021909,-0.0718359,-0.0499156,-0.0438563,-0.06
 63582,-0.0833017,0.0664044,0.045199,0.0682378,0.053119,-0.0161036,0.06
 8586,-0.0315443,0.0397112,0.0164271,-0.0971268,0.0275647,-0.0678126,-0
 .025164,0.0496695,-0.0046792,0.020892,0.0309246,0.0101602,-0.083807,-0
 .0088822,-0.0859378,-0.0326324,0.0185569,0.0245471,0.0621418,0.0323565
 ,0.0280577,0.0352409,-0.0857171,0.0369096,0.0005097,0.068948,-0.066217
 1,0.0280024,-0.0261238,-0.0687204,0.0641803,0.084404,0.053067,0.054741
 9,-0.0401743,0.0595206,-0.0303065,0.0245309,-0.0104928,0.0428248,0.073
 663,0.045029,0.0330793,-0.0202651,0.0785563,-0.0239121,0.117683,-0.011
 9398,0.0489265,0.0860304,0.0927412,-0.0142481,-0.0463153,0.114704,0.01
 55268,0.1188172,0.3036424,-0.0205304,0.0126535,0.0304147,0.3291612,-0.
 0785467,-0.0340111,-0.0930528,0.2426757\Polar=74.6636915,4.5745771,65.
 0565513,-6.882113,-0.9080186,60.5651274\Quadrupole=2.4179362,0.3535265
 ,-2.7714628,1.6952635,1.3779557,0.7219188\PG=C01 [X(C5H10O2)]\NImag=0\
 \0.50047654,0.00478514,0.29849718,-0.18993810,0.00151289,0.16174573,-0
 .01281920,-0.00612550,0.00799244,0.46906505,-0.00930390,-0.00604703,0.
 00296912,0.23720442,0.29374234,0.01434106,0.00188096,0.00821067,0.0056
 1418,0.17672686,0.30110094,-0.13946257,0.03999982,0.03631861,0.0057020
 8,0.00361923,-0.00327855,0.53452235,0.05759198,-0.13739742,-0.02724747
 ,-0.00347569,-0.00395315,0.00229767,0.08115270,0.54488656,0.03632887,-
 0.01939966,-0.07702231,-0.00233007,-0.00194468,0.00160835,-0.01718278,
 -0.03675032,0.50286363,-0.02566185,0.02716085,-0.01558087,-0.00067372,
 -0.00041516,0.00060806,-0.09402556,0.01578451,-0.03007613,0.55456692,0
 .01893225,-0.01586634,0.00892404,0.00120442,0.00003141,0.00001398,0.01
 790550,-0.11402184,0.04879651,0.02861221,0.56215120,0.01001269,-0.0098
 3056,0.01005836,-0.00006988,0.00052559,-0.00045234,-0.03504192,0.05242
 902,-0.15071366,-0.03812486,0.03866635,0.53751666,-0.00221457,0.024985
 74,0.03005930,-0.00055871,-0.00051627,-0.00000631,-0.09429341,-0.02912
 888,-0.03591822,-0.00257356,-0.00936355,-0.01310308,0.58210079,0.00504
 266,-0.01561810,-0.02018682,0.00081350,-0.00018444,-0.00117713,-0.0248
 8321,-0.11344420,-0.04544859,0.00352069,0.01251454,0.01548529,-0.01081
 164,0.56336387,0.00465997,-0.01430096,-0.01365908,0.00042776,-0.000124
 97,-0.00038982,-0.03078348,-0.04585528,-0.15108058,-0.01230574,-0.0124
 1364,-0.02417048,-0.01444394,-0.04579716,0.50879174,-0.25476520,-0.062
 40229,0.09617933,-0.01689062,-0.03972986,0.00387421,-0.04357022,-0.001
 59086,0.01691461,0.00347368,0.00003127,-0.00307393,0.00675390,0.000073
 77,-0.00110833,0.58293354,-0.08424858,-0.14541731,0.03418228,-0.007762
 62,-0.00159026,0.00284469,0.01344099,0.01559147,-0.00529885,0.00318770
 ,0.00083826,-0.00271050,0.00392499,0.00093675,-0.00073264,0.05915058,0
 .89229249,0.09613660,0.02671945,-0.07784517,0.01343416,0.02257687,-0.0
 0401686,0.01697742,0.00094201,-0.01450907,-0.00376902,0.00004628,0.003
 41936,-0.00006916,0.00020089,0.00013769,-0.20684408,-0.01567080,0.2211
 4900,-0.00561221,-0.03540072,0.00489267,-0.24392185,-0.04490021,0.0909
 0093,0.00103854,-0.00205735,-0.00121203,-0.00019618,0.00114127,-0.0005
 3417,0.00043770,0.00067116,0.00031121,-0.13833810,-0.11107002,0.036113
 73,0.52947986,-0.01718037,-0.00502858,0.00953528,-0.03076948,-0.088953
 84,-0.00598420,0.00189235,0.00262659,-0.00110188,-0.00103760,0.0004074
 9,0.00004873,-0.00076641,0.00063220,0.00099889,-0.09647590,-0.52026152
 ,0.03442895,0.05706230,0.89385565,0.00008028,0.01491037,0.00281103,0.1
 2256361,0.00866733,-0.10883339,0.00023852,0.00008967,-0.00095990,-0.00
 059969,0.00053238,0.00032284,-0.00003683,-0.00124143,-0.00049030,0.042
 64719,0.04744218,-0.06857648,-0.19336459,-0.00452618,0.21165366,-0.035
 47982,-0.00979770,0.01698241,-0.00059028,-0.00053689,0.00032276,-0.157
 72558,-0.11829796,0.04839939,0.00980818,0.01062076,-0.00555659,-0.0060
 0430,-0.00893953,0.00118658,-0.00000497,0.00405807,0.00037798,0.000302
 02,0.00026768,-0.00016040,0.18833456,0.02360174,0.01152570,-0.01067993
 ,0.00017236,0.00043591,-0.00009179,-0.12887578,-0.17546619,0.05861767,
 -0.01031554,-0.01386759,0.00729230,-0.01206790,-0.01374601,0.00285377,
 0.00263230,-0.00096285,-0.00127586,0.00049225,-0.00024427,-0.00017095,
 0.12160664,0.19161199,0.01734679,0.00450376,-0.00566286,0.00026604,0.0
 0024384,-0.00010982,0.04830486,0.05379583,-0.07258412,0.01474399,0.020
 88636,-0.00968991,-0.01908992,-0.02182791,0.00584420,0.00018224,-0.001
 84967,0.00029818,-0.00003501,-0.00013378,0.00021121,-0.05855838,-0.055
 22448,0.08566857,0.00162337,-0.00088669,0.00053381,0.00003069,0.000255
 51,-0.00001969,-0.00501327,-0.00865123,-0.01221757,-0.05717599,-0.0332
 9330,-0.04203144,-0.00105083,0.00246024,-0.00181565,-0.00075311,-0.000
 19619,0.00037497,0.00001355,-0.00035192,0.00008757,0.00028824,0.000214
 79,0.00067024,0.05810232,-0.00187814,0.00133730,-0.00048042,-0.0002717
 3,0.00004470,0.00015977,0.00434275,0.01133555,0.01607363,-0.03376788,-
 0.14264865,-0.12714853,0.00192914,-0.00202441,0.00226120,0.00037850,0.
 00026531,-0.00026124,0.00013424,-0.00033085,-0.00002903,-0.00044459,0.
 00085835,-0.00066146,0.03515344,0.15120844,0.00181527,-0.00049066,0.00
 258412,0.00009036,0.00004404,-0.00002099,-0.00388805,-0.01588285,-0.02
 057941,-0.04321903,-0.12449181,-0.21396144,-0.00208200,0.00447816,-0.0
 0224255,-0.00077798,-0.00017968,0.00017728,-0.00005708,0.00004434,-0.0
 0011896,0.00052626,-0.00005317,0.00050780,0.04873664,0.13582239,0.2331
 8788,-0.00115599,0.00179727,-0.00235853,-0.00042066,-0.00000727,0.0001
 8366,-0.01253160,0.00345176,0.00739249,-0.24568921,0.08804934,0.079986
 79,0.00025629,-0.00032131,0.00060273,0.00122475,0.00035690,-0.00042495
 ,0.00020566,-0.00048678,-0.00046230,0.00085266,0.00007459,-0.00003753,
 0.00721511,-0.00305661,-0.00226102,0.26531131,0.00540659,-0.00259464,0
 .00290375,0.00007047,0.00032994,-0.00024060,0.01382029,-0.00690540,-0.
 00888069,0.08732595,-0.08414721,-0.03459789,-0.00029894,0.00033720,-0.
 00037841,-0.00235360,-0.00150752,0.00123623,-0.00034081,0.00013395,-0.
 00026988,-0.00037680,0.00002370,-0.00059281,0.01624177,-0.00722631,-0.
 00494318,-0.09769656,0.09004274,-0.00517836,0.00428526,-0.00221444,-0.
 00003258,-0.00011477,0.00015938,-0.02004835,0.00701515,0.00926544,0.08
 144829,-0.03610826,-0.07966715,0.00043269,-0.00050477,0.00029217,0.001
 41673,0.00138574,-0.00088191,0.00013896,-0.00047885,0.00011982,0.00055
 846,-0.00027642,0.00117610,0.02257891,-0.00783213,-0.00786782,-0.08803
 483,0.03692403,0.08407749,0.00030048,-0.00126041,0.00081816,-0.0001675
 5,-0.00000369,-0.00032043,0.01108561,0.01201062,-0.00418440,-0.1400115
 3,-0.12260506,0.04747392,0.00067723,0.00042592,0.00092710,-0.00001425,
 -0.00003534,0.00007658,-0.00281219,-0.00023992,0.00009946,-0.00024053,
 0.00203765,-0.00279201,-0.00398859,-0.00322699,0.00176645,-0.01545810,
 -0.02137685,0.00695513,0.15443981,0.00204002,0.00076918,-0.00114849,-0
 .00033136,0.00035471,-0.00001818,-0.01264029,-0.01374685,0.00557218,-0
 .12100719,-0.20379850,0.06132677,0.00033370,0.00067217,-0.00126646,-0.
 00136410,-0.00103915,0.00045540,-0.00020888,-0.00012148,-0.00061593,0.
 00216971,-0.00067839,0.00250370,-0.01075670,-0.01358688,0.00645092,0.0
 0762672,0.01101214,-0.00408448,0.13441631,0.21854716,-0.00104424,-0.00
 094818,0.00151692,0.00027967,-0.00032195,-0.00014351,0.01792041,0.0176
 4807,-0.00886603,0.04651307,0.06141156,-0.07214510,0.00140197,0.000464
 86,0.00153892,0.00042618,0.00008948,-0.00007447,-0.00023840,0.00051075
 ,0.00030365,-0.00285143,0.00267690,-0.00313693,-0.01591110,-0.01894012
 ,0.00912862,0.00585164,0.00841428,-0.00407815,-0.05083610,-0.06990111,
 0.07547838,0.00113470,-0.00005213,-0.00027174,-0.00005960,0.00039980,0
 .00031781,-0.00719962,-0.00579173,0.00224191,0.00007242,-0.00005718,0.
 00086658,-0.14258340,-0.12526826,0.03838447,-0.00020548,-0.00006950,-0
 .00003110,-0.00119858,-0.00080655,0.00144205,0.00087486,-0.00075560,-0
 .00198004,0.00018543,0.00026173,-0.00001535,-0.00014213,-0.00007881,-0
 .00002524,0.00010572,0.00021469,-0.00051603,0.15407594,0.00229496,0.00
 079456,-0.00093027,-0.00025672,0.00048407,0.00026984,-0.01212815,-0.01
 360995,0.00598009,0.00118057,0.00066953,0.00059136,-0.12434635,-0.2085
 6465,0.05157738,-0.00130872,-0.00111087,0.00069860,0.00032338,-0.00032
 719,0.00072753,-0.00042600,-0.00061464,-0.00322593,0.00022857,0.000084
 18,-0.00002714,0.00008173,-0.00002848,-0.00007088,-0.00030616,0.000512
 12,-0.00054527,0.13951836,0.22361970,0.00143545,0.00149478,0.00070127,
 -0.00044547,0.00012054,-0.00034141,-0.01955503,-0.02113868,0.00915076,
 0.00036313,-0.00060946,0.00221330,0.03941459,0.05284759,-0.06415697,-0
 .00027178,-0.00002368,0.00036156,0.00196783,-0.00009270,-0.00160200,-0
 .00184047,-0.00323506,-0.00428548,0.00026538,0.00012303,0.00014839,0.0
 0003576,0.00005041,-0.00001886,0.00028056,0.00058701,-0.00013926,-0.04
 475089,-0.05617542,0.06991232,0.00096530,-0.00026340,0.00127705,-0.000
 03467,0.00016311,-0.00007133,-0.00607963,0.00649308,-0.00457208,0.0001
 5175,-0.00176177,-0.00097777,-0.10915367,0.07516228,-0.08537685,0.0000
 7490,0.00006017,-0.00009487,-0.00007942,-0.00029535,-0.00011250,-0.000
 18774,0.00015526,0.00012570,0.00018665,0.00041517,-0.00059159,0.000313
 93,-0.00019283,0.00022818,0.00003413,0.00015871,-0.00015520,0.01060177
 ,-0.01170317,0.01372870,0.11487889,-0.00086886,0.00131224,0.00173261,-
 0.00030755,0.00008675,0.00007184,-0.00944052,0.01122967,-0.01319950,-0
 .00044900,-0.00191088,-0.00286870,0.07676729,-0.14329933,0.10662541,0.
 00048279,0.00030645,-0.00014801,0.00007749,-0.00041256,-0.00011458,0.0
 0020766,0.00080490,0.00076910,-0.00041455,0.00068817,-0.00090199,-0.00
 006716,-0.00013856,0.00008952,0.00006331,0.00007757,-0.00028840,0.0127
 8887,-0.01382617,0.01469944,-0.08285127,0.15189720,0.00005364,0.000953
 65,0.00323075,-0.00005936,-0.00025618,0.00016544,-0.01355725,0.0172477
 4,-0.01929885,-0.00080030,-0.00484261,-0.00357063,-0.08419181,0.104596
 78,-0.16115768,0.00100562,0.00023129,-0.00059158,0.00000560,0.00031071
 ,-0.00009157,0.00026349,-0.00014967,0.00092193,-0.00094517,0.00094661,
 -0.00115877,-0.00011656,0.00002830,0.00028392,0.00014095,-0.00013921,0
 .00028935,-0.00346493,0.00387108,-0.00524388,0.09484298,-0.11336385,0.
 17550573,0.00196358,-0.00200635,-0.00245686,-0.00021382,0.00007579,0.0
 0023639,0.00625302,-0.00295110,-0.00405388,-0.00025362,0.00019935,0.00
 002410,-0.23046932,0.08121544,0.09815313,-0.00050211,-0.00082803,-0.00
 006845,0.00033309,0.00002628,0.00023735,0.00083075,0.00023115,0.000447
 55,0.00023504,-0.00011249,0.00016642,0.00021349,-0.00004922,-0.0002813
 3,-0.00007305,0.00009855,0.00001450,-0.01498150,0.00748485,0.00720005,
 -0.01184057,0.00385828,0.00687261,0.24863985,0.00137977,-0.00250623,-0
 .00593971,0.00014793,0.00036693,0.00006062,0.01553918,-0.00663136,-0.0
 0487399,0.00005003,0.00026520,0.00045245,0.07963034,-0.08087794,-0.043
 05833,-0.00249848,-0.00148829,0.00087561,-0.00001703,0.00001629,0.0005
 9519,0.00024623,0.00001416,0.00062821,-0.00014144,-0.00013358,0.000113
 93,-0.00013614,0.00035333,-0.00005171,-0.00008141,-0.00001994,0.000040
 49,-0.02072704,0.01063182,0.01123373,0.01441509,-0.00692658,-0.0093451
 2,-0.08765778,0.08655180,0.00030670,-0.00410162,-0.00530352,0.00041222
 ,0.00004809,-0.00012674,0.02368015,-0.00685154,-0.00982374,0.00018780,
 0.00053406,0.00076272,0.09671456,-0.04267221,-0.09855883,-0.00191238,-
 0.00113239,0.00079571,-0.00037233,0.00075366,0.00012397,-0.00007533,0.
 00010026,0.00127499,-0.00020760,-0.00001163,0.00034094,-0.00068129,0.0
 0016564,-0.00060967,0.00008260,-0.00003495,-0.00007122,0.00596038,-0.0
 0292476,-0.00430960,-0.01810038,0.00689148,0.01090987,-0.10631745,0.04
 938594,0.10476234,-0.03095077,0.01840614,0.01517004,-0.00048642,0.0000
 6705,-0.00321315,0.00107591,-0.00453780,0.00069572,0.00003426,-0.00005
 145,0.00022484,-0.00057578,0.00025110,0.00018447,-0.14546722,0.1260497
 3,0.04973877,0.00869562,-0.00503923,0.00066184,-0.00100495,0.00058123,
 0.00047688,-0.00002751,-0.00000501,-0.00005999,0.00001051,0.00012691,-
 0.00012953,-0.00002889,0.00012097,-0.00012840,0.00003331,0.00004313,0.
 00011563,0.00003199,0.00001146,0.00001383,0.00009781,0.00016963,0.0002
 2321,0.16790535,-0.01141847,0.01361902,0.00540481,0.00043998,0.0027080
 3,-0.00047354,-0.00253193,-0.00000517,0.00107012,-0.00027248,0.0000103
 5,0.00016240,-0.00026938,-0.00001689,0.00007325,0.12981570,-0.22110660
 ,-0.06270134,0.02054212,-0.01884430,-0.00999192,-0.00033661,0.00016848
 ,0.00015466,0.00003858,0.00003998,-0.00003030,0.00000857,0.00008064,-0
 .00006949,-0.00011244,0.00004717,-0.00009006,-0.00000532,0.00005514,0.
 00014465,0.00004642,0.00004125,-0.00000527,0.00006086,0.00008249,0.000
 02899,-0.13342207,0.22717074,0.01412938,-0.00805135,-0.00485316,-0.003
 19471,0.00114991,-0.00577524,0.00059361,0.00191513,0.00224901,0.000693
 42,-0.00041717,-0.00020214,-0.00029808,0.00026501,0.00037808,0.0500436
 1,-0.06212138,-0.06569668,0.00235474,0.00270774,0.00886333,0.00044969,
 -0.00024856,-0.00017082,-0.00004107,-0.00001887,-0.00001064,0.00015602
 ,-0.00009251,0.00017196,0.00006238,0.00006159,0.00000930,-0.00006946,-
 0.00011248,-0.00002647,-0.00001714,0.00001916,-0.00007368,-0.00004517,
 -0.00000716,0.00008344,-0.06754158,0.06519852,0.05786348,0.00078960,0.
 00172512,-0.00176463,-0.02440089,0.01838233,0.01367400,0.00006918,0.00
 023913,-0.00018546,-0.00184929,0.00039620,-0.00006259,-0.00061867,0.00
 089369,0.00106080,0.00989393,-0.00805204,-0.00214564,-0.12207512,0.121
 68937,0.04158775,-0.00005584,0.00014683,-0.00007997,0.00008823,0.00010
 656,-0.00014986,-0.00025036,-0.00023306,-0.00002539,-0.00367413,-0.000
 92911,-0.00063702,-0.00076134,-0.00082941,0.00200745,0.00011402,0.0000
 9006,-0.00004511,-0.00031366,-0.00040812,0.00011620,0.00105326,-0.0026
 6999,0.00364001,0.14128035,-0.00055548,0.00205393,0.00022788,-0.004586
 00,0.01154639,0.00336640,-0.00003731,-0.00135952,0.00009397,0.00022150
 ,-0.00053129,0.00030065,-0.00014511,-0.00060299,-0.00034756,0.01988195
 ,-0.01519220,-0.00857635,0.11680390,-0.25836746,-0.05555427,-0.0001067
 9,0.00017929,0.00006826,0.00016826,0.00008185,0.00005892,0.00026708,0.
 00030784,-0.00014390,0.00028920,0.00100491,-0.00026274,0.00046044,0.00
 123954,0.00000446,0.00005676,0.00008993,-0.00017158,0.00031776,0.00036
 327,-0.00012920,-0.00224635,-0.00402099,0.00056783,-0.13137223,0.26233
 088,0.00021361,-0.00018867,-0.00371301,0.01679790,-0.01024791,-0.00384
 180,-0.00075237,0.00041270,0.00006555,-0.00003846,-0.00087521,0.000284
 91,0.00122199,0.00042592,-0.00103356,-0.00305780,0.00345468,0.00677391
 ,0.03917234,-0.05507659,-0.05249312,-0.00002366,-0.00010851,-0.0002185
 3,-0.00007547,-0.00000339,-0.00009191,0.00015068,0.00025147,-0.0002006
 9,-0.00052084,0.00021782,0.00038975,0.00184068,0.00035900,-0.00247480,
 -0.00017532,-0.00007179,-0.00005488,-0.00008497,-0.00009560,-0.0002333
 4,0.00356884,0.00088189,0.00710440,-0.05767132,0.06099643,0.04987051,0
 .00086862,-0.00066488,0.00214690,-0.17355981,-0.16475398,-0.12316361,0
 .00015477,-0.00024117,-0.00004036,0.00000328,0.00003974,-0.00001269,-0
 .00012968,-0.00030650,-0.00006421,-0.00384341,0.00203319,0.00021705,-0
 .02627240,-0.02748847,-0.01490931,0.00000273,0.00006803,0.00000855,0.0
 0004067,0.00004191,0.00000056,0.00004434,0.00000551,-0.00000174,-0.000
 17417,0.00005825,-0.00008951,0.00004751,0.00014913,0.00004912,0.000022
 37,0.00005170,-0.00001826,0.00008102,0.00008925,-0.00001707,-0.0003965
 0,0.00008645,-0.00091563,0.00071071,0.00058242,-0.00056581,0.20239993,
 0.00437869,0.00056654,-0.00077954,-0.18616641,-0.20940244,-0.17970717,
 -0.00117563,0.00087121,0.00069397,0.00022084,-0.00009568,-0.00012473,0
 .00014322,-0.00007774,-0.00011450,-0.00472304,-0.00055417,0.00045331,-
 0.00325310,-0.00478011,-0.00045047,0.00008611,-0.00004252,-0.00003768,
 -0.00006912,0.00000687,-0.00001191,0.00005786,-0.00007335,0.00003597,0
 .00000526,-0.00000595,0.00004144,-0.00003175,-0.00000869,-0.00003063,-
 0.00005827,-0.00002004,0.00008733,0.00003667,-0.00006137,-0.00004981,-
 0.00052543,-0.00002934,-0.00081543,0.00082468,0.00087659,-0.00033223,0
 .19024944,0.21283020,-0.00069959,0.00105055,-0.00058531,-0.16174626,-0
 .20006172,-0.18719287,0.00005418,-0.00006684,0.00023494,-0.00004365,-0
 .00005336,-0.00000528,-0.00000576,0.00009152,-0.00004295,0.00435657,0.
 00008925,-0.00092048,0.01995559,0.01805513,0.00875622,-0.00000077,-0.0
 0002650,-0.00004450,0.00001723,0.00000020,-0.00002253,0.00001727,0.000
 02187,-0.00000757,-0.00002952,0.00003340,-0.00000021,0.00007090,-0.000
 06274,0.00011113,0.00004244,0.00005826,-0.00006546,-0.00004400,-0.0000
 1454,-0.00001732,-0.00000140,0.00024263,0.00008582,0.00068076,-0.00049
 919,-0.00013341,0.13737603,0.18114208,0.17984978\\0.00000244,0.0000005
 6,-0.00000116,-0.00000098,0.00000268,-0.00000070,0.00000026,-0.0000013
 1,0.00000019,-0.00000102,-0.00000113,0.00000041,0.00000138,0.00000027,
 0.00000002,0.00000070,0.00000093,-0.00000073,-0.00000124,0.00000037,-0
 .00000017,0.00000125,-0.00000206,0.00000025,0.00000035,-0.00000136,-0.
 00000027,-0.00000107,-0.00000211,-0.00000031,-0.00000031,-0.00000069,0
 .00000002,-0.00000143,-0.00000107,0.00000059,0.00000050,-0.00000073,0.
 00000029,-0.00000119,-0.00000182,0.00000041,0.00000228,0.00000190,-0.0
 0000031,-0.00000127,0.00000198,0.00000068,-0.00000066,0.00000359,0.000
 00077\\\@


 THERE IS NO CURE FOR BIRTH AND DEATH SAVE TO ENJOY THE INTERVAL.

                               -- GEORGE SANTAYANA
 Job cpu time:       0 days  3 hours  4 minutes  9.0 seconds.
 Elapsed time:       0 days  1 hours 32 minutes  7.0 seconds.
 File lengths (MBytes):  RWF=   1392 Int=      0 D2E=      0 Chk=     32 Scr=     32
 Normal termination of Gaussian 16 at Fri Sep 27 11:10:01 2019.
