 Entering Gaussian System, Link 0=g16
 Input=tight/species/CC(C)OC=CO/conformers/CC(C)OC=CO_38.com
 Output=tight/species/CC(C)OC=CO/conformers/CC(C)OC=CO_38.log
 Initial command:
 /shared/centos7/gaussian/g16/l1.exe "/scratch/harms.n/gauss_scrdir/Gau-1028.inp" -scrdir="/scratch/harms.n/gauss_scrdir/"
 Entering Link 1 = /shared/centos7/gaussian/g16/l1.exe PID=      1030.
  
 Copyright (c) 1988,1990,1992,1993,1995,1998,2003,2009,2016,
            Gaussian, Inc.  All Rights Reserved.
  
 This is part of the Gaussian(R) 16 program.  It is based on
 the Gaussian(R) 09 system (copyright 2009, Gaussian, Inc.),
 the Gaussian(R) 03 system (copyright 2003, Gaussian, Inc.),
 the Gaussian(R) 98 system (copyright 1998, Gaussian, Inc.),
 the Gaussian(R) 94 system (copyright 1995, Gaussian, Inc.),
 the Gaussian 92(TM) system (copyright 1992, Gaussian, Inc.),
 the Gaussian 90(TM) system (copyright 1990, Gaussian, Inc.),
 the Gaussian 88(TM) system (copyright 1988, Gaussian, Inc.),
 the Gaussian 86(TM) system (copyright 1986, Carnegie Mellon
 University), and the Gaussian 82(TM) system (copyright 1983,
 Carnegie Mellon University). Gaussian is a federally registered
 trademark of Gaussian, Inc.
  
 This software contains proprietary and confidential information,
 including trade secrets, belonging to Gaussian, Inc.
  
 This software is provided under written license and may be
 used, copied, transmitted, or stored only in accord with that
 written license.
  
 The following legend is applicable only to US Government
 contracts under FAR:
  
                    RESTRICTED RIGHTS LEGEND
  
 Use, reproduction and disclosure by the US Government is
 subject to restrictions as set forth in subparagraphs (a)
 and (c) of the Commercial Computer Software - Restricted
 Rights clause in FAR 52.227-19.
  
 Gaussian, Inc.
 340 Quinnipiac St., Bldg. 40, Wallingford CT 06492
  
  
 ---------------------------------------------------------------
 Warning -- This program may not be used in any manner that
 competes with the business of Gaussian, Inc. or will provide
 assistance to any competitor of Gaussian, Inc.  The licensee
 of this program is prohibited from giving any competitor of
 Gaussian, Inc. access to this program.  By using this program,
 the user acknowledges that Gaussian, Inc. is engaged in the
 business of creating and licensing software in the field of
 computational chemistry and represents and warrants to the
 licensee that it is not a competitor of Gaussian, Inc. and that
 it will not use this program in any manner prohibited above.
 ---------------------------------------------------------------
  

 Cite this work as:
 Gaussian 16, Revision A.03,
 M. J. Frisch, G. W. Trucks, H. B. Schlegel, G. E. Scuseria, 
 M. A. Robb, J. R. Cheeseman, G. Scalmani, V. Barone, 
 G. A. Petersson, H. Nakatsuji, X. Li, M. Caricato, A. V. Marenich, 
 J. Bloino, B. G. Janesko, R. Gomperts, B. Mennucci, H. P. Hratchian, 
 J. V. Ortiz, A. F. Izmaylov, J. L. Sonnenberg, D. Williams-Young, 
 F. Ding, F. Lipparini, F. Egidi, J. Goings, B. Peng, A. Petrone, 
 T. Henderson, D. Ranasinghe, V. G. Zakrzewski, J. Gao, N. Rega, 
 G. Zheng, W. Liang, M. Hada, M. Ehara, K. Toyota, R. Fukuda, 
 J. Hasegawa, M. Ishida, T. Nakajima, Y. Honda, O. Kitao, H. Nakai, 
 T. Vreven, K. Throssell, J. A. Montgomery, Jr., J. E. Peralta, 
 F. Ogliaro, M. J. Bearpark, J. J. Heyd, E. N. Brothers, K. N. Kudin, 
 V. N. Staroverov, T. A. Keith, R. Kobayashi, J. Normand, 
 K. Raghavachari, A. P. Rendell, J. C. Burant, S. S. Iyengar, 
 J. Tomasi, M. Cossi, J. M. Millam, M. Klene, C. Adamo, R. Cammi, 
 J. W. Ochterski, R. L. Martin, K. Morokuma, O. Farkas, 
 J. B. Foresman, and D. J. Fox, Gaussian, Inc., Wallingford CT, 2016.
 
 ******************************************
 Gaussian 16:  EM64L-G16RevA.03 25-Dec-2016
                26-Sep-2019 
 ******************************************
 %nprocshared=20
 Will use up to   20 processors via shared memory.
 %mem=5GB
 ----------------------------------------------------------------------
 #p m062x/cc-pVTZ opt=(calcfc,maxcycles=900,Tight) freq IOP(7/33=1,2/16
 =3) scf=(maxcycle=900)
 ----------------------------------------------------------------------
 1/6=900,7=10,10=4,18=20,19=15,26=3,38=1/1,3;
 2/9=110,12=2,16=3,17=6,18=5,40=1/2;
 3/5=16,6=1,11=2,25=1,30=1,71=2,74=-55,140=1/1,2,3;
 4//1;
 5/5=2,7=900,38=5/2;
 8/6=4,10=90,11=11/1;
 11/6=1,8=1,9=11,15=111,16=1/1,2,10;
 10/6=1,13=1/2;
 6/7=2,8=2,9=2,10=2,28=1/1;
 7/10=1,18=20,25=1,33=1/1,2,3,16;
 1/6=900,7=10,10=4,18=20,19=15,26=3/3(2);
 2/9=110,16=3/2;
 99//99;
 2/9=110,16=3/2;
 3/5=16,6=1,11=2,25=1,30=1,71=1,74=-55/1,2,3;
 4/5=5,16=3,69=1/1;
 5/5=2,7=900,38=5/2;
 7/33=1/1,2,3,16;
 1/6=900,7=10,18=20,19=15,26=3/3(-5);
 2/9=110,16=3/2;
 6/7=2,8=2,9=2,10=2,19=2,28=1/1;
 99/9=1/99;
 Leave Link    1 at Thu Sep 26 12:55:07 2019, MaxMem=   671088640 cpu:               4.1 elap:               2.1
 (Enter /shared/centos7/gaussian/g16/l101.exe)
 ------------------------------
 Gaussian input prepared by ASE
 ------------------------------
 Symbolic Z-matrix:
 Charge =  0 Multiplicity = 1
 O                     2.77886   1.83763   0.82032 
 O                     0.49673  -1.02708   0.51342 
 C                     2.34238   2.66023  -0.24113 
 C                     0.9098    3.15354  -0.03775 
 C                     2.5656    2.05457  -1.58776 
 C                     2.08987   0.65876   0.99197 
 C                     1.13584   0.17535   0.25021 
 H                     3.01346   3.56083  -0.17089 
 H                     0.27964   2.37354   0.4384 
 H                     0.89201   4.04989   0.60857 
 H                     0.4357    3.42899  -1.01856 
 H                     1.84662   1.2066   -1.78948 
 H                     3.60015   1.66413  -1.68448 
 H                     2.41189   2.8295   -2.39115 
 H                     2.44706   0.12068   1.8845 
 H                     0.7566    0.64943  -0.64301 
 H                     0.92179  -1.41027   1.33456 
 
 ITRead=  0  0  0  0  0  0  0  0  0  0  0  0  0  0  0  0  0
 MicOpt= -1 -1 -1 -1 -1 -1 -1 -1 -1 -1 -1 -1 -1 -1 -1 -1 -1
 NAtoms=     17 NQM=       17 NQMF=       0 NMMI=      0 NMMIF=      0
                NMic=       0 NMicF=      0.
                    Isotopes and Nuclear Properties:
 (Nuclear quadrupole moments (NQMom) in fm**2, nuclear magnetic moments (NMagM)
  in nuclear magnetons)

  Atom         1           2           3           4           5           6           7           8           9          10
 IAtWgt=          16          16          12          12          12          12          12           1           1           1
 AtmWgt=  15.9949146  15.9949146  12.0000000  12.0000000  12.0000000  12.0000000  12.0000000   1.0078250   1.0078250   1.0078250
 NucSpn=           0           0           0           0           0           0           0           1           1           1
 AtZEff=  -0.0000000  -0.0000000  -0.0000000  -0.0000000  -0.0000000  -0.0000000  -0.0000000  -0.0000000  -0.0000000  -0.0000000
 NQMom=    0.0000000   0.0000000   0.0000000   0.0000000   0.0000000   0.0000000   0.0000000   0.0000000   0.0000000   0.0000000
 NMagM=    0.0000000   0.0000000   0.0000000   0.0000000   0.0000000   0.0000000   0.0000000   2.7928460   2.7928460   2.7928460
 AtZNuc=   8.0000000   8.0000000   6.0000000   6.0000000   6.0000000   6.0000000   6.0000000   1.0000000   1.0000000   1.0000000

  Atom        11          12          13          14          15          16          17
 IAtWgt=           1           1           1           1           1           1           1
 AtmWgt=   1.0078250   1.0078250   1.0078250   1.0078250   1.0078250   1.0078250   1.0078250
 NucSpn=           1           1           1           1           1           1           1
 AtZEff=  -0.0000000  -0.0000000  -0.0000000  -0.0000000  -0.0000000  -0.0000000  -0.0000000
 NQMom=    0.0000000   0.0000000   0.0000000   0.0000000   0.0000000   0.0000000   0.0000000
 NMagM=    2.7928460   2.7928460   2.7928460   2.7928460   2.7928460   2.7928460   2.7928460
 AtZNuc=   1.0000000   1.0000000   1.0000000   1.0000000   1.0000000   1.0000000   1.0000000
 Leave Link  101 at Thu Sep 26 12:55:08 2019, MaxMem=   671088640 cpu:               2.1 elap:               1.1
 (Enter /shared/centos7/gaussian/g16/l103.exe)

 GradGradGradGradGradGradGradGradGradGradGradGradGradGradGradGradGradGrad
 Berny optimization.
 Initialization pass.
                           ----------------------------
                           !    Initial Parameters    !
                           ! (Angstroms and Degrees)  !
 --------------------------                            --------------------------
 ! Name  Definition              Value          Derivative Info.                !
 --------------------------------------------------------------------------------
 ! R1    R(1,3)                  1.412          calculate D2E/DX2 analytically  !
 ! R2    R(1,6)                  1.3762         calculate D2E/DX2 analytically  !
 ! R3    R(2,7)                  1.3869         calculate D2E/DX2 analytically  !
 ! R4    R(2,17)                 1.0009         calculate D2E/DX2 analytically  !
 ! R5    R(3,4)                  1.5287         calculate D2E/DX2 analytically  !
 ! R6    R(3,5)                  1.4933         calculate D2E/DX2 analytically  !
 ! R7    R(3,8)                  1.1253         calculate D2E/DX2 analytically  !
 ! R8    R(4,9)                  1.1101         calculate D2E/DX2 analytically  !
 ! R9    R(4,10)                 1.1052         calculate D2E/DX2 analytically  !
 ! R10   R(4,11)                 1.1237         calculate D2E/DX2 analytically  !
 ! R11   R(5,12)                 1.1299         calculate D2E/DX2 analytically  !
 ! R12   R(5,13)                 1.11           calculate D2E/DX2 analytically  !
 ! R13   R(5,14)                 1.1267         calculate D2E/DX2 analytically  !
 ! R14   R(6,7)                  1.3016         calculate D2E/DX2 analytically  !
 ! R15   R(6,15)                 1.1017         calculate D2E/DX2 analytically  !
 ! R16   R(7,16)                 1.08           calculate D2E/DX2 analytically  !
 ! A1    A(3,1,6)              115.9785         calculate D2E/DX2 analytically  !
 ! A2    A(7,2,17)             106.9725         calculate D2E/DX2 analytically  !
 ! A3    A(1,3,4)              112.1883         calculate D2E/DX2 analytically  !
 ! A4    A(1,3,5)              113.2898         calculate D2E/DX2 analytically  !
 ! A5    A(1,3,8)              103.5897         calculate D2E/DX2 analytically  !
 ! A6    A(4,3,5)              113.012          calculate D2E/DX2 analytically  !
 ! A7    A(4,3,8)              106.9947         calculate D2E/DX2 analytically  !
 ! A8    A(5,3,8)              106.9613         calculate D2E/DX2 analytically  !
 ! A9    A(3,4,9)              111.2416         calculate D2E/DX2 analytically  !
 ! A10   A(3,4,10)             110.7685         calculate D2E/DX2 analytically  !
 ! A11   A(3,4,11)             110.9993         calculate D2E/DX2 analytically  !
 ! A12   A(9,4,10)             108.0532         calculate D2E/DX2 analytically  !
 ! A13   A(9,4,11)             107.887          calculate D2E/DX2 analytically  !
 ! A14   A(10,4,11)            107.7492         calculate D2E/DX2 analytically  !
 ! A15   A(3,5,12)             111.7306         calculate D2E/DX2 analytically  !
 ! A16   A(3,5,13)             111.1341         calculate D2E/DX2 analytically  !
 ! A17   A(3,5,14)             110.0988         calculate D2E/DX2 analytically  !
 ! A18   A(12,5,13)            108.2725         calculate D2E/DX2 analytically  !
 ! A19   A(12,5,14)            107.5803         calculate D2E/DX2 analytically  !
 ! A20   A(13,5,14)            107.8748         calculate D2E/DX2 analytically  !
 ! A21   A(1,6,7)              127.8826         calculate D2E/DX2 analytically  !
 ! A22   A(1,6,15)             110.9229         calculate D2E/DX2 analytically  !
 ! A23   A(7,6,15)             121.1945         calculate D2E/DX2 analytically  !
 ! A24   A(2,7,6)              123.478          calculate D2E/DX2 analytically  !
 ! A25   A(2,7,16)             112.0678         calculate D2E/DX2 analytically  !
 ! A26   A(6,7,16)             124.4502         calculate D2E/DX2 analytically  !
 ! D1    D(6,1,3,4)             63.242          calculate D2E/DX2 analytically  !
 ! D2    D(6,1,3,5)            -66.1932         calculate D2E/DX2 analytically  !
 ! D3    D(6,1,3,8)            178.2878         calculate D2E/DX2 analytically  !
 ! D4    D(3,1,6,7)              4.2426         calculate D2E/DX2 analytically  !
 ! D5    D(3,1,6,15)          -175.7005         calculate D2E/DX2 analytically  !
 ! D6    D(17,2,7,6)            -0.9065         calculate D2E/DX2 analytically  !
 ! D7    D(17,2,7,16)          178.3942         calculate D2E/DX2 analytically  !
 ! D8    D(1,3,4,9)            -36.5696         calculate D2E/DX2 analytically  !
 ! D9    D(1,3,4,10)            83.6296         calculate D2E/DX2 analytically  !
 ! D10   D(1,3,4,11)          -156.7138         calculate D2E/DX2 analytically  !
 ! D11   D(5,3,4,9)             93.0096         calculate D2E/DX2 analytically  !
 ! D12   D(5,3,4,10)          -146.7912         calculate D2E/DX2 analytically  !
 ! D13   D(5,3,4,11)           -27.1346         calculate D2E/DX2 analytically  !
 ! D14   D(8,3,4,9)           -149.524          calculate D2E/DX2 analytically  !
 ! D15   D(8,3,4,10)           -29.3248         calculate D2E/DX2 analytically  !
 ! D16   D(8,3,4,11)            90.3318         calculate D2E/DX2 analytically  !
 ! D17   D(1,3,5,12)            72.7731         calculate D2E/DX2 analytically  !
 ! D18   D(1,3,5,13)           -48.2866         calculate D2E/DX2 analytically  !
 ! D19   D(1,3,5,14)          -167.7495         calculate D2E/DX2 analytically  !
 ! D20   D(4,3,5,12)           -56.242          calculate D2E/DX2 analytically  !
 ! D21   D(4,3,5,13)          -177.3017         calculate D2E/DX2 analytically  !
 ! D22   D(4,3,5,14)            63.2354         calculate D2E/DX2 analytically  !
 ! D23   D(8,3,5,12)          -173.728          calculate D2E/DX2 analytically  !
 ! D24   D(8,3,5,13)            65.2123         calculate D2E/DX2 analytically  !
 ! D25   D(8,3,5,14)           -54.2507         calculate D2E/DX2 analytically  !
 ! D26   D(1,6,7,2)           -179.6911         calculate D2E/DX2 analytically  !
 ! D27   D(1,6,7,16)             1.0949         calculate D2E/DX2 analytically  !
 ! D28   D(15,6,7,2)             0.2469         calculate D2E/DX2 analytically  !
 ! D29   D(15,6,7,16)         -178.9672         calculate D2E/DX2 analytically  !
 --------------------------------------------------------------------------------
 Trust Radius=3.00D-01 FncErr=1.00D-07 GrdErr=1.00D-06 EigMax=2.50D+02 EigMin=1.00D-04
 Number of steps in this run=    102 maximum allowed number of steps=    102.
 GradGradGradGradGradGradGradGradGradGradGradGradGradGradGradGradGradGrad

 Leave Link  103 at Thu Sep 26 12:55:09 2019, MaxMem=   671088640 cpu:               1.4 elap:               0.7
 (Enter /shared/centos7/gaussian/g16/l202.exe)
                          Input orientation:                          
 ---------------------------------------------------------------------
 Center     Atomic      Atomic             Coordinates (Angstroms)
 Number     Number       Type             X           Y           Z
 ---------------------------------------------------------------------
      1          8           0        2.778861    1.837627    0.820321
      2          8           0        0.496730   -1.027081    0.513418
      3          6           0        2.342380    2.660234   -0.241130
      4          6           0        0.909797    3.153542   -0.037746
      5          6           0        2.565603    2.054575   -1.587762
      6          6           0        2.089868    0.658763    0.991969
      7          6           0        1.135844    0.175351    0.250212
      8          1           0        3.013457    3.560827   -0.170889
      9          1           0        0.279641    2.373543    0.438401
     10          1           0        0.892009    4.049889    0.608575
     11          1           0        0.435702    3.428988   -1.018559
     12          1           0        1.846615    1.206605   -1.789479
     13          1           0        3.600145    1.664135   -1.684478
     14          1           0        2.411891    2.829496   -2.391150
     15          1           0        2.447055    0.120679    1.884504
     16          1           0        0.756598    0.649431   -0.643009
     17          1           0        0.921792   -1.410268    1.334559
 ---------------------------------------------------------------------
                    Distance matrix (angstroms):
                    1          2          3          4          5
     1  O    0.000000
     2  O    3.675441   0.000000
     3  C    1.412047   4.191904   0.000000
     4  C    2.441580   4.236982   1.528729   0.000000
     5  C    2.427222   4.265184   1.493342   2.520312   0.000000
     6  C    1.376189   2.368369   2.364357   2.945641   2.971468
     7  C    2.405762   1.386935   2.805671   3.000606   2.992297
     8  H    2.001737   5.277414   1.125320   2.146857   2.115869
     9  H    2.584409   3.408372   2.190628   1.110050   3.071271
    10  H    2.915331   5.093224   2.180990   1.105209   3.406772
    11  H    3.377026   4.712455   2.197908   1.123668   2.597977
    12  H    2.842239   3.480643   2.180872   2.781503   1.129905
    13  H    2.641709   4.658817   2.158110   3.488271   1.109989
    14  H    3.381126   5.193991   2.157791   2.810659   1.126748
    15  H    2.047070   2.645940   3.313400   3.905953   3.976259
    16  H    2.764542   2.053180   2.592208   2.580772   2.477799
    17  H    3.776503   1.000891   4.590192   4.765683   4.821536
                    6          7          8          9         10
     6  C    0.000000
     7  C    1.301558   0.000000
     8  H    3.259944   3.894124   0.000000
     9  H    2.554179   2.366547   3.042143   0.000000
    10  H    3.616849   3.898708   2.312421   1.792789   0.000000
    11  H    3.801662   3.561759   2.716753   1.805839   1.800361
    12  H    2.845304   2.393537   3.086052   2.963208   3.840078
    13  H    3.233431   3.468758   2.496517   4.004451   4.275970
    14  H    4.032526   3.955953   2.413770   3.572218   3.577394
    15  H    1.101697   2.095990   4.047231   3.444459   4.414166
    16  H    2.109703   1.080011   3.713831   2.090334   3.626005
    17  H    2.400554   1.932826   5.599396   3.941153   5.508291
                   11         12         13         14         15
    11  H    0.000000
    12  H    2.742988   0.000000
    13  H    3.684000   1.815276   0.000000
    14  H    2.479661   1.820802   1.808148   0.000000
    15  H    4.839238   3.877875   4.055799   5.061634   0.000000
    16  H    2.823110   1.677192   3.193750   3.247872   3.086349
    17  H    5.402949   4.178868   5.073472   5.837542   2.229948
                   16         17
    16  H    0.000000
    17  H    2.860145   0.000000
 Stoichiometry    C5H10O2
 Framework group  C1[X(C5H10O2)]
 Deg. of freedom    45
 Full point group                 C1      NOp   1
 Largest Abelian subgroup         C1      NOp   1
 Largest concise Abelian subgroup C1      NOp   1
                         Standard orientation:                         
 ---------------------------------------------------------------------
 Center     Atomic      Atomic             Coordinates (Angstroms)
 Number     Number       Type             X           Y           Z
 ---------------------------------------------------------------------
      1          8           0       -0.485023    1.279128   -0.085253
      2          8           0        2.677347   -0.590393    0.029486
      3          6           0       -1.432377    0.234280   -0.016772
      4          6           0       -1.361263   -0.523525    1.309006
      5          6           0       -1.403998   -0.667395   -1.206833
      6          6           0        0.836694    0.898265   -0.041660
      7          6           0        1.319978   -0.310066   -0.021039
      8          1           0       -2.420793    0.771886   -0.035724
      9          1           0       -0.313504   -0.615700    1.663855
     10          1           0       -1.942872   -0.001499    2.090483
     11          1           0       -1.782349   -1.559954    1.203493
     12          1           0       -0.490884   -1.332908   -1.205770
     13          1           0       -1.408360   -0.084016   -2.151145
     14          1           0       -2.311683   -1.334978   -1.208542
     15          1           0        1.499307    1.778238   -0.023473
     16          1           0        0.721077   -1.208236   -0.053130
     17          1           0        3.157264    0.287936    0.029874
 ---------------------------------------------------------------------
 Rotational constants (GHZ):           4.2945894           1.6505061           1.6043308
 Leave Link  202 at Thu Sep 26 12:55:11 2019, MaxMem=   671088640 cpu:               3.6 elap:               1.8
 (Enter /shared/centos7/gaussian/g16/l301.exe)
 Standard basis: CC-pVTZ (5D, 7F)
 Ernie: Thresh=  0.10000D-02 Tol=  0.10000D-05 Strict=F.
 Ernie:  21 primitive shells out of 262 were deleted.
 There are   395 symmetry adapted cartesian basis functions of A   symmetry.
 There are   350 symmetry adapted basis functions of A   symmetry.
   350 basis functions,   534 primitive gaussians,   395 cartesian basis functions
    28 alpha electrons       28 beta electrons
       nuclear repulsion energy       321.9080172291 Hartrees.
 IExCor= 4336 DFT=T Ex+Corr=M062X ExCW=0 ScaHFX=  0.540000
 ScaDFX=  1.000000  1.000000  1.000000  1.000000 ScalE2=  1.000000  1.000000
 IRadAn=      5 IRanWt=     -1 IRanGd=            0 ICorTp=0 IEmpDi=  4
 NAtoms=   17 NActive=   17 NUniq=   17 SFac= 1.00D+00 NAtFMM=   60 NAOKFM=F Big=F
 Integral buffers will be    131072 words long.
 Raffenetti 2 integral format.
 Two-electron integral symmetry is turned on.
 Leave Link  301 at Thu Sep 26 12:55:12 2019, MaxMem=   671088640 cpu:               1.5 elap:               0.7
 (Enter /shared/centos7/gaussian/g16/l302.exe)
 NPDir=0 NMtPBC=     1 NCelOv=     1 NCel=       1 NClECP=     1 NCelD=      1
         NCelK=      1 NCelE2=     1 NClLst=     1 CellRange=     0.0.
 One-electron integrals computed using PRISM.
 One-electron integral symmetry used in STVInt
 NBasis=   350 RedAO= T EigKep=  2.79D-04  NBF=   350
 NBsUse=   350 1.00D-06 EigRej= -1.00D+00 NBFU=   350
 Precomputing XC quadrature grid using
 IXCGrd= 4 IRadAn=           5 IRanWt=          -1 IRanGd=           0 AccXCQ= 0.00D+00.
 Generated NRdTot=       0 NPtTot=           0 NUsed=           0 NTot=          32
 NSgBfM=   395   395   395   395   395 MxSgAt=    17 MxSgA2=    17.
 Leave Link  302 at Thu Sep 26 12:56:23 2019, MaxMem=   671088640 cpu:             143.0 elap:              71.5
 (Enter /shared/centos7/gaussian/g16/l303.exe)
 DipDrv:  MaxL=1.
 Leave Link  303 at Thu Sep 26 12:56:27 2019, MaxMem=   671088640 cpu:               7.3 elap:               3.7
 (Enter /shared/centos7/gaussian/g16/l401.exe)
 ExpMin= 1.03D-01 ExpMax= 1.53D+04 ExpMxC= 5.22D+02 IAcc=3 IRadAn=         5 AccDes= 0.00D+00
 Harris functional with IExCor= 1009 and IRadAn=       5 diagonalized for initial guess.
 HarFok:  IExCor= 1009 AccDes= 0.00D+00 IRadAn=         5 IDoV= 1 UseB2=F ITyADJ=14
 ICtDFT=  3500011 ScaDFX=  1.000000  1.000000  1.000000  1.000000
 FoFCou: FMM=F IPFlag=           0 FMFlag=      100000 FMFlg1=           0
         NFxFlg=           0 DoJE=T BraDBF=F KetDBF=T FulRan=T
         wScrn=  0.000000 ICntrl=       500 IOpCl=  0 I1Cent=   200000004 NGrid=           0
         NMat0=    1 NMatS0=      1 NMatT0=    0 NMatD0=    1 NMtDS0=    0 NMtDT0=    0
 Petite list used in FoFCou.
 Harris En= -346.799205958849    
 JPrj=0 DoOrth=F DoCkMO=F.
 Leave Link  401 at Thu Sep 26 12:56:57 2019, MaxMem=   671088640 cpu:              59.9 elap:              30.0
 (Enter /shared/centos7/gaussian/g16/l502.exe)
 Integral symmetry usage will be decided dynamically.
 Closed shell SCF:
 Using DIIS extrapolation, IDIIS=  1040.
 NGot=   671088640 LenX=   670765141 LenY=   670608675
 Requested convergence on RMS density matrix=1.00D-08 within 900 cycles.
 Requested convergence on MAX density matrix=1.00D-06.
 Requested convergence on             energy=1.00D-06.
 No special actions if energy rises.
 Fock matrices will be formed incrementally for  20 cycles.
 Integral accuracy reduced to 1.0D-05 until final iterations.

 Cycle   1  Pass 0  IDiag  1:
 FoFJK:  IHMeth= 1 ICntrl=       0 DoSepK=F KAlg= 0 I1Cent=           0 FoldK=F
 IRaf= 970000000 NMat=       1 IRICut=       1 DoRegI=T DoRafI=F ISym2E= 0 IDoP0=0 IntGTp=1.
 FoFCou: FMM=F IPFlag=           0 FMFlag=      100000 FMFlg1=           0
         NFxFlg=           0 DoJE=F BraDBF=F KetDBF=F FulRan=T
         wScrn=  0.000000 ICntrl=         0 IOpCl=  0 I1Cent=           0 NGrid=           0
         NMat0=    1 NMatS0=      1 NMatT0=    0 NMatD0=    1 NMtDS0=    0 NMtDT0=    0
 Symmetry not used in FoFCou.
 E= -346.695009253790    
 DIIS: error= 2.70D-02 at cycle   1 NSaved=   1.
 NSaved= 1 IEnMin= 1 EnMin= -346.695009253790     IErMin= 1 ErrMin= 2.70D-02
 ErrMax= 2.70D-02  0.00D+00 EMaxC= 1.00D-01 BMatC= 2.82D-01 BMatP= 2.82D-01
 IDIUse=3 WtCom= 7.30D-01 WtEn= 2.70D-01
 Coeff-Com:  0.100D+01
 Coeff-En:   0.100D+01
 Coeff:      0.100D+01
 Gap=     0.342 Goal=   None    Shift=    0.000
 GapD=    0.342 DampG=1.000 DampE=0.500 DampFc=0.5000 IDamp=-1.
 Damping current iteration by 5.00D-01
 RMSDP=1.85D-03 MaxDP=8.52D-02              OVMax= 1.39D-01

 Cycle   2  Pass 0  IDiag  1:
 RMSU=  9.24D-04    CP:  9.99D-01
 E= -346.811845236212     Delta-E=       -0.116835982422 Rises=F Damp=T
 DIIS: error= 5.12D-03 at cycle   2 NSaved=   2.
 NSaved= 2 IEnMin= 2 EnMin= -346.811845236212     IErMin= 2 ErrMin= 5.12D-03
 ErrMax= 5.12D-03  0.00D+00 EMaxC= 1.00D-01 BMatC= 2.16D-02 BMatP= 2.82D-01
 IDIUse=3 WtCom= 9.49D-01 WtEn= 5.12D-02
 Coeff-Com: -0.136D+00 0.114D+01
 Coeff-En:   0.000D+00 0.100D+01
 Coeff:     -0.130D+00 0.113D+01
 Gap=     0.332 Goal=   None    Shift=    0.000
 RMSDP=4.19D-04 MaxDP=1.37D-02 DE=-1.17D-01 OVMax= 7.21D-02

 Cycle   3  Pass 0  IDiag  1:
 RMSU=  4.17D-04    CP:  1.00D+00  1.01D+00
 E= -346.916958178229     Delta-E=       -0.105112942017 Rises=F Damp=F
 DIIS: error= 2.83D-03 at cycle   3 NSaved=   3.
 NSaved= 3 IEnMin= 3 EnMin= -346.916958178229     IErMin= 3 ErrMin= 2.83D-03
 ErrMax= 2.83D-03  0.00D+00 EMaxC= 1.00D-01 BMatC= 3.35D-03 BMatP= 2.16D-02
 IDIUse=3 WtCom= 9.72D-01 WtEn= 2.83D-02
 Coeff-Com: -0.813D-01 0.303D+00 0.778D+00
 Coeff-En:   0.000D+00 0.000D+00 0.100D+01
 Coeff:     -0.790D-01 0.294D+00 0.785D+00
 Gap=     0.332 Goal=   None    Shift=    0.000
 RMSDP=1.26D-04 MaxDP=4.75D-03 DE=-1.05D-01 OVMax= 1.82D-02

 Cycle   4  Pass 0  IDiag  1:
 RMSU=  1.13D-04    CP:  1.00D+00  1.06D+00  9.19D-01
 E= -346.918784607975     Delta-E=       -0.001826429747 Rises=F Damp=F
 DIIS: error= 1.50D-03 at cycle   4 NSaved=   4.
 NSaved= 4 IEnMin= 4 EnMin= -346.918784607975     IErMin= 4 ErrMin= 1.50D-03
 ErrMax= 1.50D-03  0.00D+00 EMaxC= 1.00D-01 BMatC= 9.56D-04 BMatP= 3.35D-03
 IDIUse=3 WtCom= 9.85D-01 WtEn= 1.50D-02
 Coeff-Com: -0.286D-01 0.777D-01 0.394D+00 0.557D+00
 Coeff-En:   0.000D+00 0.000D+00 0.174D+00 0.826D+00
 Coeff:     -0.282D-01 0.766D-01 0.391D+00 0.561D+00
 Gap=     0.328 Goal=   None    Shift=    0.000
 RMSDP=5.99D-05 MaxDP=2.95D-03 DE=-1.83D-03 OVMax= 1.01D-02

 Cycle   5  Pass 0  IDiag  1:
 RMSU=  3.20D-05    CP:  1.00D+00  1.07D+00  9.46D-01  5.69D-01
 E= -346.919477345282     Delta-E=       -0.000692737306 Rises=F Damp=F
 DIIS: error= 2.89D-04 at cycle   5 NSaved=   5.
 NSaved= 5 IEnMin= 5 EnMin= -346.919477345282     IErMin= 5 ErrMin= 2.89D-04
 ErrMax= 2.89D-04  0.00D+00 EMaxC= 1.00D-01 BMatC= 4.70D-05 BMatP= 9.56D-04
 IDIUse=3 WtCom= 9.97D-01 WtEn= 2.89D-03
 Coeff-Com: -0.608D-02 0.125D-01 0.114D+00 0.249D+00 0.631D+00
 Coeff-En:   0.000D+00 0.000D+00 0.000D+00 0.000D+00 0.100D+01
 Coeff:     -0.606D-02 0.125D-01 0.113D+00 0.248D+00 0.632D+00
 Gap=     0.329 Goal=   None    Shift=    0.000
 RMSDP=1.72D-05 MaxDP=6.09D-04 DE=-6.93D-04 OVMax= 2.62D-03

 Cycle   6  Pass 0  IDiag  1:
 RMSU=  9.30D-06    CP:  1.00D+00  1.06D+00  9.58D-01  6.40D-01  6.96D-01
 E= -346.919514007807     Delta-E=       -0.000036662526 Rises=F Damp=F
 DIIS: error= 8.14D-05 at cycle   6 NSaved=   6.
 NSaved= 6 IEnMin= 6 EnMin= -346.919514007807     IErMin= 6 ErrMin= 8.14D-05
 ErrMax= 8.14D-05  0.00D+00 EMaxC= 1.00D-01 BMatC= 3.08D-06 BMatP= 4.70D-05
 IDIUse=1 WtCom= 1.00D+00 WtEn= 0.00D+00
 Coeff-Com: -0.286D-03-0.764D-03 0.193D-01 0.657D-01 0.265D+00 0.651D+00
 Coeff:     -0.286D-03-0.764D-03 0.193D-01 0.657D-01 0.265D+00 0.651D+00
 Gap=     0.329 Goal=   None    Shift=    0.000
 RMSDP=4.01D-06 MaxDP=1.62D-04 DE=-3.67D-05 OVMax= 5.24D-04

 Initial convergence to 1.0D-05 achieved.  Increase integral accuracy.
 Cycle   7  Pass 1  IDiag  1:
 E= -346.919511921594     Delta-E=        0.000002086213 Rises=F Damp=F
 DIIS: error= 2.10D-05 at cycle   1 NSaved=   1.
 NSaved= 1 IEnMin= 1 EnMin= -346.919511921594     IErMin= 1 ErrMin= 2.10D-05
 ErrMax= 2.10D-05  0.00D+00 EMaxC= 1.00D-01 BMatC= 6.15D-07 BMatP= 6.15D-07
 IDIUse=1 WtCom= 1.00D+00 WtEn= 0.00D+00
 Coeff-Com:  0.100D+01
 Coeff:      0.100D+01
 Gap=     0.329 Goal=   None    Shift=    0.000
 RMSDP=4.01D-06 MaxDP=1.62D-04 DE= 2.09D-06 OVMax= 3.02D-04

 Cycle   8  Pass 1  IDiag  1:
 RMSU=  6.66D-06    CP:  1.00D+00
 E= -346.919512124188     Delta-E=       -0.000000202593 Rises=F Damp=F
 DIIS: error= 2.13D-05 at cycle   2 NSaved=   2.
 NSaved= 2 IEnMin= 2 EnMin= -346.919512124188     IErMin= 1 ErrMin= 2.10D-05
 ErrMax= 2.13D-05  0.00D+00 EMaxC= 1.00D-01 BMatC= 3.26D-07 BMatP= 6.15D-07
 IDIUse=1 WtCom= 1.00D+00 WtEn= 0.00D+00
 Coeff-Com:  0.394D+00 0.606D+00
 Coeff:      0.394D+00 0.606D+00
 Gap=     0.329 Goal=   None    Shift=    0.000
 RMSDP=1.52D-06 MaxDP=5.80D-05 DE=-2.03D-07 OVMax= 1.96D-04

 Cycle   9  Pass 1  IDiag  1:
 RMSU=  1.51D-06    CP:  1.00D+00  9.75D-01
 E= -346.919512327917     Delta-E=       -0.000000203729 Rises=F Damp=F
 DIIS: error= 1.09D-05 at cycle   3 NSaved=   3.
 NSaved= 3 IEnMin= 3 EnMin= -346.919512327917     IErMin= 3 ErrMin= 1.09D-05
 ErrMax= 1.09D-05  0.00D+00 EMaxC= 1.00D-01 BMatC= 5.85D-08 BMatP= 3.26D-07
 IDIUse=1 WtCom= 1.00D+00 WtEn= 0.00D+00
 Coeff-Com: -0.107D-01 0.290D+00 0.721D+00
 Coeff:     -0.107D-01 0.290D+00 0.721D+00
 Gap=     0.329 Goal=   None    Shift=    0.000
 RMSDP=5.20D-07 MaxDP=2.12D-05 DE=-2.04D-07 OVMax= 8.31D-05

 Cycle  10  Pass 1  IDiag  1:
 RMSU=  3.05D-07    CP:  1.00D+00  1.01D+00  7.78D-01
 E= -346.919512371392     Delta-E=       -0.000000043476 Rises=F Damp=F
 DIIS: error= 2.07D-06 at cycle   4 NSaved=   4.
 NSaved= 4 IEnMin= 4 EnMin= -346.919512371392     IErMin= 4 ErrMin= 2.07D-06
 ErrMax= 2.07D-06  0.00D+00 EMaxC= 1.00D-01 BMatC= 2.99D-09 BMatP= 5.85D-08
 IDIUse=1 WtCom= 1.00D+00 WtEn= 0.00D+00
 Coeff-Com: -0.175D-01 0.112D+00 0.341D+00 0.564D+00
 Coeff:     -0.175D-01 0.112D+00 0.341D+00 0.564D+00
 Gap=     0.329 Goal=   None    Shift=    0.000
 RMSDP=1.12D-07 MaxDP=4.01D-06 DE=-4.35D-08 OVMax= 1.05D-05

 Cycle  11  Pass 1  IDiag  1:
 RMSU=  9.81D-08    CP:  1.00D+00  1.02D+00  8.10D-01  9.34D-01
 E= -346.919512373680     Delta-E=       -0.000000002288 Rises=F Damp=F
 DIIS: error= 5.24D-07 at cycle   5 NSaved=   5.
 NSaved= 5 IEnMin= 5 EnMin= -346.919512373680     IErMin= 5 ErrMin= 5.24D-07
 ErrMax= 5.24D-07  0.00D+00 EMaxC= 1.00D-01 BMatC= 1.57D-10 BMatP= 2.99D-09
 IDIUse=1 WtCom= 1.00D+00 WtEn= 0.00D+00
 Coeff-Com: -0.437D-02-0.890D-03 0.315D-01 0.163D+00 0.811D+00
 Coeff:     -0.437D-02-0.890D-03 0.315D-01 0.163D+00 0.811D+00
 Gap=     0.329 Goal=   None    Shift=    0.000
 RMSDP=4.23D-08 MaxDP=1.66D-06 DE=-2.29D-09 OVMax= 5.51D-06

 Cycle  12  Pass 1  IDiag  1:
 RMSU=  2.76D-08    CP:  1.00D+00  1.02D+00  8.17D-01  1.03D+00  1.07D+00
 E= -346.919512373799     Delta-E=       -0.000000000119 Rises=F Damp=F
 DIIS: error= 3.62D-07 at cycle   6 NSaved=   6.
 NSaved= 6 IEnMin= 6 EnMin= -346.919512373799     IErMin= 6 ErrMin= 3.62D-07
 ErrMax= 3.62D-07  0.00D+00 EMaxC= 1.00D-01 BMatC= 4.18D-11 BMatP= 1.57D-10
 IDIUse=1 WtCom= 1.00D+00 WtEn= 0.00D+00
 Coeff-Com:  0.811D-03-0.195D-01-0.385D-01-0.170D-01 0.390D+00 0.684D+00
 Coeff:      0.811D-03-0.195D-01-0.385D-01-0.170D-01 0.390D+00 0.684D+00
 Gap=     0.329 Goal=   None    Shift=    0.000
 RMSDP=1.85D-08 MaxDP=6.52D-07 DE=-1.19D-10 OVMax= 1.94D-06

 Cycle  13  Pass 1  IDiag  1:
 RMSU=  9.45D-09    CP:  1.00D+00  1.02D+00  8.24D-01  1.05D+00  1.15D+00
                    CP:  8.20D-01
 E= -346.919512373838     Delta-E=       -0.000000000040 Rises=F Damp=F
 DIIS: error= 4.41D-08 at cycle   7 NSaved=   7.
 NSaved= 7 IEnMin= 7 EnMin= -346.919512373838     IErMin= 7 ErrMin= 4.41D-08
 ErrMax= 4.41D-08  0.00D+00 EMaxC= 1.00D-01 BMatC= 1.65D-12 BMatP= 4.18D-11
 IDIUse=1 WtCom= 1.00D+00 WtEn= 0.00D+00
 Coeff-Com:  0.574D-03-0.700D-02-0.155D-01-0.168D-01 0.916D-01 0.244D+00
 Coeff-Com:  0.703D+00
 Coeff:      0.574D-03-0.700D-02-0.155D-01-0.168D-01 0.916D-01 0.244D+00
 Coeff:      0.703D+00
 Gap=     0.329 Goal=   None    Shift=    0.000
 RMSDP=3.62D-09 MaxDP=1.69D-07 DE=-3.97D-11 OVMax= 5.40D-07

 SCF Done:  E(RM062X) =  -346.919512374     A.U. after   13 cycles
            NFock= 13  Conv=0.36D-08     -V/T= 2.0061
 KE= 3.448118166242D+02 PE=-1.453747655335D+03 EE= 4.401083091077D+02
 Leave Link  502 at Thu Sep 26 13:07:22 2019, MaxMem=   671088640 cpu:            1250.9 elap:             625.5
 (Enter /shared/centos7/gaussian/g16/l801.exe)
 DoSCS=F DFT=T ScalE2(SS,OS)=  1.000000  1.000000
 Range of M.O.s used for correlation:     1   350
 NBasis=   350 NAE=    28 NBE=    28 NFC=     0 NFV=     0
 NROrb=    350 NOA=    28 NOB=    28 NVA=   322 NVB=   322

 **** Warning!!: The largest alpha MO coefficient is  0.11262746D+02

 Leave Link  801 at Thu Sep 26 13:07:23 2019, MaxMem=   671088640 cpu:               1.5 elap:               0.7
 (Enter /shared/centos7/gaussian/g16/l1101.exe)
 Using compressed storage, NAtomX=    17.
 Will process     18 centers per pass.
 Leave Link 1101 at Thu Sep 26 13:07:51 2019, MaxMem=   671088640 cpu:              55.5 elap:              27.8
 (Enter /shared/centos7/gaussian/g16/l1102.exe)
 Symmetrizing basis deriv contribution to polar:
 IMax=3 JMax=2 DiffMx= 0.00D+00
 Leave Link 1102 at Thu Sep 26 13:07:53 2019, MaxMem=   671088640 cpu:               4.3 elap:               2.1
 (Enter /shared/centos7/gaussian/g16/l1110.exe)
 Forming Gx(P) for the SCF density, NAtomX=    17.
 Integral derivatives from FoFJK, PRISM(SPDF).
 Do as many integral derivatives as possible in FoFJK.
 G2DrvN: MDV=     671087280.
 G2DrvN: will do    18 centers at a time, making    1 passes.
 Calling FoFCou, ICntrl=  3107 FMM=F I1Cent=   0 AccDes= 0.00D+00.
 FoFJK:  IHMeth= 1 ICntrl=    3107 DoSepK=F KAlg= 0 I1Cent=           0 FoldK=F
 IRaf=         0 NMat=       1 IRICut=       1 DoRegI=T DoRafI=F ISym2E= 0 IDoP0=0 IntGTp=1.
 FoFCou: FMM=F IPFlag=           0 FMFlag=      100000 FMFlg1=           0
         NFxFlg=           0 DoJE=F BraDBF=F KetDBF=F FulRan=T
         wScrn=  0.000000 ICntrl=      3107 IOpCl=  0 I1Cent=           0 NGrid=           0
         NMat0=    1 NMatS0=      1 NMatT0=    0 NMatD0=    1 NMtDS0=    0 NMtDT0=    0
 Symmetry not used in FoFCou.
 End of G2Drv F.D. properties file   721 does not exist.
 End of G2Drv F.D. properties file   722 does not exist.
 End of G2Drv F.D. properties file   788 does not exist.
 Leave Link 1110 at Thu Sep 26 13:26:36 2019, MaxMem=   671088640 cpu:            2246.1 elap:            1123.1
 (Enter /shared/centos7/gaussian/g16/l1002.exe)
 Minotr:  Closed shell wavefunction.
          IDoAtm=11111111111111111
          Direct CPHF calculation.
          Differentiating once with respect to nuclear coordinates.
          Requested convergence is 1.0D-08 RMS, and 1.0D-07 maximum.
          Secondary convergence is 1.0D-12 RMS, and 1.0D-12 maximum.
          NewPWx=T KeepS1=F KeepF1=F KeepIn=T MapXYZ=F SortEE=F KeepMc=T.
         5095 words used for storage of precomputed grid.
 Two-electron integrals replicated using symmetry.
          MDV=     671088640 using IRadAn=       1.
          Solving linear equations simultaneously, MaxMat=     380.
 FoF2E skips out because all densities are zero.
 CalDSu exits because no D1Ps are significant.
 FoFJK:  IHMeth= 1 ICntrl=       0 DoSepK=F KAlg= 0 I1Cent=           0 FoldK=F
 IRaf= 960000000 NMat=      51 IRICut=     127 DoRegI=T DoRafI=T ISym2E= 2 IDoP0=3 IntGTp=3.
 FoFCou: FMM=F IPFlag=           0 FMFlag=      100000 FMFlg1=           0
         NFxFlg=           0 DoJE=F BraDBF=F KetDBF=F FulRan=T
         wScrn=  0.000000 ICntrl=         0 IOpCl=  0 I1Cent=           0 NGrid=           0
         NMat0=   51 NMatS0=     51 NMatT0=    0 NMatD0=   51 NMtDS0=    0 NMtDT0=    0
 Integrals replicated using symmetry in FoFCou.
 Raff kept on since  93.17% of shell-pairs survive, threshold=   0.20 IRatSp=93.
          There are    54 degrees of freedom in the 1st order CPHF.  IDoFFX=6 NUNeed=     0.
     48 vectors produced by pass  0 Test12= 1.67D-14 1.85D-09 XBig12= 7.80D-02 6.98D-02.
 AX will form    48 AO Fock derivatives at one time.
     48 vectors produced by pass  1 Test12= 1.67D-14 1.85D-09 XBig12= 1.07D-02 3.24D-02.
     48 vectors produced by pass  2 Test12= 1.67D-14 1.85D-09 XBig12= 2.88D-04 2.72D-03.
     48 vectors produced by pass  3 Test12= 1.67D-14 1.85D-09 XBig12= 2.46D-06 2.29D-04.
     48 vectors produced by pass  4 Test12= 1.67D-14 1.85D-09 XBig12= 1.61D-08 1.50D-05.
     48 vectors produced by pass  5 Test12= 1.67D-14 1.85D-09 XBig12= 8.33D-11 1.26D-06.
     25 vectors produced by pass  6 Test12= 1.67D-14 1.85D-09 XBig12= 3.72D-13 7.85D-08.
      6 vectors produced by pass  7 Test12= 1.67D-14 1.85D-09 XBig12= 1.39D-15 4.77D-09.
 InvSVY:  IOpt=1 It=  1 EMax= 2.78D-16
 Solved reduced A of dimension   319 with    54 vectors.
 End of Minotr F.D. properties file   721 does not exist.
 End of Minotr F.D. properties file   722 does not exist.
 End of Minotr F.D. properties file   788 does not exist.
 Leave Link 1002 at Thu Sep 26 13:59:05 2019, MaxMem=   671088640 cpu:            3892.3 elap:            1946.3
 (Enter /shared/centos7/gaussian/g16/l601.exe)
 Copying SCF densities to generalized density rwf, IOpCl= 0 IROHF=0.

 **********************************************************************

            Population analysis using the SCF density.

 **********************************************************************

 Orbital symmetries:
       Occupied  (A) (A) (A) (A) (A) (A) (A) (A) (A) (A) (A) (A)
                 (A) (A) (A) (A) (A) (A) (A) (A) (A) (A) (A) (A)
                 (A) (A) (A) (A)
       Virtual   (A) (A) (A) (A) (A) (A) (A) (A) (A) (A) (A) (A)
                 (A) (A) (A) (A) (A) (A) (A) (A) (A) (A) (A) (A)
                 (A) (A) (A) (A) (A) (A) (A) (A) (A) (A) (A) (A)
                 (A) (A) (A) (A) (A) (A) (A) (A) (A) (A) (A) (A)
                 (A) (A) (A) (A) (A) (A) (A) (A) (A) (A) (A) (A)
                 (A) (A) (A) (A) (A) (A) (A) (A) (A) (A) (A) (A)
                 (A) (A) (A) (A) (A) (A) (A) (A) (A) (A) (A) (A)
                 (A) (A) (A) (A) (A) (A) (A) (A) (A) (A) (A) (A)
                 (A) (A) (A) (A) (A) (A) (A) (A) (A) (A) (A) (A)
                 (A) (A) (A) (A) (A) (A) (A) (A) (A) (A) (A) (A)
                 (A) (A) (A) (A) (A) (A) (A) (A) (A) (A) (A) (A)
                 (A) (A) (A) (A) (A) (A) (A) (A) (A) (A) (A) (A)
                 (A) (A) (A) (A) (A) (A) (A) (A) (A) (A) (A) (A)
                 (A) (A) (A) (A) (A) (A) (A) (A) (A) (A) (A) (A)
                 (A) (A) (A) (A) (A) (A) (A) (A) (A) (A) (A) (A)
                 (A) (A) (A) (A) (A) (A) (A) (A) (A) (A) (A) (A)
                 (A) (A) (A) (A) (A) (A) (A) (A) (A) (A) (A) (A)
                 (A) (A) (A) (A) (A) (A) (A) (A) (A) (A) (A) (A)
                 (A) (A) (A) (A) (A) (A) (A) (A) (A) (A) (A) (A)
                 (A) (A) (A) (A) (A) (A) (A) (A) (A) (A) (A) (A)
                 (A) (A) (A) (A) (A) (A) (A) (A) (A) (A) (A) (A)
                 (A) (A) (A) (A) (A) (A) (A) (A) (A) (A) (A) (A)
                 (A) (A) (A) (A) (A) (A) (A) (A) (A) (A) (A) (A)
                 (A) (A) (A) (A) (A) (A) (A) (A) (A) (A) (A) (A)
                 (A) (A) (A) (A) (A) (A) (A) (A) (A) (A) (A) (A)
                 (A) (A) (A) (A) (A) (A) (A) (A) (A) (A) (A) (A)
                 (A) (A) (A) (A) (A) (A) (A) (A) (A) (A)
 The electronic state is 1-A.
 Alpha  occ. eigenvalues --  -19.64706 -19.64706 -10.59803 -10.58238 -10.58016
 Alpha  occ. eigenvalues --  -10.53570 -10.53262  -1.18536  -1.16099  -0.89074
 Alpha  occ. eigenvalues --   -0.84751  -0.78279  -0.71456  -0.66564  -0.60657
 Alpha  occ. eigenvalues --   -0.56853  -0.52516  -0.51742  -0.49869  -0.49191
 Alpha  occ. eigenvalues --   -0.47796  -0.45685  -0.44945  -0.42485  -0.40540
 Alpha  occ. eigenvalues --   -0.38929  -0.37729  -0.26830
 Alpha virt. eigenvalues --    0.06080   0.06951   0.07405   0.08606   0.11283
 Alpha virt. eigenvalues --    0.12002   0.12856   0.14076   0.14934   0.16452
 Alpha virt. eigenvalues --    0.19243   0.20344   0.20963   0.24104   0.25624
 Alpha virt. eigenvalues --    0.27512   0.29345   0.31159   0.31658   0.33449
 Alpha virt. eigenvalues --    0.34031   0.35936   0.37054   0.39328   0.39549
 Alpha virt. eigenvalues --    0.41351   0.41614   0.43596   0.45382   0.45732
 Alpha virt. eigenvalues --    0.47635   0.48063   0.49015   0.49920   0.50693
 Alpha virt. eigenvalues --    0.51259   0.51885   0.53140   0.54585   0.55759
 Alpha virt. eigenvalues --    0.56294   0.57366   0.58995   0.61076   0.62625
 Alpha virt. eigenvalues --    0.64583   0.66311   0.69904   0.71856   0.72472
 Alpha virt. eigenvalues --    0.74678   0.76199   0.78309   0.79244   0.80457
 Alpha virt. eigenvalues --    0.84335   0.85825   0.88057   0.89315   0.90381
 Alpha virt. eigenvalues --    0.92265   0.93653   0.96803   0.97584   0.99912
 Alpha virt. eigenvalues --    1.00878   1.02738   1.04417   1.05779   1.07206
 Alpha virt. eigenvalues --    1.08196   1.09117   1.10511   1.12829   1.14759
 Alpha virt. eigenvalues --    1.16642   1.17222   1.18035   1.20236   1.22070
 Alpha virt. eigenvalues --    1.23569   1.25493   1.26309   1.27420   1.29713
 Alpha virt. eigenvalues --    1.30893   1.32381   1.33017   1.35261   1.35560
 Alpha virt. eigenvalues --    1.37118   1.40126   1.41340   1.41623   1.43485
 Alpha virt. eigenvalues --    1.46448   1.46582   1.50222   1.50890   1.52213
 Alpha virt. eigenvalues --    1.53057   1.57128   1.57664   1.58362   1.63542
 Alpha virt. eigenvalues --    1.64994   1.70676   1.73050   1.80495   1.82084
 Alpha virt. eigenvalues --    1.85185   1.89704   1.97344   1.98119   2.05684
 Alpha virt. eigenvalues --    2.09701   2.10804   2.18183   2.19078   2.24418
 Alpha virt. eigenvalues --    2.26744   2.29387   2.30878   2.33960   2.34849
 Alpha virt. eigenvalues --    2.36033   2.41850   2.43523   2.45506   2.47180
 Alpha virt. eigenvalues --    2.50801   2.52134   2.54715   2.56540   2.58363
 Alpha virt. eigenvalues --    2.60579   2.62301   2.64694   2.65612   2.66733
 Alpha virt. eigenvalues --    2.71424   2.72677   2.73926   2.76542   2.79470
 Alpha virt. eigenvalues --    2.80422   2.81677   2.82124   2.84248   2.86825
 Alpha virt. eigenvalues --    2.87944   2.89205   2.89853   2.91951   2.93699
 Alpha virt. eigenvalues --    2.95274   2.96893   2.97824   3.00840   3.01259
 Alpha virt. eigenvalues --    3.03586   3.04093   3.06141   3.07642   3.09284
 Alpha virt. eigenvalues --    3.09486   3.10422   3.11145   3.13112   3.15138
 Alpha virt. eigenvalues --    3.16691   3.19326   3.20568   3.22006   3.22781
 Alpha virt. eigenvalues --    3.25886   3.26722   3.27403   3.29120   3.31776
 Alpha virt. eigenvalues --    3.33361   3.33624   3.36522   3.37171   3.38963
 Alpha virt. eigenvalues --    3.39747   3.41129   3.42606   3.42850   3.44756
 Alpha virt. eigenvalues --    3.46544   3.47397   3.49573   3.52385   3.53429
 Alpha virt. eigenvalues --    3.54372   3.55434   3.58273   3.59334   3.60867
 Alpha virt. eigenvalues --    3.64658   3.66208   3.68155   3.69537   3.72961
 Alpha virt. eigenvalues --    3.74893   3.76847   3.78044   3.79546   3.80201
 Alpha virt. eigenvalues --    3.81906   3.82288   3.84187   3.86934   3.87986
 Alpha virt. eigenvalues --    3.88981   3.90204   3.90862   3.93768   3.95916
 Alpha virt. eigenvalues --    3.96466   3.98409   3.98834   4.01002   4.02393
 Alpha virt. eigenvalues --    4.03925   4.05915   4.06104   4.07069   4.09891
 Alpha virt. eigenvalues --    4.11915   4.13265   4.14709   4.16518   4.18821
 Alpha virt. eigenvalues --    4.20029   4.24568   4.24606   4.28018   4.31057
 Alpha virt. eigenvalues --    4.33238   4.36076   4.38367   4.40969   4.42031
 Alpha virt. eigenvalues --    4.43689   4.48743   4.52431   4.54798   4.57524
 Alpha virt. eigenvalues --    4.61412   4.62798   4.67774   4.70776   4.71001
 Alpha virt. eigenvalues --    4.72824   4.74692   4.78307   4.80375   4.82365
 Alpha virt. eigenvalues --    4.83566   4.84557   4.88518   4.91880   4.95299
 Alpha virt. eigenvalues --    4.96300   5.00205   5.01048   5.04001   5.05706
 Alpha virt. eigenvalues --    5.07302   5.09177   5.11340   5.17472   5.19900
 Alpha virt. eigenvalues --    5.22257   5.23900   5.25059   5.28298   5.29541
 Alpha virt. eigenvalues --    5.31865   5.32791   5.37976   5.40205   5.43497
 Alpha virt. eigenvalues --    5.51046   5.55831   5.61355   5.68269   5.75144
 Alpha virt. eigenvalues --    5.76421   5.78537   5.79880   5.82726   5.85451
 Alpha virt. eigenvalues --    5.94306   6.02949   6.04059   6.28731   6.32117
 Alpha virt. eigenvalues --    6.33851   6.46059   6.53633   6.59208   6.72129
 Alpha virt. eigenvalues --    6.73938   6.77380   6.78472   6.85504   6.96859
 Alpha virt. eigenvalues --    7.06626   7.14423   7.28090   7.32250   7.44341
 Alpha virt. eigenvalues --   10.52534  11.12033  11.75209  11.96140  12.96382
 Alpha virt. eigenvalues --   13.40337  14.33447
          Condensed to atoms (all electrons):
               1          2          3          4          5          6
     1  O    7.831130   0.003359   0.305526  -0.044989  -0.060765   0.361746
     2  O    0.003359   7.796122  -0.000666   0.000104  -0.000037  -0.073370
     3  C    0.305526  -0.000666   4.909596   0.305225   0.298225  -0.078979
     4  C   -0.044989   0.000104   0.305225   5.079285  -0.083734  -0.013096
     5  C   -0.060765  -0.000037   0.298225  -0.083734   5.113860  -0.002252
     6  C    0.361746  -0.073370  -0.078979  -0.013096  -0.002252   5.065561
     7  C   -0.079940   0.344879  -0.000504  -0.007182  -0.002547   0.452861
     8  H   -0.030662   0.000013   0.416170  -0.047687  -0.053339   0.006867
     9  H   -0.005521   0.000548  -0.037089   0.409299  -0.001959   0.003180
    10  H    0.001510  -0.000024  -0.034978   0.397483   0.007289   0.000477
    11  H    0.004531   0.000031  -0.041871   0.390244   0.001242   0.001215
    12  H    0.001686   0.000964  -0.041621  -0.001746   0.405289  -0.000195
    13  H    0.003917   0.000006  -0.033444   0.010229   0.385673  -0.002728
    14  H    0.004114  -0.000007  -0.030748  -0.001326   0.386089   0.000574
    15  H   -0.035189  -0.003894   0.006598   0.000075  -0.000887   0.434837
    16  H   -0.002517  -0.029919   0.006785  -0.004438  -0.010759  -0.074490
    17  H    0.000162   0.330052   0.000277  -0.000075  -0.000204  -0.005947
               7          8          9         10         11         12
     1  O   -0.079940  -0.030662  -0.005521   0.001510   0.004531   0.001686
     2  O    0.344879   0.000013   0.000548  -0.000024   0.000031   0.000964
     3  C   -0.000504   0.416170  -0.037089  -0.034978  -0.041871  -0.041621
     4  C   -0.007182  -0.047687   0.409299   0.397483   0.390244  -0.001746
     5  C   -0.002547  -0.053339  -0.001959   0.007289   0.001242   0.405289
     6  C    0.452861   0.006867   0.003180   0.000477   0.001215  -0.000195
     7  C    5.049295  -0.000882  -0.005163   0.001237  -0.002208  -0.018112
     8  H   -0.000882   0.589822   0.005095  -0.012764   0.002246   0.007750
     9  H   -0.005163   0.005095   0.560094  -0.029313  -0.034159   0.001022
    10  H    0.001237  -0.012764  -0.029313   0.574229  -0.027908  -0.000184
    11  H   -0.002208   0.002246  -0.034159  -0.027908   0.591652   0.000107
    12  H   -0.018112   0.007750   0.001022  -0.000184   0.000107   0.592614
    13  H   -0.000136  -0.005901  -0.000312  -0.000461   0.000124  -0.030457
    14  H    0.000253  -0.009470   0.000370   0.000030  -0.002045  -0.034275
    15  H   -0.085617  -0.000390  -0.000373   0.000043   0.000023  -0.000236
    16  H    0.436928  -0.000424  -0.007616   0.000502   0.000331  -0.008531
    17  H   -0.052372  -0.000006  -0.000205   0.000008   0.000002  -0.000167
              13         14         15         16         17
     1  O    0.003917   0.004114  -0.035189  -0.002517   0.000162
     2  O    0.000006  -0.000007  -0.003894  -0.029919   0.330052
     3  C   -0.033444  -0.030748   0.006598   0.006785   0.000277
     4  C    0.010229  -0.001326   0.000075  -0.004438  -0.000075
     5  C    0.385673   0.386089  -0.000887  -0.010759  -0.000204
     6  C   -0.002728   0.000574   0.434837  -0.074490  -0.005947
     7  C   -0.000136   0.000253  -0.085617   0.436928  -0.052372
     8  H   -0.005901  -0.009470  -0.000390  -0.000424  -0.000006
     9  H   -0.000312   0.000370  -0.000373  -0.007616  -0.000205
    10  H   -0.000461   0.000030   0.000043   0.000502   0.000008
    11  H    0.000124  -0.002045   0.000023   0.000331   0.000002
    12  H   -0.030457  -0.034275  -0.000236  -0.008531  -0.000167
    13  H    0.558316  -0.021535   0.000019   0.000903   0.000016
    14  H   -0.021535   0.592167   0.000062   0.000658   0.000006
    15  H    0.000019   0.000062   0.545959   0.002833   0.005142
    16  H    0.000903   0.000658   0.002833   0.514936   0.006576
    17  H    0.000016   0.000006   0.005142   0.006576   0.457182
 Mulliken charges:
               1
     1  O   -0.258098
     2  O   -0.368160
     3  C    0.051500
     4  C   -0.387670
     5  C   -0.381185
     6  C   -0.076261
     7  C   -0.030791
     8  H    0.133561
     9  H    0.142102
    10  H    0.122823
    11  H    0.116443
    12  H    0.126092
    13  H    0.135770
    14  H    0.115084
    15  H    0.130995
    16  H    0.168242
    17  H    0.259552
 Sum of Mulliken charges =  -0.00000
 Mulliken charges with hydrogens summed into heavy atoms:
               1
     1  O   -0.258098
     2  O   -0.108608
     3  C    0.185061
     4  C   -0.006302
     5  C   -0.004238
     6  C    0.054734
     7  C    0.137451
 APT charges:
               1
     1  O   -0.165086
     2  O   -0.524251
     3  C   -0.314318
     4  C   -1.063898
     5  C   -1.054706
     6  C   -0.457185
     7  C   -0.262687
     8  H    0.480970
     9  H    0.196922
    10  H    0.455064
    11  H    0.376088
    12  H    0.182555
    13  H    0.376481
    14  H    0.462658
    15  H    0.455907
    16  H    0.247313
    17  H    0.608174
 Sum of APT charges =  -0.00000
 APT charges with hydrogens summed into heavy atoms:
               1
     1  O   -0.165086
     2  O    0.083923
     3  C    0.166652
     4  C   -0.035824
     5  C   -0.033012
     6  C   -0.001278
     7  C   -0.015375
 Electronic spatial extent (au):  <R**2>=            866.1481
 Charge=              0.0000 electrons
 Dipole moment (field-independent basis, Debye):
    X=             -0.4480    Y=              0.1749    Z=              0.0578  Tot=              0.4843
 Quadrupole moment (field-independent basis, Debye-Ang):
   XX=            -40.6270   YY=            -45.2271   ZZ=            -45.4596
   XY=              6.5122   XZ=              0.0414   YZ=              0.2735
 Traceless Quadrupole moment (field-independent basis, Debye-Ang):
   XX=              3.1442   YY=             -1.4559   ZZ=             -1.6883
   XY=              6.5122   XZ=              0.0414   YZ=              0.2735
 Octapole moment (field-independent basis, Debye-Ang**2):
  XXX=             13.0616  YYY=              0.7244  ZZZ=             -0.4711  XYY=              5.1200
  XXY=             19.3386  XXZ=              0.2050  XZZ=              0.3901  YZZ=              1.8884
  YYZ=              0.0206  XYZ=             -0.1816
 Hexadecapole moment (field-independent basis, Debye-Ang**3):
 XXXX=           -626.5077 YYYY=           -213.9849 ZZZZ=           -222.3980 XXXY=             42.8652
 XXXZ=              0.7755 YYYX=              2.8224 YYYZ=             -0.3514 ZZZX=              0.7571
 ZZZY=             -1.0206 XXYY=           -148.3163 XXZZ=           -154.4000 YYZZ=            -75.5704
 XXYZ=              1.8771 YYXZ=             -0.4596 ZZXY=             -5.2654
 N-N= 3.219080172291D+02 E-N=-1.453747654347D+03  KE= 3.448118166242D+02
  Exact polarizability:   0.000   0.000   0.000   0.000   0.000   0.000
 Approx polarizability:  86.294  -4.919  87.256   0.333  -0.702  66.411
 No NMR shielding tensors so no spin-rotation constants.
 Leave Link  601 at Thu Sep 26 13:59:35 2019, MaxMem=   671088640 cpu:              59.9 elap:              30.0
 (Enter /shared/centos7/gaussian/g16/l701.exe)
 SCFChk:  SCF convergence  3.62D-09 required  1.00D-08
 ... and contract with generalized density number  0.
 Compute integral second derivatives.
 Entering OneElI...
 Calculate overlap and kinetic energy integrals
    NBasis = 395  MinDer = 2  MaxDer = 2
 Requested accuracy = 0.1000D-12
 PrmmSu-InSpLW:  IPartL=    0 NPrtUS=   20 NPrtUL=    1 DoSpLW=F IThBeg=    0 IThEnd=   19 NThAct=   20.
 PrsmSu:  NPrtUS=  20 ThrOK=T IAlg=1 NPAlg=1 LenDen=           0 ISkipM=0 DoSpLW=F IThBeg=    0 IThEnd=   19.
 Prism:   IPart=     0 DynPar=F LinDyn=F Incr=           4.
 PRISM was handed    33310541 working-precision words and  8472 shell-pairs
 PRISM was handed    33310541 working-precision words and  8472 shell-pairs
 PRISM was handed    33310541 working-precision words and  8472 shell-pairs
 PRISM was handed    33310541 working-precision words and  8472 shell-pairs
 PRISM was handed    33310541 working-precision words and  8472 shell-pairs
 PRISM was handed    33310541 working-precision words and  8472 shell-pairs
 PRISM was handed    33310541 working-precision words and  8472 shell-pairs
 PRISM was handed    33310541 working-precision words and  8472 shell-pairs
 PRISM was handed    33310541 working-precision words and  8472 shell-pairs
 PRISM was handed    33310541 working-precision words and  8472 shell-pairs
 PRISM was handed    33310541 working-precision words and  8472 shell-pairs
 PRISM was handed    33310541 working-precision words and  8472 shell-pairs
 IPart= 16 NShTot=         404 NBatch=          39 AvBLen=        10.4
 PRISM was handed    33310541 working-precision words and  8472 shell-pairs
 IPart= 18 NShTot=         400 NBatch=          39 AvBLen=        10.3
 IPart=  0 NShTot=         469 NBatch=          82 AvBLen=         5.7
 PRISM was handed    33310541 working-precision words and  8472 shell-pairs
 PRISM was handed    33310541 working-precision words and  8472 shell-pairs
 IPart=  1 NShTot=         466 NBatch=          80 AvBLen=         5.8
 IPart=  2 NShTot=         456 NBatch=          74 AvBLen=         6.2
 PRISM was handed    33310541 working-precision words and  8472 shell-pairs
 IPart=  6 NShTot=         431 NBatch=          58 AvBLen=         7.4
 IPart=  7 NShTot=         421 NBatch=          50 AvBLen=         8.4
 PRISM was handed    33310541 working-precision words and  8472 shell-pairs
 PRISM was handed    33310541 working-precision words and  8472 shell-pairs
 PRISM was handed    33310541 working-precision words and  8472 shell-pairs
 IPart=  8 NShTot=         419 NBatch=          50 AvBLen=         8.4
 IPart= 14 NShTot=         406 NBatch=          40 AvBLen=        10.2
 PRISM was handed    33310541 working-precision words and  8472 shell-pairs
 IPart= 10 NShTot=         416 NBatch=          47 AvBLen=         8.9
 IPart=  9 NShTot=         417 NBatch=          48 AvBLen=         8.7
 IPart=  3 NShTot=         450 NBatch=          70 AvBLen=         6.4
 IPart= 19 NShTot=         399 NBatch=          39 AvBLen=        10.2
 IPart=  4 NShTot=         441 NBatch=          64 AvBLen=         6.9
 IPart= 11 NShTot=         414 NBatch=          45 AvBLen=         9.2
 IPart= 13 NShTot=         408 NBatch=          40 AvBLen=        10.2
 IPart= 15 NShTot=         405 NBatch=          39 AvBLen=        10.4
 IPart= 12 NShTot=         410 NBatch=          41 AvBLen=        10.0
 IPart= 17 NShTot=         404 NBatch=          39 AvBLen=        10.4
 IPart=  5 NShTot=         436 NBatch=          59 AvBLen=         7.4
 PrSmSu:  NxtVal=             81.
 Entering OneElI...
 Calculate potential energy integrals
    NBasis = 395  MinDer = 2  MaxDer = 2
 Requested accuracy = 0.1000D-12
 PrmmSu-InSpLW:  IPartL=    0 NPrtUS=   20 NPrtUL=    1 DoSpLW=F IThBeg=    0 IThEnd=   19 NThAct=   20.
 PrsmSu:  NPrtUS=  20 ThrOK=T IAlg=1 NPAlg=1 LenDen=           0 ISkipM=0 DoSpLW=F IThBeg=    0 IThEnd=   19.
 Prism:   IPart=     0 DynPar=F LinDyn=F Incr=          67.
 PRISM was handed    33350572 working-precision words and  7883 shell-pairs
 PRISM was handed    33350572 working-precision words and  7883 shell-pairs
 PRISM was handed    33350572 working-precision words and  7883 shell-pairs
 PRISM was handed    33350572 working-precision words and  7883 shell-pairs
 PRISM was handed    33350572 working-precision words and  7883 shell-pairs
 PRISM was handed    33350572 working-precision words and  7883 shell-pairs
 PRISM was handed    33350572 working-precision words and  7883 shell-pairs
 PRISM was handed    33350572 working-precision words and  7883 shell-pairs
 PRISM was handed    33350572 working-precision words and  7883 shell-pairs
 PRISM was handed    33350572 working-precision words and  7883 shell-pairs
 PRISM was handed    33350572 working-precision words and  7883 shell-pairs
 PRISM was handed    33350572 working-precision words and  7883 shell-pairs
 PRISM was handed    33350572 working-precision words and  7883 shell-pairs
 PRISM was handed    33350572 working-precision words and  7883 shell-pairs
 PRISM was handed    33350572 working-precision words and  7883 shell-pairs
 PRISM was handed    33350572 working-precision words and  7883 shell-pairs
 PRISM was handed    33350572 working-precision words and  7883 shell-pairs
 PRISM was handed    33350572 working-precision words and  7883 shell-pairs
 PRISM was handed    33350572 working-precision words and  7883 shell-pairs
 PRISM was handed    33350572 working-precision words and  7883 shell-pairs
 IPart= 16 NShTot=        6375 NBatch=         375 AvBLen=        17.0
 IPart= 10 NShTot=        6579 NBatch=         387 AvBLen=        17.0
 IPart=  0 NShTot=        7378 NBatch=         434 AvBLen=        17.0
 IPart= 18 NShTot=        6307 NBatch=         371 AvBLen=        17.0
 IPart=  6 NShTot=        6902 NBatch=         406 AvBLen=        17.0
 IPart=  1 NShTot=        7242 NBatch=         426 AvBLen=        17.0
 IPart=  2 NShTot=        7191 NBatch=         423 AvBLen=        17.0
 IPart=  3 NShTot=        7072 NBatch=         416 AvBLen=        17.0
 IPart=  9 NShTot=        6630 NBatch=         390 AvBLen=        17.0
 IPart= 17 NShTot=        6358 NBatch=         374 AvBLen=        17.0
 IPart= 19 NShTot=        6290 NBatch=         370 AvBLen=        17.0
 IPart= 11 NShTot=        6528 NBatch=         384 AvBLen=        17.0
 IPart=  4 NShTot=        7021 NBatch=         413 AvBLen=        17.0
 IPart=  8 NShTot=        6681 NBatch=         393 AvBLen=        17.0
 IPart= 13 NShTot=        6443 NBatch=         379 AvBLen=        17.0
 IPart= 14 NShTot=        6443 NBatch=         379 AvBLen=        17.0
 IPart=  5 NShTot=        6936 NBatch=         408 AvBLen=        17.0
 IPart=  7 NShTot=        6715 NBatch=         395 AvBLen=        17.0
 IPart= 12 NShTot=        6494 NBatch=         382 AvBLen=        17.0
 IPart= 15 NShTot=        6426 NBatch=         378 AvBLen=        17.0
 PrSmSu:  NxtVal=           1341.
 Polarizability after L701:
                1             2             3 
      1  0.000000D+00
      2  0.000000D+00  0.000000D+00
      3  0.000000D+00  0.000000D+00  0.000000D+00
 Dipole Derivatives after L701:
                 1             2             3             4             5 
      1  -0.251815D+00 -0.400762D-01  0.944477D-02 -0.750459D+00 -0.175218D+01
      2  -0.226073D+00  0.543244D-02 -0.186704D-01 -0.333923D+00 -0.419524D+00
      3   0.154012D-01 -0.102295D-01 -0.248874D+00 -0.295814D-02 -0.164110D-01
                 6             7             8             9            10 
      1   0.192608D-01 -0.908548D+00  0.598494D+00 -0.515377D-01 -0.859433D+00
      2  -0.100452D-01  0.157921D+00 -0.220317D+00 -0.528443D-02 -0.115767D-01
      3  -0.402770D+00 -0.141281D-01  0.802580D-02  0.185910D+00  0.366184D-02
                11            12            13            14            15 
      1  -0.412985D+00  0.771402D+00 -0.912759D+00 -0.526095D+00 -0.678470D+00
      2  -0.104547D+01  0.128614D+00 -0.160241D-01 -0.102982D+01 -0.113111D+00
      3   0.202619D+00 -0.128679D+01  0.187911D-01 -0.206936D+00 -0.122154D+01
                16            17            18            19            20 
      1  -0.645387D+00 -0.179773D+00 -0.451035D-01 -0.239903D+00  0.383012D+00
      2  -0.159082D+00 -0.756412D+00 -0.103896D-01  0.101565D+00 -0.632860D+00
      3  -0.234380D-01 -0.628933D-02  0.302426D-01 -0.174873D-01  0.136995D-01
                21            22            23            24            25 
      1   0.393849D-01  0.956304D+00 -0.377376D+00  0.519094D-02  0.112912D+00
      2   0.364122D-02 -0.250559D+00  0.307994D+00  0.608828D-02 -0.216010D+00
      3   0.846997D-01  0.989989D-02  0.218240D-02  0.178614D+00  0.606070D+00
                26            27            28            29            30 
      1   0.297757D-01 -0.331352D-01  0.514707D+00 -0.368475D+00 -0.538768D+00
      2   0.155289D+00 -0.614391D-01 -0.489375D-01  0.147810D+00  0.206828D-01
      3  -0.845484D-01  0.322566D+00 -0.429183D+00  0.366868D+00  0.702673D+00
                31            32            33            34            35 
      1   0.328002D+00  0.658671D+00  0.422115D-01  0.408487D-01  0.739370D-01
      2   0.234427D+00  0.703490D+00  0.564776D-01 -0.490761D+00  0.409926D+00
      3  -0.130239D+00 -0.382675D+00  0.967714D-01 -0.383224D+00  0.251137D+00
                36            37            38            39            40 
      1   0.218007D-01  0.126660D+00 -0.270751D+00  0.459829D+00  0.836935D+00
      2  -0.326735D-01 -0.133225D-01  0.127856D+00 -0.180199D-01  0.412264D+00
      3   0.968900D-01  0.314790D-02 -0.441096D+00  0.874927D+00  0.324935D+00
                41            42            43            44            45 
      1   0.566164D+00 -0.396690D-02  0.519743D+00  0.516333D+00  0.425915D-02
      2   0.438984D+00  0.928007D-02  0.431342D+00  0.775889D+00  0.711224D-02
      3   0.278472D+00  0.112056D+00 -0.371771D-02 -0.295758D-02  0.720885D-01
                46            47            48            49            50 
      1  -0.208018D-01 -0.253000D+00 -0.294166D-01  0.115299D+01  0.135433D+01
      2   0.352975D+00  0.633606D+00  0.384293D-01  0.757735D-01  0.398125D+00
      3   0.135907D-01  0.165305D-01  0.129133D+00  0.887847D-02  0.116088D-01
                51 
      1   0.761368D-02
      2  -0.693101D-03
      3   0.273403D+00
 Hessian after L701:
                1             2             3             4             5 
      1  0.504678D+01
      2 -0.158102D+01  0.122109D+02
      3  0.193569D-03  0.374937D+00  0.181076D+02
      4  0.333258D+00 -0.339585D+00  0.202235D-01  0.358365D+01
      5 -0.377276D+00 -0.134947D-01 -0.140575D-01  0.348918D-01  0.104109D+02
      6  0.211988D-01 -0.129004D-01 -0.211281D+00 -0.358311D+00  0.682219D-01
      7 -0.421134D+01  0.443409D+01 -0.290922D+00  0.150461D+00 -0.666130D-01
      8  0.423039D+01 -0.431831D+01 -0.298403D+00 -0.345162D-01 -0.996698D-01
      9 -0.264333D+00 -0.286353D+00 -0.922486D+01  0.236103D-02 -0.676885D-03
     10 -0.285060D+00  0.336345D-01 -0.189633D+00  0.190168D+00 -0.270534D-01
     11  0.156978D-01  0.187184D+00 -0.526939D+00 -0.291587D-01 -0.104892D+00
     12 -0.118767D+00 -0.451044D+00  0.294701D+00 -0.592093D-01 -0.324089D-02
     13 -0.246826D+00  0.612777D-03  0.182166D+00  0.183514D+00 -0.139592D-01
     14 -0.881907D-02  0.287091D+00  0.486366D+00 -0.258955D-01 -0.104700D+00
     15  0.972739D-01  0.369100D+00  0.315414D+00  0.607220D-01  0.457460D-02
     16 -0.532880D-01 -0.236053D+01  0.288122D+00 -0.191013D+00 -0.201730D+00
     17 -0.206312D+01 -0.935160D+01 -0.962989D-01 -0.380369D-01  0.122029D+00
     18  0.257745D+00 -0.760711D-01 -0.990188D+01 -0.329943D-01  0.467641D-02
     19 -0.254719D+00 -0.110964D+00 -0.341205D-01  0.232653D+00 -0.183062D+01
     20 -0.141866D+00  0.454806D+00  0.222813D-01 -0.174390D+01 -0.808756D+01
     21 -0.799455D-02  0.208359D-02  0.432391D+00  0.368629D+00 -0.831446D-01
     22  0.462561D-01 -0.262156D+00  0.190404D-01  0.265273D-01 -0.163837D-01
     23 -0.302716D+00 -0.377724D-01  0.109483D-01 -0.125229D-01 -0.376012D-03
     24  0.209692D-01  0.112480D-01  0.762938D-01  0.516012D-03 -0.122276D-03
     25 -0.193805D-01 -0.417896D-01  0.399105D-01  0.524610D-02  0.287491D-02
     26  0.954360D-02 -0.142017D-01 -0.467955D-01  0.528281D-02 -0.304044D-01
     27 -0.358060D-02 -0.441242D-01  0.443265D-01 -0.482748D-01  0.464878D-02
     28  0.530376D-03  0.446888D-01 -0.775804D-01  0.179121D-01 -0.972360D-02
     29  0.186604D-01 -0.264358D-01 -0.320732D-01 -0.818091D-02 -0.425541D-02
     30 -0.695644D-01 -0.665967D-01  0.628507D-01 -0.187531D-01  0.796571D-02
     31 -0.146004D-01  0.800811D-01 -0.234541D-01  0.244521D-01  0.475632D-02
     32  0.779625D-01  0.128235D+00 -0.509522D-01  0.222404D-01 -0.100067D-01
     33 -0.226588D-01 -0.492605D-01 -0.359094D-01 -0.658664D-02 -0.998493D-03
     34 -0.452742D-01 -0.386098D-01 -0.130033D-01  0.155215D-01  0.125613D-01
     35  0.434372D-02  0.110079D+00  0.775107D-01  0.386434D-01 -0.248022D-01
     36  0.476645D-02  0.607987D-01 -0.216649D-01  0.251829D-01  0.522617D-02
     37 -0.473578D-01  0.516924D-01  0.390947D-01  0.142235D-01 -0.630810D-02
     38  0.342824D-01  0.365642D-02  0.532597D-01 -0.112516D-01 -0.588690D-02
     39  0.568286D-01  0.122498D+00  0.378211D-01  0.283485D-01 -0.110599D-01
     40  0.293064D-01  0.105752D+00  0.328229D-01  0.233953D-01 -0.658813D-03
     41  0.891851D-01  0.850360D-01  0.384886D-01  0.114189D-01 -0.882288D-02
     42  0.290746D-01  0.422788D-01 -0.352681D-01  0.567101D-02  0.301506D-03
     43 -0.309291D+00  0.100582D-01  0.302117D-02 -0.403193D-01  0.161713D-01
     44  0.362302D-01  0.208379D+00  0.662227D-02 -0.265183D-01  0.781792D-01
     45 -0.192244D-02  0.279740D-02  0.116107D+00  0.189361D-03  0.858627D-03
     46 -0.302657D-01 -0.445461D-02  0.132020D-02 -0.237840D+00 -0.708661D-01
     47 -0.671294D-01  0.113936D+00 -0.566214D-02 -0.301286D-01  0.134216D+00
     48 -0.151808D-02  0.117986D-02 -0.382487D-01 -0.130983D-01 -0.300438D-02
     49  0.612665D-01 -0.214963D-01  0.279788D-02 -0.433181D+01  0.254994D+01
     50  0.256546D-01 -0.275094D-01  0.766676D-03  0.218721D+01 -0.225047D+01
     51  0.228908D-02 -0.571875D-03 -0.184094D-01  0.253845D-01  0.198312D-01
                6             7             8             9            10 
      6  0.148874D+02
      7 -0.635633D-04  0.176228D+02
      8  0.174846D-03 -0.327417D+01  0.178825D+02
      9 -0.964478D-01  0.514087D-02 -0.584831D-02  0.201827D+02
     10 -0.109300D+00 -0.597541D+01  0.255711D-01 -0.169723D+00  0.146071D+02
     11  0.662370D-02 -0.453629D-01 -0.484256D+01 -0.201566D+01 -0.287201D+00
     12 -0.870293D-01 -0.810542D-01 -0.200951D+01 -0.263737D+01  0.564016D+00
     13  0.105701D+00 -0.639010D+01  0.161473D+00  0.294177D+00  0.190881D-01
     14 -0.602682D-02  0.846661D-01 -0.463141D+01  0.227913D+01 -0.101295D-02
     15 -0.807481D-01  0.230791D+00  0.229130D+01 -0.350880D+01  0.313814D-02
     16 -0.425832D-01  0.343266D+00  0.163164D+00  0.182656D-01 -0.179172D-01
     17  0.136492D-01  0.502141D-03  0.447759D-01  0.180577D-01  0.168621D+00
     18  0.326554D+00  0.285658D-01  0.196026D-01  0.198839D+00 -0.101366D+00
     19  0.387178D+00  0.209061D+00 -0.101803D+00  0.179069D-01  0.345581D+00
     20 -0.856919D-01 -0.111609D+00 -0.209984D+00 -0.333538D-02  0.493930D-01
     21 -0.854519D+01  0.298951D-01 -0.205584D-02 -0.143402D+00 -0.141284D+00
     22  0.434477D-03 -0.242183D+01 -0.109285D+01  0.260596D-01  0.144687D+00
     23 -0.209805D-03 -0.101664D+01 -0.401425D+01 -0.172442D-01  0.390101D-01
     24 -0.708385D-02  0.292565D-01 -0.192288D-01 -0.455513D+01 -0.837829D-01
     25 -0.196847D-01  0.988240D-01  0.155300D-01 -0.230394D-01 -0.200802D+01
     26 -0.273194D-02  0.513365D-01  0.572125D-01  0.570732D-01 -0.402906D+00
     27 -0.775542D-03 -0.110484D+00  0.588636D-01 -0.401030D-01  0.114514D+01
     28 -0.121950D-01  0.885145D-01 -0.197213D-01 -0.225937D-01 -0.340507D+01
     29  0.385696D-02 -0.281585D-01  0.789666D-01  0.646014D-01 -0.478361D+00
     30  0.855676D-03 -0.355655D-01  0.299315D-01 -0.363295D-01 -0.898310D+00
     31 -0.825041D-02  0.772016D-01 -0.645570D-01  0.651687D-01 -0.357861D+01
     32 -0.526515D-02 -0.427646D-01 -0.292093D-01  0.106259D+00  0.862740D+00
     33 -0.868476D-02  0.625130D-01  0.149382D+00  0.133026D-01  0.831930D-02
     34  0.148903D-01  0.111006D+00  0.119734D-01  0.478858D-01 -0.182961D-01
     35  0.146442D-01  0.753560D-01 -0.659398D-02 -0.121432D+00 -0.295286D-02
     36 -0.193874D-01  0.116497D+00 -0.146019D+00 -0.164114D-01  0.355003D-02
     37  0.129500D-01  0.590814D-01 -0.909006D-03  0.146896D-01 -0.545317D-01
     38 -0.688414D-02  0.435408D-03  0.922454D-01 -0.577237D-01 -0.411978D-03
     39  0.526869D-02  0.632828D-01 -0.913881D-02 -0.568891D-01 -0.109313D-01
     40  0.708862D-02  0.441079D-01 -0.428672D-01 -0.167790D-01 -0.870194D-02
     41  0.292799D-02 -0.374805D-01 -0.540783D-01 -0.152979D-01  0.226803D-01
     42 -0.628805D-02 -0.488613D-01 -0.600765D-01  0.503434D-01  0.281681D-01
     43 -0.111559D-02  0.124307D+00  0.110419D+00 -0.686822D-04  0.225147D-01
     44  0.160631D-02  0.114382D+00  0.235402D-01  0.105556D-02  0.359116D-01
     45 -0.429150D-01  0.815709D-03  0.135998D-02 -0.484668D-01 -0.124651D-01
     46 -0.218081D-01  0.425821D-01 -0.896429D-01  0.436452D-02 -0.512703D-03
     47 -0.412526D-02 -0.151494D+00  0.303546D-01 -0.265757D-02 -0.599657D-01
     48  0.783157D-01 -0.947372D-04 -0.275911D-03 -0.737386D-01 -0.303998D-01
     49  0.238713D-01  0.274113D-01  0.251473D-02  0.516245D-03  0.229889D-01
     50  0.121304D-01  0.135214D-01 -0.351060D-02  0.614739D-04  0.223037D-01
     51 -0.619260D+01  0.286936D-03 -0.519492D-04 -0.724069D-02 -0.514063D-02
               11            12            13            14            15 
     11  0.147089D+02
     12  0.152849D+01  0.131367D+02
     13  0.330963D-02 -0.609054D-01  0.146523D+02
     14  0.506589D-01 -0.570814D-01 -0.305686D+00  0.143540D+02
     15  0.864874D-01  0.108957D+00 -0.691206D+00 -0.156737D+01  0.136776D+02
     16  0.140592D+00 -0.409170D-01  0.620046D-01  0.212266D+00  0.707362D-01
     17 -0.542911D-01 -0.699517D-01  0.245025D+00 -0.409960D-01  0.866856D-01
     18 -0.932712D-01 -0.661371D-01  0.860362D-01  0.873978D-01 -0.157216D+00
     19 -0.115815D-01 -0.928035D-01  0.433170D+00  0.417125D-01  0.701631D-01
     20 -0.228355D+00 -0.178423D-01  0.137712D+00 -0.232704D+00  0.538409D-01
     21  0.116357D-01 -0.142487D+00  0.101459D+00  0.617297D-02 -0.226975D+00
     22  0.511973D-01 -0.104524D+00  0.155783D+00  0.991151D-01  0.110062D+00
     23  0.390866D-01  0.145439D+00  0.764660D-01 -0.325553D-01 -0.171563D+00
     24  0.134521D+00 -0.390177D-01  0.882512D-01 -0.164210D+00  0.203110D-01
     25 -0.245999D+00  0.808040D+00  0.570060D-02 -0.562963D-02  0.338581D-01
     26 -0.441226D+01 -0.784762D-01  0.926067D-03 -0.188414D-01  0.351569D-02
     27 -0.574055D-01 -0.412995D+01  0.195676D-01 -0.819522D-03  0.140479D-01
     28 -0.544047D+00 -0.910540D+00 -0.382258D-01 -0.962651D-02 -0.465011D-01
     29 -0.358852D+01  0.762458D+00 -0.100385D-01 -0.397324D-01  0.428658D-01
     30  0.861622D+00 -0.265135D+01 -0.307609D-01  0.422273D-01  0.145354D+00
     31  0.919179D+00  0.734313D-01 -0.445955D-01  0.193441D-01 -0.315179D-01
     32 -0.167838D+01  0.209105D+00  0.160918D-01 -0.591844D-03 -0.846456D-01
     33  0.488223D-01 -0.400350D+01 -0.181049D-01 -0.494951D-01  0.547380D-01
     34 -0.179216D-01 -0.266685D-01 -0.243556D+01 -0.128385D+01  0.191000D-01
     35 -0.190841D-01  0.202012D-01 -0.154713D+01 -0.328267D+01 -0.672545D-01
     36  0.114338D-01  0.357018D-01 -0.173957D+00  0.677411D-01 -0.435631D+01
     37 -0.201233D-02  0.400334D-02 -0.402967D+01 -0.473926D-01  0.669489D-01
     38 -0.538614D-01 -0.383464D-01  0.135069D-01 -0.344065D+01 -0.103353D+01
     39 -0.409539D-01  0.198745D+00 -0.428439D-01 -0.119742D+01 -0.210058D+01
     40  0.328296D-01  0.465145D-01 -0.230949D+01  0.122312D+01  0.479237D-01
     41 -0.407467D-02  0.487260D-01  0.122419D+01 -0.287773D+01 -0.673721D-02
     42  0.444107D-01  0.306695D-01  0.142200D+00  0.734818D-01 -0.386268D+01
     43  0.244036D-01 -0.734766D-02  0.119503D-01  0.115424D-01  0.578926D-03
     44  0.918652D-02 -0.470590D-02  0.231392D-01  0.187439D-02 -0.817457D-03
     45 -0.896704D-02 -0.115509D-01  0.692737D-02  0.461826D-02 -0.104734D-01
     46 -0.503406D-02  0.708356D-02 -0.478844D-01 -0.324300D-02 -0.415774D-01
     47 -0.201463D-02  0.137323D-01 -0.467338D-01  0.160124D-01 -0.479310D-02
     48  0.967269D-02 -0.311435D-01 -0.127672D-01 -0.488103D-02 -0.271663D-01
     49  0.110915D-02 -0.352212D-03  0.187889D-01 -0.609512D-03 -0.494064D-03
     50 -0.670209D-02  0.205455D-02  0.211030D-01 -0.707856D-02 -0.165180D-02
     51 -0.516311D-03 -0.596767D-02  0.406031D-02  0.178180D-03 -0.551337D-02
               16            17            18            19            20 
     16  0.110146D+02
     17  0.392295D+01  0.147496D+02
     18 -0.509592D+00  0.339948D+00  0.284817D+02
     19 -0.805987D+01 -0.374133D+01  0.275073D+00  0.108061D+02
     20 -0.342080D+01 -0.230184D+01 -0.286354D+00  0.418008D+01  0.138738D+02
     21  0.250046D+00 -0.277754D+00 -0.145572D+02 -0.660808D+00  0.206164D+00
     22  0.225088D+00 -0.142043D-01 -0.163395D-02  0.201809D-01 -0.895793D-02
     23 -0.261798D-01 -0.520324D-01  0.744646D-03 -0.137045D-01 -0.679629D-02
     24 -0.686778D-03  0.506449D-03 -0.501319D-01  0.378218D-03 -0.235306D-03
     25 -0.750457D-01  0.158334D-03 -0.842397D-02 -0.304926D-01  0.140615D-01
     26  0.336389D-01 -0.283759D-02 -0.801630D-01  0.264241D-01 -0.381409D-01
     27 -0.542234D-01 -0.848585D-01  0.497232D-01 -0.510569D-01 -0.311196D-01
     28  0.287677D-01  0.133145D-01 -0.279625D-01  0.403942D-01 -0.774744D-02
     29  0.696593D-02 -0.149586D-01 -0.119377D-02 -0.119804D-01 -0.175347D-01
     30 -0.358309D-01 -0.771473D-02  0.177197D-02 -0.467063D-01  0.443506D-02
     31  0.240257D-01  0.363637D-01 -0.167986D-01  0.377345D-02  0.656731D-02
     32  0.470942D-01  0.186300D-01 -0.181817D-01  0.156974D-01 -0.156406D-02
     33 -0.201812D-01 -0.123593D-01 -0.103412D-01 -0.702203D-02 -0.147448D-02
     34 -0.337444D-01 -0.577915D-02  0.117555D-01 -0.942430D-01 -0.243028D-01
     35  0.383503D-01  0.314250D-01  0.555369D-01  0.103403D-01  0.386388D-01
     36  0.260171D-01  0.361689D-01  0.252902D-02 -0.385552D-01  0.890063D-02
     37 -0.135882D-01  0.300201D-02  0.913760D-02  0.143306D-01 -0.327862D-02
     38 -0.471314D-02 -0.138930D-01 -0.292226D-02 -0.135096D-01 -0.207697D-01
     39  0.209389D-01  0.918905D-02  0.187412D-01  0.574366D-01 -0.423338D-02
     40  0.283953D-01  0.261208D-01  0.902975D-02  0.347674D-01  0.136162D-01
     41  0.330982D-01  0.231749D-02  0.639575D-02  0.176413D-01 -0.918386D-02
     42  0.119038D-01  0.472563D-02 -0.113898D-01  0.142107D-01  0.370104D-02
     43 -0.354028D+01  0.146418D+01  0.254447D-01  0.361563D+00 -0.106308D+00
     44  0.143847D+01 -0.258267D+01  0.302790D-01 -0.611228D-01 -0.488254D+00
     45  0.227398D-01  0.258369D-01 -0.463334D+01  0.132623D-03 -0.172342D-01
     46  0.366579D+00  0.382386D-01  0.157878D-02 -0.420045D+01  0.133336D+01
     47 -0.475577D-01 -0.559889D+00  0.112880D-01  0.161652D+01 -0.281665D+01
     48  0.239258D-02  0.147896D-01  0.309228D+00  0.113538D+00  0.154128D+00
     49 -0.108013D+00 -0.560095D-01 -0.559450D-02  0.138166D+00 -0.166032D+00
     50  0.249144D-01  0.623425D-02  0.228832D-02 -0.118053D-01  0.921132D-01
     51 -0.714739D-02 -0.619739D-03 -0.149238D-02 -0.494467D-02 -0.592992D-02
               21            22            23            24            25 
     21  0.278351D+02
     22  0.172262D-02  0.166823D+01
     23 -0.581331D-03  0.135499D+01  0.405880D+01
     24 -0.933087D-02 -0.584195D-01  0.664093D-01  0.467428D+01
     25  0.104146D-01  0.445808D-01 -0.397358D-01  0.400069D-01  0.233731D+01
     26 -0.199637D-01 -0.407334D-01  0.164465D-02 -0.232019D-01  0.372819D+00
     27 -0.195979D-01  0.530664D-01 -0.298729D-01  0.943885D-02 -0.966538D+00
     28 -0.325322D-01  0.292634D-01  0.833893D-02 -0.219964D-01 -0.185151D+00
     29  0.660949D-02  0.141327D-01  0.194991D-01  0.437492D-01  0.101187D+00
     30  0.894653D-02 -0.278923D-01  0.442457D-01 -0.806303D-01  0.863620D-01
     31 -0.944582D-02 -0.113522D-01 -0.620613D-02  0.359626D-02 -0.150294D+00
     32 -0.526815D-02 -0.239857D-01  0.327157D-01 -0.197770D-01 -0.195997D+00
     33 -0.370535D-02  0.846049D-02 -0.203057D-01 -0.188562D-02 -0.730380D-01
     34 -0.548622D-01  0.443979D-01 -0.683216D-01 -0.336376D-01 -0.131776D-01
     35  0.176011D-01 -0.821129D-01  0.460908D-01  0.355757D-01  0.622787D-02
     36 -0.201875D-03 -0.431847D-01  0.380149D-01 -0.122294D-01  0.748458D-02
     37  0.371492D-01  0.597411D-02  0.617750D-02  0.160397D-01  0.292841D-03
     38 -0.119247D-01  0.119271D-01  0.621271D-02 -0.164909D-01 -0.273202D-02
     39  0.351140D-01  0.124193D-01 -0.138826D-01 -0.221358D-01  0.730595D-02
     40  0.138016D-01  0.248339D-01  0.305113D-02 -0.616949D-03  0.976828D-02
     41  0.600461D-02  0.460455D-02 -0.584604D-01 -0.488905D-01  0.745223D-02
     42 -0.836492D-02  0.521570D-02 -0.523683D-01 -0.705745D-03  0.103178D-01
     43 -0.378737D-02  0.310651D-03 -0.450296D-02  0.152337D-03 -0.608974D-02
     44 -0.255350D-01  0.605286D-02 -0.208084D-02  0.105095D-03 -0.651909D-02
     45  0.317320D+00 -0.618364D-04 -0.410497D-04 -0.614543D-03  0.118110D-02
     46  0.104688D+00 -0.889894D-02  0.431355D-02 -0.114100D-03 -0.868434D-02
     47  0.173584D+00 -0.611746D-02  0.271208D-02 -0.378610D-04  0.217450D-01
     48 -0.509582D+01 -0.830069D-03  0.271770D-03 -0.886022D-03  0.449716D-01
     49 -0.709084D-02  0.596451D-02 -0.181176D-02  0.880126D-04 -0.539268D-02
     50 -0.362772D-02  0.548709D-02 -0.243123D-02  0.801937D-04 -0.365446D-02
     51  0.123378D+00  0.649975D-04 -0.454935D-05 -0.544570D-03  0.870471D-03
               26            27            28            29            30 
     26  0.433966D+01
     27  0.284246D+00  0.385095D+01
     28  0.132201D+00  0.793172D-01  0.330213D+01
     29  0.736651D-01 -0.168927D-01  0.367509D+00  0.366397D+01
     30 -0.270834D-01  0.113057D+00  0.108878D+01 -0.753664D+00  0.239293D+01
     31 -0.206287D+00 -0.114036D+00  0.110532D+00  0.323624D-01  0.371774D-02
[...]
   yy         0.583143D+02      0.864128D+01      0.961473D+01
   zx        -0.170898D+01     -0.253245D+00     -0.281773D+00
   zy         0.855874D+00      0.126828D+00      0.141115D+00
   zz         0.782939D+02      0.116020D+02      0.129089D+02

 ----------------------------------------------------------------------

 Test job not archived.
 1\1\GINC-C0272\Freq\RM062X\CC-pVTZ\C5H10O2\HARMS.N\27-Sep-2019\0\\#P G
 eom=AllCheck Guess=TCheck SCRF=Check Test GenChk RM062X/CC-pVTZ Freq\\
 Gaussian input prepared by ASE\\0,1\O,2.7011838248,1.8321979073,0.7750
 797568\O,0.5679939167,-1.1726562147,0.7464996155\C,2.3096537513,2.6919
 902823,-0.2944833643\C,0.9016967453,3.243658433,-0.1200176037\C,2.5631
 015657,2.0788971828,-1.6645210071\C,2.0856298451,0.6435507143,1.009359
 5914\C,1.0808479952,0.0459402668,0.3791432796\H,3.0043978245,3.5240005
 757,-0.1746038204\H,0.1289768854,2.5067128557,-0.3257283479\H,0.767711
 9843,3.607648306,0.8975839447\H,0.7590213881,4.0778994161,-0.806955138
 1\H,1.845377657,1.3034189575,-1.921442387\H,3.5626382763,1.6481156689,
 -1.7006797737\H,2.496015452,2.8602188825,-2.4216428473\H,2.5391659842,
 0.155032926,1.8657026133\H,0.5635089504,0.443270997,-0.4771014166\H,1.
 0470649808,-1.5035612102,1.5115624726\\Version=EM64L-G16RevA.03\State=
 1-A\HF=-346.935266\RMSD=5.588e-09\RMSF=1.453e-06\ZeroPoint=0.147209\Th
 ermal=0.155937\Dipole=0.1355078,0.2888908,-0.0720019\DipoleDeriv=-0.56
 17282,-0.227867,-0.0522502,-0.4089741,-1.3839117,0.3372095,0.0843621,0
 .5320597,-0.6639267,-0.4720298,-0.2921463,0.0969085,-0.5071129,-1.2142
 26,0.1007709,0.2590261,0.3320122,-0.329012,0.3564028,-0.2396383,0.0262
 931,-0.0566015,0.7014131,-0.2128043,-0.1117577,-0.4097016,0.6887437,-0
 .0964041,0.116764,-0.0192106,0.0590734,-0.0204505,0.0158319,0.0662096,
 0.0250692,-0.0125264,0.0233635,0.0599543,0.0426432,0.0207612,-0.012607
 6,-0.0699629,0.0302937,0.0250168,-0.1401453,0.2020097,0.3801331,0.0683
 773,0.4843804,0.8697823,-0.2314556,-0.0102723,-0.3436434,0.1200785,0.1
 385826,0.304371,0.0716956,0.5519034,0.8102039,-0.1240152,-0.1149899,-0
 .3902957,0.0292125,-0.0526882,-0.0730668,-0.0066715,-0.0684062,-0.0945
 742,0.0013085,-0.0101912,-0.0036961,-0.0034393,-0.0225413,-0.0484865,0
 .0024353,-0.0990109,-0.0139779,-0.0392804,-0.0189851,-0.0454351,0.0555
 53,0.0251498,0.0096161,0.0160452,0.0238997,0.0588929,-0.0447155,0.0456
 591,-0.0753588,-0.0812515,0.0670166,0.0169592,0.0020765,0.0309066,-0.0
 508487,0.0904076,-0.0175352,0.1076033,-0.0045731,-0.025892,-0.0875667,
 -0.0269887,-0.0574046,-0.0141067,-0.0551623,0.0097872,-0.0271018,0.059
 0201,-0.07521,0.0676645,0.0318529,0.0716672,0.0340462,-0.0347852,-0.01
 15409,-0.0237982,0.0439667,0.0761463,0.0141198,-0.0066177,0.0076844,-0
 .0370838,0.1121399,0.0073228,0.0868496,-0.0274749,0.0936914,-0.0171571
 ,-0.0591618,-0.0180824,-0.0310017,0.1251371,-0.0584655,0.1261289,0.002
 6872,0.1025818,0.0096726,-0.0791001,-0.0227451,0.0546934,0.0619887,-0.
 0546421,0.0968689,0.0374877,0.2215491,0.006674,-0.108327,-0.0119386,0.
 3437572,-0.0326126,-0.0942805,-0.012578,0.2255998\Polar=62.5467588,6.3
 576689,74.0129972,1.3788295,-6.136056,62.9196451\Quadrupole=-2.7036871
 ,0.9172656,1.7864215,-2.0899622,0.1517543,-3.9809529\PG=C01 [X(C5H10O2
 )]\NImag=0\\0.21174937,0.11318543,0.46410299,0.06400793,-0.17328117,0.
 27242466,-0.00003259,-0.01333396,-0.00444249,0.26240355,-0.01417747,-0
 .01828787,0.00868160,0.05674484,0.39628189,-0.00380646,0.00958765,0.00
 211811,0.21317951,-0.21937021,0.41934781,-0.08947411,0.01708672,-0.045
 36603,-0.00195010,-0.00270365,-0.00010840,0.54761999,0.00425809,-0.119
 09414,0.04969148,0.00304655,0.00646326,-0.00156201,0.07464194,0.560032
 45,-0.03569146,0.06349093,-0.14555250,-0.00444522,-0.00774806,0.001107
 65,0.00175307,0.03022956,0.47275380,-0.00763471,0.00830451,-0.00556603
 ,-0.00047877,0.00082144,-0.00020767,-0.18638724,0.03095260,0.01771526,
 0.50411124,0.02819161,-0.01740999,0.00901938,-0.00042635,-0.00060448,0
 .00033472,0.02662376,-0.09130620,-0.00846825,0.04414451,0.56048523,-0.
 02920772,0.02004187,-0.00628694,0.00043159,0.00106051,-0.00025977,0.02
 214229,-0.01023087,-0.08066230,0.01032994,-0.00339305,0.58867518,0.002
 52997,-0.00026978,-0.00968764,0.00033064,0.00037960,-0.00033123,-0.085
 70504,0.00596627,0.01845659,-0.00677981,0.01555994,0.03168463,0.583965
 22,-0.00118285,0.00419980,0.03259337,-0.00021458,-0.00084090,-0.000303
 00,0.00606024,-0.10885778,-0.05549152,0.00214653,-0.00431672,-0.012994
 57,0.00569098,0.57514320,-0.00035570,0.00116060,-0.03805826,0.00041866
 ,0.00095239,-0.00083307,0.01722233,-0.04917471,-0.16379737,0.00470441,
 -0.00654834,-0.00296108,0.02405197,-0.02931129,0.49415174,-0.12133552,
 -0.12075950,-0.00776177,-0.00923554,-0.00910148,-0.00509607,0.00419141
 ,0.00558639,0.00794789,0.00257298,0.00413324,-0.00292088,0.00047687,0.
 00219118,-0.00020962,0.56742741,-0.10277595,-0.25514782,0.05964914,-0.
 03319484,-0.02094739,-0.01849097,-0.00622134,-0.03705090,0.01588519,0.
 00190697,0.00342209,-0.00274925,0.00020186,0.00700895,-0.00169849,0.23
 695986,0.57438007,-0.02132322,0.04030485,-0.08279497,0.01307477,0.0074
 2674,0.01034747,0.01685265,0.02858651,-0.01054477,-0.00039606,-0.00124
 733,0.00150243,0.00044525,0.00133400,0.00001132,0.31109934,-0.09372623
 ,0.51747720,-0.00914550,-0.01001124,-0.00333053,-0.10559044,-0.1109179
 8,0.00341397,0.00215080,0.00060964,0.00212065,0.00016449,-0.00028612,-
 0.00011105,0.00022837,-0.00013074,0.00142557,-0.33866370,-0.15090371,-
 0.19810620,0.57330196,-0.02557824,-0.00734691,-0.02124414,-0.07954465,
 -0.25850000,0.08600993,0.00015615,-0.00050882,0.00036511,0.00143398,0.
 00000213,0.00032795,0.00015354,0.00075933,0.00040077,-0.16144419,-0.18
 862714,-0.06815576,0.21511182,0.55403459,0.00840948,-0.00449657,0.0134
 0978,-0.02024981,0.05225402,-0.09220419,0.00246235,0.00085243,0.001758
 18,0.00025736,-0.00086989,0.00057389,-0.00045438,-0.00055719,-0.000246
 23,-0.19015646,-0.05681690,-0.21043355,0.33671529,-0.10386321,0.550080
 28,0.00757577,0.00982448,-0.00147347,0.00018499,0.00009388,0.00009627,
 -0.16049912,-0.13285441,-0.01801540,-0.02512815,-0.02182280,-0.0044483
 8,0.00476038,0.00524236,0.00135229,0.00082405,0.00184128,-0.00105215,0
 .00001004,0.00030263,-0.00034743,0.17351193,-0.01218346,-0.02961891,0.
 01078334,-0.00044850,-0.00069568,0.00006460,-0.12586697,-0.19511304,-0
 .02641998,0.00897697,0.00968611,0.00114273,-0.00954326,-0.01099509,-0.
 00518645,0.00248026,0.00097255,0.00231991,0.00030627,0.00051645,0.0000
 3112,0.13327531,0.22352515,0.01512340,0.03445654,-0.00765918,0.0005053
 5,0.00064809,0.00008454,-0.02328422,-0.03393496,-0.05006995,0.00425430
 ,0.00338336,0.00153093,-0.01942806,-0.02465409,-0.00767692,-0.00153405
 ,0.00163255,-0.00236993,-0.00035020,0.00002723,-0.00027645,0.02250082,
 0.01940697,0.06873144,0.00191050,0.00223881,-0.00092302,0.00036250,0.0
 0001390,0.00038851,-0.02154658,-0.02546340,-0.00410161,-0.18220939,-0.
 13119618,-0.03670271,0.00154719,-0.00080630,-0.00129597,-0.00055109,-0
 .00122870,0.00006311,-0.00011359,-0.00011846,-0.00092151,-0.00492191,0
 .00321331,0.00091620,0.19780144,-0.00127233,0.00043335,-0.00031837,0.0
 0030698,-0.00018433,-0.00006935,0.00903649,0.01107374,0.00270208,-0.13
 283009,-0.17584995,-0.03768830,-0.00016515,0.00093165,0.00080554,-0.00
 030221,-0.00017329,0.00002781,0.00009044,-0.00295809,0.00021212,0.0030
 8615,0.00026704,-0.00052204,0.14457288,0.19402887,-0.00027273,0.000547
 29,0.00011768,0.00005755,0.00000642,-0.00004697,0.00303077,0.00346095,
 -0.00069649,-0.03647816,-0.03732852,-0.05762851,0.00030702,0.00125193,
 0.00041521,-0.00044593,-0.00066581,-0.00013758,0.00025321,0.00015751,0
 .00002579,0.00118260,-0.00045355,0.00070310,0.03907803,0.04081918,0.05
 624506,0.00273256,-0.00255742,-0.00027966,-0.00006329,-0.00024112,0.00
 015078,-0.00393613,0.01072434,0.03185178,-0.05073215,0.00882763,0.0271
 4393,-0.00594903,0.00217800,-0.00106078,0.00035722,0.00089748,-0.00018
 532,-0.00021114,0.00011229,-0.00011313,0.00108045,-0.00062164,-0.00013
 188,0.00299194,-0.00622789,-0.02200420,0.05465572,-0.00103732,0.001172
 67,-0.00019106,0.00017619,0.00022862,0.00013920,0.00191988,-0.00599066
 ,-0.01186381,0.00879901,-0.07677825,-0.08508533,0.00282893,-0.00047977
 ,0.00052622,-0.00023909,-0.00060331,0.00032398,-0.00042137,-0.00019118
 ,-0.00029107,-0.00011646,0.00029826,0.00060185,0.00360481,-0.00733183,
 -0.02118672,-0.01217291,0.07918487,-0.00050067,0.00005533,0.00160353,-
 0.00002646,-0.00009517,0.00010980,-0.00043478,0.00010178,-0.00426374,0
 .02983872,-0.08604283,-0.28594592,0.00115488,0.00018814,0.00115232,0.0
 0011430,-0.00019816,0.00003372,-0.00002780,-0.00000714,-0.00019775,0.0
 0048099,0.00012392,0.00017708,0.00039945,-0.00079945,-0.00421765,-0.03
 295313,0.09403432,0.30836573,-0.00692945,0.00663232,-0.00163124,0.0003
 7807,0.00030761,-0.00007864,-0.00078247,0.02209570,-0.02020736,-0.0502
 1838,0.02516063,-0.01963585,0.00081263,-0.00045707,0.00011164,-0.00206
 274,-0.00293007,0.00035482,0.00039938,-0.00048085,0.00008276,0.0009906
 9,-0.00068159,-0.00067925,0.00348023,-0.01663107,0.01558681,-0.0007346
 1,-0.00375775,0.00214646,0.05468412,0.00244523,-0.00027210,-0.00033706
 ,0.00000773,-0.00036172,0.00021033,-0.00130366,-0.01002275,0.00791529,
 0.02638267,-0.20539313,0.13069682,-0.00056753,0.00018240,0.00018760,0.
 00020243,0.00085197,-0.00021104,-0.00009848,0.00005666,-0.00070423,0.0
 0001868,0.00082043,-0.00014583,0.00373267,-0.01643955,0.01391177,-0.00
 205724,0.00982893,-0.00719677,-0.02923644,0.22061789,0.00041711,0.0001
 5644,0.00124415,0.00012508,0.00019930,-0.00000009,0.00052045,-0.003791
 51,0.00060944,-0.02137063,0.13113356,-0.15393774,-0.00003376,0.0000619
 8,-0.00018408,-0.00007767,-0.00060680,0.00030863,-0.00017729,-0.000294
 57,-0.00017605,-0.00046450,0.00001169,0.00023435,0.00177365,-0.0059771
 2,0.00425784,-0.00395831,0.02377390,-0.01697492,0.02307078,-0.14419847
 ,0.16437784,0.00032209,0.00032243,-0.00117226,-0.00003376,0.00011955,0
 .00027480,0.00428971,0.00563645,0.00065253,0.00138519,0.00071404,-0.00
 032560,-0.17005921,-0.12962486,-0.04122827,-0.00064248,-0.00079482,-0.
 00005637,-0.00094311,-0.00082714,0.00110339,0.00077832,0.00116174,0.00
 154351,0.00017865,-0.00044146,-0.00016365,0.00003539,-0.00005531,-0.00
 011469,-0.00001603,0.00003991,-0.00005525,0.18195743,0.00021432,0.0015
 1505,-0.00049163,0.00016480,0.00003618,0.00040087,-0.00809465,-0.01141
 834,-0.00154199,-0.00069523,0.00031715,0.00072387,-0.12959883,-0.18516
 963,-0.04545382,-0.00021235,-0.00049544,0.00008899,-0.00148944,-0.0009
 4567,0.00080113,0.00099388,0.00037033,-0.00273215,0.00064484,0.0000704
 9,-0.00025293,0.00019435,0.00027519,0.00013317,-0.00002740,-0.00012814
 ,-0.00006200,0.14487126,0.20138092,0.00090710,0.00253630,0.00062234,0.
 00035070,-0.00003877,0.00012903,-0.02214231,-0.02463758,-0.00403919,-0
 .00134803,0.00110438,0.00119234,-0.04024181,-0.04408484,-0.06045557,-0
 .00068609,-0.00084175,0.00027516,0.00027111,0.00134447,-0.00115747,0.0
 0149917,-0.00248363,-0.00510077,0.00077712,0.00009759,0.00021059,-0.00
 000523,0.00032680,0.00008993,0.00004818,0.00010322,-0.00003696,0.04189
 567,0.04891239,0.06473767,0.00099652,-0.00076396,-0.00037502,0.0001776
 2,-0.00004778,0.00009639,-0.00551333,0.00214318,-0.00030096,0.00120907
 ,0.00053408,0.00151627,-0.27847836,0.09779463,0.00630273,-0.00007480,-
 0.00032628,0.00026263,-0.00038033,-0.00004936,-0.00027599,0.00055665,0
 .00012292,0.00040057,0.00036856,-0.00004296,-0.00018777,-0.00025091,0.
 00028382,-0.00002941,0.00001867,-0.00001879,-0.00017164,-0.01829638,0.
 00893497,0.00045374,0.29967585,-0.00124135,0.00091089,0.00119636,0.000
 12412,0.00001114,0.00006873,0.01290758,-0.00690368,0.00149026,-0.00059
 872,-0.00044241,-0.00275879,0.09706740,-0.08907759,-0.00407996,0.00022
 273,0.00014341,-0.00013782,-0.00017840,-0.00016490,-0.00029243,0.00002
 651,-0.00006666,0.00043691,0.00023697,0.00007288,-0.00003414,0.0009512
 7,0.00011580,-0.00022835,-0.00034973,0.00026208,0.00001047,-0.02216981
 ,0.01057423,0.00090568,-0.10813890,0.09329678,-0.00094007,-0.00017270,
 0.00360097,-0.00017080,-0.00033080,0.00008639,0.03050577,-0.01258694,-
 0.00177464,-0.00033663,-0.00190316,-0.00604309,0.00417818,-0.00230837,
 -0.04589139,0.00040640,0.00101650,-0.00028079,0.00013857,0.00013680,-0
 .00005484,-0.00052053,0.00047533,0.00106603,-0.00010098,0.00012699,-0.
 00004103,0.00177844,-0.00087522,-0.00014001,-0.00015609,-0.00018170,0.
 00017042,-0.00590792,0.00340284,-0.00083538,-0.00746627,0.00566792,0.0
 4922474,0.00110692,0.00070475,0.00019177,0.00010678,0.00002608,0.00016
 323,-0.00172964,-0.00474818,0.00329877,0.00000288,-0.00008314,-0.00024
 423,-0.04705292,0.01188894,-0.01104185,-0.00014930,-0.00048668,0.00007
 574,-0.00061326,0.00006143,-0.00010441,0.00020043,0.00010986,-0.000382
 12,-0.00004906,-0.00011046,0.00006455,0.00004680,-0.00002212,-0.000174
 45,-0.00017881,0.00037089,0.00035355,0.00154316,-0.01519082,0.01641453
 ,-0.00005700,0.02096159,-0.02144605,0.04656010,0.00029659,0.00144039,-
 0.00485529,0.00000193,-0.00002693,0.00022312,-0.00074574,0.00887133,-0
 .00846510,0.00012602,-0.00016816,0.00032005,0.01217856,-0.18771266,0.1
 3581268,-0.00076888,-0.00112053,-0.00035951,-0.00021990,0.00025899,0.0
 0019927,-0.00031969,0.00089157,0.00047530,0.00005921,-0.00006710,0.000
 09534,-0.00025335,0.00018309,0.00003092,0.00021710,0.00013099,-0.00024
 912,0.00272668,-0.01579457,0.01552501,-0.00055760,-0.00888653,0.007510
 15,-0.01318451,0.20213279,0.00160926,-0.00040597,-0.00850449,0.0002037
 8,0.00058265,-0.00006350,-0.00279797,0.02410829,-0.01733777,-0.0001733
 1,0.00033956,0.00097573,-0.01044757,0.13374923,-0.17478353,-0.00164105
 ,-0.00302922,0.00036765,0.00007951,-0.00031904,0.00063393,-0.00080083,
 0.00002690,0.00095338,-0.00001090,0.00000567,-0.00006480,-0.00023403,-
 0.00026859,0.00022122,0.00061123,-0.00057270,-0.00000448,0.00135660,-0
 .00576523,0.00554921,-0.00039686,-0.00214289,0.00106380,0.01251616,-0.
 14642429,0.19098736,0.00747625,-0.01209975,0.01511126,-0.00119393,0.00
 360450,0.00296654,-0.00014601,-0.00236118,-0.00053520,0.00008496,-0.00
 053451,0.00039187,-0.00002091,-0.00002839,-0.00027098,-0.10162784,0.04
 922342,-0.10602092,-0.00473770,0.01010966,-0.02130945,0.00009098,-0.00
 038904,0.00034964,0.00004038,-0.00012817,-0.00003527,0.00003438,0.0000
 6634,0.00001439,0.00017682,-0.00006987,-0.00001894,0.00001076,0.000074
 87,0.00014853,-0.00001956,0.00004701,0.00003762,0.00007488,0.00008001,
 -0.00000827,0.09933509,0.00764897,-0.02787260,0.03069103,0.00191343,0.
 00163222,-0.00405890,-0.00391803,-0.00013447,-0.00259887,-0.00019293,-
 0.00003624,0.00020949,0.00013208,-0.00056697,0.00044110,0.04632104,-0.
 09507072,0.09318965,-0.00724801,0.00731575,-0.00729443,0.00020591,-0.0
 0094483,0.00096323,0.00018260,-0.00000750,-0.00001965,0.00004770,-0.00
 002142,-0.00005549,0.00021079,0.00001093,-0.00000960,-0.00006861,0.000
 04090,0.00010440,0.00000367,0.00004952,0.00000431,-0.00004263,0.000133
 65,0.00028500,-0.04105641,0.11489989,0.00021685,0.00944671,-0.00497900
 ,0.00424231,-0.00224015,-0.00022554,0.00063880,-0.00092516,0.00339170,
 -0.00016720,0.00028282,-0.00032536,-0.00009060,-0.00017241,0.00031107,
 -0.10383113,0.09631190,-0.22192253,-0.00821897,0.01137882,-0.00944137,
 -0.00009905,0.00032326,-0.00031164,0.00006156,-0.00001053,0.00002988,0
 .00002678,-0.00000296,-0.00000071,-0.00012640,0.00012645,0.00002685,-0
 .00007447,-0.00008452,0.00001109,0.00007198,0.00001844,-0.00001771,-0.
 00001995,-0.00002104,0.00000610,0.11352040,-0.11378558,0.23053523,-0.0
 0036504,0.00159051,0.00287116,0.00831750,-0.00735200,0.01248944,-0.000
 74004,-0.00020281,-0.00045540,0.00008353,0.00044635,0.00001252,-0.0006
 1718,-0.00079369,-0.00015928,-0.00321853,0.01077348,-0.01840424,-0.122
 75469,0.04758336,-0.12911233,0.00000126,0.00003399,0.00023446,0.000716
 07,0.00103114,0.00002999,-0.00006032,0.00013142,0.00009854,-0.00001435
 ,0.00014972,0.00005240,-0.00049382,-0.00072698,0.00161363,0.00010357,0
 .00015235,-0.00000372,0.00018556,0.00035329,0.00016018,0.00097647,-0.0
 0462213,-0.00480689,0.11714370,0.00255125,-0.00028441,-0.00017046,0.01
 228972,-0.01908226,0.02902010,-0.00002772,0.00045424,-0.00050286,0.000
 22370,-0.00168682,0.00048538,0.00004721,-0.00034938,0.00122569,-0.0064
 4840,0.01151879,-0.01084650,0.04514358,-0.08336854,0.08421650,0.000229
 08,-0.00006647,0.00011524,0.00039767,-0.00374676,-0.00035376,0.0002016
 0,0.00020175,-0.00003379,-0.00000396,-0.00017095,-0.00010299,-0.001581
 84,-0.00053419,0.00116040,0.00015432,0.00013982,-0.00002487,-0.0002236
 5,-0.00025767,-0.00010449,-0.00504885,0.00060342,0.00066395,-0.0448925
 5,0.10074296,0.00214680,-0.00120345,-0.00093220,-0.00232512,0.00788868
 ,-0.00658873,-0.00058877,-0.00069278,-0.00028461,-0.00106041,0.0002471
 4,-0.00048269,0.00044736,0.00079878,-0.00111864,-0.00541518,0.00768053
 ,-0.00528250,-0.12727202,0.08684142,-0.23852080,0.00008728,-0.00009470
 ,-0.00007518,0.00053666,0.00058858,0.00082173,-0.00000944,0.00001591,0
 .00000211,0.00046772,0.00038874,0.00005954,0.00223069,0.00182077,-0.00
 118305,0.00004996,-0.00015214,-0.00009971,0.00029579,0.00018976,-0.000
 05350,-0.00448492,0.00112267,0.00301372,0.13451740,-0.10649382,0.24861
 641,-0.00148303,-0.00009436,-0.00017294,-0.15368324,0.08243009,-0.2235
 9097,0.00015791,-0.00003117,-0.00004393,-0.00004573,0.00001332,-0.0000
 5662,0.00001118,0.00004563,0.00003286,0.00171160,-0.00294194,0.0033161
 9,0.00689842,-0.00698199,0.01401429,-0.00001677,0.00005384,-0.00003848
 ,-0.00000584,0.00002770,-0.00000280,0.00000314,0.00001192,0.00001366,-
 0.00000379,0.00000209,0.00001496,-0.00001591,-0.00005760,0.00004398,-0
 .00003583,-0.00002063,0.00000407,0.00000249,0.00001026,-0.00002594,-0.
 00055502,0.00048257,-0.00134403,0.00073633,-0.00301117,0.00037620,0.14
 632409,0.00065748,0.00155963,-0.00141653,0.05238657,-0.08512175,0.1177
 9520,0.00044899,-0.00049425,0.00102203,0.00009806,0.00007964,-0.000108
 52,-0.00006183,0.00014115,-0.00005954,0.00117896,0.00093873,0.00108174
 ,0.02064363,-0.02033266,0.03661933,-0.00002677,0.00015279,-0.00015818,
 -0.00008461,-0.00011963,0.00004470,-0.00000309,-0.00009278,-0.00001043
 ,-0.00006822,0.00002606,-0.00005516,-0.00002821,-0.00009448,-0.0000340
 7,-0.00002594,-0.00003479,0.00004292,-0.00003135,-0.00000865,-0.000064
 89,-0.00148965,-0.00003153,-0.00130999,-0.00365544,-0.00411354,0.00105
 391,-0.06993857,0.10754605,-0.00073989,-0.00222466,-0.00037370,-0.2009
 2939,0.15012277,-0.33310894,-0.00040601,0.00050550,-0.00059743,0.00000
 415,-0.00004353,0.00008292,-0.00001083,-0.00010015,-0.00003552,0.00020
 798,-0.00335222,0.00344304,-0.00682382,0.00689387,-0.01377316,0.000022
 32,-0.00007146,0.00005917,0.00006241,-0.00000040,0.00000615,-0.0000166
 1,0.00002256,-0.00001474,0.00003446,0.00000758,0.00002528,0.00004129,0
 .00010025,-0.00000896,0.00004965,0.00003175,-0.00003376,0.00003896,-0.
 00000726,0.00005370,0.00014370,0.00081163,-0.00010177,0.00086212,0.001
 74628,0.00210812,0.20745951,-0.15444252,0.34226961\\0.00000111,0.00000
 183,-0.00000078,0.00000154,-0.00000013,0.00000183,-0.00000189,0.000000
 42,-0.00000201,-0.00000055,-0.00000109,-0.00000080,-0.00000150,-0.0000
 0038,-0.00000008,0.00000003,-0.00000032,0.00000047,0.00000239,0.000001
 28,0.00000172,-0.00000090,0.00000140,-0.00000191,-0.00000104,-0.000001
 34,0.00000017,-0.00000075,0.00000038,-0.00000065,-0.00000211,-0.000000
 85,-0.00000169,-0.00000078,-0.00000167,0.00000030,-0.00000057,0.000000
 04,-0.00000096,-0.00000202,-0.00000068,-0.00000162,0.00000240,0.000002
 00,0.00000084,0.00000081,-0.00000110,0.00000136,0.00000384,0.00000020,
 0.00000380\\\@


  ON THE CHOICE OF THE CORRECT LANGUAGE -
 I SPEAK SPANISH TO GOD, ITALIAN TO WOMEN,
 FRENCH TO MEN, AND GERMAN TO MY HORSE.
          -- CHARLES V
 Job cpu time:       0 days  2 hours 45 minutes 45.7 seconds.
 Elapsed time:       0 days  1 hours 22 minutes 53.5 seconds.
 File lengths (MBytes):  RWF=   1392 Int=      0 D2E=      0 Chk=     32 Scr=     32
 Normal termination of Gaussian 16 at Fri Sep 27 04:41:50 2019.
