 Entering Gaussian System, Link 0=g16
 Input=tight/species/CC(C)OC=CO/conformers/CC(C)OC=CO_120.com
 Output=tight/species/CC(C)OC=CO/conformers/CC(C)OC=CO_120.log
 Initial command:
 /shared/centos7/gaussian/g16/l1.exe "/scratch/harms.n/gauss_scrdir/Gau-1080.inp" -scrdir="/scratch/harms.n/gauss_scrdir/"
 Entering Link 1 = /shared/centos7/gaussian/g16/l1.exe PID=      1081.
  
 Copyright (c) 1988,1990,1992,1993,1995,1998,2003,2009,2016,
            Gaussian, Inc.  All Rights Reserved.
  
 This is part of the Gaussian(R) 16 program.  It is based on
 the Gaussian(R) 09 system (copyright 2009, Gaussian, Inc.),
 the Gaussian(R) 03 system (copyright 2003, Gaussian, Inc.),
 the Gaussian(R) 98 system (copyright 1998, Gaussian, Inc.),
 the Gaussian(R) 94 system (copyright 1995, Gaussian, Inc.),
 the Gaussian 92(TM) system (copyright 1992, Gaussian, Inc.),
 the Gaussian 90(TM) system (copyright 1990, Gaussian, Inc.),
 the Gaussian 88(TM) system (copyright 1988, Gaussian, Inc.),
 the Gaussian 86(TM) system (copyright 1986, Carnegie Mellon
 University), and the Gaussian 82(TM) system (copyright 1983,
 Carnegie Mellon University). Gaussian is a federally registered
 trademark of Gaussian, Inc.
  
 This software contains proprietary and confidential information,
 including trade secrets, belonging to Gaussian, Inc.
  
 This software is provided under written license and may be
 used, copied, transmitted, or stored only in accord with that
 written license.
  
 The following legend is applicable only to US Government
 contracts under FAR:
  
                    RESTRICTED RIGHTS LEGEND
  
 Use, reproduction and disclosure by the US Government is
 subject to restrictions as set forth in subparagraphs (a)
 and (c) of the Commercial Computer Software - Restricted
 Rights clause in FAR 52.227-19.
  
 Gaussian, Inc.
 340 Quinnipiac St., Bldg. 40, Wallingford CT 06492
  
  
 ---------------------------------------------------------------
 Warning -- This program may not be used in any manner that
 competes with the business of Gaussian, Inc. or will provide
 assistance to any competitor of Gaussian, Inc.  The licensee
 of this program is prohibited from giving any competitor of
 Gaussian, Inc. access to this program.  By using this program,
 the user acknowledges that Gaussian, Inc. is engaged in the
 business of creating and licensing software in the field of
 computational chemistry and represents and warrants to the
 licensee that it is not a competitor of Gaussian, Inc. and that
 it will not use this program in any manner prohibited above.
 ---------------------------------------------------------------
  

 Cite this work as:
 Gaussian 16, Revision A.03,
 M. J. Frisch, G. W. Trucks, H. B. Schlegel, G. E. Scuseria, 
 M. A. Robb, J. R. Cheeseman, G. Scalmani, V. Barone, 
 G. A. Petersson, H. Nakatsuji, X. Li, M. Caricato, A. V. Marenich, 
 J. Bloino, B. G. Janesko, R. Gomperts, B. Mennucci, H. P. Hratchian, 
 J. V. Ortiz, A. F. Izmaylov, J. L. Sonnenberg, D. Williams-Young, 
 F. Ding, F. Lipparini, F. Egidi, J. Goings, B. Peng, A. Petrone, 
 T. Henderson, D. Ranasinghe, V. G. Zakrzewski, J. Gao, N. Rega, 
 G. Zheng, W. Liang, M. Hada, M. Ehara, K. Toyota, R. Fukuda, 
 J. Hasegawa, M. Ishida, T. Nakajima, Y. Honda, O. Kitao, H. Nakai, 
 T. Vreven, K. Throssell, J. A. Montgomery, Jr., J. E. Peralta, 
 F. Ogliaro, M. J. Bearpark, J. J. Heyd, E. N. Brothers, K. N. Kudin, 
 V. N. Staroverov, T. A. Keith, R. Kobayashi, J. Normand, 
 K. Raghavachari, A. P. Rendell, J. C. Burant, S. S. Iyengar, 
 J. Tomasi, M. Cossi, J. M. Millam, M. Klene, C. Adamo, R. Cammi, 
 J. W. Ochterski, R. L. Martin, K. Morokuma, O. Farkas, 
 J. B. Foresman, and D. J. Fox, Gaussian, Inc., Wallingford CT, 2016.
 
 ******************************************
 Gaussian 16:  EM64L-G16RevA.03 25-Dec-2016
                27-Sep-2019 
 ******************************************
 %nprocshared=20
 Will use up to   20 processors via shared memory.
 %mem=5GB
 ----------------------------------------------------------------------
 #p m062x/cc-pVTZ opt=(calcfc,maxcycles=900,Tight) freq IOP(7/33=1,2/16
 =3) scf=(maxcycle=900)
 ----------------------------------------------------------------------
 1/6=900,7=10,10=4,18=20,19=15,26=3,38=1/1,3;
 2/9=110,12=2,16=3,17=6,18=5,40=1/2;
 3/5=16,6=1,11=2,25=1,30=1,71=2,74=-55,140=1/1,2,3;
 4//1;
 5/5=2,7=900,38=5/2;
 8/6=4,10=90,11=11/1;
 11/6=1,8=1,9=11,15=111,16=1/1,2,10;
 10/6=1,13=1/2;
 6/7=2,8=2,9=2,10=2,28=1/1;
 7/10=1,18=20,25=1,33=1/1,2,3,16;
 1/6=900,7=10,10=4,18=20,19=15,26=3/3(2);
 2/9=110,16=3/2;
 99//99;
 2/9=110,16=3/2;
 3/5=16,6=1,11=2,25=1,30=1,71=1,74=-55/1,2,3;
 4/5=5,16=3,69=1/1;
 5/5=2,7=900,38=5/2;
 7/33=1/1,2,3,16;
 1/6=900,7=10,18=20,19=15,26=3/3(-5);
 2/9=110,16=3/2;
 6/7=2,8=2,9=2,10=2,19=2,28=1/1;
 99/9=1/99;
 Leave Link    1 at Fri Sep 27 01:27:54 2019, MaxMem=   671088640 cpu:               4.6 elap:               2.3
 (Enter /shared/centos7/gaussian/g16/l101.exe)
 ------------------------------
 Gaussian input prepared by ASE
 ------------------------------
 Symbolic Z-matrix:
 Charge =  0 Multiplicity = 1
 O                     0.52046  -2.01378  -0.366 
 O                     0.96012   0.79779  -0.6996 
 C                    -0.67459  -2.57745   0.13202 
 C                    -1.88012  -1.71243  -0.23604 
 C                    -0.61851  -2.88678   1.59189 
 C                     1.17029  -1.21489   0.5469 
 C                     1.40389   0.05518   0.38447 
 H                    -0.78307  -3.55805  -0.40928 
 H                    -1.54996  -0.73268  -0.64016 
 H                    -2.50259  -2.20028  -1.00806 
 H                    -2.5379   -1.51314   0.65291 
 H                    -0.44018  -1.95858   2.21103 
 H                     0.19551  -3.60491   1.82369 
 H                    -1.59044  -3.33851   1.93953 
 H                     1.55914  -1.73591   1.43633 
 H                     1.97857   0.60933   1.11185 
 H                     1.2205    1.74837  -0.52533 
 
 ITRead=  0  0  0  0  0  0  0  0  0  0  0  0  0  0  0  0  0
 MicOpt= -1 -1 -1 -1 -1 -1 -1 -1 -1 -1 -1 -1 -1 -1 -1 -1 -1
 NAtoms=     17 NQM=       17 NQMF=       0 NMMI=      0 NMMIF=      0
                NMic=       0 NMicF=      0.
                    Isotopes and Nuclear Properties:
 (Nuclear quadrupole moments (NQMom) in fm**2, nuclear magnetic moments (NMagM)
  in nuclear magnetons)

  Atom         1           2           3           4           5           6           7           8           9          10
 IAtWgt=          16          16          12          12          12          12          12           1           1           1
 AtmWgt=  15.9949146  15.9949146  12.0000000  12.0000000  12.0000000  12.0000000  12.0000000   1.0078250   1.0078250   1.0078250
 NucSpn=           0           0           0           0           0           0           0           1           1           1
 AtZEff=  -0.0000000  -0.0000000  -0.0000000  -0.0000000  -0.0000000  -0.0000000  -0.0000000  -0.0000000  -0.0000000  -0.0000000
 NQMom=    0.0000000   0.0000000   0.0000000   0.0000000   0.0000000   0.0000000   0.0000000   0.0000000   0.0000000   0.0000000
 NMagM=    0.0000000   0.0000000   0.0000000   0.0000000   0.0000000   0.0000000   0.0000000   2.7928460   2.7928460   2.7928460
 AtZNuc=   8.0000000   8.0000000   6.0000000   6.0000000   6.0000000   6.0000000   6.0000000   1.0000000   1.0000000   1.0000000

  Atom        11          12          13          14          15          16          17
 IAtWgt=           1           1           1           1           1           1           1
 AtmWgt=   1.0078250   1.0078250   1.0078250   1.0078250   1.0078250   1.0078250   1.0078250
 NucSpn=           1           1           1           1           1           1           1
 AtZEff=  -0.0000000  -0.0000000  -0.0000000  -0.0000000  -0.0000000  -0.0000000  -0.0000000
 NQMom=    0.0000000   0.0000000   0.0000000   0.0000000   0.0000000   0.0000000   0.0000000
 NMagM=    2.7928460   2.7928460   2.7928460   2.7928460   2.7928460   2.7928460   2.7928460
 AtZNuc=   1.0000000   1.0000000   1.0000000   1.0000000   1.0000000   1.0000000   1.0000000
 Leave Link  101 at Fri Sep 27 01:27:56 2019, MaxMem=   671088640 cpu:               3.2 elap:               1.6
 (Enter /shared/centos7/gaussian/g16/l103.exe)

 GradGradGradGradGradGradGradGradGradGradGradGradGradGradGradGradGradGrad
 Berny optimization.
 Initialization pass.
                           ----------------------------
                           !    Initial Parameters    !
                           ! (Angstroms and Degrees)  !
 --------------------------                            --------------------------
 ! Name  Definition              Value          Derivative Info.                !
 --------------------------------------------------------------------------------
 ! R1    R(1,3)                  1.412          calculate D2E/DX2 analytically  !
 ! R2    R(1,6)                  1.3762         calculate D2E/DX2 analytically  !
 ! R3    R(2,7)                  1.3869         calculate D2E/DX2 analytically  !
 ! R4    R(2,17)                 1.0009         calculate D2E/DX2 analytically  !
 ! R5    R(3,4)                  1.5287         calculate D2E/DX2 analytically  !
 ! R6    R(3,5)                  1.4933         calculate D2E/DX2 analytically  !
 ! R7    R(3,8)                  1.1253         calculate D2E/DX2 analytically  !
 ! R8    R(4,9)                  1.1101         calculate D2E/DX2 analytically  !
 ! R9    R(4,10)                 1.1052         calculate D2E/DX2 analytically  !
 ! R10   R(4,11)                 1.1237         calculate D2E/DX2 analytically  !
 ! R11   R(5,12)                 1.1299         calculate D2E/DX2 analytically  !
 ! R12   R(5,13)                 1.11           calculate D2E/DX2 analytically  !
 ! R13   R(5,14)                 1.1267         calculate D2E/DX2 analytically  !
 ! R14   R(6,7)                  1.3016         calculate D2E/DX2 analytically  !
 ! R15   R(6,15)                 1.1017         calculate D2E/DX2 analytically  !
 ! R16   R(7,16)                 1.08           calculate D2E/DX2 analytically  !
 ! A1    A(3,1,6)              113.416          calculate D2E/DX2 analytically  !
 ! A2    A(7,2,17)             106.8089         calculate D2E/DX2 analytically  !
 ! A3    A(1,3,4)              110.892          calculate D2E/DX2 analytically  !
 ! A4    A(1,3,5)              113.3088         calculate D2E/DX2 analytically  !
 ! A5    A(1,3,8)              105.0571         calculate D2E/DX2 analytically  !
 ! A6    A(4,3,5)              112.4694         calculate D2E/DX2 analytically  !
 ! A7    A(4,3,8)              107.5326         calculate D2E/DX2 analytically  !
 ! A8    A(5,3,8)              107.0586         calculate D2E/DX2 analytically  !
 ! A9    A(3,4,9)              110.6418         calculate D2E/DX2 analytically  !
 ! A10   A(3,4,10)             111.2566         calculate D2E/DX2 analytically  !
 ! A11   A(3,4,11)             111.8088         calculate D2E/DX2 analytically  !
 ! A12   A(9,4,10)             107.6267         calculate D2E/DX2 analytically  !
 ! A13   A(9,4,11)             107.7933         calculate D2E/DX2 analytically  !
 ! A14   A(10,4,11)            107.5299         calculate D2E/DX2 analytically  !
 ! A15   A(3,5,12)             111.8043         calculate D2E/DX2 analytically  !
 ! A16   A(3,5,13)             111.4508         calculate D2E/DX2 analytically  !
 ! A17   A(3,5,14)             110.626          calculate D2E/DX2 analytically  !
 ! A18   A(12,5,13)            107.5364         calculate D2E/DX2 analytically  !
 ! A19   A(12,5,14)            107.2431         calculate D2E/DX2 analytically  !
 ! A20   A(13,5,14)            107.9859         calculate D2E/DX2 analytically  !
 ! A21   A(1,6,7)              124.6407         calculate D2E/DX2 analytically  !
 ! A22   A(1,6,15)             115.32           calculate D2E/DX2 analytically  !
 ! A23   A(7,6,15)             119.9265         calculate D2E/DX2 analytically  !
 ! A24   A(2,7,6)              124.2357         calculate D2E/DX2 analytically  !
 ! A25   A(2,7,16)             114.9583         calculate D2E/DX2 analytically  !
 ! A26   A(6,7,16)             120.8056         calculate D2E/DX2 analytically  !
 ! D1    D(6,1,3,4)             94.1394         calculate D2E/DX2 analytically  !
 ! D2    D(6,1,3,5)            -33.4426         calculate D2E/DX2 analytically  !
 ! D3    D(6,1,3,8)           -149.9736         calculate D2E/DX2 analytically  !
 ! D4    D(3,1,6,7)           -118.4393         calculate D2E/DX2 analytically  !
 ! D5    D(3,1,6,15)            65.4412         calculate D2E/DX2 analytically  !
 ! D6    D(17,2,7,6)           175.5643         calculate D2E/DX2 analytically  !
 ! D7    D(17,2,7,16)           -4.6518         calculate D2E/DX2 analytically  !
 ! D8    D(1,3,4,9)            -11.0222         calculate D2E/DX2 analytically  !
 ! D9    D(1,3,4,10)           108.5653         calculate D2E/DX2 analytically  !
 ! D10   D(1,3,4,11)          -131.1851         calculate D2E/DX2 analytically  !
 ! D11   D(5,3,4,9)            117.0166         calculate D2E/DX2 analytically  !
 ! D12   D(5,3,4,10)          -123.396          calculate D2E/DX2 analytically  !
 ! D13   D(5,3,4,11)            -3.1463         calculate D2E/DX2 analytically  !
 ! D14   D(8,3,4,9)           -125.3652         calculate D2E/DX2 analytically  !
 ! D15   D(8,3,4,10)            -5.7777         calculate D2E/DX2 analytically  !
 ! D16   D(8,3,4,11)           114.4719         calculate D2E/DX2 analytically  !
 ! D17   D(1,3,5,12)            60.86           calculate D2E/DX2 analytically  !
 ! D18   D(1,3,5,13)           -59.5292         calculate D2E/DX2 analytically  !
 ! D19   D(1,3,5,14)          -179.6866         calculate D2E/DX2 analytically  !
 ! D20   D(4,3,5,12)           -65.8948         calculate D2E/DX2 analytically  !
 ! D21   D(4,3,5,13)           173.716          calculate D2E/DX2 analytically  !
 ! D22   D(4,3,5,14)            53.5586         calculate D2E/DX2 analytically  !
 ! D23   D(8,3,5,12)           176.2065         calculate D2E/DX2 analytically  !
 ! D24   D(8,3,5,13)            55.8173         calculate D2E/DX2 analytically  !
 ! D25   D(8,3,5,14)           -64.3401         calculate D2E/DX2 analytically  !
 ! D26   D(1,6,7,2)              3.9514         calculate D2E/DX2 analytically  !
 ! D27   D(1,6,7,16)          -175.8205         calculate D2E/DX2 analytically  !
 ! D28   D(15,6,7,2)           179.9038         calculate D2E/DX2 analytically  !
 ! D29   D(15,6,7,16)            0.1318         calculate D2E/DX2 analytically  !
 --------------------------------------------------------------------------------
 Trust Radius=3.00D-01 FncErr=1.00D-07 GrdErr=1.00D-06 EigMax=2.50D+02 EigMin=1.00D-04
 Number of steps in this run=    102 maximum allowed number of steps=    102.
 GradGradGradGradGradGradGradGradGradGradGradGradGradGradGradGradGradGrad

 Leave Link  103 at Fri Sep 27 01:27:57 2019, MaxMem=   671088640 cpu:               1.5 elap:               0.8
 (Enter /shared/centos7/gaussian/g16/l202.exe)
                          Input orientation:                          
 ---------------------------------------------------------------------
 Center     Atomic      Atomic             Coordinates (Angstroms)
 Number     Number       Type             X           Y           Z
 ---------------------------------------------------------------------
      1          8           0        0.520457   -2.013782   -0.365997
      2          8           0        0.960118    0.797786   -0.699599
      3          6           0       -0.674593   -2.577446    0.132016
      4          6           0       -1.880117   -1.712427   -0.236042
      5          6           0       -0.618508   -2.886776    1.591892
      6          6           0        1.170292   -1.214894    0.546902
      7          6           0        1.403887    0.055185    0.384467
      8          1           0       -0.783070   -3.558049   -0.409275
      9          1           0       -1.549960   -0.732683   -0.640157
     10          1           0       -2.502585   -2.200284   -1.008062
     11          1           0       -2.537903   -1.513143    0.652910
     12          1           0       -0.440181   -1.958575    2.211027
     13          1           0        0.195513   -3.604910    1.823686
     14          1           0       -1.590438   -3.338510    1.939529
     15          1           0        1.559144   -1.735907    1.436327
     16          1           0        1.978570    0.609327    1.111853
     17          1           0        1.220505    1.748371   -0.525328
 ---------------------------------------------------------------------
                    Distance matrix (angstroms):
                    1          2          3          4          5
     1  O    0.000000
     2  O    2.865224   0.000000
     3  C    1.412047   3.841361   0.000000
     4  C    2.422903   3.818769   1.528729   0.000000
     5  C    2.427487   4.617250   1.493342   2.512389   0.000000
     6  C    1.376189   2.376725   2.330725   3.188344   2.662143
     7  C    2.371555   1.386935   3.363711   3.780763   3.768699
     8  H    2.021339   4.700669   1.125320   2.154029   2.117158
     9  H    2.450102   2.940469   2.183040   1.110050   3.238790
    10  H    3.096096   4.590630   2.187141   1.105209   3.283410
    11  H    3.262265   4.405204   2.208165   1.123668   2.540203
    12  H    2.750805   4.246188   2.181797   2.849939   1.129905
    13  H    2.726167   5.131795   2.162062   3.483132   1.109989
    14  H    3.395030   5.529853   2.164507   2.731513   1.126748
    15  H    2.098680   3.367583   2.720109   3.824381   2.467969
    16  H    3.345271   2.086652   4.260853   4.700726   4.381551
    17  H    3.830046   1.000891   4.768247   4.655606   5.417488
                    6          7          8          9         10
     6  C    0.000000
     7  C    1.301558   0.000000
     8  H    3.196916   4.297472   0.000000
     9  H    3.006893   3.224252   2.936685   0.000000
    10  H    4.108398   4.720890   2.271300   1.787933   0.000000
    11  H    3.721680   4.250814   2.896432   1.804763   1.797843
    12  H    2.432283   3.285139   3.088992   3.296008   3.830727
    13  H    2.879678   4.114342   2.438429   4.167359   4.155900
    14  H    3.751104   4.785537   2.493375   3.666980   3.288748
    15  H    1.101697   2.082913   3.494626   3.871016   4.763227
    16  H    2.073708   1.080011   5.225658   4.161856   5.698131
    17  H    3.151688   1.930864   5.673259   3.720791   5.448514
                   11         12         13         14         15
    11  H    0.000000
    12  H    2.650769   0.000000
    13  H    3.635625   1.806809   0.000000
    14  H    2.425910   1.816871   1.809423   0.000000
    15  H    4.177219   2.155700   2.345785   3.569512   0.000000
    16  H    5.011390   3.694951   4.630960   5.385933   2.404439
    17  H    5.113838   4.897649   5.935157   6.312945   4.012849
                   16         17
    16  H    0.000000
    17  H    2.133645   0.000000
 Stoichiometry    C5H10O2
 Framework group  C1[X(C5H10O2)]
 Deg. of freedom    45
 Full point group                 C1      NOp   1
 Largest Abelian subgroup         C1      NOp   1
 Largest concise Abelian subgroup C1      NOp   1
                         Standard orientation:                         
 ---------------------------------------------------------------------
 Center     Atomic      Atomic             Coordinates (Angstroms)
 Number     Number       Type             X           Y           Z
 ---------------------------------------------------------------------
      1          8           0        0.120894   -0.164342    0.970879
      2          8           0       -2.399489    0.732040   -0.055610
      3          6           0        1.370151    0.141086    0.387830
      4          6           0        1.332032    1.506337   -0.298937
      5          6           0        1.881771   -0.935961   -0.511216
      6          6           0       -0.695890   -0.911970    0.153682
      7          6           0       -1.857552   -0.523582   -0.286488
      8          1           0        2.085864    0.216648    1.252926
      9          1           0        0.289278    1.880638   -0.368041
     10          1           0        1.919554    2.254459    0.263750
     11          1           0        1.750469    1.461360   -1.340819
     12          1           0        1.181802   -1.127436   -1.377280
     13          1           0        2.008486   -1.894163    0.034557
     14          1           0        2.880632   -0.648643   -0.946286
     15          1           0       -0.334671   -1.928204   -0.071094
     16          1           0       -2.477772   -1.187228   -0.870718
     17          1           0       -3.257953    0.775513   -0.568379
 ---------------------------------------------------------------------
 Rotational constants (GHZ):           4.5131247           1.6994824           1.4445058
 Leave Link  202 at Fri Sep 27 01:27:59 2019, MaxMem=   671088640 cpu:               3.6 elap:               1.8
 (Enter /shared/centos7/gaussian/g16/l301.exe)
 Standard basis: CC-pVTZ (5D, 7F)
 Ernie: Thresh=  0.10000D-02 Tol=  0.10000D-05 Strict=F.
 Ernie:  21 primitive shells out of 262 were deleted.
 There are   395 symmetry adapted cartesian basis functions of A   symmetry.
 There are   350 symmetry adapted basis functions of A   symmetry.
   350 basis functions,   534 primitive gaussians,   395 cartesian basis functions
    28 alpha electrons       28 beta electrons
       nuclear repulsion energy       318.6814273722 Hartrees.
 IExCor= 4336 DFT=T Ex+Corr=M062X ExCW=0 ScaHFX=  0.540000
 ScaDFX=  1.000000  1.000000  1.000000  1.000000 ScalE2=  1.000000  1.000000
 IRadAn=      5 IRanWt=     -1 IRanGd=            0 ICorTp=0 IEmpDi=  4
 NAtoms=   17 NActive=   17 NUniq=   17 SFac= 1.00D+00 NAtFMM=   60 NAOKFM=F Big=F
 Integral buffers will be    131072 words long.
 Raffenetti 2 integral format.
 Two-electron integral symmetry is turned on.
 Leave Link  301 at Fri Sep 27 01:28:00 2019, MaxMem=   671088640 cpu:               1.8 elap:               1.1
 (Enter /shared/centos7/gaussian/g16/l302.exe)
 NPDir=0 NMtPBC=     1 NCelOv=     1 NCel=       1 NClECP=     1 NCelD=      1
         NCelK=      1 NCelE2=     1 NClLst=     1 CellRange=     0.0.
 One-electron integrals computed using PRISM.
 One-electron integral symmetry used in STVInt
 NBasis=   350 RedAO= T EigKep=  2.75D-04  NBF=   350
 NBsUse=   350 1.00D-06 EigRej= -1.00D+00 NBFU=   350
 Precomputing XC quadrature grid using
 IXCGrd= 4 IRadAn=           5 IRanWt=          -1 IRanGd=           0 AccXCQ= 0.00D+00.
 Generated NRdTot=       0 NPtTot=           0 NUsed=           0 NTot=          32
 NSgBfM=   395   395   395   395   395 MxSgAt=    17 MxSgA2=    17.
 Leave Link  302 at Fri Sep 27 01:29:01 2019, MaxMem=   671088640 cpu:             121.8 elap:              60.9
 (Enter /shared/centos7/gaussian/g16/l303.exe)
 DipDrv:  MaxL=1.
 Leave Link  303 at Fri Sep 27 01:29:05 2019, MaxMem=   671088640 cpu:               8.4 elap:               4.2
 (Enter /shared/centos7/gaussian/g16/l401.exe)
 ExpMin= 1.03D-01 ExpMax= 1.53D+04 ExpMxC= 5.22D+02 IAcc=3 IRadAn=         5 AccDes= 0.00D+00
 Harris functional with IExCor= 1009 and IRadAn=       5 diagonalized for initial guess.
 HarFok:  IExCor= 1009 AccDes= 0.00D+00 IRadAn=         5 IDoV= 1 UseB2=F ITyADJ=14
 ICtDFT=  3500011 ScaDFX=  1.000000  1.000000  1.000000  1.000000
 FoFCou: FMM=F IPFlag=           0 FMFlag=      100000 FMFlg1=           0
         NFxFlg=           0 DoJE=T BraDBF=F KetDBF=T FulRan=T
         wScrn=  0.000000 ICntrl=       500 IOpCl=  0 I1Cent=   200000004 NGrid=           0
         NMat0=    1 NMatS0=      1 NMatT0=    0 NMatD0=    1 NMtDS0=    0 NMtDT0=    0
 Petite list used in FoFCou.
 Harris En= -346.807254430554    
 JPrj=0 DoOrth=F DoCkMO=F.
 Leave Link  401 at Fri Sep 27 01:29:40 2019, MaxMem=   671088640 cpu:              70.3 elap:              35.2
 (Enter /shared/centos7/gaussian/g16/l502.exe)
 Integral symmetry usage will be decided dynamically.
 Closed shell SCF:
 Using DIIS extrapolation, IDIIS=  1040.
 NGot=   671088640 LenX=   670765141 LenY=   670608675
 Requested convergence on RMS density matrix=1.00D-08 within 900 cycles.
 Requested convergence on MAX density matrix=1.00D-06.
 Requested convergence on             energy=1.00D-06.
 No special actions if energy rises.
 Fock matrices will be formed incrementally for  20 cycles.
 Integral accuracy reduced to 1.0D-05 until final iterations.

 Cycle   1  Pass 0  IDiag  1:
 FoFJK:  IHMeth= 1 ICntrl=       0 DoSepK=F KAlg= 0 I1Cent=           0 FoldK=F
 IRaf= 960000000 NMat=       1 IRICut=       1 DoRegI=T DoRafI=F ISym2E= 0 IDoP0=0 IntGTp=1.
 FoFCou: FMM=F IPFlag=           0 FMFlag=      100000 FMFlg1=           0
         NFxFlg=           0 DoJE=F BraDBF=F KetDBF=F FulRan=T
         wScrn=  0.000000 ICntrl=         0 IOpCl=  0 I1Cent=           0 NGrid=           0
         NMat0=    1 NMatS0=      1 NMatT0=    0 NMatD0=    1 NMtDS0=    0 NMtDT0=    0
 Symmetry not used in FoFCou.
 E= -346.688165316496    
 DIIS: error= 2.42D-02 at cycle   1 NSaved=   1.
 NSaved= 1 IEnMin= 1 EnMin= -346.688165316496     IErMin= 1 ErrMin= 2.42D-02
 ErrMax= 2.42D-02  0.00D+00 EMaxC= 1.00D-01 BMatC= 2.89D-01 BMatP= 2.89D-01
 IDIUse=3 WtCom= 7.58D-01 WtEn= 2.42D-01
 Coeff-Com:  0.100D+01
 Coeff-En:   0.100D+01
 Coeff:      0.100D+01
 Gap=     0.357 Goal=   None    Shift=    0.000
 GapD=    0.357 DampG=1.000 DampE=0.500 DampFc=0.5000 IDamp=-1.
 Damping current iteration by 5.00D-01
 RMSDP=2.42D-03 MaxDP=1.38D-01              OVMax= 1.40D-01

 Cycle   2  Pass 0  IDiag  1:
 RMSU=  1.21D-03    CP:  1.00D+00
 E= -346.808397663610     Delta-E=       -0.120232347114 Rises=F Damp=T
 DIIS: error= 6.24D-03 at cycle   2 NSaved=   2.
 NSaved= 2 IEnMin= 2 EnMin= -346.808397663610     IErMin= 2 ErrMin= 6.24D-03
 ErrMax= 6.24D-03  0.00D+00 EMaxC= 1.00D-01 BMatC= 2.14D-02 BMatP= 2.89D-01
 IDIUse=3 WtCom= 9.38D-01 WtEn= 6.24D-02
 Coeff-Com: -0.118D+00 0.112D+01
 Coeff-En:   0.000D+00 0.100D+01
 Coeff:     -0.110D+00 0.111D+01
 Gap=     0.332 Goal=   None    Shift=    0.000
 RMSDP=4.98D-04 MaxDP=1.50D-02 DE=-1.20D-01 OVMax= 7.60D-02

 Cycle   3  Pass 0  IDiag  1:
 RMSU=  4.73D-04    CP:  1.01D+00  8.76D-01
 E= -346.918598606771     Delta-E=       -0.110200943161 Rises=F Damp=F
 DIIS: error= 2.61D-03 at cycle   3 NSaved=   3.
 NSaved= 3 IEnMin= 3 EnMin= -346.918598606771     IErMin= 3 ErrMin= 2.61D-03
 ErrMax= 2.61D-03  0.00D+00 EMaxC= 1.00D-01 BMatC= 4.04D-03 BMatP= 2.14D-02
 IDIUse=3 WtCom= 9.74D-01 WtEn= 2.61D-02
 Coeff-Com: -0.808D-01 0.320D+00 0.761D+00
 Coeff-En:   0.000D+00 0.000D+00 0.100D+01
 Coeff:     -0.787D-01 0.311D+00 0.767D+00
 Gap=     0.328 Goal=   None    Shift=    0.000
 RMSDP=1.93D-04 MaxDP=1.06D-02 DE=-1.10D-01 OVMax= 1.33D-02

 Cycle   4  Pass 0  IDiag  1:
 RMSU=  1.26D-04    CP:  1.01D+00  9.88D-01  8.77D-01
 E= -346.920916463540     Delta-E=       -0.002317856769 Rises=F Damp=F
 DIIS: error= 1.43D-03 at cycle   4 NSaved=   4.
 NSaved= 4 IEnMin= 4 EnMin= -346.920916463540     IErMin= 4 ErrMin= 1.43D-03
 ErrMax= 1.43D-03  0.00D+00 EMaxC= 1.00D-01 BMatC= 1.00D-03 BMatP= 4.04D-03
 IDIUse=3 WtCom= 9.86D-01 WtEn= 1.43D-02
 Coeff-Com: -0.270D-01 0.733D-01 0.374D+00 0.579D+00
 Coeff-En:   0.000D+00 0.000D+00 0.138D+00 0.862D+00
 Coeff:     -0.266D-01 0.723D-01 0.371D+00 0.583D+00
 Gap=     0.326 Goal=   None    Shift=    0.000
 RMSDP=6.78D-05 MaxDP=4.22D-03 DE=-2.32D-03 OVMax= 6.38D-03

 Cycle   5  Pass 0  IDiag  1:
 RMSU=  2.88D-05    CP:  1.01D+00  9.61D-01  9.28D-01  6.34D-01
 E= -346.921641367074     Delta-E=       -0.000724903533 Rises=F Damp=F
 DIIS: error= 2.43D-04 at cycle   5 NSaved=   5.
 NSaved= 5 IEnMin= 5 EnMin= -346.921641367074     IErMin= 5 ErrMin= 2.43D-04
 ErrMax= 2.43D-04  0.00D+00 EMaxC= 1.00D-01 BMatC= 3.40D-05 BMatP= 1.00D-03
 IDIUse=3 WtCom= 9.98D-01 WtEn= 2.43D-03
 Coeff-Com: -0.520D-02 0.956D-02 0.998D-01 0.230D+00 0.666D+00
 Coeff-En:   0.000D+00 0.000D+00 0.000D+00 0.000D+00 0.100D+01
 Coeff:     -0.519D-02 0.953D-02 0.996D-01 0.229D+00 0.667D+00
 Gap=     0.326 Goal=   None    Shift=    0.000
 RMSDP=1.13D-05 MaxDP=4.18D-04 DE=-7.25D-04 OVMax= 8.15D-04

 Cycle   6  Pass 0  IDiag  1:
 RMSU=  8.35D-06    CP:  1.01D+00  9.61D-01  9.34D-01  6.68D-01  8.04D-01
 E= -346.921665418782     Delta-E=       -0.000024051708 Rises=F Damp=F
 DIIS: error= 4.76D-05 at cycle   6 NSaved=   6.
 NSaved= 6 IEnMin= 6 EnMin= -346.921665418782     IErMin= 6 ErrMin= 4.76D-05
 ErrMax= 4.76D-05  0.00D+00 EMaxC= 1.00D-01 BMatC= 1.56D-06 BMatP= 3.40D-05
 IDIUse=1 WtCom= 1.00D+00 WtEn= 0.00D+00
 Coeff-Com: -0.129D-03-0.896D-03 0.135D-01 0.507D-01 0.218D+00 0.719D+00
 Coeff:     -0.129D-03-0.896D-03 0.135D-01 0.507D-01 0.218D+00 0.719D+00
 Gap=     0.326 Goal=   None    Shift=    0.000
 RMSDP=3.77D-06 MaxDP=1.75D-04 DE=-2.41D-05 OVMax= 3.19D-04

 Initial convergence to 1.0D-05 achieved.  Increase integral accuracy.
 Cycle   7  Pass 1  IDiag  1:
 E= -346.921654340694     Delta-E=        0.000011078088 Rises=F Damp=F
 DIIS: error= 2.98D-05 at cycle   1 NSaved=   1.
 NSaved= 1 IEnMin= 1 EnMin= -346.921654340694     IErMin= 1 ErrMin= 2.98D-05
 ErrMax= 2.98D-05  0.00D+00 EMaxC= 1.00D-01 BMatC= 8.10D-07 BMatP= 8.10D-07
 IDIUse=1 WtCom= 1.00D+00 WtEn= 0.00D+00
 Coeff-Com:  0.100D+01
 Coeff:      0.100D+01
 Gap=     0.326 Goal=   None    Shift=    0.000
 RMSDP=3.77D-06 MaxDP=1.75D-04 DE= 1.11D-05 OVMax= 1.76D-04

 Cycle   8  Pass 1  IDiag  1:
 RMSU=  7.28D-06    CP:  1.00D+00
 E= -346.921654538907     Delta-E=       -0.000000198214 Rises=F Damp=F
 DIIS: error= 1.76D-05 at cycle   2 NSaved=   2.
 NSaved= 2 IEnMin= 2 EnMin= -346.921654538907     IErMin= 2 ErrMin= 1.76D-05
 ErrMax= 1.76D-05  0.00D+00 EMaxC= 1.00D-01 BMatC= 4.04D-07 BMatP= 8.10D-07
 IDIUse=1 WtCom= 1.00D+00 WtEn= 0.00D+00
 Coeff-Com:  0.390D+00 0.610D+00
 Coeff:      0.390D+00 0.610D+00
 Gap=     0.326 Goal=   None    Shift=    0.000
 RMSDP=1.51D-06 MaxDP=7.49D-05 DE=-1.98D-07 OVMax= 1.26D-04

 Cycle   9  Pass 1  IDiag  1:
 RMSU=  1.50D-06    CP:  1.00D+00  9.87D-01
 E= -346.921654779267     Delta-E=       -0.000000240360 Rises=F Damp=F
 DIIS: error= 6.02D-06 at cycle   3 NSaved=   3.
 NSaved= 3 IEnMin= 3 EnMin= -346.921654779267     IErMin= 3 ErrMin= 6.02D-06
 ErrMax= 6.02D-06  0.00D+00 EMaxC= 1.00D-01 BMatC= 5.86D-08 BMatP= 4.04D-07
 IDIUse=1 WtCom= 1.00D+00 WtEn= 0.00D+00
 Coeff-Com: -0.135D-01 0.268D+00 0.746D+00
 Coeff:     -0.135D-01 0.268D+00 0.746D+00
 Gap=     0.326 Goal=   None    Shift=    0.000
 RMSDP=4.58D-07 MaxDP=2.71D-05 DE=-2.40D-07 OVMax= 3.66D-05

 Cycle  10  Pass 1  IDiag  1:
 RMSU=  2.55D-07    CP:  1.00D+00  1.02D+00  7.92D-01
 E= -346.921654817006     Delta-E=       -0.000000037739 Rises=F Damp=F
 DIIS: error= 1.53D-06 at cycle   4 NSaved=   4.
 NSaved= 4 IEnMin= 4 EnMin= -346.921654817006     IErMin= 4 ErrMin= 1.53D-06
 ErrMax= 1.53D-06  0.00D+00 EMaxC= 1.00D-01 BMatC= 1.36D-09 BMatP= 5.86D-08
 IDIUse=1 WtCom= 1.00D+00 WtEn= 0.00D+00
 Coeff-Com: -0.124D-01 0.101D+00 0.302D+00 0.610D+00
 Coeff:     -0.124D-01 0.101D+00 0.302D+00 0.610D+00
 Gap=     0.326 Goal=   None    Shift=    0.000
 RMSDP=9.61D-08 MaxDP=3.56D-06 DE=-3.77D-08 OVMax= 8.66D-06

 Cycle  11  Pass 1  IDiag  1:
 RMSU=  8.55D-08    CP:  1.00D+00  1.02D+00  8.20D-01  1.02D+00
 E= -346.921654818122     Delta-E=       -0.000000001116 Rises=F Damp=F
 DIIS: error= 3.35D-07 at cycle   5 NSaved=   5.
 NSaved= 5 IEnMin= 5 EnMin= -346.921654818122     IErMin= 5 ErrMin= 3.35D-07
 ErrMax= 3.35D-07  0.00D+00 EMaxC= 1.00D-01 BMatC= 1.29D-10 BMatP= 1.36D-09
 IDIUse=1 WtCom= 1.00D+00 WtEn= 0.00D+00
 Coeff-Com: -0.979D-03-0.156D-01-0.467D-01 0.175D+00 0.888D+00
 Coeff:     -0.979D-03-0.156D-01-0.467D-01 0.175D+00 0.888D+00
 Gap=     0.326 Goal=   None    Shift=    0.000
 RMSDP=4.41D-08 MaxDP=1.80D-06 DE=-1.12D-09 OVMax= 6.71D-06

 Cycle  12  Pass 1  IDiag  1:
 RMSU=  2.65D-08    CP:  1.00D+00  1.02D+00  8.19D-01  1.16D+00  9.65D-01
 E= -346.921654818261     Delta-E=       -0.000000000139 Rises=F Damp=F
 DIIS: error= 2.37D-07 at cycle   6 NSaved=   6.
 NSaved= 6 IEnMin= 6 EnMin= -346.921654818261     IErMin= 6 ErrMin= 2.37D-07
 ErrMax= 2.37D-07  0.00D+00 EMaxC= 1.00D-01 BMatC= 1.86D-11 BMatP= 1.29D-10
 IDIUse=1 WtCom= 1.00D+00 WtEn= 0.00D+00
 Coeff-Com:  0.701D-03-0.159D-01-0.482D-01 0.160D-01 0.384D+00 0.663D+00
 Coeff:      0.701D-03-0.159D-01-0.482D-01 0.160D-01 0.384D+00 0.663D+00
 Gap=     0.326 Goal=   None    Shift=    0.000
 RMSDP=1.27D-08 MaxDP=4.45D-07 DE=-1.39D-10 OVMax= 1.37D-06

 Cycle  13  Pass 1  IDiag  1:
 RMSU=  7.65D-09    CP:  1.00D+00  1.02D+00  8.22D-01  1.18D+00  1.04D+00
                    CP:  9.49D-01
 E= -346.921654818281     Delta-E=       -0.000000000021 Rises=F Damp=F
 DIIS: error= 6.31D-08 at cycle   7 NSaved=   7.
 NSaved= 7 IEnMin= 7 EnMin= -346.921654818281     IErMin= 7 ErrMin= 6.31D-08
 ErrMax= 6.31D-08  0.00D+00 EMaxC= 1.00D-01 BMatC= 1.05D-12 BMatP= 1.86D-11
 IDIUse=1 WtCom= 1.00D+00 WtEn= 0.00D+00
 Coeff-Com:  0.331D-03-0.401D-02-0.124D-01-0.103D-01 0.644D-01 0.224D+00
 Coeff-Com:  0.738D+00
 Coeff:      0.331D-03-0.401D-02-0.124D-01-0.103D-01 0.644D-01 0.224D+00
 Coeff:      0.738D+00
 Gap=     0.326 Goal=   None    Shift=    0.000
 RMSDP=3.40D-09 MaxDP=1.38D-07 DE=-2.06D-11 OVMax= 6.83D-07

 SCF Done:  E(RM062X) =  -346.921654818     A.U. after   13 cycles
            NFock= 13  Conv=0.34D-08     -V/T= 2.0063
 KE= 3.447657404307D+02 PE=-1.447634412065D+03 EE= 4.372655894437D+02
 Leave Link  502 at Fri Sep 27 01:43:28 2019, MaxMem=   671088640 cpu:            1655.2 elap:             827.8
 (Enter /shared/centos7/gaussian/g16/l801.exe)
 DoSCS=F DFT=T ScalE2(SS,OS)=  1.000000  1.000000
 Range of M.O.s used for correlation:     1   350
 NBasis=   350 NAE=    28 NBE=    28 NFC=     0 NFV=     0
 NROrb=    350 NOA=    28 NOB=    28 NVA=   322 NVB=   322

 **** Warning!!: The largest alpha MO coefficient is  0.12483594D+02

 Leave Link  801 at Fri Sep 27 01:43:29 2019, MaxMem=   671088640 cpu:               1.7 elap:               0.9
 (Enter /shared/centos7/gaussian/g16/l1101.exe)
 Using compressed storage, NAtomX=    17.
 Will process     18 centers per pass.
 Leave Link 1101 at Fri Sep 27 01:44:01 2019, MaxMem=   671088640 cpu:              63.6 elap:              31.8
 (Enter /shared/centos7/gaussian/g16/l1102.exe)
 Symmetrizing basis deriv contribution to polar:
 IMax=3 JMax=2 DiffMx= 0.00D+00
 Leave Link 1102 at Fri Sep 27 01:44:04 2019, MaxMem=   671088640 cpu:               6.1 elap:               3.1
 (Enter /shared/centos7/gaussian/g16/l1110.exe)
 Forming Gx(P) for the SCF density, NAtomX=    17.
 Integral derivatives from FoFJK, PRISM(SPDF).
 Do as many integral derivatives as possible in FoFJK.
 G2DrvN: MDV=     671087280.
 G2DrvN: will do    18 centers at a time, making    1 passes.
 Calling FoFCou, ICntrl=  3107 FMM=F I1Cent=   0 AccDes= 0.00D+00.
 FoFJK:  IHMeth= 1 ICntrl=    3107 DoSepK=F KAlg= 0 I1Cent=           0 FoldK=F
 IRaf=         0 NMat=       1 IRICut=       1 DoRegI=T DoRafI=F ISym2E= 0 IDoP0=0 IntGTp=1.
 FoFCou: FMM=F IPFlag=           0 FMFlag=      100000 FMFlg1=           0
         NFxFlg=           0 DoJE=F BraDBF=F KetDBF=F FulRan=T
         wScrn=  0.000000 ICntrl=      3107 IOpCl=  0 I1Cent=           0 NGrid=           0
         NMat0=    1 NMatS0=      1 NMatT0=    0 NMatD0=    1 NMtDS0=    0 NMtDT0=    0
 Symmetry not used in FoFCou.
 End of G2Drv F.D. properties file   721 does not exist.
 End of G2Drv F.D. properties file   722 does not exist.
 End of G2Drv F.D. properties file   788 does not exist.
 Leave Link 1110 at Fri Sep 27 02:09:13 2019, MaxMem=   671088640 cpu:            3018.0 elap:            1509.3
 (Enter /shared/centos7/gaussian/g16/l1002.exe)
 Minotr:  Closed shell wavefunction.
          IDoAtm=11111111111111111
          Direct CPHF calculation.
          Differentiating once with respect to nuclear coordinates.
          Requested convergence is 1.0D-08 RMS, and 1.0D-07 maximum.
          Secondary convergence is 1.0D-12 RMS, and 1.0D-12 maximum.
          NewPWx=T KeepS1=F KeepF1=F KeepIn=T MapXYZ=F SortEE=F KeepMc=T.
         5116 words used for storage of precomputed grid.
 Two-electron integrals replicated using symmetry.
          MDV=     671088640 using IRadAn=       1.
          Solving linear equations simultaneously, MaxMat=     380.
 FoF2E skips out because all densities are zero.
 CalDSu exits because no D1Ps are significant.
 FoFJK:  IHMeth= 1 ICntrl=       0 DoSepK=F KAlg= 0 I1Cent=           0 FoldK=F
 IRaf= 940000000 NMat=      51 IRICut=     127 DoRegI=T DoRafI=T ISym2E= 2 IDoP0=3 IntGTp=3.
 FoFCou: FMM=F IPFlag=           0 FMFlag=      100000 FMFlg1=           0
         NFxFlg=           0 DoJE=F BraDBF=F KetDBF=F FulRan=T
         wScrn=  0.000000 ICntrl=         0 IOpCl=  0 I1Cent=           0 NGrid=           0
         NMat0=   51 NMatS0=     51 NMatT0=    0 NMatD0=   51 NMtDS0=    0 NMtDT0=    0
 Integrals replicated using symmetry in FoFCou.
 Raff kept on since  91.32% of shell-pairs survive, threshold=   0.20 IRatSp=91.
          There are    54 degrees of freedom in the 1st order CPHF.  IDoFFX=6 NUNeed=     0.
     48 vectors produced by pass  0 Test12= 1.67D-14 1.85D-09 XBig12= 7.08D-02 5.06D-02.
 AX will form    48 AO Fock derivatives at one time.
     48 vectors produced by pass  1 Test12= 1.67D-14 1.85D-09 XBig12= 5.35D-03 1.73D-02.
     48 vectors produced by pass  2 Test12= 1.67D-14 1.85D-09 XBig12= 1.22D-04 2.04D-03.
     48 vectors produced by pass  3 Test12= 1.67D-14 1.85D-09 XBig12= 1.39D-06 2.04D-04.
     48 vectors produced by pass  4 Test12= 1.67D-14 1.85D-09 XBig12= 1.06D-08 1.11D-05.
     48 vectors produced by pass  5 Test12= 1.67D-14 1.85D-09 XBig12= 4.99D-11 7.95D-07.
     27 vectors produced by pass  6 Test12= 1.67D-14 1.85D-09 XBig12= 2.04D-13 4.63D-08.
      4 vectors produced by pass  7 Test12= 1.67D-14 1.85D-09 XBig12= 8.80D-16 3.53D-09.
 InvSVY:  IOpt=1 It=  1 EMax= 3.33D-16
 Solved reduced A of dimension   319 with    54 vectors.
 End of Minotr F.D. properties file   721 does not exist.
 End of Minotr F.D. properties file   722 does not exist.
 End of Minotr F.D. properties file   788 does not exist.
 Leave Link 1002 at Fri Sep 27 02:50:07 2019, MaxMem=   671088640 cpu:            4907.0 elap:            2453.9
 (Enter /shared/centos7/gaussian/g16/l601.exe)
 Copying SCF densities to generalized density rwf, IOpCl= 0 IROHF=0.

 **********************************************************************

            Population analysis using the SCF density.

 **********************************************************************

 Orbital symmetries:
       Occupied  (A) (A) (A) (A) (A) (A) (A) (A) (A) (A) (A) (A)
                 (A) (A) (A) (A) (A) (A) (A) (A) (A) (A) (A) (A)
                 (A) (A) (A) (A)
       Virtual   (A) (A) (A) (A) (A) (A) (A) (A) (A) (A) (A) (A)
                 (A) (A) (A) (A) (A) (A) (A) (A) (A) (A) (A) (A)
                 (A) (A) (A) (A) (A) (A) (A) (A) (A) (A) (A) (A)
                 (A) (A) (A) (A) (A) (A) (A) (A) (A) (A) (A) (A)
                 (A) (A) (A) (A) (A) (A) (A) (A) (A) (A) (A) (A)
                 (A) (A) (A) (A) (A) (A) (A) (A) (A) (A) (A) (A)
                 (A) (A) (A) (A) (A) (A) (A) (A) (A) (A) (A) (A)
                 (A) (A) (A) (A) (A) (A) (A) (A) (A) (A) (A) (A)
                 (A) (A) (A) (A) (A) (A) (A) (A) (A) (A) (A) (A)
                 (A) (A) (A) (A) (A) (A) (A) (A) (A) (A) (A) (A)
                 (A) (A) (A) (A) (A) (A) (A) (A) (A) (A) (A) (A)
                 (A) (A) (A) (A) (A) (A) (A) (A) (A) (A) (A) (A)
                 (A) (A) (A) (A) (A) (A) (A) (A) (A) (A) (A) (A)
                 (A) (A) (A) (A) (A) (A) (A) (A) (A) (A) (A) (A)
                 (A) (A) (A) (A) (A) (A) (A) (A) (A) (A) (A) (A)
                 (A) (A) (A) (A) (A) (A) (A) (A) (A) (A) (A) (A)
                 (A) (A) (A) (A) (A) (A) (A) (A) (A) (A) (A) (A)
                 (A) (A) (A) (A) (A) (A) (A) (A) (A) (A) (A) (A)
                 (A) (A) (A) (A) (A) (A) (A) (A) (A) (A) (A) (A)
                 (A) (A) (A) (A) (A) (A) (A) (A) (A) (A) (A) (A)
                 (A) (A) (A) (A) (A) (A) (A) (A) (A) (A) (A) (A)
                 (A) (A) (A) (A) (A) (A) (A) (A) (A) (A) (A) (A)
                 (A) (A) (A) (A) (A) (A) (A) (A) (A) (A) (A) (A)
                 (A) (A) (A) (A) (A) (A) (A) (A) (A) (A) (A) (A)
                 (A) (A) (A) (A) (A) (A) (A) (A) (A) (A) (A) (A)
                 (A) (A) (A) (A) (A) (A) (A) (A) (A) (A) (A) (A)
                 (A) (A) (A) (A) (A) (A) (A) (A) (A) (A)
 The electronic state is 1-A.
 Alpha  occ. eigenvalues --  -19.64968 -19.63020 -10.58943 -10.58443 -10.57224
 Alpha  occ. eigenvalues --  -10.53446 -10.52215  -1.17668  -1.15698  -0.88620
 Alpha  occ. eigenvalues --   -0.84074  -0.77677  -0.69683  -0.63741  -0.60269
 Alpha  occ. eigenvalues --   -0.56193  -0.55187  -0.54054  -0.48212  -0.47323
 Alpha  occ. eigenvalues --   -0.46134  -0.44289  -0.43359  -0.42819  -0.41010
 Alpha  occ. eigenvalues --   -0.37593  -0.34681  -0.27862
 Alpha virt. eigenvalues --    0.04764   0.07374   0.08371   0.09481   0.11033
 Alpha virt. eigenvalues --    0.12193   0.12959   0.14221   0.15275   0.17121
 Alpha virt. eigenvalues --    0.17483   0.18257   0.22095   0.24139   0.26678
 Alpha virt. eigenvalues --    0.28263   0.30163   0.31836   0.31963   0.33320
 Alpha virt. eigenvalues --    0.34634   0.35251   0.37359   0.38583   0.39260
 Alpha virt. eigenvalues --    0.41053   0.42618   0.44589   0.45828   0.46836
 Alpha virt. eigenvalues --    0.48002   0.48232   0.49245   0.49661   0.50434
 Alpha virt. eigenvalues --    0.51485   0.52264   0.52977   0.53535   0.54869
 Alpha virt. eigenvalues --    0.57103   0.58158   0.58829   0.60017   0.61821
 Alpha virt. eigenvalues --    0.65745   0.67681   0.69749   0.70366   0.71636
 Alpha virt. eigenvalues --    0.73062   0.75026   0.79889   0.81936   0.82520
 Alpha virt. eigenvalues --    0.84399   0.84814   0.88367   0.89903   0.90858
 Alpha virt. eigenvalues --    0.92908   0.94030   0.95799   0.98689   1.00199
 Alpha virt. eigenvalues --    1.00900   1.02593   1.04127   1.05349   1.06614
 Alpha virt. eigenvalues --    1.06937   1.07995   1.09816   1.12310   1.13379
 Alpha virt. eigenvalues --    1.15763   1.17702   1.18669   1.20310   1.21295
 Alpha virt. eigenvalues --    1.21458   1.22594   1.25727   1.27212   1.28123
 Alpha virt. eigenvalues --    1.29109   1.30832   1.32901   1.34863   1.35409
 Alpha virt. eigenvalues --    1.36397   1.37196   1.38621   1.40279   1.41868
 Alpha virt. eigenvalues --    1.43489   1.44964   1.48305   1.48659   1.51086
 Alpha virt. eigenvalues --    1.53573   1.55640   1.56961   1.57435   1.58120
 Alpha virt. eigenvalues --    1.62214   1.64266   1.69683   1.72376   1.86193
 Alpha virt. eigenvalues --    1.87119   1.95603   1.99486   2.02995   2.08486
 Alpha virt. eigenvalues --    2.10625   2.11946   2.14847   2.16570   2.19844
 Alpha virt. eigenvalues --    2.24568   2.26603   2.29092   2.31984   2.35218
 Alpha virt. eigenvalues --    2.36438   2.38643   2.40943   2.41587   2.42225
 Alpha virt. eigenvalues --    2.45523   2.52445   2.55926   2.58515   2.59688
 Alpha virt. eigenvalues --    2.60761   2.63046   2.64509   2.65704   2.67691
 Alpha virt. eigenvalues --    2.69819   2.72273   2.77105   2.78837   2.80104
 Alpha virt. eigenvalues --    2.82493   2.84466   2.85132   2.86988   2.87303
 Alpha virt. eigenvalues --    2.88725   2.88982   2.91843   2.92339   2.93935
 Alpha virt. eigenvalues --    2.96984   2.97639   2.98009   2.98871   3.00714
 Alpha virt. eigenvalues --    3.02008   3.03851   3.05818   3.07056   3.07808
 Alpha virt. eigenvalues --    3.09642   3.10724   3.11784   3.12599   3.13719
 Alpha virt. eigenvalues --    3.15059   3.17527   3.18509   3.21141   3.21985
 Alpha virt. eigenvalues --    3.23603   3.25250   3.27705   3.28997   3.30546
 Alpha virt. eigenvalues --    3.31189   3.32491   3.33195   3.34439   3.37497
 Alpha virt. eigenvalues --    3.38025   3.40208   3.41182   3.43894   3.45496
 Alpha virt. eigenvalues --    3.45800   3.48166   3.49965   3.51917   3.52357
 Alpha virt. eigenvalues --    3.53015   3.54334   3.56024   3.58992   3.59507
 Alpha virt. eigenvalues --    3.63211   3.66930   3.66985   3.69372   3.70663
 Alpha virt. eigenvalues --    3.74266   3.75185   3.76548   3.78118   3.79202
 Alpha virt. eigenvalues --    3.79667   3.81822   3.83151   3.84312   3.86698
 Alpha virt. eigenvalues --    3.88673   3.90279   3.90726   3.92526   3.94080
 Alpha virt. eigenvalues --    3.94801   3.96540   3.98534   4.00353   4.02615
 Alpha virt. eigenvalues --    4.03435   4.04356   4.05605   4.07078   4.09642
 Alpha virt. eigenvalues --    4.10123   4.11386   4.13611   4.14365   4.18484
 Alpha virt. eigenvalues --    4.19961   4.22542   4.26627   4.27019   4.29722
 Alpha virt. eigenvalues --    4.33110   4.34025   4.35010   4.37221   4.41228
 Alpha virt. eigenvalues --    4.45186   4.46763   4.48358   4.50278   4.53737
 Alpha virt. eigenvalues --    4.55728   4.59108   4.62835   4.64247   4.68730
 Alpha virt. eigenvalues --    4.70340   4.71358   4.73096   4.74069   4.82019
 Alpha virt. eigenvalues --    4.82956   4.85578   4.88696   4.92366   4.94985
 Alpha virt. eigenvalues --    4.96028   4.97453   4.98876   5.03872   5.05800
 Alpha virt. eigenvalues --    5.06792   5.08447   5.09683   5.11764   5.14228
 Alpha virt. eigenvalues --    5.18924   5.21372   5.25419   5.26955   5.29106
 Alpha virt. eigenvalues --    5.30292   5.33942   5.37662   5.40282   5.45314
 Alpha virt. eigenvalues --    5.49598   5.60275   5.61290   5.69100   5.76397
 Alpha virt. eigenvalues --    5.78821   5.79555   5.79945   5.82442   5.86241
 Alpha virt. eigenvalues --    5.93957   6.02707   6.04879   6.19522   6.31720
 Alpha virt. eigenvalues --    6.32974   6.48801   6.54956   6.57488   6.68382
 Alpha virt. eigenvalues --    6.72370   6.76740   6.79866   6.82879   7.03335
 Alpha virt. eigenvalues --    7.11823   7.20165   7.27564   7.28830   7.41657
 Alpha virt. eigenvalues --   10.16386  11.07103  11.51361  11.90304  12.99258
 Alpha virt. eigenvalues --   13.45721  14.38257
          Condensed to atoms (all electrons):
               1          2          3          4          5          6
     1  O    7.853255   0.005212   0.322908  -0.063599  -0.056441   0.329772
     2  O    0.005212   7.769566   0.002920  -0.005441   0.000233  -0.090469
     3  C    0.322908   0.002920   4.852360   0.300147   0.314633  -0.081411
     4  C   -0.063599  -0.005441   0.300147   5.081695  -0.070132   0.014950
     5  C   -0.056441   0.000233   0.314633  -0.070132   5.138530  -0.046846
     6  C    0.329772  -0.090469  -0.081411   0.014950  -0.046846   5.119651
     7  C   -0.070632   0.359331   0.010398   0.004945  -0.012894   0.456901
     8  H   -0.030299   0.000027   0.419215  -0.059615  -0.047298   0.004443
     9  H    0.002386   0.011269  -0.032038   0.375544   0.004551  -0.007186
    10  H    0.002874   0.000007  -0.032172   0.399629   0.005464  -0.000376
    11  H    0.005029   0.000058  -0.047040   0.385082  -0.000805  -0.000569
    12  H   -0.004127  -0.000265  -0.037710  -0.004359   0.389369   0.009797
    13  H    0.004731  -0.000017  -0.042328   0.010763   0.395215  -0.002789
    14  H    0.003871   0.000001  -0.027178  -0.002832   0.383748   0.002979
    15  H   -0.046935   0.003277  -0.006499  -0.002939   0.015388   0.435525
    16  H    0.004606  -0.048849   0.000067  -0.000411  -0.000044  -0.088276
    17  H   -0.000193   0.323534  -0.000130   0.000235   0.000017   0.015753
               7          8          9         10         11         12
     1  O   -0.070632  -0.030299   0.002386   0.002874   0.005029  -0.004127
     2  O    0.359331   0.000027   0.011269   0.000007   0.000058  -0.000265
     3  C    0.010398   0.419215  -0.032038  -0.032172  -0.047040  -0.037710
     4  C    0.004945  -0.059615   0.375544   0.399629   0.385082  -0.004359
     5  C   -0.012894  -0.047298   0.004551   0.005464  -0.000805   0.389369
     6  C    0.456901   0.004443  -0.007186  -0.000376  -0.000569   0.009797
     7  C    4.950659  -0.001331  -0.001036  -0.000145  -0.001289   0.000983
     8  H   -0.001331   0.596342   0.004368  -0.013143   0.007157   0.007803
     9  H   -0.001036   0.004368   0.555313  -0.024503  -0.028010   0.000156
    10  H   -0.000145  -0.013143  -0.024503   0.581670  -0.036210  -0.000112
    11  H   -0.001289   0.007157  -0.028010  -0.036210   0.617992   0.000718
    12  H    0.000983   0.007803   0.000156  -0.000112   0.000718   0.594120
    13  H    0.001910  -0.009442  -0.000629  -0.000522   0.000186  -0.035868
    14  H    0.000076  -0.005671   0.000076   0.000362  -0.002388  -0.031456
    15  H   -0.102198   0.000217   0.000659  -0.000005   0.000374  -0.009533
    16  H    0.437578   0.000062   0.000685  -0.000004   0.000017   0.000515
    17  H   -0.040330  -0.000003  -0.000556   0.000003  -0.000003  -0.000007
              13         14         15         16         17
     1  O    0.004731   0.003871  -0.046935   0.004606  -0.000193
     2  O   -0.000017   0.000001   0.003277  -0.048849   0.323534
     3  C   -0.042328  -0.027178  -0.006499   0.000067  -0.000130
     4  C    0.010763  -0.002832  -0.002939  -0.000411   0.000235
     5  C    0.395215   0.383748   0.015388  -0.000044   0.000017
     6  C   -0.002789   0.002979   0.435525  -0.088276   0.015753
     7  C    0.001910   0.000076  -0.102198   0.437578  -0.040330
     8  H   -0.009442  -0.005671   0.000217   0.000062  -0.000003
     9  H   -0.000629   0.000076   0.000659   0.000685  -0.000556
    10  H   -0.000522   0.000362  -0.000005  -0.000004   0.000003
    11  H    0.000186  -0.002388   0.000374   0.000017  -0.000003
    12  H   -0.035868  -0.031456  -0.009533   0.000515  -0.000007
    13  H    0.572332  -0.021704  -0.006112  -0.000066   0.000003
    14  H   -0.021704   0.578740   0.000055  -0.000013  -0.000000
    15  H   -0.006112   0.000055   0.599896  -0.003423  -0.000449
    16  H   -0.000066  -0.000013  -0.003423   0.605729  -0.013859
    17  H    0.000003  -0.000000  -0.000449  -0.013859   0.452945
 Mulliken charges:
               1
     1  O   -0.262419
     2  O   -0.330394
     3  C    0.083856
     4  C   -0.363662
     5  C   -0.412689
     6  C   -0.071850
     7  C    0.007074
     8  H    0.127169
     9  H    0.138950
    10  H    0.117183
    11  H    0.099701
    12  H    0.119975
    13  H    0.134339
    14  H    0.121336
    15  H    0.122702
    16  H    0.105689
    17  H    0.263041
 Sum of Mulliken charges =  -0.00000
 Mulliken charges with hydrogens summed into heavy atoms:
               1
     1  O   -0.262419
     2  O   -0.067353
     3  C    0.211025
     4  C   -0.007828
     5  C   -0.037039
     6  C    0.050852
     7  C    0.112763
 APT charges:
               1
     1  O   -0.202733
     2  O   -0.854311
     3  C   -0.263800
     4  C   -1.055758
     5  C   -1.147022
     6  C   -0.418589
     7  C   -0.288506
     8  H    0.465893
     9  H    0.198117
    10  H    0.485593
    11  H    0.341979
    12  H    0.216853
    13  H    0.377991
    14  H    0.476513
    15  H    0.355266
    16  H    0.462060
    17  H    0.850454
 Sum of APT charges =  -0.00000
 APT charges with hydrogens summed into heavy atoms:
               1
     1  O   -0.202733
     2  O   -0.003857
     3  C    0.202094
     4  C   -0.030069
     5  C   -0.075666
     6  C   -0.063323
     7  C    0.173555
 Electronic spatial extent (au):  <R**2>=            896.0709
 Charge=             -0.0000 electrons
 Dipole moment (field-independent basis, Debye):
    X=             -0.5362    Y=             -0.9025    Z=             -2.1873  Tot=              2.4261
 Quadrupole moment (field-independent basis, Debye-Ang):
   XX=            -33.6368   YY=            -43.3965   ZZ=            -45.9689
   XY=              0.6541   XZ=              5.0937   YZ=              0.3268
 Traceless Quadrupole moment (field-independent basis, Debye-Ang):
   XX=              7.3640   YY=             -2.3958   ZZ=             -4.9682
   XY=              0.6541   XZ=              5.0937   YZ=              0.3268
 Octapole moment (field-independent basis, Debye-Ang**2):
  XXX=            -44.6245  YYY=             -0.3333  ZZZ=              1.3896  XYY=             -3.6139
  XXY=              4.5927  XXZ=            -12.1601  XZZ=             -3.9986  YZZ=              1.9259
  YYZ=              0.6395  XYZ=              1.1537
 Hexadecapole moment (field-independent basis, Debye-Ang**3):
 XXXX=           -603.9474 YYYY=           -295.4243 ZZZZ=           -132.4122 XXXY=            -26.5953
 XXXZ=             52.5910 YYYX=             -9.3927 YYYZ=              1.8953 ZZZX=              6.8377
 ZZZY=             -0.0264 XXYY=           -171.9296 XXZZ=           -137.7372 YYZZ=            -72.5633
 XXYZ=             -3.8579 YYXZ=              9.7162 ZZXY=             -2.2146
 N-N= 3.186814273722D+02 E-N=-1.447634406574D+03  KE= 3.447657404307D+02
  Exact polarizability:   0.000   0.000   0.000   0.000   0.000   0.000
 Approx polarizability:  91.806  -4.068  76.029   7.845   0.830  71.896
 No NMR shielding tensors so no spin-rotation constants.
 Leave Link  601 at Fri Sep 27 02:50:35 2019, MaxMem=   671088640 cpu:              56.2 elap:              28.1
 (Enter /shared/centos7/gaussian/g16/l701.exe)
 SCFChk:  SCF convergence  3.40D-09 required  1.00D-08
 ... and contract with generalized density number  0.
 Compute integral second derivatives.
 Entering OneElI...
 Calculate overlap and kinetic energy integrals
    NBasis = 395  MinDer = 2  MaxDer = 2
 Requested accuracy = 0.1000D-12
 PrmmSu-InSpLW:  IPartL=    0 NPrtUS=   20 NPrtUL=    1 DoSpLW=F IThBeg=    0 IThEnd=   19 NThAct=   20.
 PrsmSu:  NPrtUS=  20 ThrOK=T IAlg=1 NPAlg=1 LenDen=           0 ISkipM=0 DoSpLW=F IThBeg=    0 IThEnd=   19.
 Prism:   IPart=     0 DynPar=F LinDyn=F Incr=           4.
 PRISM was handed    33311813 working-precision words and  8456 shell-pairs
 PRISM was handed    33311813 working-precision words and  8456 shell-pairs
 PRISM was handed    33311813 working-precision words and  8456 shell-pairs
 PRISM was handed    33311813 working-precision words and  8456 shell-pairs
 PRISM was handed    33311813 working-precision words and  8456 shell-pairs
 PRISM was handed    33311813 working-precision words and  8456 shell-pairs
 PRISM was handed    33311813 working-precision words and  8456 shell-pairs
 PRISM was handed    33311813 working-precision words and  8456 shell-pairs
 PRISM was handed    33311813 working-precision words and  8456 shell-pairs
 PRISM was handed    33311813 working-precision words and  8456 shell-pairs
 PRISM was handed    33311813 working-precision words and  8456 shell-pairs
 PRISM was handed    33311813 working-precision words and  8456 shell-pairs
 PRISM was handed    33311813 working-precision words and  8456 shell-pairs
 PRISM was handed    33311813 working-precision words and  8456 shell-pairs
 PRISM was handed    33311813 working-precision words and  8456 shell-pairs
 PRISM was handed    33311813 working-precision words and  8456 shell-pairs
 PRISM was handed    33311813 working-precision words and  8456 shell-pairs
 IPart= 12 NShTot=         409 NBatch=          43 AvBLen=         9.5
 PRISM was handed    33311813 working-precision words and  8456 shell-pairs
 PRISM was handed    33311813 working-precision words and  8456 shell-pairs
 PRISM was handed    33311813 working-precision words and  8456 shell-pairs
 IPart=  2 NShTot=         455 NBatch=          74 AvBLen=         6.1
 IPart= 16 NShTot=         402 NBatch=          41 AvBLen=         9.8
 IPart= 15 NShTot=         403 NBatch=          41 AvBLen=         9.8
 IPart=  7 NShTot=         427 NBatch=          53 AvBLen=         8.1
 IPart= 19 NShTot=         393 NBatch=          35 AvBLen=        11.2
 IPart=  3 NShTot=         448 NBatch=          70 AvBLen=         6.4
 IPart=  0 NShTot=         465 NBatch=          83 AvBLen=         5.6
 IPart= 17 NShTot=         401 NBatch=          40 AvBLen=        10.0
 IPart=  8 NShTot=         420 NBatch=          52 AvBLen=         8.1
 IPart=  1 NShTot=         463 NBatch=          81 AvBLen=         5.7
 IPart= 18 NShTot=         397 NBatch=          37 AvBLen=        10.7
 IPart=  4 NShTot=         442 NBatch=          67 AvBLen=         6.6
 IPart= 11 NShTot=         413 NBatch=          47 AvBLen=         8.8
 IPart=  5 NShTot=         440 NBatch=          65 AvBLen=         6.8
 IPart= 14 NShTot=         404 NBatch=          42 AvBLen=         9.6
 IPart= 13 NShTot=         406 NBatch=          42 AvBLen=         9.7
 IPart=  9 NShTot=         416 NBatch=          49 AvBLen=         8.5
 IPart= 10 NShTot=         415 NBatch=          48 AvBLen=         8.6
 IPart=  6 NShTot=         437 NBatch=          62 AvBLen=         7.0
 PrSmSu:  NxtVal=             81.
 Entering OneElI...
 Calculate potential energy integrals
    NBasis = 395  MinDer = 2  MaxDer = 2
 Requested accuracy = 0.1000D-12
 PrmmSu-InSpLW:  IPartL=    0 NPrtUS=   20 NPrtUL=    1 DoSpLW=F IThBeg=    0 IThEnd=   19 NThAct=   20.
 PrsmSu:  NPrtUS=  20 ThrOK=T IAlg=1 NPAlg=1 LenDen=           0 ISkipM=0 DoSpLW=F IThBeg=    0 IThEnd=   19.
 Prism:   IPart=     0 DynPar=F LinDyn=F Incr=          65.
 PRISM was handed    33355595 working-precision words and  7729 shell-pairs
 PRISM was handed    33355595 working-precision words and  7729 shell-pairs
 PRISM was handed    33355595 working-precision words and  7729 shell-pairs
 PRISM was handed    33355595 working-precision words and  7729 shell-pairs
 PRISM was handed    33355595 working-precision words and  7729 shell-pairs
 PRISM was handed    33355595 working-precision words and  7729 shell-pairs
 PRISM was handed    33355595 working-precision words and  7729 shell-pairs
 PRISM was handed    33355595 working-precision words and  7729 shell-pairs
 PRISM was handed    33355595 working-precision words and  7729 shell-pairs
 PRISM was handed    33355595 working-precision words and  7729 shell-pairs
 PRISM was handed    33355595 working-precision words and  7729 shell-pairs
 PRISM was handed    33355595 working-precision words and  7729 shell-pairs
 PRISM was handed    33355595 working-precision words and  7729 shell-pairs
 PRISM was handed    33355595 working-precision words and  7729 shell-pairs
 PRISM was handed    33355595 working-precision words and  7729 shell-pairs
 PRISM was handed    33355595 working-precision words and  7729 shell-pairs
 PRISM was handed    33355595 working-precision words and  7729 shell-pairs
 PRISM was handed    33355595 working-precision words and  7729 shell-pairs
 PRISM was handed    33355595 working-precision words and  7729 shell-pairs
 PRISM was handed    33355595 working-precision words and  7729 shell-pairs
 IPart= 17 NShTot=        6273 NBatch=         369 AvBLen=        17.0
 IPart= 16 NShTot=        6324 NBatch=         372 AvBLen=        17.0
 IPart=  2 NShTot=        6970 NBatch=         410 AvBLen=        17.0
 IPart=  3 NShTot=        6851 NBatch=         403 AvBLen=        17.0
 IPart= 19 NShTot=        6171 NBatch=         363 AvBLen=        17.0
 IPart=  7 NShTot=        6545 NBatch=         385 AvBLen=        17.0
 IPart= 12 NShTot=        6392 NBatch=         376 AvBLen=        17.0
 IPart= 15 NShTot=        6324 NBatch=         372 AvBLen=        17.0
 IPart= 18 NShTot=        6205 NBatch=         365 AvBLen=        17.0
 IPart= 14 NShTot=        6341 NBatch=         373 AvBLen=        17.0
 IPart=  4 NShTot=        6817 NBatch=         401 AvBLen=        17.0
 IPart=  8 NShTot=        6528 NBatch=         384 AvBLen=        17.0
 IPart=  5 NShTot=        6766 NBatch=         398 AvBLen=        17.0
 IPart=  6 NShTot=        6698 NBatch=         394 AvBLen=        17.0
 IPart= 11 NShTot=        6460 NBatch=         380 AvBLen=        17.0
 IPart= 10 NShTot=        6494 NBatch=         382 AvBLen=        17.0
 IPart= 13 NShTot=        6375 NBatch=         375 AvBLen=        17.0
 IPart=  0 NShTot=        7225 NBatch=         425 AvBLen=        17.0
 IPart=  9 NShTot=        6494 NBatch=         382 AvBLen=        17.0
 IPart=  1 NShTot=        7140 NBatch=         420 AvBLen=        17.0
 PrSmSu:  NxtVal=           1301.
 Polarizability after L701:
                1             2             3 
      1  0.000000D+00
      2  0.000000D+00  0.000000D+00
      3  0.000000D+00  0.000000D+00  0.000000D+00
 Dipole Derivatives after L701:
                 1             2             3             4             5 
      1  -0.307583D+00 -0.309521D-01  0.100510D-01 -0.178112D+01 -0.155735D+00
      2  -0.523484D-01 -0.263310D+00 -0.205237D-01  0.301977D+00 -0.262633D+00
      3   0.471656D-01  0.886744D-01 -0.373058D-01 -0.287199D+00  0.930104D-01
                 6             7             8             9            10 
      1  -0.922441D+00 -0.627300D+00 -0.971705D-01 -0.781707D+00 -0.825613D+00
      2   0.253808D+00 -0.879374D-01  0.254250D+00 -0.877506D-01 -0.320841D-01
      3  -0.519177D+00 -0.166949D+00 -0.306418D-01 -0.418349D+00 -0.124919D-01
                11            12            13            14            15 
      1  -0.763790D+00  0.378535D+00 -0.128115D+01  0.722541D+00  0.544258D+00
      2  -0.139942D+01  0.230971D+00  0.134543D+00 -0.118694D+01 -0.106691D+00
      3  -0.304686D-01 -0.942245D+00  0.252704D-01  0.120102D-02 -0.972977D+00
                16            17            18            19            20 
      1  -0.520800D+00  0.421231D-01 -0.339198D+00 -0.366510D-01 -0.361126D+00
      2  -0.559409D-01 -0.596875D+00 -0.293168D+00  0.945812D-01 -0.620445D+00
      3  -0.259586D+00 -0.166181D+00 -0.138092D+00 -0.251330D+00 -0.302704D+00
                21            22            23            24            25 
      1  -0.331470D+00  0.695649D+00  0.856014D-01  0.571249D+00  0.835087D-01
      2  -0.260141D+00  0.683460D-01  0.186292D+00  0.555855D-01 -0.620705D+00
      3  -0.208420D+00  0.310414D+00  0.374761D-01  0.515739D+00  0.122555D+00
                26            27            28            29            30 
      1   0.150404D-01 -0.100811D-01  0.521639D+00  0.525696D+00  0.375389D+00
      2   0.391110D+00 -0.791269D-01  0.493104D+00  0.720479D+00  0.415041D+00
      3  -0.435622D-01  0.119733D+00  0.988735D-01  0.927459D-01  0.214661D+00
                31            32            33            34            35 
      1   0.313160D+00 -0.185323D-01 -0.616981D+00 -0.969384D-01 -0.114274D+00
      2   0.164695D+00  0.108096D+00 -0.448205D+00  0.254336D+00  0.231422D+00
      3  -0.213153D+00  0.311362D-01  0.604680D+00  0.341059D+00  0.126426D+00
                36            37            38            39            40 
      1  -0.251657D+00  0.186550D+00 -0.642657D+00  0.360481D+00  0.109455D+01
      2   0.266953D+00 -0.574549D-01  0.779719D+00 -0.357567D+00 -0.175938D+00
      3   0.516074D+00  0.243614D-01 -0.493282D-01  0.167704D+00 -0.317535D+00
                41            42            43            44            45 
      1   0.290998D+00 -0.487719D+00  0.113563D+00  0.973608D-01  0.870781D-01
      2   0.664868D-01  0.100851D+00 -0.328784D+00  0.825560D+00  0.231550D+00
      3  -0.902031D-01  0.268500D+00  0.312625D-01  0.263275D-01  0.126675D+00
                46            47            48            49            50 
      1   0.700529D+00  0.606616D+00  0.593813D+00  0.176801D+01 -0.201741D+00
      2   0.243815D+00  0.416200D+00  0.275729D+00 -0.344205D+00  0.350003D+00
      3   0.241737D+00  0.234087D+00  0.269452D+00  0.265546D+00 -0.179958D-01
                51 
      1   0.820399D+00
      2  -0.177316D+00
      3   0.433349D+00
 Hessian after L701:
                1             2             3             4             5 
      1  0.651086D+01
      2 -0.454987D+01  0.154431D+02
      3 -0.271910D+00 -0.175753D+01  0.138826D+02
      4  0.558151D+00 -0.410271D+00  0.467746D+00  0.754137D+01
      5 -0.451246D+00 -0.273868D+00 -0.173446D+00  0.449277D+01  0.787031D+01
      6  0.465569D+00 -0.154549D+00 -0.285053D+00 -0.204545D+01 -0.674067D+00
      7 -0.198835D+01  0.209599D+01 -0.306514D+01  0.290034D+00 -0.110232D+00
      8  0.209060D+01 -0.869550D+01 -0.685602D+00 -0.872937D-01 -0.117573D+00
      9 -0.292111D+01 -0.630741D+00 -0.760866D+01  0.214430D-01 -0.117809D-02
     10 -0.261521D+00  0.863164D-01 -0.433267D-01  0.149402D+00  0.743925D-01
     11 -0.181891D-01  0.374095D+00 -0.304258D+00  0.199418D-01 -0.116532D+00
     12 -0.904113D-03 -0.345389D+00  0.857762D-01  0.311578D-03 -0.282889D-02
     13  0.897773D-01 -0.403280D+00 -0.268176D+00  0.109338D+00 -0.841462D-01
     14 -0.315309D+00  0.152599D+00  0.254143D+00 -0.640689D-01 -0.557092D-01
     15 -0.290376D+00  0.322222D+00  0.177581D+00 -0.592825D-02 -0.473044D-03
     16 -0.556701D+01  0.386087D+01  0.328085D+01  0.283972D+00  0.266799D+00
     17  0.387390D+01 -0.696091D+01  0.330418D+01  0.458232D+00 -0.666556D+00
     18  0.307022D+01  0.313288D+01 -0.666249D+01  0.512102D-01 -0.260512D+00
     19  0.422252D+00 -0.386144D+00  0.345344D-01 -0.730567D+01 -0.361925D+01
     20 -0.407557D+00 -0.229983D+00 -0.399362D+00 -0.380957D+01 -0.780951D+00
     21  0.228004D-01 -0.370094D+00  0.166827D+00 -0.627250D+00  0.135985D+01
     22 -0.851316D-01 -0.118393D+00  0.207117D+00  0.306679D-01 -0.693943D-02
     23 -0.104973D+00  0.259253D-01  0.278810D-01 -0.231658D-02 -0.944555D-02
     24  0.249923D+00  0.285563D-01  0.165576D+00  0.207847D-01 -0.462343D-02
     25 -0.723027D-01 -0.283136D-01  0.175748D-01  0.119802D+00  0.487855D-01
     26  0.365136D-01  0.114501D-01 -0.842868D-01  0.102052D+00 -0.578727D-01
     27 -0.257629D-01 -0.710834D-01 -0.102048D-01 -0.351353D-01 -0.792062D-02
     28  0.263513D-01  0.982952D-01 -0.201514D-01  0.258112D-01  0.131447D-01
     29  0.990057D-01  0.789324D-01 -0.293905D-01  0.210797D-01 -0.355773D-02
     30 -0.359662D-02 -0.702824D-02 -0.463552D-01  0.824109D-02  0.341707D-02
     31  0.156599D-01  0.487064D-01 -0.941985D-01  0.263603D-01  0.520201D-02
     32  0.513329D-01 -0.177831D-01 -0.652881D-01  0.641625D-02 -0.116938D-01
     33 -0.997722D-01 -0.683527D-01  0.782018D-01 -0.253215D-01 -0.256938D-02
     34 -0.209441D-01  0.354048D-02 -0.711511D-02  0.693054D-03 -0.546505D-02
     35 -0.124046D-01 -0.181103D-01  0.315643D-01 -0.172481D-01 -0.225712D-02
     36 -0.429205D-01  0.308905D-01  0.794361D-01 -0.226175D-01  0.153014D-01
     37  0.371718D-01 -0.787350D-01 -0.743434D-01  0.889359D-02 -0.115185D-01
     38 -0.112628D+00  0.187045D-01  0.753254D-01 -0.189936D-01  0.800158D-02
     39 -0.454297D-01  0.295202D-01 -0.370058D-01  0.450229D-02 -0.449745D-02
     40  0.978960D-01 -0.145569D-01 -0.101318D+00  0.179182D-01 -0.746765D-02
     41 -0.640470D-02 -0.451185D-01  0.437148D-02 -0.234411D-02 -0.561451D-02
     42 -0.924701D-01  0.802380D-02  0.228932D-01 -0.757767D-02  0.304301D-02
     43  0.958962D-01 -0.257347D+00 -0.192500D+00  0.191057D-01 -0.918587D-01
     44 -0.236288D+00  0.162492D+00 -0.243610D+00 -0.955716D-01  0.982665D-01
     45 -0.150153D+00 -0.187949D+00 -0.441568D-01 -0.124250D-01  0.128214D-01
     46  0.859786D-01  0.662890D-01  0.948419D-01  0.216783D+00  0.736482D-01
     47  0.813973D-01 -0.143826D-01  0.529141D-01  0.116162D+00 -0.172516D+00
     48  0.100811D+00  0.458831D-01  0.328227D-01  0.682554D-01 -0.918386D-01
     49  0.552579D-01 -0.131007D-01  0.355156D-01 -0.209263D+01 -0.586622D+00
     50 -0.178808D-01 -0.116086D-01 -0.760633D-02 -0.708974D+00 -0.570243D+01
     51  0.350833D-01 -0.526126D-02  0.222956D-02  0.213921D+01 -0.170481D+00
                6             7             8             9            10 
      6  0.138544D+02
      7  0.486774D-01  0.155619D+02
      8 -0.695186D-02 -0.130211D+01  0.199888D+02
      9 -0.139087D+00  0.265540D+01  0.247964D+00  0.205558D+02
     10 -0.403758D-01 -0.592739D+01  0.180388D+00 -0.703205D-01  0.145407D+02
     11 -0.116595D-02  0.117769D+00 -0.231075D+01 -0.175189D+01 -0.698894D+00
     12 -0.131100D+00 -0.228553D-01 -0.174278D+01 -0.504523D+01  0.224224D+00
     13 -0.299573D-01 -0.567105D+01 -0.136334D+01 -0.120125D+01 -0.596088D-01
     14  0.716956D-02 -0.133602D+01 -0.426196D+01  0.194873D+01 -0.276163D-02
     15 -0.882634D-01 -0.113980D+01  0.195130D+01 -0.474741D+01 -0.689855D-02
     16 -0.357799D-01  0.273727D+00  0.146534D+00 -0.116974D+00 -0.917353D-01
     17 -0.207397D+00  0.165521D+00  0.123225D+00 -0.442231D-01  0.304357D+00
     18  0.271295D+00 -0.391794D-02  0.129603D-01  0.104139D-01 -0.851579D-01
     19 -0.597517D+00  0.324867D+00  0.117764D+00  0.159552D-01  0.227955D+00
     20  0.137621D+01  0.985597D-01 -0.153696D+00 -0.348126D-02  0.206609D+00
     21 -0.863963D+01  0.687986D-01  0.149253D-01 -0.181882D+00  0.288130D-01
     22  0.960454D-02 -0.328020D+01  0.134039D+00  0.145734D+01  0.178005D+00
     23 -0.899236D-03  0.146243D+00 -0.455393D+01  0.169176D+00  0.664955D-01
     24 -0.546510D-02  0.136838D+01  0.143917D+00 -0.299466D+01 -0.314627D-01
     25 -0.179086D-01  0.557088D-01  0.209611D-01 -0.302210D-01 -0.190672D+01
     26 -0.119932D-01  0.101149D+00  0.147391D-02  0.532907D-01 -0.110263D+01
     27 -0.808245D-01 -0.486315D-01  0.380787D-01  0.459461D-01  0.269510D+00
     28  0.203019D-02  0.562952D-01  0.114244D-02  0.240628D-01 -0.326339D+01
     29  0.593407D-03 -0.887700D-02 -0.278799D-01  0.357283D-01  0.928067D+00
     30 -0.109602D-01  0.280895D-01  0.571559D-01  0.683339D-01  0.565757D+00
     31 -0.173711D-01  0.109928D+00 -0.593671D-01  0.425031D-01 -0.358721D+01
     32 -0.165926D-02 -0.538560D-01 -0.198979D-01  0.180958D+00  0.346322D-01
     33  0.573584D-03  0.202391D-01  0.139461D+00  0.151866D-02 -0.813235D+00
     34 -0.636423D-02  0.120594D+00  0.310233D-01  0.657777D-01 -0.147336D-01
     35  0.941232D-02 -0.190533D-01  0.119837D-01 -0.117772D+00 -0.183609D-01
     36 -0.342936D-03  0.622182D-02 -0.104245D+00 -0.394909D-01 -0.512956D-02
     37 -0.287771D-03  0.912206D-01  0.641989D-01  0.998154D-02 -0.463811D-01
     38  0.176734D-02  0.187170D-02 -0.894508D-01 -0.594173D-01 -0.421016D-01
     39 -0.848181D-02  0.118840D-01 -0.832698D-01  0.113379D+00  0.963666D-02
     40 -0.806030D-02 -0.191233D-01  0.241243D-01  0.510567D-01  0.246961D-01
     41 -0.182770D-03  0.645876D-01  0.482181D-01 -0.281507D-01 -0.341074D-01
     42 -0.387107D-02  0.470329D-01  0.222216D-02 -0.596700D-02 -0.253853D-01
     43 -0.437765D-02 -0.392628D-01 -0.729875D-02 -0.588200D-02 -0.123178D-01
     44 -0.593319D-04  0.229268D-01  0.639384D-01 -0.216699D-02 -0.202377D-03
     45 -0.361456D-01  0.259552D-02  0.111907D-01 -0.148324D-01  0.290117D-02
     46  0.519835D-01  0.211225D-01  0.125331D-01  0.372658D-02  0.101004D-01
     47 -0.812841D-01  0.190470D-01 -0.252494D-02  0.297082D-02  0.165984D-01
     48  0.161648D+00  0.132103D-01  0.519825D-02 -0.115054D-01  0.807892D-02
     49  0.222558D+01  0.200251D-01 -0.389076D-02 -0.149430D-02  0.401746D-01
     50 -0.254941D+00 -0.351661D-02 -0.443894D-02  0.201416D-03  0.119868D-02
     51 -0.485873D+01  0.981254D-02 -0.152931D-02 -0.662786D-02  0.123719D-01
               11            12            13            14            15 
     11  0.120634D+02
     12  0.115560D+01  0.147929D+02
     13  0.739174D-01 -0.282747D-01  0.139887D+02
     14  0.157600D+00  0.702421D-01  0.940455D+00  0.136794D+02
     15 -0.580352D-01 -0.347876D-01  0.918115D+00 -0.123124D+01  0.145236D+02
     16  0.268915D+00 -0.842576D-01  0.294988D+00  0.128991D+00 -0.260647D-01
     17  0.200312D+00 -0.100162D+00 -0.474799D-02 -0.119369D+00  0.175105D-02
     18 -0.102513D+00 -0.214050D+00 -0.107296D+00 -0.231954D-01 -0.783808D-01
     19  0.193492D+00  0.362229D-01  0.194043D-01  0.330991D-01  0.890801D-02
     20 -0.378411D-01  0.207361D-01 -0.228110D-01 -0.730670D-01 -0.336426D-02
     21  0.198682D-01 -0.128116D+00 -0.335961D-01  0.280292D-02 -0.600782D-01
     22  0.926249D-01 -0.528781D-01  0.165562D+00 -0.134100D-02  0.172695D-01
     23 -0.202983D-01  0.190544D+00  0.531337D-02  0.473129D-01 -0.145736D+00
     24  0.217425D+00  0.962995D-02  0.353440D-01 -0.146224D+00 -0.100909D+00
     25 -0.807196D+00  0.175988D+00  0.166265D-01 -0.751472D-01  0.239967D-02
     26 -0.383026D+01 -0.582288D-01 -0.741270D-01  0.586842D-01  0.205044D-02
     27 -0.693424D-01 -0.413718D+01  0.778080D-03  0.213163D-03 -0.408993D-01
     28  0.914264D+00  0.616950D+00 -0.396237D-01  0.250806D-01  0.585235D-02
     29 -0.269124D+01  0.886061D+00  0.132881D-01  0.126306D+00  0.414488D-01
     30  0.804543D+00 -0.343913D+01  0.697566D-02  0.471451D-01 -0.307760D-01
     31 -0.269432D-01 -0.869819D+00 -0.466566D-01  0.214286D-01 -0.123590D-01
     32 -0.398623D+01 -0.925759D-01  0.117927D-01  0.548771D-01 -0.310518D-01
     33  0.808912D-01 -0.167379D+01 -0.811963D-02 -0.702018D-01 -0.928274D-02
     34  0.162112D-02  0.103872D-01 -0.316170D+01  0.332767D+00  0.114749D+01
     35  0.634434D-02  0.147824D-01  0.468477D+00 -0.401284D+01  0.464847D+00
     36  0.124345D-01 -0.607630D-03  0.141906D+01  0.393939D+00 -0.248190D+01
     37 -0.579637D-01  0.101477D-01 -0.397732D+01 -0.346428D+00  0.216977D+00
     38  0.203329D+00 -0.311238D-01 -0.201817D+00 -0.203977D+01 -0.110097D+01
     39 -0.323964D-01 -0.549158D-01  0.127707D+00 -0.990571D+00 -0.351193D+01
     40 -0.577139D-01 -0.332802D-01 -0.191004D+01  0.518785D+00 -0.876758D+00
     41  0.129327D-01  0.212866D-01  0.406465D+00 -0.370647D+01 -0.219004D+00
     42  0.266809D-01 -0.168299D-01 -0.876234D+00 -0.274852D+00 -0.337430D+01
     43 -0.181853D-01  0.236223D-02  0.135813D+00  0.134450D+00  0.240854D-01
     44 -0.151166D-01  0.770517D-02  0.228792D+00  0.151004D-02  0.186237D-02
     45  0.304968D-02 -0.361042D-02  0.287753D-01  0.644881D-02 -0.133272D+00
     46  0.434080D-02  0.713305D-02  0.266966D-01  0.755114D-02  0.104686D-01
     47 -0.279884D-02  0.626187D-02  0.117493D-01 -0.544663D-02  0.543872D-02
     48  0.131027D-02 -0.433060D-02  0.996421D-02  0.466239D-02 -0.723976D-02
     49 -0.179976D-02  0.854203D-02  0.191461D-01 -0.153484D-02  0.662182D-02
     50 -0.695535D-02 -0.137368D-03 -0.597594D-02 -0.368721D-02 -0.105452D-02
     51 -0.220820D-02 -0.462461D-02  0.617946D-02  0.787142D-03 -0.172852D-02
               16            17            18            19            20 
     16  0.120231D+02
     17 -0.103877D+00  0.186631D+02
     18 -0.699896D+01 -0.366693D+01  0.228480D+02
     19 -0.298873D+01 -0.355574D+01  0.461279D+01  0.130611D+02
     20 -0.313400D+01 -0.948471D+01  0.243405D+00  0.559233D+01  0.140245D+02
     21  0.460008D+01  0.105698D+00 -0.115769D+02 -0.477273D+01 -0.240394D+01
     22  0.138803D+00  0.669303D-01  0.847063D-01  0.382730D-02 -0.615360D-02
     23  0.508590D-01 -0.280472D-01  0.238239D-01 -0.448039D-03 -0.752450D-02
     24  0.981382D-01  0.311253D-01  0.334129D-03  0.109975D-01 -0.124258D-02
     25 -0.140418D-01 -0.253279D-01 -0.115583D-02 -0.243013D-01 -0.221257D-02
     26  0.453666D-02  0.278006D-01 -0.295239D-01  0.216530D-01  0.222421D-02
     27 -0.862756D-02 -0.243716D-01  0.848769D-03 -0.488623D-02 -0.521337D-02
     28  0.746759D-02  0.209305D-01  0.232072D-02  0.129902D-01  0.126990D-01
     29  0.205772D-01  0.124245D-01  0.305427D-02  0.189972D-01  0.272391D-02
     30  0.429616D-02  0.566007D-02 -0.965108D-02  0.671129D-02  0.352428D-02
     31  0.138495D-01  0.232973D-01 -0.144843D-01  0.431534D-02  0.203536D-02
     32  0.173378D-01 -0.624667D-03 -0.474722D-02  0.957483D-03 -0.895430D-02
     33 -0.215564D-01 -0.169601D-01 -0.173646D-02 -0.160024D-01 -0.401073D-02
     34  0.146257D-01 -0.579271D-01 -0.501737D-01  0.156809D-01 -0.128434D-01
     35 -0.683344D-01 -0.789461D-01  0.466477D-01 -0.269380D-01 -0.174006D-01
     36 -0.117951D+00  0.560281D-01 -0.209364D-01 -0.321404D-01  0.950184D-02
     37 -0.131864D-01 -0.318455D-01 -0.150689D-01  0.523103D-01 -0.238383D-01
     38 -0.451120D-01  0.110656D-01  0.667279D-02 -0.449302D-01  0.594417D-03
     39  0.149853D-02 -0.534277D-02 -0.192634D-01  0.141086D-01 -0.742673D-02
     40  0.879811D-01  0.141279D-01 -0.343602D-01  0.313012D-01 -0.373504D-02
     41  0.112800D-01 -0.274887D-01 -0.615184D-02  0.275723D-02 -0.767017D-02
     42 -0.427290D-01 -0.673898D-02 -0.137817D-01 -0.104900D-01  0.102110D-02
     43 -0.440797D+01 -0.819187D+00 -0.230988D+00 -0.291526D-01  0.428030D+00
     44 -0.108845D+01 -0.201150D+01  0.766035D+00  0.535627D+00 -0.989556D-01
     45 -0.269091D+00  0.699069D+00 -0.455228D+01 -0.896458D-01  0.107985D+00
     46 -0.280566D+00 -0.142102D+00 -0.377898D+00 -0.365133D+01  0.100965D+01
     47 -0.167906D+00  0.316833D+00 -0.855877D-01  0.941856D+00 -0.317332D+01
     48 -0.365968D+00 -0.660355D-01  0.642575D-01  0.834818D+00  0.104410D+01
     49  0.224723D+00 -0.186544D+00  0.982155D-01 -0.176851D+00  0.728061D-01
     50 -0.169029D+00  0.233852D-01 -0.563183D-01  0.174906D+00  0.440525D-01
     51  0.103095D+00 -0.653493D-01 -0.457193D-01 -0.516306D-01  0.215554D-01
               21            22            23            24            25 
     21  0.237048D+02
     22  0.113869D-02  0.278709D+01
     23 -0.100024D-02 -0.171290D+00  0.465742D+01
     24 -0.112464D-03 -0.186103D+01 -0.247828D+00  0.275869D+01
     25 -0.252404D-02  0.240613D-01 -0.276072D-01  0.384394D-01  0.207961D+01
     26 -0.281001D-02 -0.394479D-01  0.668434D-02 -0.339345D-01  0.909848D+00
     27 -0.163945D-01  0.339492D-01 -0.220455D-01  0.100312D-01 -0.251185D+00
     28  0.399132D-02  0.343678D-01  0.666768D-02 -0.528713D-02 -0.147475D+00
     29  0.333978D-02  0.933340D-02 -0.777428D-01  0.548012D-01 -0.558772D-01
     30 -0.485811D-02 -0.729366D-02  0.531923D-01  0.939173D-02 -0.844089D-01
     31 -0.429966D-02 -0.279051D-01 -0.248748D-02  0.499765D-02 -0.126779D+00
     32 -0.633787D-03 -0.112692D-01 -0.642043D-02 -0.524080D-01  0.566041D-01
     33 -0.170082D-02  0.282788D-01 -0.434806D-01  0.870815D-01  0.164542D+00
     34  0.226260D-03 -0.118544D-01  0.189763D-01  0.409402D-01 -0.536471D-02
     35  0.378101D-02  0.289711D-01 -0.332815D-02  0.580231D-01 -0.861738D-02
     36 -0.193465D-01  0.542521D-01  0.518708D-01  0.880236D-01 -0.668474D-02
     37  0.959609D-02  0.247424D-01  0.575995D-03  0.109365D-02  0.196562D-03
     38 -0.668108D-02 -0.125632D-02 -0.406147D-01 -0.376492D-01 -0.246602D-02
     39 -0.151552D-01 -0.629419D-02 -0.399409D-01 -0.863870D-03  0.189803D-02
     40 -0.404475D-02  0.402905D-02  0.831112D-02  0.151917D-01  0.107767D-01
     41 -0.494189D-04  0.639626D-02  0.617974D-02 -0.237812D-01 -0.466503D-02
     42 -0.602982D-02  0.200016D-01 -0.197570D-01 -0.329300D-01 -0.457035D-02
     43 -0.893540D-01  0.133338D-02  0.386490D-02  0.286427D-02 -0.226277D-02
     44  0.138518D+00  0.140055D-01  0.431347D-02  0.111471D-01 -0.365950D-02
     45  0.351605D+00  0.604327D-02  0.316039D-02  0.140943D-02 -0.121731D-02
     46  0.896784D+00  0.576341D-02  0.152652D-02  0.523231D-02  0.214820D-02
     47  0.105029D+01  0.491288D-02  0.621375D-04  0.346490D-02  0.615804D-02
     48 -0.361961D+01  0.432069D-02  0.880861D-03  0.261248D-02  0.527425D-03
     49 -0.984301D-01  0.684429D-02  0.288093D-03  0.544855D-02 -0.968427D-02
     50  0.861310D-01 -0.112338D-02 -0.545995D-03 -0.768320D-03 -0.126671D-02
     51  0.465774D-01  0.346797D-02  0.157952D-03  0.215183D-02 -0.149388D-02
               26            27            28            29            30 
     26  0.355205D+01
     27  0.223207D+00  0.416694D+01
     28 -0.594801D-01 -0.110570D+00  0.314434D+01
     29  0.932747D-01 -0.150927D-01 -0.104335D+01  0.240153D+01
     30 -0.102896D-01  0.532091D-01 -0.489532D+00 -0.827561D+00  0.360129D+01
     31  0.896123D-01  0.182370D+00  0.140128D+00 -0.423333D-02 -0.367579D-01
[...]
   zz         0.614752D+02      0.910969D+01      0.101359D+02

 ----------------------------------------------------------------------

 Test job not archived.
 1\1\GINC-C0268\Freq\RM062X\CC-pVTZ\C5H10O2\HARMS.N\27-Sep-2019\0\\#P G
 eom=AllCheck Guess=TCheck SCRF=Check Test GenChk RM062X/CC-pVTZ Freq\\
 Gaussian input prepared by ASE\\0,1\O,0.6317926076,-2.1447291421,-0.18
 00050557\O,0.7698093917,0.5184145714,-1.0064937355\C,-0.6750295724,-2.
 5858048092,0.2145839905\C,-1.7000470466,-1.4885869765,-0.0115536792\C,
 -0.6872506237,-3.1060003697,1.6426453285\C,1.1925383695,-1.1644431064,
 0.5865352386\C,1.2957577601,0.0916630117,0.17550475\H,-0.8723541454,-3
 .4126772741,-0.4679113086\H,-1.5009360364,-0.6432179795,0.6488561039\H
 ,-1.6543564161,-1.1367079798,-1.0403273376\H,-2.7036403236,-1.85976373
 99,0.1976274689\H,-0.5558061581,-2.2914594525,2.3562744767\H,0.1075216
 68,-3.836406236,1.7918919567\H,-1.6428309537,-3.584858629,1.8547004921
 \H,1.6179575889,-1.4518122161,1.5410683646\H,1.8149654206,0.8196312299
 ,0.7855522604\H,0.9930390029,1.4400412681,-1.1428020437\\Version=EM64L
 -G16RevA.03\State=1-A\HF=-346.9391847\RMSD=1.290e-09\RMSF=6.633e-07\Ze
 roPoint=0.1471515\Thermal=0.1557552\Dipole=-0.110478,0.6985842,0.49797
 08\DipoleDeriv=-0.9177495,-0.4690452,0.0044169,-0.4480903,-1.003726,0.
 044045,-0.1786769,-0.2251943,-0.4719998,-0.3401,0.3310766,-0.2390083,0
 .0182318,-0.621751,0.291255,-0.0185261,0.7599961,-0.9661528,0.872526,0
 .291163,-0.0784418,0.145526,0.5286559,-0.1409981,-0.1246396,-0.2190697
 ,0.4208846,-0.0831579,0.0245196,-0.0062941,0.1198538,-0.0639596,0.0270
 685,-0.027599,0.0760895,-0.0000261,-0.0092867,-0.032726,-0.0130207,-0.
 0195816,0.0147154,0.0832557,0.0540486,0.1024217,-0.1192517,0.075285,0.
 2838485,0.2092903,0.4008609,0.5256405,0.1546419,0.458951,0.4025403,0.1
 215876,-0.0380633,-0.2553201,0.3514142,-0.0237088,0.4312275,-0.3397839
 ,0.1404049,-0.6916145,0.7422166,-0.0103965,-0.0359049,-0.0019791,-0.03
 36969,-0.0994086,-0.0614872,-0.0211542,-0.0766928,-0.0560292,0.0685586
 ,-0.0243946,-0.047224,0.0081031,-0.0450897,-0.0521033,-0.0274042,-0.08
 64738,-0.0160798,0.0709854,0.0207988,0.020518,0.0349827,0.0246334,0.05
 34693,-0.0165715,0.0564136,-0.0743931,-0.1178856,-0.0618012,0.0275617,
 -0.0809768,0.0435958,0.0193004,0.0463741,0.0182678,0.0690702,0.0659192
 ,0.0025362,-0.0321372,-0.0132697,-0.0551001,-0.1026293,-0.0209881,-0.0
 556151,-0.0132081,-0.0303387,0.1139467,-0.0451571,0.0844338,-0.0132043
 ,0.0365046,-0.0149421,0.0181884,0.0251269,-0.0861914,-0.0948324,0.0470
 808,-0.0678621,0.0267695,0.0291501,0.0174329,0.0224947,0.0554007,0.094
 1777,-0.0012275,-0.081076,-0.0280195,0.0092003,0.0353575,-0.1411071,-0
 .0309702,-0.0365256,0.0868629,-0.0452183,-0.0897036,-0.0700616,-0.0069
 234,-0.0228627,-0.0802632,-0.0060003,-0.0003399,0.2988549,-0.0474191,-
 0.02624,-0.0267249,0.3047244,-0.0541835,-0.0453393,-0.0647814,0.319719
 5\Polar=63.9733593,8.8721947,77.9243803,2.3934794,-9.2175974,61.426686
 \Quadrupole=-1.7428458,4.591405,-2.8485592,4.0942862,1.0875851,-1.6353
 522\PG=C01 [X(C5H10O2)]\NImag=0\\0.35992753,0.16509733,0.30367086,0.00
 554856,0.12345880,0.25391988,-0.00238060,0.00623637,0.00760055,0.12359
 301,0.00037780,0.00176682,-0.00282226,0.10496668,0.63510700,0.01177380
 ,0.00834030,0.00706507,0.12929429,-0.16736255,0.34578708,-0.16727766,-
 0.03685871,0.03578853,-0.00308478,0.00267375,-0.00541886,0.45139567,-0
 .02317195,-0.07318730,-0.00478977,-0.00149452,0.00150038,-0.00189433,0
 .00655214,0.57684408,0.04762591,0.00124680,-0.09001141,-0.00016245,-0.
 00049047,0.00217021,0.03215827,0.07889255,0.55231930,-0.04814970,0.015
 80224,0.00066239,-0.00016803,-0.00111780,0.00104738,-0.11835576,0.0549
 7875,-0.01514772,0.53928213,-0.01313181,0.00937836,-0.00143717,-0.0004
 2794,-0.00022635,0.00039802,0.06350041,-0.15693244,0.01262803,0.051267
 69,0.52936256,0.01143350,-0.00340790,0.00358518,-0.00062354,-0.0003278
 5,-0.00071836,-0.01505006,0.01165695,-0.08512012,-0.01382800,0.0024760
 2,0.58769803,-0.01745298,-0.02012177,0.03777355,0.00083551,-0.00065372
 ,0.00107975,-0.07626315,0.00447452,-0.01355641,0.00225031,0.00952790,-
 0.02472411,0.59065783,-0.00949375,-0.00569283,0.01561731,-0.00037701,0
 .00011400,-0.00028054,0.00292332,-0.09419529,0.02872837,0.00456853,-0.
 01092911,0.02740872,-0.00444315,0.56880066,0.00882542,0.00745810,-0.00
 868155,-0.00036390,0.00040650,-0.00033665,-0.00715364,0.03356410,-0.19
 082615,-0.00451512,0.00466943,-0.00797720,0.00204531,0.03069859,0.4919
 0732,-0.10519708,-0.05951283,-0.04353989,0.00952851,0.02202546,-0.0189
 9787,-0.02614156,-0.03311207,-0.02066915,-0.00101608,0.00033557,-0.000
 96769,0.00107825,0.00064664,0.00221624,0.27567079,-0.07899093,-0.18640
 573,-0.09502660,0.00302966,-0.01166006,0.01364833,-0.02860738,-0.02900
 626,-0.00322726,0.00463705,0.00535613,0.00000180,0.00177117,0.00063762
 ,0.00042484,0.11029560,0.82522040,-0.05700313,-0.09982839,-0.16081191,
 -0.00960308,0.05535150,-0.03331140,-0.01464562,0.00151445,0.00694875,0
 .00248530,0.00153313,-0.00108921,0.00538586,0.00350701,0.00198755,0.18
 271807,-0.15287516,0.57675904,-0.00051213,-0.02941913,-0.00434605,-0.0
 8979578,0.02134748,-0.11246962,0.00297727,-0.00111171,-0.00092403,-0.0
 0066726,0.00000865,0.00111725,-0.00107494,0.00015135,0.00020758,-0.071
 23190,-0.04341367,-0.00617294,0.26736610,-0.01720614,-0.04409860,-0.00
 569931,-0.00272310,-0.12814387,0.04696095,0.00613317,0.00153286,-0.001
 36361,0.00037017,-0.00040477,-0.00033491,0.00035604,-0.00035693,-0.000
 69585,-0.05144679,-0.51190722,0.13276970,0.14212906,0.89454824,-0.0193
 1431,-0.04126618,0.00194778,-0.09849953,0.08837801,-0.26508341,0.00799
 310,-0.00064071,-0.00369539,-0.00114005,0.00006151,0.00143011,-0.00155
 533,0.00017424,-0.00009124,0.00015178,0.15208631,-0.13103729,0.1985290
 4,-0.11641869,0.55327781,-0.02311881,-0.03329293,-0.01904591,0.0002591
 1,-0.00027474,0.00105235,-0.05062267,-0.02476979,-0.02441442,0.0041177
 5,0.01917517,0.01420694,0.00117462,0.00022424,-0.00074083,-0.00352203,
 -0.00133034,0.00345896,-0.00091137,-0.00028337,-0.00213487,0.07311135,
 -0.01090608,-0.01063164,-0.00638513,-0.00001145,-0.00010993,0.00055380
 ,-0.03190429,-0.20011851,-0.12504121,-0.00154476,-0.01947263,-0.015245
 10,0.00254406,0.01005317,0.00891247,-0.00077541,0.00112323,0.00239335,
 -0.00023733,0.00004295,-0.00079809,0.03943354,0.21937060,0.00461759,0.
 00825125,0.00724819,0.00006471,-0.00010293,0.00006541,-0.03164020,-0.1
 2945366,-0.15794885,0.00074784,0.00525241,0.00433139,-0.00452661,-0.02
 276182,-0.02280627,0.00162631,0.00148969,0.00070309,0.00001600,0.00013
 566,0.00025248,0.02875275,0.13309993,0.16959977,0.00151085,-0.00197088
 ,-0.00048316,0.00006289,0.00043068,-0.00058734,0.00503091,0.02007472,0
 .01505619,-0.05555382,-0.03995230,-0.03141498,0.00048511,-0.00087030,0
 .00116535,-0.00100606,0.00041779,0.00003721,-0.00144753,-0.00086301,0.
 00030347,-0.00295314,0.00349863,-0.00087097,0.05887300,-0.00045518,0.0
 0147014,0.00074520,0.00049921,-0.00009579,0.00003620,-0.00564258,-0.02
 279179,-0.01633259,-0.03813363,-0.20417650,-0.12468250,-0.00073497,0.0
 0097824,-0.00123756,-0.00070990,-0.00020551,0.00005014,-0.00080521,0.0
 0076539,-0.00014441,0.00374392,-0.00237248,0.00156031,0.04057686,0.224
 67165,0.00083458,-0.00003997,0.00008903,-0.00060964,0.00040136,-0.0006
 6654,0.00201471,0.00391037,0.00218197,-0.03078803,-0.12509735,-0.14718
 722,0.00061043,0.00089327,0.00126375,-0.00070800,-0.00082209,-0.000205
 13,0.00015944,-0.00009169,0.00083144,-0.00084026,0.00105400,0.00084764
 ,0.03492623,0.13763110,0.15598069,0.00235443,-0.00086990,0.00032709,0.
 00031584,-0.00019813,0.00042801,-0.00020060,0.00719252,-0.02350985,-0.
 04724028,-0.00515141,0.01426822,-0.00344325,0.00317802,0.00007198,-0.0
 0038633,-0.00043530,-0.00006702,-0.00043079,0.00052116,-0.00086574,0.0
 0065577,-0.00070483,0.00053643,-0.00058481,0.00240671,-0.00623612,0.04
 798452,-0.00181506,0.00132903,-0.00147319,0.00050889,-0.00057853,0.000
 58857,-0.00266770,-0.00884376,0.02524956,-0.00331987,-0.07409317,0.080
 50677,0.00413955,-0.00312428,-0.00051705,0.00019979,-0.00004481,0.0003
 5791,-0.00030198,0.00059234,-0.00079423,-0.00086476,0.00055703,-0.0001
 4359,0.00192673,0.00898377,-0.02410586,0.00162126,0.07967708,-0.000146
 38,-0.00112939,0.00085996,0.00090969,0.00006125,0.00050269,0.00097706,
 0.00096872,-0.00451056,0.01126547,0.08168440,-0.29463889,-0.00098072,0
 .00105217,0.00112885,-0.00031301,-0.00014348,0.00014220,-0.00078691,0.
 00050005,-0.00100492,-0.00033864,0.00029244,0.00068973,0.00137719,0.00
 662776,-0.01705318,-0.01279748,-0.09041408,0.31687631,-0.00582425,0.00
 288969,-0.00103872,0.00012322,-0.00027586,0.00050613,-0.01737299,-0.01
 222951,0.00456358,-0.27389346,-0.08428154,0.04655357,0.00060210,-0.000
 77576,0.00026321,0.00123863,0.00189597,0.00136527,0.00007692,0.0000150
 3,-0.00048005,0.00063674,0.00028193,0.00041467,-0.00453551,-0.00119111
 ,0.00076359,0.00022171,0.00033978,0.00009604,0.29824426,0.00749510,-0.
 00173620,0.00043530,-0.00057118,0.00011863,-0.00059502,0.01953741,0.01
 032633,-0.00470257,-0.08620459,-0.07927082,0.01881938,-0.00049912,0.00
 031482,0.00004264,-0.00079091,-0.00174828,-0.00074349,0.00029330,0.000
 22173,0.00084790,-0.00098053,0.00065539,-0.00060774,-0.02248846,-0.007
 81698,0.00640968,-0.00851990,-0.00432214,0.00039258,0.09266089,0.08320
 237,-0.00105537,-0.00020750,0.00111681,0.00036592,0.00020722,0.0001938
 3,-0.00344757,-0.00254469,-0.00158799,0.04757337,0.01879813,-0.0565321
 8,0.00013482,0.00005698,-0.00006346,-0.00038774,0.00002411,0.00040534,
 -0.00022612,0.00039057,-0.00052668,0.00014214,-0.00006279,0.00007058,-
 0.01921294,-0.00554663,0.00389419,0.02854090,0.00926439,-0.00335828,-0
 .05228718,-0.02058330,0.05644747,0.00026778,-0.00001951,-0.00052424,-0
 .00016813,0.00026528,-0.00045291,-0.00119383,0.00043007,0.00014085,-0.
 00016859,-0.00067719,-0.00031486,-0.05104767,-0.02322898,-0.02134147,-
 0.00028931,0.00000109,0.00071326,0.00001053,-0.00032382,0.00032787,0.0
 0087843,0.00020141,-0.00002633,0.00022809,0.00021561,-0.00023982,-0.00
 006593,0.00012023,0.00016923,-0.00012728,-0.00010446,-0.00008849,0.051
 66646,0.00082703,0.00057213,-0.00132124,0.00022963,-0.00017579,0.00008
 661,0.00230794,0.00948592,0.00751871,-0.00009885,0.00153068,0.00033117
 ,-0.02324930,-0.19936973,-0.13025416,-0.00174259,-0.00073708,-0.000771
 02,-0.00005138,0.00014983,0.00022506,0.00008546,0.00010955,0.00283003,
 -0.00031492,0.00002187,-0.00019824,-0.00004762,0.00013412,-0.00006395,
 0.00005377,-0.00000577,-0.00012460,0.02729604,0.21450989,0.00037766,0.
 00084271,0.00211212,0.00029297,-0.00036072,0.00052706,-0.00641100,-0.0
 2705245,-0.02295331,0.00085761,-0.00141622,0.00161267,-0.02106659,-0.1
 2910578,-0.15788587,-0.00024963,-0.00063759,-0.00019985,-0.00015638,0.
 00080698,-0.00019844,0.00028488,0.00329747,-0.00521979,-0.00041351,0.0
 0104923,0.00016232,0.00027208,0.00018391,0.00041479,0.00000252,0.00008
 051,-0.00004739,0.02394536,0.14202192,0.17418801,0.00156634,-0.0001030
 8,-0.00005158,-0.00002845,0.00006015,-0.00009280,-0.00123044,-0.001699
 32,0.00103780,0.00060294,-0.00053754,-0.00038764,-0.19162305,0.1330175
 7,-0.02630065,0.00016457,-0.00012316,-0.00014491,0.00003571,-0.0000597
 1,0.00007893,-0.00006665,0.00000478,-0.00045503,-0.00004094,0.00006754
 ,0.00008636,0.00024847,0.00026789,0.00013713,0.00038986,-0.00012063,0.
 00011411,0.00379477,-0.00417563,0.00134017,0.20500111,-0.00043413,0.00
 104120,-0.00119705,-0.00013490,0.00018937,-0.00022288,0.00823886,-0.00
 866245,0.00099596,-0.00073999,0.00017673,0.00312402,0.13229999,-0.1689
 7984,0.02201396,0.00012172,-0.00052944,0.00037901,-0.00006953,-0.00005
 188,0.00001032,-0.00046637,0.00051868,0.00014908,-0.00017753,0.0005204
 6,-0.00011075,0.00079739,-0.00026930,0.00021378,0.00018933,0.00008547,
 -0.00017372,0.01759093,-0.01514784,0.00415424,-0.14598172,0.18042710,-
 0.00017095,-0.00262690,0.00264037,0.00020092,-0.00008920,0.00024305,-0
 .02583287,0.02271364,-0.00336764,0.00147670,0.00136414,-0.00637220,-0.
 02420791,0.02108933,-0.05161100,0.00055818,0.00063469,0.00049372,-0.00
 021351,0.00006456,-0.00036359,-0.00005618,-0.00072197,0.00113917,0.000
 10609,0.00019397,0.00001670,-0.00129683,0.00165013,-0.00019641,0.00009
 323,-0.00032406,0.00003669,0.01654048,-0.01287547,0.00290324,0.0286257
 0,-0.02637739,0.05486106,0.00136968,-0.00066326,0.00029361,0.00015206,
 -0.00023332,0.00033723,-0.00158940,0.00101650,-0.00099764,-0.00032319,
 0.00014343,-0.00015526,-0.25602089,-0.10539498,0.04524223,0.00031943,0
 .00070918,0.00012686,-0.00008622,0.00013753,-0.00021690,0.00030071,0.0
 0007033,0.00047930,-0.00000915,0.00008215,0.00004774,0.00025687,0.0000
 0952,0.00013672,0.00037363,0.00025402,-0.00034441,-0.00264832,-0.00062
 152,0.00018278,-0.01881792,-0.01109553,0.00422130,0.27653854,-0.000840
 73,-0.00028748,0.00204076,0.00023449,-0.00024267,0.00037073,-0.0091560
 5,-0.00593531,-0.00113587,-0.00014857,0.00006884,-0.00046286,-0.104590
 70,-0.09862992,0.02352099,0.00014863,0.00056615,0.00049337,-0.00016981
 ,0.00027949,-0.00032241,0.00028202,0.00049421,-0.00003763,-0.00010641,
 -0.00001643,0.00009125,0.00021429,0.00015445,-0.00009278,0.00055797,-0
 .00017642,0.00047038,-0.02125379,-0.01058321,0.00575853,0.01924493,0.0
 1108403,-0.00491598,0.11535645,0.10332416,0.00361260,0.00486203,-0.007
 39323,-0.00003394,-0.00008964,-0.00009936,0.02800129,0.01220743,-0.001
 37874,-0.00019045,-0.00039327,0.00090226,0.04340955,0.02305963,-0.0556
 1814,-0.00202836,-0.00208749,-0.00202108,0.00028422,0.00049642,0.00058
 389,0.00005316,-0.00107974,0.00097596,-0.00005929,-0.00003187,-0.00004
 239,-0.00004198,-0.00038873,0.00001699,-0.00054894,0.00045791,-0.00015
 324,-0.01948192,-0.00832877,0.00434386,-0.00387674,-0.00277087,-0.0002
 8174,-0.04935148,-0.02582001,0.05956134,-0.00540257,-0.00281637,-0.015
 01121,0.00614406,-0.00213398,-0.00302062,0.00253870,0.00088203,-0.0017
 7944,-0.00028943,-0.00010366,0.00015570,-0.00002609,-0.00010069,0.0002
 9636,-0.07798929,0.02911236,-0.10306843,0.00185626,-0.00040365,0.00378
 803,-0.00020416,-0.00014456,0.00027904,-0.00005918,0.00017021,-0.00007
 232,0.00012690,-0.00004095,0.00011968,-0.00007740,0.00007453,0.0000497
 2,-0.00113689,-0.00043113,0.00073260,-0.00000448,-0.00018418,-0.000008
 74,0.00020579,0.00026853,0.00024482,0.07604046,-0.01508941,0.00392002,
 -0.02763124,-0.00343480,-0.00517417,0.00081534,0.00223391,0.00150416,-
 0.00233965,-0.00045110,-0.00038099,0.00016520,-0.00065344,0.00052365,0
 .00107134,0.02782609,-0.08047413,0.07641512,0.01374498,-0.00166418,0.0
 2550171,-0.00027847,-0.00012323,0.00018132,-0.00002024,0.00000544,0.00
 008147,0.00005229,-0.00012117,-0.00002193,-0.00018328,0.00014311,0.000
 03483,-0.00047101,-0.00053943,0.00025966,0.00014035,-0.00040516,0.0002
 2514,0.00019865,-0.00014497,-0.00020506,-0.02468511,0.08367630,-0.0133
 9448,-0.00907324,-0.01665822,-0.00172691,0.00146346,0.00401974,0.00324
 062,0.00142739,-0.00192986,-0.00049892,-0.00041910,0.00018302,0.000136
 00,-0.00011854,-0.00034152,-0.10104043,0.08137639,-0.26159175,-0.00408
 138,-0.00029211,-0.00706854,-0.00036536,-0.00016733,0.00007951,-0.0000
 1813,0.00004421,0.00003672,0.00008475,-0.00010181,0.00000605,-0.000243
 41,0.00019498,0.00002641,0.00063532,0.00088201,0.00025504,-0.00013592,
 -0.00014969,-0.00016752,-0.00000520,0.00003066,0.00058151,0.11618176,-
 0.07537014,0.28309736,0.00885259,-0.00371101,-0.00415984,-0.00363844,-
 0.00506603,-0.01110136,0.00092733,0.00177706,0.00064878,-0.00016047,0.
 00026743,-0.00002304,-0.00010196,-0.00002241,0.00008556,-0.00028722,0.
 00059978,-0.00235310,-0.10450671,-0.09855438,-0.08140001,0.00029186,0.
 00017141,-0.00002347,-0.00010628,-0.00005417,-0.00004613,0.00006399,-0
 .00000676,0.00006974,-0.00003594,-0.00000031,0.00002728,-0.00000963,-0
 .00010265,-0.00001783,0.00002142,0.00003564,-0.00000895,-0.00002121,-0
 .00004409,-0.00003183,-0.00321417,0.00081815,0.00220726,0.10167874,-0.
 00355621,-0.00302670,0.00432716,0.00854517,0.01064758,0.01239410,0.001
 42130,-0.00115645,-0.00087344,0.00000319,0.00000766,0.00009276,-0.0002
 6282,-0.00012307,-0.00002272,-0.01356240,-0.01126949,-0.02026827,-0.09
 802992,-0.19687641,-0.10414020,-0.00050007,-0.00015874,0.00014967,-0.0
 0001159,0.00005948,-0.00000542,-0.00000830,-0.00001143,-0.00001109,-0.
 00004957,0.00002338,-0.00001651,0.00000657,0.00004664,0.00006129,0.000
 01009,0.00001260,-0.00002324,-0.00001129,-0.00000083,0.00012748,0.0011
 3808,-0.00051295,0.00010993,0.10427311,0.19913795,-0.00363982,0.004814
 57,0.00227606,-0.01788809,-0.01292018,-0.02307360,-0.00098233,-0.00074
 307,-0.00008389,0.00007485,-0.00014932,-0.00018412,0.00014598,-0.00000
 528,-0.00006676,0.00541009,0.00586795,0.00879386,-0.08063973,-0.102334
 63,-0.13546945,0.00001554,-0.00003438,-0.00002515,0.00006309,0.0000024
 1,-0.00001960,0.00010614,0.00007960,0.00005766,0.00002206,-0.00005088,
 0.00005327,-0.00000015,0.00004319,0.00000288,-0.00000186,-0.00002639,0
 .00003074,0.00002393,0.00003203,-0.00001320,0.00188453,-0.00066242,-0.
 00068850,0.09589300,0.10849204,0.14747751,-0.00053344,-0.00066626,0.00
 020630,-0.04174999,-0.14219369,0.00662247,0.00046296,0.00021057,-0.000
 07028,-0.00026707,0.00003713,-0.00024599,-0.00002974,-0.00000263,-0.00
 000364,-0.00093332,0.00043110,-0.00323255,-0.00165815,0.02220181,-0.00
 556543,-0.00002751,0.00002264,0.00000798,0.00010559,-0.00003546,0.0000
 9722,0.00012349,-0.00011656,0.00010518,-0.00004026,-0.00003515,0.00010
 155,0.00000953,0.00003572,0.00002634,-0.00001327,0.00001001,-0.0000266
 6,-0.00000041,0.00000282,0.00003932,0.00149149,0.00025244,-0.00097558,
 0.00024610,0.00059467,-0.00048723,0.04281401,0.00129413,0.00191790,0.0
 0115842,-0.11507520,-0.50303663,0.08616239,-0.00068549,-0.00036419,0.0
 0024668,0.00013156,0.00000581,-0.00012166,0.00009575,-0.00002115,-0.00
 005560,0.00005340,0.00108447,-0.00027836,-0.00406516,-0.01462898,-0.00
 276015,0.00009703,0.00006235,0.00000803,-0.00014980,-0.00000095,-0.000
 00115,-0.00004824,-0.00001923,0.00008356,0.00010226,-0.00001463,0.0000
 1315,-0.00004847,-0.00000179,0.00005631,-0.00001252,-0.00000974,0.0000
 1861,0.00004216,0.00004590,-0.00001547,-0.00060147,-0.00023231,0.00016
 292,-0.00038078,0.00320078,-0.00240525,0.11925084,0.51201236,0.0000748
 2,-0.00169509,0.00069587,-0.00921796,0.03829649,-0.03728481,0.00040858
 ,0.00026307,-0.00020633,-0.00008261,0.00004721,0.00007685,-0.00010357,
 -0.00001365,0.00001833,-0.00377888,-0.00073445,-0.00596593,0.00970313,
 0.04510592,-0.01378455,-0.00003024,-0.00006770,-0.00000286,0.00002547,
 0.00003504,-0.00013040,0.00017943,0.00005769,0.00006702,-0.00004556,-0
 .00007383,0.00002463,-0.00000217,-0.00000126,-0.00001735,0.00002692,-0
 .00001163,-0.00000463,-0.00002082,-0.00002114,0.00003529,-0.00077148,0
 .00147932,0.00016054,0.00023395,-0.00039354,0.00093230,0.00340100,-0.0
 8227243,0.05538603\\-0.00000009,-0.00000020,0.00000011,-0.00000004,-0.
 00000016,0.00000016,-0.00000054,0.00000048,-0.00000147,-0.00000075,0.0
 0000067,0.00000135,0.00000013,0.00000013,0.00000044,-0.00000003,-0.000
 00125,-0.00000061,0.00000068,0.00000004,0.00000002,-0.00000155,0.00000
 074,-0.00000028,0.00000046,0.00000045,0.00000056,-0.00000031,0.0000010
 1,0.00000072,-0.00000013,0.00000105,0.00000085,0.00000050,-0.00000085,
 -0.00000041,-0.00000046,-0.00000033,-0.00000090,-0.00000002,0.00000009
 ,-0.00000003,0.00000056,-0.00000121,-0.00000070,0.00000099,-0.00000092
 ,-0.00000008,0.00000061,0.00000027,0.00000027\\\@


 MATERIAL COPIED FROM ONE SCHOLARLY BOOK WITHOUT CREDIT COMPRISES PLAGIARISM.
 MATERIAL COPIED FROM TWO SCHOLARLY BOOKS COMPRISES AN ESSAY.
 MATERIAL COPIED FROM THREE SCHOLARLY BOOKS COMPRISES A DISSERTATION.
 MATERIAL COPIED FROM FOUR SCHOLARLY BOOKS COMPRISES A FIFTH SCHOLARLY BOOK.

                               -- C&EN, 25 FEB 1980
 Job cpu time:       0 days  3 hours 44 minutes 55.9 seconds.
 Elapsed time:       0 days  1 hours 52 minutes 30.0 seconds.
 File lengths (MBytes):  RWF=   1392 Int=      0 D2E=      0 Chk=     32 Scr=     32
 Normal termination of Gaussian 16 at Fri Sep 27 12:16:35 2019.
