 Entering Gaussian System, Link 0=g16
 Input=tight/species/CC(C)OC=CO/conformers/CC(C)OC=CO_44.com
 Output=tight/species/CC(C)OC=CO/conformers/CC(C)OC=CO_44.log
 Initial command:
 /shared/centos7/gaussian/g16/l1.exe "/scratch/harms.n/gauss_scrdir/Gau-34053.inp" -scrdir="/scratch/harms.n/gauss_scrdir/"
 Entering Link 1 = /shared/centos7/gaussian/g16/l1.exe PID=     34058.
  
 Copyright (c) 1988,1990,1992,1993,1995,1998,2003,2009,2016,
            Gaussian, Inc.  All Rights Reserved.
  
 This is part of the Gaussian(R) 16 program.  It is based on
 the Gaussian(R) 09 system (copyright 2009, Gaussian, Inc.),
 the Gaussian(R) 03 system (copyright 2003, Gaussian, Inc.),
 the Gaussian(R) 98 system (copyright 1998, Gaussian, Inc.),
 the Gaussian(R) 94 system (copyright 1995, Gaussian, Inc.),
 the Gaussian 92(TM) system (copyright 1992, Gaussian, Inc.),
 the Gaussian 90(TM) system (copyright 1990, Gaussian, Inc.),
 the Gaussian 88(TM) system (copyright 1988, Gaussian, Inc.),
 the Gaussian 86(TM) system (copyright 1986, Carnegie Mellon
 University), and the Gaussian 82(TM) system (copyright 1983,
 Carnegie Mellon University). Gaussian is a federally registered
 trademark of Gaussian, Inc.
  
 This software contains proprietary and confidential information,
 including trade secrets, belonging to Gaussian, Inc.
  
 This software is provided under written license and may be
 used, copied, transmitted, or stored only in accord with that
 written license.
  
 The following legend is applicable only to US Government
 contracts under FAR:
  
                    RESTRICTED RIGHTS LEGEND
  
 Use, reproduction and disclosure by the US Government is
 subject to restrictions as set forth in subparagraphs (a)
 and (c) of the Commercial Computer Software - Restricted
 Rights clause in FAR 52.227-19.
  
 Gaussian, Inc.
 340 Quinnipiac St., Bldg. 40, Wallingford CT 06492
  
  
 ---------------------------------------------------------------
 Warning -- This program may not be used in any manner that
 competes with the business of Gaussian, Inc. or will provide
 assistance to any competitor of Gaussian, Inc.  The licensee
 of this program is prohibited from giving any competitor of
 Gaussian, Inc. access to this program.  By using this program,
 the user acknowledges that Gaussian, Inc. is engaged in the
 business of creating and licensing software in the field of
 computational chemistry and represents and warrants to the
 licensee that it is not a competitor of Gaussian, Inc. and that
 it will not use this program in any manner prohibited above.
 ---------------------------------------------------------------
  

 Cite this work as:
 Gaussian 16, Revision A.03,
 M. J. Frisch, G. W. Trucks, H. B. Schlegel, G. E. Scuseria, 
 M. A. Robb, J. R. Cheeseman, G. Scalmani, V. Barone, 
 G. A. Petersson, H. Nakatsuji, X. Li, M. Caricato, A. V. Marenich, 
 J. Bloino, B. G. Janesko, R. Gomperts, B. Mennucci, H. P. Hratchian, 
 J. V. Ortiz, A. F. Izmaylov, J. L. Sonnenberg, D. Williams-Young, 
 F. Ding, F. Lipparini, F. Egidi, J. Goings, B. Peng, A. Petrone, 
 T. Henderson, D. Ranasinghe, V. G. Zakrzewski, J. Gao, N. Rega, 
 G. Zheng, W. Liang, M. Hada, M. Ehara, K. Toyota, R. Fukuda, 
 J. Hasegawa, M. Ishida, T. Nakajima, Y. Honda, O. Kitao, H. Nakai, 
 T. Vreven, K. Throssell, J. A. Montgomery, Jr., J. E. Peralta, 
 F. Ogliaro, M. J. Bearpark, J. J. Heyd, E. N. Brothers, K. N. Kudin, 
 V. N. Staroverov, T. A. Keith, R. Kobayashi, J. Normand, 
 K. Raghavachari, A. P. Rendell, J. C. Burant, S. S. Iyengar, 
 J. Tomasi, M. Cossi, J. M. Millam, M. Klene, C. Adamo, R. Cammi, 
 J. W. Ochterski, R. L. Martin, K. Morokuma, O. Farkas, 
 J. B. Foresman, and D. J. Fox, Gaussian, Inc., Wallingford CT, 2016.
 
 ******************************************
 Gaussian 16:  EM64L-G16RevA.03 25-Dec-2016
                26-Sep-2019 
 ******************************************
 %nprocshared=20
 Will use up to   20 processors via shared memory.
 %mem=5GB
 ----------------------------------------------------------------------
 #p m062x/cc-pVTZ opt=(calcfc,maxcycles=900,Tight) freq IOP(7/33=1,2/16
 =3) scf=(maxcycle=900)
 ----------------------------------------------------------------------
 1/6=900,7=10,10=4,18=20,19=15,26=3,38=1/1,3;
 2/9=110,12=2,16=3,17=6,18=5,40=1/2;
 3/5=16,6=1,11=2,25=1,30=1,71=2,74=-55,140=1/1,2,3;
 4//1;
 5/5=2,7=900,38=5/2;
 8/6=4,10=90,11=11/1;
 11/6=1,8=1,9=11,15=111,16=1/1,2,10;
 10/6=1,13=1/2;
 6/7=2,8=2,9=2,10=2,28=1/1;
 7/10=1,18=20,25=1,33=1/1,2,3,16;
 1/6=900,7=10,10=4,18=20,19=15,26=3/3(2);
 2/9=110,16=3/2;
 99//99;
 2/9=110,16=3/2;
 3/5=16,6=1,11=2,25=1,30=1,71=1,74=-55/1,2,3;
 4/5=5,16=3,69=1/1;
 5/5=2,7=900,38=5/2;
 7/33=1/1,2,3,16;
 1/6=900,7=10,18=20,19=15,26=3/3(-5);
 2/9=110,16=3/2;
 6/7=2,8=2,9=2,10=2,19=2,28=1/1;
 99/9=1/99;
 Leave Link    1 at Thu Sep 26 12:51:33 2019, MaxMem=   671088640 cpu:               2.7 elap:               1.4
 (Enter /shared/centos7/gaussian/g16/l101.exe)
 ------------------------------
 Gaussian input prepared by ASE
 ------------------------------
 Symbolic Z-matrix:
 Charge =  0 Multiplicity = 1
 O                     4.06638  -1.4544    2.79426 
 O                     1.42877  -0.15148   3.28824 
 C                     3.53415  -2.3666    3.73154 
 C                     4.64928  -2.80078   4.68283 
 C                     2.84385  -3.52034   3.0816 
 C                     3.16567  -1.00669   1.85501 
 C                     2.0216   -0.42233   2.064 
 H                     2.77832  -1.82645   4.36661 
 H                     5.48286  -3.30118   4.14715 
 H                     5.05672  -1.92193   5.21491 
 H                     4.24768  -3.51443   5.45228 
 H                     3.55451  -4.12669   2.44601 
 H                     2.01597  -3.17483   2.42791 
 H                     2.40881  -4.20966   3.85952 
 H                     3.54136  -1.11085   0.8246 
 H                     1.40054  -0.09856   1.24188 
 H                     2.08552  -0.41232   3.99706 
 
 ITRead=  0  0  0  0  0  0  0  0  0  0  0  0  0  0  0  0  0
 MicOpt= -1 -1 -1 -1 -1 -1 -1 -1 -1 -1 -1 -1 -1 -1 -1 -1 -1
 NAtoms=     17 NQM=       17 NQMF=       0 NMMI=      0 NMMIF=      0
                NMic=       0 NMicF=      0.
                    Isotopes and Nuclear Properties:
 (Nuclear quadrupole moments (NQMom) in fm**2, nuclear magnetic moments (NMagM)
  in nuclear magnetons)

  Atom         1           2           3           4           5           6           7           8           9          10
 IAtWgt=          16          16          12          12          12          12          12           1           1           1
 AtmWgt=  15.9949146  15.9949146  12.0000000  12.0000000  12.0000000  12.0000000  12.0000000   1.0078250   1.0078250   1.0078250
 NucSpn=           0           0           0           0           0           0           0           1           1           1
 AtZEff=  -0.0000000  -0.0000000  -0.0000000  -0.0000000  -0.0000000  -0.0000000  -0.0000000  -0.0000000  -0.0000000  -0.0000000
 NQMom=    0.0000000   0.0000000   0.0000000   0.0000000   0.0000000   0.0000000   0.0000000   0.0000000   0.0000000   0.0000000
 NMagM=    0.0000000   0.0000000   0.0000000   0.0000000   0.0000000   0.0000000   0.0000000   2.7928460   2.7928460   2.7928460
 AtZNuc=   8.0000000   8.0000000   6.0000000   6.0000000   6.0000000   6.0000000   6.0000000   1.0000000   1.0000000   1.0000000

  Atom        11          12          13          14          15          16          17
 IAtWgt=           1           1           1           1           1           1           1
 AtmWgt=   1.0078250   1.0078250   1.0078250   1.0078250   1.0078250   1.0078250   1.0078250
 NucSpn=           1           1           1           1           1           1           1
 AtZEff=  -0.0000000  -0.0000000  -0.0000000  -0.0000000  -0.0000000  -0.0000000  -0.0000000
 NQMom=    0.0000000   0.0000000   0.0000000   0.0000000   0.0000000   0.0000000   0.0000000
 NMagM=    2.7928460   2.7928460   2.7928460   2.7928460   2.7928460   2.7928460   2.7928460
 AtZNuc=   1.0000000   1.0000000   1.0000000   1.0000000   1.0000000   1.0000000   1.0000000
 Leave Link  101 at Thu Sep 26 12:51:35 2019, MaxMem=   671088640 cpu:               4.7 elap:               2.3
 (Enter /shared/centos7/gaussian/g16/l103.exe)

 GradGradGradGradGradGradGradGradGradGradGradGradGradGradGradGradGradGrad
 Berny optimization.
 Initialization pass.
                           ----------------------------
                           !    Initial Parameters    !
                           ! (Angstroms and Degrees)  !
 --------------------------                            --------------------------
 ! Name  Definition              Value          Derivative Info.                !
 --------------------------------------------------------------------------------
 ! R1    R(1,3)                  1.412          calculate D2E/DX2 analytically  !
 ! R2    R(1,6)                  1.3762         calculate D2E/DX2 analytically  !
 ! R3    R(2,7)                  1.3869         calculate D2E/DX2 analytically  !
 ! R4    R(2,17)                 1.0009         calculate D2E/DX2 analytically  !
 ! R5    R(3,4)                  1.5287         calculate D2E/DX2 analytically  !
 ! R6    R(3,5)                  1.4933         calculate D2E/DX2 analytically  !
 ! R7    R(3,8)                  1.1253         calculate D2E/DX2 analytically  !
 ! R8    R(4,9)                  1.1101         calculate D2E/DX2 analytically  !
 ! R9    R(4,10)                 1.1052         calculate D2E/DX2 analytically  !
 ! R10   R(4,11)                 1.1237         calculate D2E/DX2 analytically  !
 ! R11   R(5,12)                 1.1299         calculate D2E/DX2 analytically  !
 ! R12   R(5,13)                 1.11           calculate D2E/DX2 analytically  !
 ! R13   R(5,14)                 1.1267         calculate D2E/DX2 analytically  !
 ! R14   R(6,7)                  1.3016         calculate D2E/DX2 analytically  !
 ! R15   R(6,15)                 1.1017         calculate D2E/DX2 analytically  !
 ! R16   R(7,16)                 1.08           calculate D2E/DX2 analytically  !
 ! A1    A(3,1,6)              114.6132         calculate D2E/DX2 analytically  !
 ! A2    A(7,2,17)             107.0825         calculate D2E/DX2 analytically  !
 ! A3    A(1,3,4)              108.7586         calculate D2E/DX2 analytically  !
 ! A4    A(1,3,5)              112.6096         calculate D2E/DX2 analytically  !
 ! A5    A(1,3,8)              108.523          calculate D2E/DX2 analytically  !
 ! A6    A(4,3,5)              112.867          calculate D2E/DX2 analytically  !
 ! A7    A(4,3,8)              105.9667         calculate D2E/DX2 analytically  !
 ! A8    A(5,3,8)              107.8175         calculate D2E/DX2 analytically  !
 ! A9    A(3,4,9)              112.0557         calculate D2E/DX2 analytically  !
 ! A10   A(3,4,10)             110.0383         calculate D2E/DX2 analytically  !
 ! A11   A(3,4,11)             110.2297         calculate D2E/DX2 analytically  !
 ! A12   A(9,4,10)             108.2979         calculate D2E/DX2 analytically  !
 ! A13   A(9,4,11)             108.2122         calculate D2E/DX2 analytically  !
 ! A14   A(10,4,11)            107.886          calculate D2E/DX2 analytically  !
 ! A15   A(3,5,12)             111.6347         calculate D2E/DX2 analytically  !
 ! A16   A(3,5,13)             111.1361         calculate D2E/DX2 analytically  !
 ! A17   A(3,5,14)             110.5268         calculate D2E/DX2 analytically  !
 ! A18   A(12,5,13)            107.7507         calculate D2E/DX2 analytically  !
 ! A19   A(12,5,14)            107.6323         calculate D2E/DX2 analytically  !
 ! A20   A(13,5,14)            108.0024         calculate D2E/DX2 analytically  !
 ! A21   A(1,6,7)              127.7184         calculate D2E/DX2 analytically  !
 ! A22   A(1,6,15)             112.6056         calculate D2E/DX2 analytically  !
 ! A23   A(7,6,15)             119.4965         calculate D2E/DX2 analytically  !
 ! A24   A(2,7,6)              127.238          calculate D2E/DX2 analytically  !
 ! A25   A(2,7,16)             111.5663         calculate D2E/DX2 analytically  !
 ! A26   A(6,7,16)             121.1878         calculate D2E/DX2 analytically  !
 ! D1    D(6,1,3,4)            178.5933         calculate D2E/DX2 analytically  !
 ! D2    D(6,1,3,5)             52.72           calculate D2E/DX2 analytically  !
 ! D3    D(6,1,3,8)            -66.5614         calculate D2E/DX2 analytically  !
 ! D4    D(3,1,6,7)             55.951          calculate D2E/DX2 analytically  !
 ! D5    D(3,1,6,15)          -129.0004         calculate D2E/DX2 analytically  !
 ! D6    D(17,2,7,6)             5.2392         calculate D2E/DX2 analytically  !
 ! D7    D(17,2,7,16)         -175.787          calculate D2E/DX2 analytically  !
 ! D8    D(1,3,4,9)            -60.4425         calculate D2E/DX2 analytically  !
 ! D9    D(1,3,4,10)            60.1113         calculate D2E/DX2 analytically  !
 ! D10   D(1,3,4,11)           178.9808         calculate D2E/DX2 analytically  !
 ! D11   D(5,3,4,9)             65.2813         calculate D2E/DX2 analytically  !
 ! D12   D(5,3,4,10)          -174.1649         calculate D2E/DX2 analytically  !
 ! D13   D(5,3,4,11)           -55.2954         calculate D2E/DX2 analytically  !
 ! D14   D(8,3,4,9)           -176.9388         calculate D2E/DX2 analytically  !
 ! D15   D(8,3,4,10)           -56.385          calculate D2E/DX2 analytically  !
 ! D16   D(8,3,4,11)            62.4844         calculate D2E/DX2 analytically  !
 ! D17   D(1,3,5,12)            61.7983         calculate D2E/DX2 analytically  !
 ! D18   D(1,3,5,13)           -58.531          calculate D2E/DX2 analytically  !
 ! D19   D(1,3,5,14)          -178.4356         calculate D2E/DX2 analytically  !
 ! D20   D(4,3,5,12)           -61.823          calculate D2E/DX2 analytically  !
 ! D21   D(4,3,5,13)           177.8477         calculate D2E/DX2 analytically  !
 ! D22   D(4,3,5,14)            57.9431         calculate D2E/DX2 analytically  !
 ! D23   D(8,3,5,12)          -178.5108         calculate D2E/DX2 analytically  !
 ! D24   D(8,3,5,13)            61.1599         calculate D2E/DX2 analytically  !
 ! D25   D(8,3,5,14)           -58.7447         calculate D2E/DX2 analytically  !
 ! D26   D(1,6,7,2)             -2.0555         calculate D2E/DX2 analytically  !
 ! D27   D(1,6,7,16)           179.0601         calculate D2E/DX2 analytically  !
 ! D28   D(15,6,7,2)          -176.803          calculate D2E/DX2 analytically  !
 ! D29   D(15,6,7,16)            4.3126         calculate D2E/DX2 analytically  !
 --------------------------------------------------------------------------------
 Trust Radius=3.00D-01 FncErr=1.00D-07 GrdErr=1.00D-06 EigMax=2.50D+02 EigMin=1.00D-04
 Number of steps in this run=    102 maximum allowed number of steps=    102.
 GradGradGradGradGradGradGradGradGradGradGradGradGradGradGradGradGradGrad

 Leave Link  103 at Thu Sep 26 12:51:36 2019, MaxMem=   671088640 cpu:               1.1 elap:               0.6
 (Enter /shared/centos7/gaussian/g16/l202.exe)
                          Input orientation:                          
 ---------------------------------------------------------------------
 Center     Atomic      Atomic             Coordinates (Angstroms)
 Number     Number       Type             X           Y           Z
 ---------------------------------------------------------------------
      1          8           0        4.066384   -1.454397    2.794256
      2          8           0        1.428772   -0.151476    3.288243
      3          6           0        3.534148   -2.366596    3.731537
      4          6           0        4.649285   -2.800779    4.682834
      5          6           0        2.843848   -3.520345    3.081600
      6          6           0        3.165674   -1.006688    1.855014
      7          6           0        2.021603   -0.422326    2.063996
      8          1           0        2.778325   -1.826452    4.366614
      9          1           0        5.482865   -3.301177    4.147150
     10          1           0        5.056717   -1.921929    5.214914
     11          1           0        4.247682   -3.514432    5.452279
     12          1           0        3.554514   -4.126695    2.446007
     13          1           0        2.015970   -3.174827    2.427910
     14          1           0        2.408814   -4.209658    3.859516
     15          1           0        3.541364   -1.110847    0.824605
     16          1           0        1.400535   -0.098564    1.241880
     17          1           0        2.085525   -0.412317    3.997059
 ---------------------------------------------------------------------
                    Distance matrix (angstroms):
                    1          2          3          4          5
     1  O    0.000000
     2  O    2.983056   0.000000
     3  C    1.412047   3.088021   0.000000
     4  C    2.391495   4.397203   1.528729   0.000000
     5  C    2.417706   3.659839   1.493342   2.518200   0.000000
     6  C    1.376189   2.408809   2.346584   3.662844   2.815414
     7  C    2.404075   1.386935   2.974671   4.406820   3.362933
     8  H    2.066357   2.406184   1.125320   2.133026   2.127164
     9  H    2.692088   5.205190   2.200835   1.110050   2.854443
    10  H    2.656865   4.473091   2.171716   1.105209   3.464499
    11  H    3.367744   4.892726   2.188061   1.123668   2.755159
    12  H    2.743076   4.585903   2.179668   2.821343   1.129905
    13  H    2.701534   3.197753   2.158135   3.486968   1.109989
    14  H    3.387297   4.213749   2.163246   2.771733   1.126748
    15  H    2.067171   3.384221   3.166577   4.355375   3.374350
    16  H    3.369704   2.047242   3.986811   5.449450   4.144431
    17  H    2.540958   1.000891   2.447083   3.570420   3.327605
                    6          7          8          9         10
     6  C    0.000000
     7  C    1.301558   0.000000
     8  H    2.670240   2.801115   0.000000
     9  H    3.985967   4.960609   3.088287   0.000000
    10  H    3.962655   4.624825   2.433064   1.795563   0.000000
    11  H    4.516617   5.098725   2.487359   1.809563   1.801928
    12  H    3.199205   4.027170   3.095532   2.700723   3.845055
    13  H    2.520091   2.776459   2.481506   3.871836   4.310834
    14  H    3.853555   4.209241   2.464418   3.218363   3.752625
    15  H    1.101697   2.078420   3.693257   4.427897   4.714760
    16  H    2.077580   1.080011   3.827253   5.946658   5.698888
    17  H    2.471509   1.934145   1.617504   4.462057   3.548250
                   11         12         13         14         15
    11  H    0.000000
    12  H    3.145317   0.000000
    13  H    3.773947   1.809281   0.000000
    14  H    2.530151   1.821406   1.809613   0.000000
    15  H    5.262268   3.424099   3.026125   4.482855   0.000000
    16  H    6.123876   4.723917   3.353927   4.976921   2.404576
    17  H    4.051629   4.284891   3.177818   3.813559   3.559759
                   16         17
    16  H    0.000000
    17  H    2.856338   0.000000
 Stoichiometry    C5H10O2
 Framework group  C1[X(C5H10O2)]
 Deg. of freedom    45
 Full point group                 C1      NOp   1
 Largest Abelian subgroup         C1      NOp   1
 Largest concise Abelian subgroup C1      NOp   1
                         Standard orientation:                         
 ---------------------------------------------------------------------
 Center     Atomic      Atomic             Coordinates (Angstroms)
 Number     Number       Type             X           Y           Z
 ---------------------------------------------------------------------
      1          8           0        0.204637   -0.339740   -0.979531
      2          8           0       -1.976195    1.114060    0.444919
      3          6           0        0.949636    0.189849    0.096754
      4          6           0        2.308949    0.653260   -0.427202
      5          6           0        1.062919   -0.763451    1.240632
      6          6           0       -1.036534   -0.823662   -0.634262
      7          6           0       -1.998100   -0.189484   -0.028243
      8          1           0        0.429857    1.115473    0.470110
      9          1           0        2.889931   -0.180621   -0.873648
     10          1           0        2.171758    1.432637   -1.198717
     11          1           0        2.916359    1.097071    0.407492
     12          1           0        1.602459   -1.710237    0.942005
     13          1           0        0.061221   -1.050949    1.622757
     14          1           0        1.638273   -0.295885    2.089109
     15          1           0       -1.210632   -1.846240   -1.005424
     16          1           0       -2.942198   -0.671264    0.179101
     17          1           0       -1.105785    1.516386    0.158034
 ---------------------------------------------------------------------
 Rotational constants (GHZ):           4.4627764           1.6587118           1.6302109
 Leave Link  202 at Thu Sep 26 12:51:37 2019, MaxMem=   671088640 cpu:               2.5 elap:               1.3
 (Enter /shared/centos7/gaussian/g16/l301.exe)
 Standard basis: CC-pVTZ (5D, 7F)
 Ernie: Thresh=  0.10000D-02 Tol=  0.10000D-05 Strict=F.
 Ernie:  21 primitive shells out of 262 were deleted.
 There are   395 symmetry adapted cartesian basis functions of A   symmetry.
 There are   350 symmetry adapted basis functions of A   symmetry.
   350 basis functions,   534 primitive gaussians,   395 cartesian basis functions
    28 alpha electrons       28 beta electrons
       nuclear repulsion energy       322.0257993658 Hartrees.
 IExCor= 4336 DFT=T Ex+Corr=M062X ExCW=0 ScaHFX=  0.540000
 ScaDFX=  1.000000  1.000000  1.000000  1.000000 ScalE2=  1.000000  1.000000
 IRadAn=      5 IRanWt=     -1 IRanGd=            0 ICorTp=0 IEmpDi=  4
 NAtoms=   17 NActive=   17 NUniq=   17 SFac= 1.00D+00 NAtFMM=   60 NAOKFM=F Big=F
 Integral buffers will be    131072 words long.
 Raffenetti 2 integral format.
 Two-electron integral symmetry is turned on.
 Leave Link  301 at Thu Sep 26 12:51:38 2019, MaxMem=   671088640 cpu:               1.9 elap:               1.0
 (Enter /shared/centos7/gaussian/g16/l302.exe)
 NPDir=0 NMtPBC=     1 NCelOv=     1 NCel=       1 NClECP=     1 NCelD=      1
         NCelK=      1 NCelE2=     1 NClLst=     1 CellRange=     0.0.
 One-electron integrals computed using PRISM.
 One-electron integral symmetry used in STVInt
 NBasis=   350 RedAO= T EigKep=  2.93D-04  NBF=   350
 NBsUse=   350 1.00D-06 EigRej= -1.00D+00 NBFU=   350
 Precomputing XC quadrature grid using
 IXCGrd= 4 IRadAn=           5 IRanWt=          -1 IRanGd=           0 AccXCQ= 0.00D+00.
 Generated NRdTot=       0 NPtTot=           0 NUsed=           0 NTot=          32
 NSgBfM=   395   395   395   395   395 MxSgAt=    17 MxSgA2=    17.
 Leave Link  302 at Thu Sep 26 12:52:36 2019, MaxMem=   671088640 cpu:             115.9 elap:              58.0
 (Enter /shared/centos7/gaussian/g16/l303.exe)
 DipDrv:  MaxL=1.
 Leave Link  303 at Thu Sep 26 12:52:42 2019, MaxMem=   671088640 cpu:              12.2 elap:               6.2
 (Enter /shared/centos7/gaussian/g16/l401.exe)
 ExpMin= 1.03D-01 ExpMax= 1.53D+04 ExpMxC= 5.22D+02 IAcc=3 IRadAn=         5 AccDes= 0.00D+00
 Harris functional with IExCor= 1009 and IRadAn=       5 diagonalized for initial guess.
 HarFok:  IExCor= 1009 AccDes= 0.00D+00 IRadAn=         5 IDoV= 1 UseB2=F ITyADJ=14
 ICtDFT=  3500011 ScaDFX=  1.000000  1.000000  1.000000  1.000000
 FoFCou: FMM=F IPFlag=           0 FMFlag=      100000 FMFlg1=           0
         NFxFlg=           0 DoJE=T BraDBF=F KetDBF=T FulRan=T
         wScrn=  0.000000 ICntrl=       500 IOpCl=  0 I1Cent=   200000004 NGrid=           0
         NMat0=    1 NMatS0=      1 NMatT0=    0 NMatD0=    1 NMtDS0=    0 NMtDT0=    0
 Petite list used in FoFCou.
 Harris En= -346.807465539970    
 JPrj=0 DoOrth=F DoCkMO=F.
 Leave Link  401 at Thu Sep 26 12:53:20 2019, MaxMem=   671088640 cpu:              71.5 elap:              37.3
 (Enter /shared/centos7/gaussian/g16/l502.exe)
 Integral symmetry usage will be decided dynamically.
 Closed shell SCF:
 Using DIIS extrapolation, IDIIS=  1040.
 NGot=   671088640 LenX=   670765141 LenY=   670608675
 Requested convergence on RMS density matrix=1.00D-08 within 900 cycles.
 Requested convergence on MAX density matrix=1.00D-06.
 Requested convergence on             energy=1.00D-06.
 No special actions if energy rises.
 Fock matrices will be formed incrementally for  20 cycles.
 Integral accuracy reduced to 1.0D-05 until final iterations.

 Cycle   1  Pass 0  IDiag  1:
 FoFJK:  IHMeth= 1 ICntrl=       0 DoSepK=F KAlg= 0 I1Cent=           0 FoldK=F
 IRaf= 960000000 NMat=       1 IRICut=       1 DoRegI=T DoRafI=F ISym2E= 0 IDoP0=0 IntGTp=1.
 FoFCou: FMM=F IPFlag=           0 FMFlag=      100000 FMFlg1=           0
         NFxFlg=           0 DoJE=F BraDBF=F KetDBF=F FulRan=T
         wScrn=  0.000000 ICntrl=         0 IOpCl=  0 I1Cent=           0 NGrid=           0
         NMat0=    1 NMatS0=      1 NMatT0=    0 NMatD0=    1 NMtDS0=    0 NMtDT0=    0
 Symmetry not used in FoFCou.
 E= -346.709158362126    
 DIIS: error= 2.08D-02 at cycle   1 NSaved=   1.
 NSaved= 1 IEnMin= 1 EnMin= -346.709158362126     IErMin= 1 ErrMin= 2.08D-02
 ErrMax= 2.08D-02  0.00D+00 EMaxC= 1.00D-01 BMatC= 2.79D-01 BMatP= 2.79D-01
 IDIUse=3 WtCom= 7.92D-01 WtEn= 2.08D-01
 Coeff-Com:  0.100D+01
 Coeff-En:   0.100D+01
 Coeff:      0.100D+01
 Gap=     0.364 Goal=   None    Shift=    0.000
 GapD=    0.364 DampG=1.000 DampE=0.500 DampFc=0.5000 IDamp=-1.
 Damping current iteration by 5.00D-01
 RMSDP=2.05D-03 MaxDP=8.97D-02              OVMax= 1.41D-01

 Cycle   2  Pass 0  IDiag  1:
 RMSU=  1.02D-03    CP:  1.00D+00
 E= -346.825336851792     Delta-E=       -0.116178489666 Rises=F Damp=T
 DIIS: error= 4.18D-03 at cycle   2 NSaved=   2.
 NSaved= 2 IEnMin= 2 EnMin= -346.825336851792     IErMin= 2 ErrMin= 4.18D-03
 ErrMax= 4.18D-03  0.00D+00 EMaxC= 1.00D-01 BMatC= 2.11D-02 BMatP= 2.79D-01
 IDIUse=3 WtCom= 9.58D-01 WtEn= 4.18D-02
 Coeff-Com: -0.145D+00 0.115D+01
 Coeff-En:   0.000D+00 0.100D+01
 Coeff:     -0.139D+00 0.114D+01
 Gap=     0.336 Goal=   None    Shift=    0.000
 RMSDP=4.20D-04 MaxDP=1.37D-02 DE=-1.16D-01 OVMax= 6.75D-02

 Cycle   3  Pass 0  IDiag  1:
 RMSU=  4.19D-04    CP:  1.01D+00  9.75D-01
 E= -346.928592104250     Delta-E=       -0.103255252458 Rises=F Damp=F
 DIIS: error= 2.23D-03 at cycle   3 NSaved=   3.
 NSaved= 3 IEnMin= 3 EnMin= -346.928592104250     IErMin= 3 ErrMin= 2.23D-03
 ErrMax= 2.23D-03  0.00D+00 EMaxC= 1.00D-01 BMatC= 3.10D-03 BMatP= 2.11D-02
 IDIUse=3 WtCom= 9.78D-01 WtEn= 2.23D-02
 Coeff-Com: -0.825D-01 0.298D+00 0.785D+00
 Coeff-En:   0.000D+00 0.000D+00 0.100D+01
 Coeff:     -0.806D-01 0.291D+00 0.789D+00
 Gap=     0.339 Goal=   None    Shift=    0.000
 RMSDP=1.51D-04 MaxDP=6.42D-03 DE=-1.03D-01 OVMax= 1.08D-02

 Cycle   4  Pass 0  IDiag  1:
 RMSU=  1.10D-04    CP:  1.01D+00  1.06D+00  8.83D-01
 E= -346.930309465634     Delta-E=       -0.001717361384 Rises=F Damp=F
 DIIS: error= 1.11D-03 at cycle   4 NSaved=   4.
 NSaved= 4 IEnMin= 4 EnMin= -346.930309465634     IErMin= 4 ErrMin= 1.11D-03
 ErrMax= 1.11D-03  0.00D+00 EMaxC= 1.00D-01 BMatC= 8.81D-04 BMatP= 3.10D-03
 IDIUse=3 WtCom= 9.89D-01 WtEn= 1.11D-02
 Coeff-Com: -0.274D-01 0.719D-01 0.393D+00 0.563D+00
 Coeff-En:   0.000D+00 0.000D+00 0.165D+00 0.835D+00
 Coeff:     -0.271D-01 0.711D-01 0.390D+00 0.566D+00
 Gap=     0.335 Goal=   None    Shift=    0.000
 RMSDP=5.27D-05 MaxDP=1.96D-03 DE=-1.72D-03 OVMax= 5.17D-03

 Cycle   5  Pass 0  IDiag  1:
 RMSU=  2.69D-05    CP:  1.01D+00  1.05D+00  9.28D-01  6.44D-01
 E= -346.930946817783     Delta-E=       -0.000637352149 Rises=F Damp=F
 DIIS: error= 2.31D-04 at cycle   5 NSaved=   5.
 NSaved= 5 IEnMin= 5 EnMin= -346.930946817783     IErMin= 5 ErrMin= 2.31D-04
 ErrMax= 2.31D-04  0.00D+00 EMaxC= 1.00D-01 BMatC= 2.91D-05 BMatP= 8.81D-04
 IDIUse=3 WtCom= 9.98D-01 WtEn= 2.31D-03
 Coeff-Com: -0.515D-02 0.987D-02 0.105D+00 0.225D+00 0.665D+00
 Coeff-En:   0.000D+00 0.000D+00 0.000D+00 0.000D+00 0.100D+01
 Coeff:     -0.514D-02 0.984D-02 0.105D+00 0.225D+00 0.665D+00
 Gap=     0.335 Goal=   None    Shift=    0.000
 RMSDP=1.14D-05 MaxDP=3.71D-04 DE=-6.37D-04 OVMax= 1.08D-03

 Cycle   6  Pass 0  IDiag  1:
 RMSU=  8.66D-06    CP:  1.01D+00  1.05D+00  9.34D-01  6.83D-01  7.99D-01
 E= -346.930967193897     Delta-E=       -0.000020376114 Rises=F Damp=F
 DIIS: error= 5.65D-05 at cycle   6 NSaved=   6.
 NSaved= 6 IEnMin= 6 EnMin= -346.930967193897     IErMin= 6 ErrMin= 5.65D-05
 ErrMax= 5.65D-05  0.00D+00 EMaxC= 1.00D-01 BMatC= 1.72D-06 BMatP= 2.91D-05
 IDIUse=1 WtCom= 1.00D+00 WtEn= 0.00D+00
 Coeff-Com: -0.710D-04-0.991D-03 0.156D-01 0.553D-01 0.240D+00 0.690D+00
 Coeff:     -0.710D-04-0.991D-03 0.156D-01 0.553D-01 0.240D+00 0.690D+00
 Gap=     0.335 Goal=   None    Shift=    0.000
 RMSDP=3.64D-06 MaxDP=1.19D-04 DE=-2.04D-05 OVMax= 5.26D-04

 Initial convergence to 1.0D-05 achieved.  Increase integral accuracy.
 Cycle   7  Pass 1  IDiag  1:
 E= -346.930965805947     Delta-E=        0.000001387950 Rises=F Damp=F
 DIIS: error= 2.84D-05 at cycle   1 NSaved=   1.
 NSaved= 1 IEnMin= 1 EnMin= -346.930965805947     IErMin= 1 ErrMin= 2.84D-05
 ErrMax= 2.84D-05  0.00D+00 EMaxC= 1.00D-01 BMatC= 7.96D-07 BMatP= 7.96D-07
 IDIUse=1 WtCom= 1.00D+00 WtEn= 0.00D+00
 Coeff-Com:  0.100D+01
 Coeff:      0.100D+01
 Gap=     0.335 Goal=   None    Shift=    0.000
 RMSDP=3.64D-06 MaxDP=1.19D-04 DE= 1.39D-06 OVMax= 3.63D-04

 Cycle   8  Pass 1  IDiag  1:
 RMSU=  7.46D-06    CP:  1.00D+00
 E= -346.930965976098     Delta-E=       -0.000000170152 Rises=F Damp=F
 DIIS: error= 2.08D-05 at cycle   2 NSaved=   2.
 NSaved= 2 IEnMin= 2 EnMin= -346.930965976098     IErMin= 2 ErrMin= 2.08D-05
 ErrMax= 2.08D-05  0.00D+00 EMaxC= 1.00D-01 BMatC= 3.53D-07 BMatP= 7.96D-07
 IDIUse=1 WtCom= 1.00D+00 WtEn= 0.00D+00
 Coeff-Com:  0.366D+00 0.634D+00
 Coeff:      0.366D+00 0.634D+00
 Gap=     0.335 Goal=   None    Shift=    0.000
 RMSDP=1.85D-06 MaxDP=6.63D-05 DE=-1.70D-07 OVMax= 3.30D-04

 Cycle   9  Pass 1  IDiag  1:
 RMSU=  1.81D-06    CP:  1.00D+00  9.51D-01
 E= -346.930966214466     Delta-E=       -0.000000238367 Rises=F Damp=F
 DIIS: error= 1.02D-05 at cycle   3 NSaved=   3.
 NSaved= 3 IEnMin= 3 EnMin= -346.930966214466     IErMin= 3 ErrMin= 1.02D-05
 ErrMax= 1.02D-05  0.00D+00 EMaxC= 1.00D-01 BMatC= 9.16D-08 BMatP= 3.53D-07
 IDIUse=1 WtCom= 1.00D+00 WtEn= 0.00D+00
 Coeff-Com: -0.444D-02 0.333D+00 0.671D+00
 Coeff:     -0.444D-02 0.333D+00 0.671D+00
 Gap=     0.335 Goal=   None    Shift=    0.000
 RMSDP=6.76D-07 MaxDP=2.42D-05 DE=-2.38D-07 OVMax= 1.14D-04

 Cycle  10  Pass 1  IDiag  1:
 RMSU=  2.73D-07    CP:  1.00D+00  9.89D-01  6.96D-01
 E= -346.930966290098     Delta-E=       -0.000000075632 Rises=F Damp=F
 DIIS: error= 1.97D-06 at cycle   4 NSaved=   4.
 NSaved= 4 IEnMin= 4 EnMin= -346.930966290098     IErMin= 4 ErrMin= 1.97D-06
 ErrMax= 1.97D-06  0.00D+00 EMaxC= 1.00D-01 BMatC= 3.22D-09 BMatP= 9.16D-08
 IDIUse=1 WtCom= 1.00D+00 WtEn= 0.00D+00
 Coeff-Com: -0.125D-01 0.146D+00 0.322D+00 0.545D+00
 Coeff:     -0.125D-01 0.146D+00 0.322D+00 0.545D+00
 Gap=     0.335 Goal=   None    Shift=    0.000
 RMSDP=1.14D-07 MaxDP=5.34D-06 DE=-7.56D-08 OVMax= 1.07D-05

 Cycle  11  Pass 1  IDiag  1:
 RMSU=  1.01D-07    CP:  1.00D+00  9.89D-01  7.19D-01  8.74D-01
 E= -346.930966292662     Delta-E=       -0.000000002564 Rises=F Damp=F
 DIIS: error= 3.17D-07 at cycle   5 NSaved=   5.
 NSaved= 5 IEnMin= 5 EnMin= -346.930966292662     IErMin= 5 ErrMin= 3.17D-07
 ErrMax= 3.17D-07  0.00D+00 EMaxC= 1.00D-01 BMatC= 9.90D-11 BMatP= 3.22D-09
 IDIUse=1 WtCom= 1.00D+00 WtEn= 0.00D+00
 Coeff-Com: -0.144D-02-0.127D-01-0.257D-01 0.902D-01 0.950D+00
 Coeff:     -0.144D-02-0.127D-01-0.257D-01 0.902D-01 0.950D+00
 Gap=     0.335 Goal=   None    Shift=    0.000
 RMSDP=3.90D-08 MaxDP=1.32D-06 DE=-2.56D-09 OVMax= 5.33D-06

 Cycle  12  Pass 1  IDiag  1:
 RMSU=  2.14D-08    CP:  1.00D+00  9.90D-01  7.23D-01  9.74D-01  1.15D+00
 E= -346.930966292786     Delta-E=       -0.000000000124 Rises=F Damp=F
 DIIS: error= 1.35D-07 at cycle   6 NSaved=   6.
 NSaved= 6 IEnMin= 6 EnMin= -346.930966292786     IErMin= 6 ErrMin= 1.35D-07
 ErrMax= 1.35D-07  0.00D+00 EMaxC= 1.00D-01 BMatC= 1.93D-11 BMatP= 9.90D-11
 IDIUse=1 WtCom= 1.00D+00 WtEn= 0.00D+00
 Coeff-Com:  0.791D-03-0.208D-01-0.463D-01-0.230D-01 0.367D+00 0.722D+00
 Coeff:      0.791D-03-0.208D-01-0.463D-01-0.230D-01 0.367D+00 0.722D+00
 Gap=     0.335 Goal=   None    Shift=    0.000
 RMSDP=1.54D-08 MaxDP=7.72D-07 DE=-1.24D-10 OVMax= 1.92D-06

 Cycle  13  Pass 1  IDiag  1:
 RMSU=  9.95D-09    CP:  1.00D+00  9.90D-01  7.25D-01  9.99D-01  1.23D+00
                    CP:  1.03D+00
 E= -346.930966292816     Delta-E=       -0.000000000030 Rises=F Damp=F
 DIIS: error= 4.04D-08 at cycle   7 NSaved=   7.
 NSaved= 7 IEnMin= 7 EnMin= -346.930966292816     IErMin= 7 ErrMin= 4.04D-08
 ErrMax= 4.04D-08  0.00D+00 EMaxC= 1.00D-01 BMatC= 1.93D-12 BMatP= 1.93D-11
 IDIUse=1 WtCom= 1.00D+00 WtEn= 0.00D+00
 Coeff-Com:  0.402D-03-0.659D-02-0.151D-01-0.149D-01 0.649D-01 0.294D+00
 Coeff-Com:  0.677D+00
 Coeff:      0.402D-03-0.659D-02-0.151D-01-0.149D-01 0.649D-01 0.294D+00
 Coeff:      0.677D+00
 Gap=     0.335 Goal=   None    Shift=    0.000
 RMSDP=4.04D-09 MaxDP=1.11D-07 DE=-2.99D-11 OVMax= 5.63D-07

 SCF Done:  E(RM062X) =  -346.930966293     A.U. after   13 cycles
            NFock= 13  Conv=0.40D-08     -V/T= 2.0063
 KE= 3.447489378607D+02 PE=-1.453770802753D+03 EE= 4.400650992338D+02
 Leave Link  502 at Thu Sep 26 13:04:45 2019, MaxMem=   671088640 cpu:            1369.7 elap:             685.0
 (Enter /shared/centos7/gaussian/g16/l801.exe)
 DoSCS=F DFT=T ScalE2(SS,OS)=  1.000000  1.000000
 Range of M.O.s used for correlation:     1   350
 NBasis=   350 NAE=    28 NBE=    28 NFC=     0 NFV=     0
 NROrb=    350 NOA=    28 NOB=    28 NVA=   322 NVB=   322

 **** Warning!!: The largest alpha MO coefficient is  0.10752386D+02

 Leave Link  801 at Thu Sep 26 13:04:45 2019, MaxMem=   671088640 cpu:               1.4 elap:               0.7
 (Enter /shared/centos7/gaussian/g16/l1101.exe)
 Using compressed storage, NAtomX=    17.
 Will process     18 centers per pass.
 Leave Link 1101 at Thu Sep 26 13:05:30 2019, MaxMem=   671088640 cpu:              88.0 elap:              44.1
 (Enter /shared/centos7/gaussian/g16/l1102.exe)
 Symmetrizing basis deriv contribution to polar:
 IMax=3 JMax=2 DiffMx= 0.00D+00
 Leave Link 1102 at Thu Sep 26 13:05:32 2019, MaxMem=   671088640 cpu:               4.7 elap:               2.4
 (Enter /shared/centos7/gaussian/g16/l1110.exe)
 Forming Gx(P) for the SCF density, NAtomX=    17.
 Integral derivatives from FoFJK, PRISM(SPDF).
 Do as many integral derivatives as possible in FoFJK.
 G2DrvN: MDV=     671087280.
 G2DrvN: will do    18 centers at a time, making    1 passes.
 Calling FoFCou, ICntrl=  3107 FMM=F I1Cent=   0 AccDes= 0.00D+00.
 FoFJK:  IHMeth= 1 ICntrl=    3107 DoSepK=F KAlg= 0 I1Cent=           0 FoldK=F
 IRaf=         0 NMat=       1 IRICut=       1 DoRegI=T DoRafI=F ISym2E= 0 IDoP0=0 IntGTp=1.
 FoFCou: FMM=F IPFlag=           0 FMFlag=      100000 FMFlg1=           0
         NFxFlg=           0 DoJE=F BraDBF=F KetDBF=F FulRan=T
         wScrn=  0.000000 ICntrl=      3107 IOpCl=  0 I1Cent=           0 NGrid=           0
         NMat0=    1 NMatS0=      1 NMatT0=    0 NMatD0=    1 NMtDS0=    0 NMtDT0=    0
 Symmetry not used in FoFCou.
 End of G2Drv F.D. properties file   721 does not exist.
 End of G2Drv F.D. properties file   722 does not exist.
 End of G2Drv F.D. properties file   788 does not exist.
 Leave Link 1110 at Thu Sep 26 13:25:52 2019, MaxMem=   671088640 cpu:            2439.1 elap:            1219.6
 (Enter /shared/centos7/gaussian/g16/l1002.exe)
 Minotr:  Closed shell wavefunction.
          IDoAtm=11111111111111111
          Direct CPHF calculation.
          Differentiating once with respect to nuclear coordinates.
          Requested convergence is 1.0D-08 RMS, and 1.0D-07 maximum.
          Secondary convergence is 1.0D-12 RMS, and 1.0D-12 maximum.
          NewPWx=T KeepS1=F KeepF1=F KeepIn=T MapXYZ=F SortEE=F KeepMc=T.
         5088 words used for storage of precomputed grid.
 Two-electron integrals replicated using symmetry.
          MDV=     671088640 using IRadAn=       1.
          Solving linear equations simultaneously, MaxMat=     380.
 FoF2E skips out because all densities are zero.
 CalDSu exits because no D1Ps are significant.
 FoFJK:  IHMeth= 1 ICntrl=       0 DoSepK=F KAlg= 0 I1Cent=           0 FoldK=F
 IRaf= 950000000 NMat=      51 IRICut=     127 DoRegI=T DoRafI=T ISym2E= 2 IDoP0=3 IntGTp=3.
 FoFCou: FMM=F IPFlag=           0 FMFlag=      100000 FMFlg1=           0
         NFxFlg=           0 DoJE=F BraDBF=F KetDBF=F FulRan=T
         wScrn=  0.000000 ICntrl=         0 IOpCl=  0 I1Cent=           0 NGrid=           0
         NMat0=   51 NMatS0=     51 NMatT0=    0 NMatD0=   51 NMtDS0=    0 NMtDT0=    0
 Integrals replicated using symmetry in FoFCou.
 Raff kept on since  92.78% of shell-pairs survive, threshold=   0.20 IRatSp=93.
          There are    54 degrees of freedom in the 1st order CPHF.  IDoFFX=6 NUNeed=     0.
     48 vectors produced by pass  0 Test12= 1.67D-14 1.85D-09 XBig12= 7.10D-02 5.29D-02.
 AX will form    48 AO Fock derivatives at one time.
     48 vectors produced by pass  1 Test12= 1.67D-14 1.85D-09 XBig12= 9.57D-03 2.21D-02.
     48 vectors produced by pass  2 Test12= 1.67D-14 1.85D-09 XBig12= 3.21D-04 3.87D-03.
     48 vectors produced by pass  3 Test12= 1.67D-14 1.85D-09 XBig12= 3.41D-06 3.03D-04.
     48 vectors produced by pass  4 Test12= 1.67D-14 1.85D-09 XBig12= 2.56D-08 1.73D-05.
     48 vectors produced by pass  5 Test12= 1.67D-14 1.85D-09 XBig12= 1.43D-10 1.20D-06.
     23 vectors produced by pass  6 Test12= 1.67D-14 1.85D-09 XBig12= 6.25D-13 8.23D-08.
      5 vectors produced by pass  7 Test12= 1.67D-14 1.85D-09 XBig12= 2.45D-15 4.70D-09.
 InvSVY:  IOpt=1 It=  1 EMax= 2.78D-16
 Solved reduced A of dimension   316 with    54 vectors.
 End of Minotr F.D. properties file   721 does not exist.
 End of Minotr F.D. properties file   722 does not exist.
 End of Minotr F.D. properties file   788 does not exist.
 Leave Link 1002 at Thu Sep 26 14:00:08 2019, MaxMem=   671088640 cpu:            4113.5 elap:            2056.8
 (Enter /shared/centos7/gaussian/g16/l601.exe)
 Copying SCF densities to generalized density rwf, IOpCl= 0 IROHF=0.

 **********************************************************************

            Population analysis using the SCF density.

 **********************************************************************

 Orbital symmetries:
       Occupied  (A) (A) (A) (A) (A) (A) (A) (A) (A) (A) (A) (A)
                 (A) (A) (A) (A) (A) (A) (A) (A) (A) (A) (A) (A)
                 (A) (A) (A) (A)
       Virtual   (A) (A) (A) (A) (A) (A) (A) (A) (A) (A) (A) (A)
                 (A) (A) (A) (A) (A) (A) (A) (A) (A) (A) (A) (A)
                 (A) (A) (A) (A) (A) (A) (A) (A) (A) (A) (A) (A)
                 (A) (A) (A) (A) (A) (A) (A) (A) (A) (A) (A) (A)
                 (A) (A) (A) (A) (A) (A) (A) (A) (A) (A) (A) (A)
                 (A) (A) (A) (A) (A) (A) (A) (A) (A) (A) (A) (A)
                 (A) (A) (A) (A) (A) (A) (A) (A) (A) (A) (A) (A)
                 (A) (A) (A) (A) (A) (A) (A) (A) (A) (A) (A) (A)
                 (A) (A) (A) (A) (A) (A) (A) (A) (A) (A) (A) (A)
                 (A) (A) (A) (A) (A) (A) (A) (A) (A) (A) (A) (A)
                 (A) (A) (A) (A) (A) (A) (A) (A) (A) (A) (A) (A)
                 (A) (A) (A) (A) (A) (A) (A) (A) (A) (A) (A) (A)
                 (A) (A) (A) (A) (A) (A) (A) (A) (A) (A) (A) (A)
                 (A) (A) (A) (A) (A) (A) (A) (A) (A) (A) (A) (A)
                 (A) (A) (A) (A) (A) (A) (A) (A) (A) (A) (A) (A)
                 (A) (A) (A) (A) (A) (A) (A) (A) (A) (A) (A) (A)
                 (A) (A) (A) (A) (A) (A) (A) (A) (A) (A) (A) (A)
                 (A) (A) (A) (A) (A) (A) (A) (A) (A) (A) (A) (A)
                 (A) (A) (A) (A) (A) (A) (A) (A) (A) (A) (A) (A)
                 (A) (A) (A) (A) (A) (A) (A) (A) (A) (A) (A) (A)
                 (A) (A) (A) (A) (A) (A) (A) (A) (A) (A) (A) (A)
                 (A) (A) (A) (A) (A) (A) (A) (A) (A) (A) (A) (A)
                 (A) (A) (A) (A) (A) (A) (A) (A) (A) (A) (A) (A)
                 (A) (A) (A) (A) (A) (A) (A) (A) (A) (A) (A) (A)
                 (A) (A) (A) (A) (A) (A) (A) (A) (A) (A) (A) (A)
                 (A) (A) (A) (A) (A) (A) (A) (A) (A) (A) (A) (A)
                 (A) (A) (A) (A) (A) (A) (A) (A) (A) (A)
 The electronic state is 1-A.
 Alpha  occ. eigenvalues --  -19.65232 -19.64775 -10.60789 -10.58714 -10.57824
 Alpha  occ. eigenvalues --  -10.54113 -10.53850  -1.19217  -1.16095  -0.89971
 Alpha  occ. eigenvalues --   -0.84317  -0.78626  -0.70857  -0.67322  -0.59472
 Alpha  occ. eigenvalues --   -0.58551  -0.54943  -0.52823  -0.49609  -0.46860
 Alpha  occ. eigenvalues --   -0.46619  -0.45605  -0.45078  -0.43413  -0.43160
 Alpha  occ. eigenvalues --   -0.40019  -0.35736  -0.28439
 Alpha virt. eigenvalues --    0.05064   0.07595   0.08167   0.09372   0.11142
 Alpha virt. eigenvalues --    0.11721   0.13220   0.14269   0.14932   0.16324
 Alpha virt. eigenvalues --    0.17068   0.19407   0.20643   0.23602   0.23972
 Alpha virt. eigenvalues --    0.26263   0.27581   0.30197   0.32420   0.32571
 Alpha virt. eigenvalues --    0.33524   0.35122   0.37116   0.37671   0.39113
 Alpha virt. eigenvalues --    0.40123   0.42307   0.44437   0.44568   0.45852
 Alpha virt. eigenvalues --    0.46170   0.47801   0.48584   0.48908   0.49862
 Alpha virt. eigenvalues --    0.50137   0.51122   0.51862   0.54033   0.54455
 Alpha virt. eigenvalues --    0.55712   0.58300   0.60520   0.62224   0.64297
 Alpha virt. eigenvalues --    0.65976   0.67122   0.69247   0.71369   0.73481
 Alpha virt. eigenvalues --    0.74635   0.76231   0.77900   0.79021   0.82411
 Alpha virt. eigenvalues --    0.83795   0.85554   0.86932   0.87788   0.88459
 Alpha virt. eigenvalues --    0.93113   0.94557   0.95707   0.96767   0.99495
 Alpha virt. eigenvalues --    0.99926   1.02046   1.05018   1.06113   1.08019
 Alpha virt. eigenvalues --    1.08568   1.09247   1.11669   1.13053   1.13705
 Alpha virt. eigenvalues --    1.15966   1.16992   1.18827   1.19803   1.21626
 Alpha virt. eigenvalues --    1.23586   1.24723   1.25822   1.26279   1.27469
 Alpha virt. eigenvalues --    1.28178   1.30019   1.31193   1.32529   1.33751
 Alpha virt. eigenvalues --    1.35703   1.37938   1.40143   1.41194   1.41635
 Alpha virt. eigenvalues --    1.43637   1.46640   1.49176   1.50416   1.51313
 Alpha virt. eigenvalues --    1.52773   1.55654   1.56516   1.58108   1.59936
 Alpha virt. eigenvalues --    1.62225   1.65148   1.67631   1.77252   1.86824
 Alpha virt. eigenvalues --    1.95976   1.99496   2.02332   2.03059   2.07445
 Alpha virt. eigenvalues --    2.09805   2.10524   2.12672   2.19498   2.21877
 Alpha virt. eigenvalues --    2.26416   2.28525   2.30065   2.32687   2.33505
 Alpha virt. eigenvalues --    2.37997   2.40320   2.41954   2.43507   2.44211
 Alpha virt. eigenvalues --    2.48303   2.49226   2.52585   2.54870   2.58182
 Alpha virt. eigenvalues --    2.59604   2.61801   2.62146   2.64966   2.67906
 Alpha virt. eigenvalues --    2.69672   2.72244   2.73574   2.76410   2.78129
 Alpha virt. eigenvalues --    2.81132   2.82095   2.83704   2.84294   2.84641
 Alpha virt. eigenvalues --    2.85760   2.89511   2.90845   2.92716   2.93797
 Alpha virt. eigenvalues --    2.94737   2.97071   2.99032   2.99539   3.01136
 Alpha virt. eigenvalues --    3.02286   3.04677   3.05400   3.06972   3.09456
 Alpha virt. eigenvalues --    3.10159   3.10598   3.12380   3.12727   3.14361
 Alpha virt. eigenvalues --    3.16359   3.17753   3.19322   3.20096   3.22460
 Alpha virt. eigenvalues --    3.24351   3.26052   3.27877   3.28119   3.28864
 Alpha virt. eigenvalues --    3.31019   3.32011   3.33361   3.36050   3.36549
 Alpha virt. eigenvalues --    3.37328   3.38311   3.40364   3.41301   3.44687
 Alpha virt. eigenvalues --    3.45260   3.46588   3.47829   3.49748   3.50531
 Alpha virt. eigenvalues --    3.52250   3.55784   3.57473   3.58588   3.61611
 Alpha virt. eigenvalues --    3.65128   3.65736   3.68286   3.69029   3.71280
 Alpha virt. eigenvalues --    3.73363   3.74790   3.76257   3.76912   3.78433
 Alpha virt. eigenvalues --    3.80262   3.81115   3.82983   3.84228   3.85985
 Alpha virt. eigenvalues --    3.87788   3.90220   3.90422   3.92179   3.93583
 Alpha virt. eigenvalues --    3.95317   3.96761   3.97906   4.00807   4.00905
 Alpha virt. eigenvalues --    4.03099   4.04277   4.05586   4.06094   4.08035
 Alpha virt. eigenvalues --    4.08912   4.09840   4.11503   4.16095   4.17601
 Alpha virt. eigenvalues --    4.20294   4.24259   4.25404   4.28995   4.29511
 Alpha virt. eigenvalues --    4.30286   4.33849   4.38428   4.39573   4.42586
 Alpha virt. eigenvalues --    4.43928   4.49057   4.50457   4.54377   4.55294
 Alpha virt. eigenvalues --    4.58008   4.62774   4.64661   4.68400   4.69069
 Alpha virt. eigenvalues --    4.72335   4.72568   4.73373   4.77241   4.78367
 Alpha virt. eigenvalues --    4.81426   4.86166   4.87130   4.91069   4.92196
 Alpha virt. eigenvalues --    4.95827   4.97776   4.99655   5.02431   5.05280
 Alpha virt. eigenvalues --    5.05775   5.08154   5.09966   5.11219   5.19186
 Alpha virt. eigenvalues --    5.20011   5.20539   5.23741   5.24903   5.29313
 Alpha virt. eigenvalues --    5.31630   5.32991   5.38139   5.43442   5.45696
 Alpha virt. eigenvalues --    5.51053   5.54016   5.57560   5.64150   5.72879
 Alpha virt. eigenvalues --    5.73865   5.76773   5.78000   5.81110   5.83465
 Alpha virt. eigenvalues --    5.87676   6.04061   6.18413   6.24077   6.36613
 Alpha virt. eigenvalues --    6.38844   6.42715   6.58869   6.62469   6.71952
 Alpha virt. eigenvalues --    6.75471   6.77800   6.80722   6.86627   7.01171
 Alpha virt. eigenvalues --    7.05106   7.15586   7.24981   7.36058   7.38575
 Alpha virt. eigenvalues --    9.99993  11.23757  11.60434  12.07679  13.19921
 Alpha virt. eigenvalues --   13.30455  14.21215
          Condensed to atoms (all electrons):
               1          2          3          4          5          6
     1  O    7.842648   0.002045   0.324072  -0.042351  -0.060152   0.349083
     2  O    0.002045   7.788072   0.000050   0.000406   0.000141  -0.068815
     3  C    0.324072   0.000050   4.937205   0.322837   0.322238  -0.079985
     4  C   -0.042351   0.000406   0.322837   4.969180  -0.064729  -0.002909
     5  C   -0.060152   0.000141   0.322238  -0.064729   5.092391  -0.001170
     6  C    0.349083  -0.068815  -0.079985  -0.002909  -0.001170   5.089402
     7  C   -0.071323   0.329134  -0.003822   0.001284  -0.016954   0.470670
     8  H   -0.057175  -0.002211   0.375645  -0.027117  -0.104453  -0.049880
     9  H    0.001702  -0.000043  -0.032805   0.393682  -0.007961   0.000375
    10  H    0.001908   0.000075  -0.030675   0.397033   0.010221   0.000638
    11  H    0.003559  -0.000006  -0.041522   0.395572  -0.002658   0.000072
    12  H    0.002095  -0.000102  -0.036729  -0.006976   0.388524  -0.000739
    13  H   -0.005622   0.000649  -0.032340   0.008498   0.403379   0.004000
    14  H    0.004395  -0.000036  -0.027682  -0.008349   0.392467   0.000730
    15  H   -0.047028   0.005155   0.001113  -0.000703   0.004912   0.428599
    16  H    0.004152  -0.034806  -0.000559   0.000040   0.000394  -0.062249
    17  H    0.007689   0.336959   0.002829  -0.001419   0.003061   0.001591
               7          8          9         10         11         12
     1  O   -0.071323  -0.057175   0.001702   0.001908   0.003559   0.002095
     2  O    0.329134  -0.002211  -0.000043   0.000075  -0.000006  -0.000102
     3  C   -0.003822   0.375645  -0.032805  -0.030675  -0.041522  -0.036729
     4  C    0.001284  -0.027117   0.393682   0.397033   0.395572  -0.006976
     5  C   -0.016954  -0.104453  -0.007961   0.010221  -0.002658   0.388524
     6  C    0.470670  -0.049880   0.000375   0.000638   0.000072  -0.000739
     7  C    5.013053   0.032925   0.000203  -0.000471  -0.000022   0.001432
     8  H    0.032925   0.776922   0.009341  -0.014103  -0.002115   0.011190
     9  H    0.000203   0.009341   0.565485  -0.029000  -0.031006   0.003656
    10  H   -0.000471  -0.014103  -0.029000   0.569086  -0.029949  -0.000255
    11  H   -0.000022  -0.002115  -0.031006  -0.029949   0.601506   0.000286
    12  H    0.001432   0.011190   0.003656  -0.000255   0.000286   0.572373
    13  H   -0.000254  -0.011990  -0.000290  -0.000324   0.000047  -0.032124
    14  H    0.000076  -0.000561   0.000414  -0.000160  -0.000121  -0.028273
    15  H   -0.090332  -0.003404  -0.000131   0.000128   0.000033  -0.001099
    16  H    0.405307  -0.000607  -0.000005  -0.000000  -0.000005  -0.000062
    17  H   -0.057983  -0.016445  -0.000080   0.000584   0.000010  -0.000153
              13         14         15         16         17
     1  O   -0.005622   0.004395  -0.047028   0.004152   0.007689
     2  O    0.000649  -0.000036   0.005155  -0.034806   0.336959
     3  C   -0.032340  -0.027682   0.001113  -0.000559   0.002829
     4  C    0.008498  -0.008349  -0.000703   0.000040  -0.001419
     5  C    0.403379   0.392467   0.004912   0.000394   0.003061
     6  C    0.004000   0.000730   0.428599  -0.062249   0.001591
     7  C   -0.000254   0.000076  -0.090332   0.405307  -0.057983
     8  H   -0.011990  -0.000561  -0.003404  -0.000607  -0.016445
     9  H   -0.000290   0.000414  -0.000131  -0.000005  -0.000080
    10  H   -0.000324  -0.000160   0.000128  -0.000000   0.000584
    11  H    0.000047  -0.000121   0.000033  -0.000005   0.000010
    12  H   -0.032124  -0.028273  -0.001099  -0.000062  -0.000153
    13  H    0.548068  -0.027572   0.000610   0.000460   0.000304
    14  H   -0.027572   0.573618  -0.000070  -0.000003  -0.000131
    15  H    0.000610  -0.000070   0.571476  -0.004825   0.000955
    16  H    0.000460  -0.000003  -0.004825   0.526919   0.006337
    17  H    0.000304  -0.000131   0.000955   0.006337   0.442620
 Mulliken charges:
               1
     1  O   -0.259697
     2  O   -0.356667
     3  C    0.000129
     4  C   -0.333978
     5  C   -0.359651
     6  C   -0.079412
     7  C   -0.012923
     8  H    0.084037
     9  H    0.126464
    10  H    0.125265
    11  H    0.106319
    12  H    0.126958
    13  H    0.144500
    14  H    0.121260
    15  H    0.134611
    16  H    0.159511
    17  H    0.273274
 Sum of Mulliken charges =  -0.00000
 Mulliken charges with hydrogens summed into heavy atoms:
               1
     1  O   -0.259697
     2  O   -0.083393
     3  C    0.084166
     4  C    0.024070
     5  C    0.033067
     6  C    0.055198
     7  C    0.146588
 APT charges:
               1
     1  O   -0.195709
     2  O   -0.213119
     3  C   -0.108615
     4  C   -1.223792
     5  C   -1.092620
     6  C   -0.517287
     7  C   -0.406311
     8  H    0.232844
     9  H    0.415217
    10  H    0.359686
    11  H    0.423345
    12  H    0.392784
    13  H    0.265386
    14  H    0.436497
    15  H    0.459655
    16  H    0.569087
    17  H    0.202953
 Sum of APT charges =  -0.00000
 APT charges with hydrogens summed into heavy atoms:
               1
     1  O   -0.195709
     2  O   -0.010166
     3  C    0.124229
     4  C   -0.025544
     5  C    0.002047
     6  C   -0.057632
     7  C    0.162775
 Electronic spatial extent (au):  <R**2>=            864.4114
 Charge=             -0.0000 electrons
 Dipole moment (field-independent basis, Debye):
    X=              1.2283    Y=             -0.2704    Z=              0.6899  Tot=              1.4345
 Quadrupole moment (field-independent basis, Debye-Ang):
   XX=            -44.0527   YY=            -42.1713   ZZ=            -46.9224
   XY=              4.1226   XZ=              1.5793   YZ=             -0.5089
 Traceless Quadrupole moment (field-independent basis, Debye-Ang):
   XX=              0.3294   YY=              2.2109   ZZ=             -2.5402
   XY=              4.1226   XZ=              1.5793   YZ=             -0.5089
 Octapole moment (field-independent basis, Debye-Ang**2):
  XXX=             -3.9212  YYY=              3.8201  ZZZ=              0.6896  XYY=             -0.6330
  XXY=             -9.5425  XXZ=             -1.3423  XZZ=              0.7668  YZZ=              1.2985
  YYZ=             -3.9817  XYZ=              1.5903
 Hexadecapole moment (field-independent basis, Debye-Ang**3):
 XXXX=           -721.2821 YYYY=           -198.8772 ZZZZ=           -208.7632 XXXY=             18.9029
 XXXZ=             -5.9219 YYYX=             -5.5587 YYYZ=              6.6515 ZZZX=             -2.8337
 ZZZY=              3.3583 XXYY=           -162.7916 XXZZ=           -159.5897 YYZZ=            -68.2615
 XXYZ=             -0.7029 YYXZ=              2.3243 ZZXY=              1.6362
 N-N= 3.220257993658D+02 E-N=-1.453770811201D+03  KE= 3.447489378607D+02
  Exact polarizability:   0.000   0.000   0.000   0.000   0.000   0.000
 Approx polarizability:  87.747  -3.558  80.687  -5.894   6.856  72.997
 No NMR shielding tensors so no spin-rotation constants.
 Leave Link  601 at Thu Sep 26 14:00:40 2019, MaxMem=   671088640 cpu:              62.5 elap:              31.3
 (Enter /shared/centos7/gaussian/g16/l701.exe)
 SCFChk:  SCF convergence  4.04D-09 required  1.00D-08
 ... and contract with generalized density number  0.
 Compute integral second derivatives.
 Entering OneElI...
 Calculate overlap and kinetic energy integrals
    NBasis = 395  MinDer = 2  MaxDer = 2
 Requested accuracy = 0.1000D-12
 PrmmSu-InSpLW:  IPartL=    0 NPrtUS=   20 NPrtUL=    1 DoSpLW=F IThBeg=    0 IThEnd=   19 NThAct=   20.
 PrsmSu:  NPrtUS=  20 ThrOK=T IAlg=1 NPAlg=1 LenDen=           0 ISkipM=0 DoSpLW=F IThBeg=    0 IThEnd=   19.
 Prism:   IPart=     0 DynPar=F LinDyn=F Incr=           4.
 PRISM was handed    33310343 working-precision words and  8470 shell-pairs
 PRISM was handed    33310343 working-precision words and  8470 shell-pairs
 PRISM was handed    33310343 working-precision words and  8470 shell-pairs
 PRISM was handed    33310343 working-precision words and  8470 shell-pairs
 PRISM was handed    33310343 working-precision words and  8470 shell-pairs
 PRISM was handed    33310343 working-precision words and  8470 shell-pairs
 PRISM was handed    33310343 working-precision words and  8470 shell-pairs
 PRISM was handed    33310343 working-precision words and  8470 shell-pairs
 PRISM was handed    33310343 working-precision words and  8470 shell-pairs
 PRISM was handed    33310343 working-precision words and  8470 shell-pairs
 PRISM was handed    33310343 working-precision words and  8470 shell-pairs
 PRISM was handed    33310343 working-precision words and  8470 shell-pairs
 PRISM was handed    33310343 working-precision words and  8470 shell-pairs
 PRISM was handed    33310343 working-precision words and  8470 shell-pairs
 PRISM was handed    33310343 working-precision words and  8470 shell-pairs
 PRISM was handed    33310343 working-precision words and  8470 shell-pairs
 PRISM was handed    33310343 working-precision words and  8470 shell-pairs
 PRISM was handed    33310343 working-precision words and  8470 shell-pairs
 PRISM was handed    33310343 working-precision words and  8470 shell-pairs
 PRISM was handed    33310343 working-precision words and  8470 shell-pairs
 IPart= 13 NShTot=         406 NBatch=          40 AvBLen=        10.2
 IPart=  1 NShTot=         463 NBatch=          79 AvBLen=         5.9
 IPart=  5 NShTot=         437 NBatch=          61 AvBLen=         7.2
 IPart= 10 NShTot=         414 NBatch=          47 AvBLen=         8.8
 IPart= 12 NShTot=         409 NBatch=          42 AvBLen=         9.7
 IPart=  3 NShTot=         451 NBatch=          70 AvBLen=         6.4
 IPart= 14 NShTot=         405 NBatch=          39 AvBLen=        10.4
 IPart=  0 NShTot=         469 NBatch=          83 AvBLen=         5.7
 IPart=  4 NShTot=         441 NBatch=          64 AvBLen=         6.9
 IPart= 16 NShTot=         404 NBatch=          39 AvBLen=        10.4
 IPart= 19 NShTot=         399 NBatch=          39 AvBLen=        10.2
 IPart= 18 NShTot=         401 NBatch=          39 AvBLen=        10.3
 IPart= 11 NShTot=         413 NBatch=          46 AvBLen=         9.0
 IPart= 15 NShTot=         405 NBatch=          39 AvBLen=        10.4
 IPart=  2 NShTot=         456 NBatch=          73 AvBLen=         6.2
 IPart=  7 NShTot=         424 NBatch=          50 AvBLen=         8.5
 IPart=  8 NShTot=         419 NBatch=          50 AvBLen=         8.4
 IPart= 17 NShTot=         403 NBatch=          39 AvBLen=        10.3
 IPart=  9 NShTot=         417 NBatch=          49 AvBLen=         8.5
 IPart=  6 NShTot=         434 NBatch=          59 AvBLen=         7.4
 PrSmSu:  NxtVal=             81.
 Entering OneElI...
 Calculate potential energy integrals
    NBasis = 395  MinDer = 2  MaxDer = 2
 Requested accuracy = 0.1000D-12
 PrmmSu-InSpLW:  IPartL=    0 NPrtUS=   20 NPrtUL=    1 DoSpLW=F IThBeg=    0 IThEnd=   19 NThAct=   20.
 PrsmSu:  NPrtUS=  20 ThrOK=T IAlg=1 NPAlg=1 LenDen=           0 ISkipM=0 DoSpLW=F IThBeg=    0 IThEnd=   19.
 Prism:   IPart=     0 DynPar=F LinDyn=F Incr=          66.
 PRISM was handed    33352095 working-precision words and  7849 shell-pairs
 PRISM was handed    33352095 working-precision words and  7849 shell-pairs
 PRISM was handed    33352095 working-precision words and  7849 shell-pairs
 PRISM was handed    33352095 working-precision words and  7849 shell-pairs
 PRISM was handed    33352095 working-precision words and  7849 shell-pairs
 PRISM was handed    33352095 working-precision words and  7849 shell-pairs
 PRISM was handed    33352095 working-precision words and  7849 shell-pairs
 PRISM was handed    33352095 working-precision words and  7849 shell-pairs
 PRISM was handed    33352095 working-precision words and  7849 shell-pairs
 PRISM was handed    33352095 working-precision words and  7849 shell-pairs
 PRISM was handed    33352095 working-precision words and  7849 shell-pairs
 PRISM was handed    33352095 working-precision words and  7849 shell-pairs
 PRISM was handed    33352095 working-precision words and  7849 shell-pairs
 PRISM was handed    33352095 working-precision words and  7849 shell-pairs
 PRISM was handed    33352095 working-precision words and  7849 shell-pairs
 PRISM was handed    33352095 working-precision words and  7849 shell-pairs
 PRISM was handed    33352095 working-precision words and  7849 shell-pairs
 PRISM was handed    33352095 working-precision words and  7849 shell-pairs
 PRISM was handed    33352095 working-precision words and  7849 shell-pairs
 PRISM was handed    33352095 working-precision words and  7849 shell-pairs
 IPart= 18 NShTot=        6324 NBatch=         372 AvBLen=        17.0
 IPart= 13 NShTot=        6443 NBatch=         379 AvBLen=        17.0
 IPart= 19 NShTot=        6239 NBatch=         367 AvBLen=        17.0
 IPart=  8 NShTot=        6664 NBatch=         392 AvBLen=        17.0
 IPart= 12 NShTot=        6494 NBatch=         382 AvBLen=        17.0
 IPart=  1 NShTot=        7208 NBatch=         424 AvBLen=        17.0
 IPart= 11 NShTot=        6528 NBatch=         384 AvBLen=        17.0
 IPart=  3 NShTot=        7004 NBatch=         412 AvBLen=        17.0
 IPart=  5 NShTot=        6902 NBatch=         406 AvBLen=        17.0
 IPart=  0 NShTot=        7344 NBatch=         432 AvBLen=        17.0
 IPart= 16 NShTot=        6375 NBatch=         375 AvBLen=        17.0
 IPart=  2 NShTot=        7106 NBatch=         418 AvBLen=        17.0
 IPart=  4 NShTot=        6953 NBatch=         409 AvBLen=        17.0
 IPart= 14 NShTot=        6426 NBatch=         378 AvBLen=        17.0
 IPart= 10 NShTot=        6562 NBatch=         386 AvBLen=        17.0
 IPart=  9 NShTot=        6596 NBatch=         388 AvBLen=        17.0
 IPart=  6 NShTot=        6851 NBatch=         403 AvBLen=        17.0
 IPart= 17 NShTot=        6341 NBatch=         373 AvBLen=        17.0
 IPart=  7 NShTot=        6681 NBatch=         393 AvBLen=        17.0
 IPart= 15 NShTot=        6392 NBatch=         376 AvBLen=        17.0
 PrSmSu:  NxtVal=           1321.
 Polarizability after L701:
                1             2             3 
      1  0.000000D+00
      2  0.000000D+00  0.000000D+00
      3  0.000000D+00  0.000000D+00  0.000000D+00
 Dipole Derivatives after L701:
                 1             2             3             4             5 
      1  -0.310676D+00  0.392346D-01 -0.739538D-01  0.249186D+00 -0.195481D+00
      2  -0.457442D-01 -0.207373D+00  0.441431D-01 -0.761154D+00 -0.572084D+00
      3  -0.247441D+00 -0.185451D-01 -0.690775D-01 -0.840775D-01  0.139932D+00
                 6             7             8             9            10 
      1  -0.320770D+00  0.189013D+00 -0.112218D+00 -0.124240D+00 -0.171009D+01
      2   0.310901D+00  0.233132D+00 -0.340346D+00 -0.222850D+00 -0.203003D+00
      3  -0.316461D+00 -0.512502D-01 -0.292921D+00 -0.174511D+00  0.737538D-01
                11            12            13            14            15 
      1  -0.349859D+00  0.351352D+00 -0.998148D+00  0.413935D+00 -0.449699D+00
      2  -0.104229D+01  0.531836D-01  0.565775D-01 -0.996926D+00  0.163328D+00
      3   0.966085D-02 -0.918997D+00 -0.938315D-01  0.298805D+00 -0.128279D+01
                16            17            18            19            20 
      1  -0.595296D+00 -0.321507D+00  0.420589D+00 -0.785536D+00 -0.345868D+00
      2  -0.229524D+00 -0.872780D+00 -0.158183D+00 -0.765940D-01 -0.256113D+00
      3   0.230756D+00 -0.241431D+00 -0.837855D-01  0.187625D+00 -0.254089D+00
                21            22            23            24            25 
      1   0.200381D-01  0.957493D-01  0.122641D+00  0.798871D-01  0.769651D+00
      2  -0.313548D+00 -0.166162D+00  0.410093D+00  0.397082D-01 -0.701209D-01
      3  -0.177284D+00 -0.248114D-01  0.845506D-01  0.192690D+00 -0.217467D+00
                26            27            28            29            30 
      1  -0.784038D+00 -0.456065D+00  0.689801D-01  0.581321D+00 -0.533051D+00
      2   0.225248D+00  0.595606D-01 -0.675709D-01  0.547067D+00 -0.399383D+00
      3   0.260707D+00  0.250751D+00  0.394789D-01 -0.378878D+00  0.463010D+00
                31            32            33            34            35 
      1   0.727138D+00  0.427252D+00  0.767316D+00  0.413198D+00 -0.543385D+00
      2   0.248854D+00  0.263574D+00  0.311518D+00 -0.335577D+00  0.706595D+00
      3   0.126984D+00  0.949128D-01  0.279323D+00  0.140762D+00 -0.267908D+00
                36            37            38            39            40 
      1  -0.131239D+00  0.184841D+00 -0.221143D-02 -0.943540D-02  0.453250D+00
      2   0.145415D+00  0.354779D+00  0.254638D+00 -0.148636D+00 -0.313409D-01
      3   0.585588D-01 -0.559501D+00 -0.184303D+00  0.356678D+00  0.446863D+00
                41            42            43            44            45 
      1   0.246949D+00  0.508216D+00  0.279896D+00  0.443186D+00  0.165054D+00
      2   0.981926D-01 -0.504734D-01  0.126705D+00  0.858404D+00  0.323649D+00
      3   0.317150D+00  0.758048D+00  0.547473D-01  0.410144D+00  0.240665D+00
                46            47            48            49            50 
      1   0.126795D+01  0.600877D+00 -0.290456D+00 -0.299109D+00 -0.220828D+00
      2   0.239999D+00  0.311791D+00 -0.313649D-01  0.726746D+00  0.612310D+00
      3  -0.927929D-01 -0.105640D-01  0.127519D+00  0.702033D-01  0.327768D-01
                51 
      1   0.764585D-01
      2  -0.126968D+00
      3   0.295659D+00
 Hessian after L701:
                1             2             3             4             5 
      1  0.617214D+01
      2 -0.432713D+01  0.167432D+02
      3 -0.134773D+01 -0.154161D+01  0.132247D+02
      4  0.301634D+00 -0.441854D+00 -0.480272D+00  0.957510D+01
      5 -0.375683D+00 -0.132275D+00  0.275350D+00 -0.119583D+01  0.649125D+01
      6 -0.467577D+00  0.316218D+00 -0.837859D-01  0.188264D+01 -0.261501D+01
      7 -0.588840D+01  0.227180D+01  0.375053D+01  0.405882D+00 -0.195645D+00
      8  0.218973D+01 -0.844937D+01  0.247503D+01 -0.362081D+00 -0.196876D+00
      9  0.351367D+01  0.247088D+01 -0.432120D+01 -0.138167D+00  0.626624D-01
     10  0.333253D+00  0.253594D+00  0.311868D-01  0.180764D+00 -0.214404D-01
     11  0.254865D+00 -0.691423D-01 -0.902381D-03 -0.522145D-01 -0.967186D-01
     12  0.791911D-01  0.134141D-01 -0.272128D+00 -0.501793D-01  0.775934D-02
     13 -0.821751D-01 -0.250686D+00  0.102755D+00  0.187212D+00 -0.217103D+00
     14 -0.191856D+00  0.322619D-01 -0.391880D+00 -0.187960D+00 -0.520676D-01
     15  0.131002D+00 -0.515621D+00  0.369181D+00  0.766678D-01 -0.387907D-01
     16 -0.134896D+01  0.348383D+01 -0.200921D+01  0.332442D+00 -0.437606D+00
     17  0.352733D+01 -0.881307D+01 -0.758455D+00 -0.320608D+00  0.329596D-03
     18 -0.164080D+01 -0.703225D+00 -0.893011D+01  0.135076D+00 -0.194390D+00
     19  0.275645D+00 -0.634806D+00  0.126469D+00 -0.878963D+01  0.582287D+00
     20 -0.639072D+00  0.123930D+00  0.114044D+00  0.239639D+00 -0.526770D+00
     21 -0.455026D-01  0.854695D-01  0.100742D+00 -0.152321D+00  0.296480D+01
     22  0.224422D+00 -0.246664D+00 -0.311984D+00 -0.989913D-01  0.300151D-01
     23 -0.233263D+00  0.502224D+00 -0.242004D+00  0.741594D-01 -0.452967D-01
     24 -0.258463D+00 -0.179470D+00 -0.362522D+00 -0.102367D+00  0.137775D-01
     25  0.107374D+00  0.409978D-01  0.255903D-01  0.268308D-01 -0.781551D-02
     26 -0.112463D-01 -0.518026D-01  0.292890D-02 -0.205896D-01 -0.357190D-02
     27 -0.457756D-02  0.249007D-02 -0.550839D-01 -0.138123D-01  0.304411D-02
     28  0.494195D-01  0.575050D-01  0.466069D-02  0.240560D-01  0.245573D-02
     29  0.104023D+00  0.253208D-02 -0.571654D-03  0.249665D-01 -0.104858D-01
     30 -0.327854D-01 -0.263915D-01 -0.554840D-01 -0.338212D-01 -0.380167D-02
     31  0.678987D-01  0.653775D-01  0.887909D-01  0.377717D-01  0.193449D-02
     32  0.634762D-01 -0.586871D-02  0.494905D-01  0.889042D-02 -0.927788D-02
     33  0.796927D-01  0.459426D-01  0.134068D-01  0.166125D-01  0.120185D-02
     34 -0.152317D-01 -0.375973D-01  0.811235D-01  0.199521D-01 -0.210577D-01
     35 -0.460472D-01 -0.123092D-01 -0.850474D-01 -0.348591D-01  0.107439D-01
     36  0.482184D-01 -0.385270D-01  0.441463D-01 -0.307613D-03  0.115036D-03
     37 -0.142374D-01  0.130151D-01 -0.412194D-01 -0.253669D-01 -0.193170D-01
     38  0.249617D-03  0.659759D-04 -0.469933D-01 -0.615282D-01  0.232878D-01
     39  0.651089D-02 -0.501118D-01  0.408001D-01  0.411938D-01 -0.399602D-01
     40 -0.526825D-02  0.971736D-02  0.945613D-01  0.371592D-01 -0.154970D-01
     41  0.104067D-01 -0.454240D-01  0.253741D-01 -0.490522D-02 -0.121143D-01
     42  0.833440D-01  0.235255D-01  0.135370D+00  0.399171D-01 -0.100085D-01
     43 -0.259479D+00 -0.261823D+00 -0.732450D-02 -0.446260D-01 -0.290747D-01
     44 -0.269570D+00  0.179336D+00  0.210079D-01 -0.692045D-01  0.160947D+00
     45 -0.157813D-01  0.327827D-01  0.188833D+00 -0.233977D-01  0.897355D-01
     46  0.163615D+00  0.287249D-01 -0.672769D-01  0.150379D+00 -0.794979D-01
     47  0.513398D-01 -0.395406D-01 -0.208074D-01 -0.932559D-01 -0.253964D+00
     48 -0.654235D-01 -0.123362D-01 -0.166213D-01 -0.469449D-01 -0.707667D-01
     49 -0.816461D-01 -0.239977D-01 -0.406461D-01 -0.232057D+01  0.199888D+01
     50 -0.107547D+00  0.352462D-01  0.125045D+00  0.249724D+01 -0.534714D+01
     51 -0.629804D-01  0.765734D-01 -0.202073D-01 -0.115052D+01 -0.445723D+00
                6             7             8             9            10 
      6  0.146186D+02
      7 -0.143837D+00  0.179911D+02
      8  0.894737D-01 -0.206862D+01  0.209496D+02
      9 -0.253215D+00 -0.248346D+01 -0.932054D+00  0.180638D+02
     10 -0.700007D-01 -0.230706D+01  0.144097D+01 -0.130944D+01  0.117043D+02
     11  0.155057D-01  0.139632D+01 -0.560771D+01 -0.479375D+00 -0.136944D+01
     12 -0.843482D-01 -0.126964D+01 -0.483542D+00 -0.572516D+01  0.827802D+00
     13  0.106892D+00 -0.668738D+01 -0.339768D+00  0.372962D+00  0.642600D-01
     14 -0.550504D-01 -0.276613D+00 -0.481425D+01 -0.240198D+01  0.885756D-01
     15 -0.143423D+00  0.280025D+00 -0.241924D+01 -0.341643D+01 -0.893427D-01
     16  0.120385D+00  0.380738D+00  0.226185D+00  0.303839D+00  0.142906D+00
     17 -0.265828D+00  0.200989D+00  0.213410D+00  0.751783D-01  0.968824D-01
     18  0.775439D-01  0.227344D+00  0.220720D-01  0.141406D+00  0.271830D-01
     19 -0.565746D-01  0.283353D+00 -0.511503D-01  0.110967D+00  0.128369D+00
     20  0.306745D+01 -0.160321D-01 -0.178913D+00 -0.195747D-01  0.351364D-01
     21 -0.766803D+01  0.738277D-01 -0.418879D-01 -0.178469D+00 -0.291225D-01
     22 -0.136049D+00 -0.439243D+01 -0.103358D+01 -0.357164D+00 -0.117747D+00
     23 -0.715514D-02 -0.120599D+01 -0.212852D+01  0.106865D+01  0.335577D-01
     24 -0.438085D-01 -0.437002D+00  0.112310D+01 -0.435021D+01  0.599401D-01
     25 -0.107959D-01  0.790680D-02  0.354924D-01  0.463535D-01 -0.314473D+01
     26  0.633605D-02 -0.230986D-01  0.836857D-01  0.134012D-01 -0.977777D+00
     27 -0.338382D-02  0.296174D-01 -0.136733D-01  0.225144D-01 -0.554751D+00
     28 -0.143207D-01  0.390140D-01 -0.451155D-01  0.783987D-01 -0.405089D+01
     29 -0.106851D-01 -0.254662D-02  0.563899D-01  0.207134D-01 -0.223306D+00
     30  0.128609D-02  0.251634D-01  0.345068D-02 -0.136505D-01  0.207976D+00
     31 -0.226645D-02 -0.462344D-01 -0.621422D-01 -0.109690D+00 -0.298209D+01
     32 -0.301197D-03 -0.671887D-01  0.404503D-01 -0.444273D-01  0.556985D+00
     33 -0.102206D-01 -0.616334D-01 -0.151761D-01  0.939794D-01  0.993065D+00
     34 -0.276057D-03  0.853262D-01  0.250687D-01 -0.142055D-01 -0.311275D-02
     35  0.104178D-02  0.184523D-01 -0.715698D-01  0.406613D-01  0.167867D-02
     36 -0.102939D-01 -0.314640D-01  0.100972D+00  0.741996D-01 -0.269065D-02
     37  0.115323D-01  0.731499D-01 -0.355060D-01  0.144346D-01  0.595868D-01
     38 -0.290865D-01 -0.799281D-01 -0.378278D-02  0.550124D-01  0.816920D-01
     39 -0.169384D-01  0.937528D-01  0.792861D-01 -0.439867D-02 -0.102842D+00
     40  0.187622D-01 -0.741626D-03  0.146423D-01 -0.417641D-01 -0.693314D-02
     41 -0.203840D-02  0.297720D-01  0.689788D-01  0.142814D-01 -0.162671D-02
     42 -0.213888D-02 -0.796981D-01 -0.273123D-01 -0.348634D-01  0.743603D-02
     43 -0.462167D-02  0.177783D-01  0.650812D-01  0.209513D-01  0.535862D-03
     44  0.879847D-01  0.930599D-01  0.708369D-01  0.421739D-01  0.122124D-01
     45 -0.512240D-02  0.269974D-01  0.392523D-01 -0.262238D-01  0.489948D-02
     46 -0.278530D-01  0.323184D-01  0.163236D-02 -0.362484D-02  0.149154D-01
     47 -0.452907D-01  0.177454D-01 -0.110010D-01 -0.290107D-02  0.741367D-02
     48  0.876925D-01 -0.439684D-02 -0.293571D-03 -0.118404D-01 -0.295418D-02
     49 -0.120604D+01  0.565142D-02 -0.842980D-03 -0.405414D-02 -0.162697D-01
     50 -0.553568D+00 -0.924773D-01 -0.213889D-01  0.167061D-01 -0.151002D-01
     51 -0.646038D+01  0.386784D-02  0.544167D-03 -0.602087D-01  0.165817D-02
               11            12            13            14            15 
     11  0.145583D+02
     12  0.386596D+00  0.149222D+02
     13  0.155594D+00 -0.170175D+00  0.146518D+02
     14 -0.448859D-02 -0.101230D+00  0.830004D-01  0.150769D+02
     15 -0.948525D-01  0.295511D-01 -0.449803D+00  0.181133D+01  0.132187D+02
     16  0.106678D+00  0.512202D-01  0.219322D+00  0.404782D-01  0.266389D+00
     17 -0.750692D-01  0.165043D-01  0.544721D-02 -0.260606D+00 -0.540382D-02
     18  0.668111D-02 -0.108082D+00  0.313728D+00  0.346476D-01 -0.905145D-01
     19  0.403467D-01 -0.149081D-01  0.127000D-01  0.194870D-01 -0.158996D-01
     20 -0.715243D-01 -0.948725D-02 -0.314372D-01 -0.834837D-01 -0.226972D-01
     21 -0.111058D-01 -0.713708D-01  0.228499D-01 -0.165974D-01 -0.772120D-01
     22  0.457981D-01  0.527993D-01  0.305921D+00  0.223005D+00 -0.109052D+00
     23  0.745409D-01 -0.126494D-02  0.281289D+00 -0.286376D+00  0.298886D+00
     24 -0.149609D-01  0.504514D-01 -0.956002D-01  0.211771D+00  0.318274D+00
     25 -0.117650D+01 -0.619081D+00 -0.500252D-02 -0.559310D-02 -0.595688D-03
     26 -0.263360D+01  0.734360D+00 -0.142281D-01 -0.277766D-02  0.692443D-02
     27  0.799491D+00 -0.348330D+01 -0.131761D-01 -0.321666D-03  0.607028D-02
     28 -0.629206D-01  0.553514D-01 -0.370545D-01  0.481533D-01 -0.583967D-01
     29 -0.268806D+01 -0.128726D+01  0.469355D-01  0.510871D-01 -0.119783D+00
     30 -0.124642D+01 -0.273532D+01 -0.502539D-01 -0.110015D+00  0.715796D-01
     31  0.576792D+00  0.114359D+01  0.240516D-01  0.443645D-01 -0.656972D-02
     32 -0.338357D+01  0.771325D+00  0.515896D-01  0.119795D-01 -0.805056D-02
     33  0.693509D+00 -0.252650D+01  0.808480D-02  0.260572D-02 -0.296166D-01
     34  0.146943D-03 -0.363457D-02 -0.334495D+01 -0.110525D+01 -0.312880D+00
     35  0.907298D-02 -0.526175D-02 -0.108422D+01 -0.199885D+01  0.604170D+00
     36  0.983401D-02 -0.153898D-01 -0.214153D+00  0.430331D+00 -0.388249D+01
     37  0.775009D-01 -0.929190D-01 -0.218723D+01  0.669208D+00 -0.817928D+00
     38  0.563639D-02 -0.641589D-01  0.828501D+00 -0.411711D+01 -0.261034D+00
     39 -0.686701D-01  0.291866D-01 -0.110910D+01 -0.289540D+00 -0.397755D+01
     40 -0.145749D-02  0.871463D-02 -0.321887D+01  0.519418D+00  0.101771D+01
     41 -0.136920D-01  0.133358D-01  0.459289D+00 -0.356562D+01  0.722839D+00
     42  0.143039D-02  0.123435D-01  0.106040D+01  0.841729D+00 -0.238238D+01
     43  0.397177D-02  0.247235D-02  0.531309D-01  0.509607D-01  0.709421D-01
     44  0.132475D-02  0.724358D-02  0.747190D-01  0.541837D-02  0.571766D-01
     45  0.494533D-02 -0.588280D-02  0.841309D-01  0.507958D-01  0.203241D-01
     46  0.375966D-02 -0.509340D-03  0.461647D-01  0.611609D-02  0.485456D-02
     47 -0.366342D-02  0.521039D-03  0.907589D-02 -0.936180D-02 -0.437823D-03
     48 -0.868363D-04 -0.523518D-02  0.884740D-02 -0.361572D-03 -0.108456D-01
     49  0.765430D-03 -0.962803D-04 -0.185392D-02 -0.254956D-01  0.128750D-01
     50 -0.159301D-02  0.114266D-02 -0.579938D-01  0.173916D-01 -0.154191D-01
     51 -0.162280D-02 -0.110062D-01  0.216117D-01 -0.162326D-01 -0.231757D-01
               16            17            18            19            20 
     16  0.105357D+02
     17 -0.123170D+01  0.190784D+02
     18  0.563438D+01 -0.349167D+01  0.234553D+02
     19 -0.553070D+01 -0.278352D+01 -0.511415D+01  0.152329D+02
     20 -0.244899D+01 -0.839298D+01  0.352022D+01  0.137400D+01  0.132013D+02
     21 -0.473408D+01  0.361453D+01 -0.106996D+02  0.504366D+01 -0.614545D+01
     22 -0.159876D-01 -0.211917D+00 -0.428019D-01  0.210814D+00  0.175350D+00
     23 -0.203144D+00 -0.827657D-01 -0.325573D-01  0.248968D+00 -0.411320D-01
     24 -0.549963D-01 -0.655338D-01  0.166562D+00  0.188934D+00  0.805406D-01
     25  0.392563D-01  0.698790D-02 -0.681624D-02  0.274315D-01 -0.827685D-03
     26 -0.512496D-02 -0.118003D-01  0.204364D-03 -0.848382D-02 -0.560828D-02
     27 -0.113246D-01 -0.397460D-03 -0.129129D-01 -0.942614D-02  0.296353D-03
     28  0.169334D-01  0.196284D-01 -0.799737D-02  0.222410D-02  0.324609D-02
     29  0.334848D-01  0.637692D-02 -0.919062D-02  0.147593D-01 -0.172176D-02
     30 -0.167469D-01 -0.111643D-01 -0.100609D-01 -0.120960D-01 -0.448250D-02
     31  0.169342D-01  0.101904D-01  0.663125D-02  0.163532D-01  0.483613D-02
     32  0.132634D-01 -0.311890D-02  0.368751D-02  0.857004D-02 -0.456765D-02
     33  0.126810D-01  0.472369D-02 -0.350045D-02  0.868632D-02  0.172485D-02
     34  0.186571D-01 -0.169242D-01  0.261299D-01  0.479247D-01 -0.283639D-01
     35 -0.244023D-01 -0.836613D-02 -0.147156D-01 -0.404604D-01  0.171495D-02
     36  0.163612D-01 -0.260813D-02 -0.110409D-01  0.158609D-01 -0.535577D-02
     37 -0.521897D-01  0.146244D-02  0.148182D-01 -0.186458D-01 -0.777820D-02
     38 -0.153837D-01 -0.595956D-01 -0.330922D-01 -0.298439D-01 -0.207662D-01
     39  0.662943D-01 -0.231453D-01  0.632866D-01  0.392710D-01 -0.200752D-01
     40  0.149325D-01  0.100468D-01  0.348132D-01  0.224138D-01 -0.146455D-02
     41  0.896456D-02 -0.145710D-01  0.123900D-01  0.359381D-02 -0.109658D-01
     42  0.397085D-01  0.105262D-01  0.218973D-01  0.272908D-01 -0.151687D-02
     43 -0.438909D+01  0.609479D+00  0.189139D+00  0.261953D+00  0.247052D+00
     44  0.492122D+00 -0.176035D+01  0.961329D+00  0.335502D+00 -0.336265D+00
     45  0.150650D+00  0.992051D+00 -0.415479D+01  0.141299D+00 -0.328464D+00
     46 -0.361147D+00  0.958597D-01  0.200654D+00 -0.228737D+01  0.109945D+01
     47  0.612895D-01  0.247830D+00 -0.110864D-01  0.109751D+01 -0.375097D+01
     48  0.188188D+00 -0.111685D-01  0.147109D+00 -0.443803D+00 -0.228950D+00
     49 -0.196995D-01 -0.196321D-01  0.267851D-02  0.104270D+00 -0.474040D-02
     50 -0.999481D-01 -0.640733D-01 -0.713083D-01 -0.176759D+00  0.986759D-01
     51 -0.237402D-01 -0.781416D-01 -0.525094D-01 -0.355764D-01  0.177285D-02
               21            22            23            24            25 
     21  0.226106D+02
     22  0.181916D+00  0.380717D+01
     23  0.974459D-01  0.123217D+01  0.192875D+01
     24 -0.918145D-01  0.678416D+00 -0.122986D+01  0.437667D+01
     25 -0.847490D-02  0.669586D-01 -0.718369D-01 -0.590868D-01  0.269028D+01
     26  0.279565D-02 -0.562920D-01  0.444587D-02  0.316234D-01  0.102552D+01
     27 -0.468413D-02 -0.535327D-01  0.374981D-01 -0.590809D-04  0.688432D+00
     28 -0.482246D-02 -0.302844D-01 -0.683367D-02  0.719855D-01  0.503107D-01
     29 -0.771712D-02 -0.146499D-01  0.353477D-01  0.141277D-01  0.126457D+00
     30 -0.721220D-03  0.635900D-01  0.968995D-02 -0.242768D-01 -0.280252D-01
     31  0.826203D-03 -0.860449D-02 -0.625044D-02 -0.169081D-02  0.134289D+00
     32 -0.135130D-03  0.122067D-02  0.166472D-03 -0.688965D-04 -0.279166D-02
     33 -0.557753D-02  0.462726D-02 -0.371683D-02  0.185831D-02  0.855618D-02
     34  0.121340D-01 -0.773820D-02 -0.811600D-01  0.749584D-02 -0.584542D-02
     35 -0.654285D-02 -0.732363D-01  0.142022D+00 -0.149463D-01  0.256159D-01
     36 -0.127274D-01  0.119842D-01 -0.296947D-01 -0.403620D-01 -0.196637D-01
     37 -0.640207D-03  0.362803D-01 -0.111608D-01  0.942759D-02  0.556110D-02
     38 -0.175323D-01 -0.212599D-01 -0.716706D-01  0.521082D-01  0.179860D-02
     39 -0.183115D-01  0.125161D-01  0.646083D-01  0.793214D-02 -0.388620D-02
     40  0.179065D-01  0.259832D-02 -0.928446D-02  0.224225D-02 -0.389950D-02
     41  0.705043D-03 -0.155250D-02 -0.192624D-03 -0.196675D-02 -0.166163D-02
     42  0.393142D-02  0.842255D-02 -0.121998D-01 -0.663227D-03 -0.144006D-01
     43  0.101289D+00 -0.513752D-02 -0.217612D-01 -0.117484D-01  0.234808D-02
     44 -0.306988D+00 -0.266548D-01 -0.265458D-01 -0.190560D-01  0.639206D-02
     45  0.176662D+00 -0.126120D-01 -0.166526D-01 -0.332064D-03  0.224455D-02
     46 -0.484060D+00 -0.871526D-02  0.194607D-02  0.338881D-03  0.502126D-02
     47 -0.246223D+00 -0.490905D-02  0.256674D-02  0.619020D-03  0.208053D-02
     48 -0.423112D+01 -0.124743D-03 -0.124045D-02 -0.292447D-03 -0.124251D-02
     49  0.460889D-02  0.314685D-01 -0.214044D-01  0.217555D-02 -0.408430D-02
     50  0.344293D-01 -0.168434D-01 -0.757153D-02 -0.179740D-02 -0.431517D-02
     51  0.167751D+00  0.904865D-02 -0.428453D-03 -0.740031D-02  0.891746D-03
               26            27            28            29            30 
     26  0.285834D+01
     27 -0.656646D+00  0.347047D+01
     28  0.101181D+00 -0.302674D-01  0.388171D+01
     29 -0.154879D+00  0.578021D-01 -0.152578D+00  0.257780D+01
     30  0.411159D-01  0.107875D+00  0.222531D-01  0.129940D+01  0.282216D+01
     31 -0.156332D-01 -0.493164D-02  0.502220D-01  0.363847D-01 -0.141004D+00
[...]
   xx         0.618698D+02      0.916816D+01      0.102010D+02
   yx         0.646250D+01      0.957643D+00      0.106552D+01
   yy         0.603756D+02      0.894673D+01      0.995458D+01
   zx         0.101555D+02      0.150489D+01      0.167441D+01
   zy        -0.239232D+01     -0.354505D+00     -0.394440D+00
   zz         0.837453D+02      0.124098D+02      0.138077D+02

 ----------------------------------------------------------------------

 Test job not archived.
 1\1\GINC-C2001\Freq\RM062X\CC-pVTZ\C5H10O2\HARMS.N\27-Sep-2019\0\\#P G
 eom=AllCheck Guess=TCheck SCRF=Check Test GenChk RM062X/CC-pVTZ Freq\\
 Gaussian input prepared by ASE\\0,1\O,3.4290784076,-1.5376260803,3.056
 6873477\O,2.8790898279,1.1403576923,2.8123328941\C,3.203533998,-2.7787
 98706,3.7305909213\C,4.1748878212,-2.8187823914,4.8912810421\C,3.40684
 65006,-3.9449387165,2.7780951493\C,2.4032532943,-1.1094064825,2.252562
 0504\C,2.1738590346,0.1921082563,2.1446864965\H,2.1756348574,-2.779618
 9242,4.108355076\H,5.1971153477,-2.7629322851,4.5160038791\H,4.0046263
 605,-1.9792160533,5.5630209445\H,4.0605942043,-3.7458415344,5.45171805
 86\H,4.4288586627,-3.9330784405,2.3986280754\H,2.7244341168,-3.8980768
 136,1.930515899\H,3.2364212211,-4.8888957182,3.2954274221\H,1.83565790
 1,-1.8462976388,1.7026093672\H,1.4117258334,0.5903716974,1.4937274644\
 H,3.5364065204,0.6811676541,3.3491712389\\Version=EM64L-G16RevA.03\Sta
 te=1-A\HF=-346.9479196\RMSD=1.242e-09\RMSF=8.028e-07\ZeroPoint=0.14753
 52\Thermal=0.1560271\Dipole=-0.1049384,-0.9283849,0.2293426\DipoleDeri
 v=-0.6417248,0.5524869,-0.3488963,0.2549504,-1.2676474,0.359156,-0.360
 2237,0.6747321,-0.7143236,-0.4648395,-0.5953098,-0.1326307,-0.1319238,
 -1.0110239,-0.1169972,-0.1300023,-0.5458093,-0.4387724,0.2905587,0.041
 2442,-0.0107463,-0.171817,1.0553841,-0.2577686,0.0822767,-0.2314964,0.
 5765911,0.0285726,0.0236048,-0.0862368,0.0132117,-0.0017578,-0.018309,
 -0.0820922,0.0235383,-0.0428391,0.0634173,-0.0034016,-0.0015229,0.0445
 369,-0.1124299,-0.0280396,-0.0204758,-0.1139573,-0.0558873,0.3454564,-
 0.6351602,0.4839568,-0.2692638,0.1590342,-0.1490399,0.394401,-0.394445
 7,0.1712817,0.1677058,0.5190437,0.2140465,0.2107784,0.863077,0.1951411
 ,0.2533191,0.5280986,0.10609,-0.1359892,-0.0488184,0.0796096,0.0617735
 ,-0.0388804,-0.0055354,0.0147095,-0.000861,-0.0281256,-0.0827242,0.001
 9849,0.0184901,-0.0130085,0.0713975,-0.0064449,0.0876026,0.0020494,0.0
 171247,0.0450007,0.0293567,0.003355,0.0082272,-0.0389902,-0.1154018,-0
 .0069136,-0.0769376,-0.0176452,0.0485111,-0.0217629,0.0031106,-0.00610
 11,-0.0764311,0.096579,-0.0170702,0.0723534,0.0179646,-0.0881169,0.023
 1727,0.0638542,-0.0376984,0.0537314,-0.0020459,0.0308658,-0.0205814,0.
 0438426,-0.0133695,0.0101321,-0.0955741,0.0171216,0.0725,-0.0005212,-0
 .086496,-0.0177813,-0.0698479,0.0639172,-0.0134905,0.0184126,-0.002950
 9,-0.0914769,0.0614613,0.0259359,0.0936823,0.0159042,0.0426734,0.03995
 06,-0.1085808,-0.0504801,0.0124014,-0.0577828,-0.0751149,-0.0455695,0.
 0746509,0.0504044,-0.0007032,-0.0884171,0.0231353,0.0445463,0.0196713,
 -0.0968843,0.0024762,0.0660336,0.2805467,0.07767,-0.0122303,0.0495087,
 0.3065656,0.0258776,-0.0138376,0.050509,0.2779575\Polar=58.792628,-5.7
 752753,84.6885842,8.2475577,-4.9338145,62.5094501\Quadrupole=1.0053106
 ,-2.2310339,1.2257234,0.4751377,2.1201746,0.0500321\PG=C01 [X(C5H10O2)
 ]\NImag=0\\0.31733740,-0.02325781,0.37803327,0.14777006,-0.16845181,0.
 25353605,0.00850324,-0.00150886,0.01175429,0.38628920,0.00358059,0.000
 39324,0.00598149,-0.04688406,0.42228180,0.01351043,-0.00074087,0.00361
 132,0.29944134,-0.01604891,0.28940756,-0.09235311,-0.04966187,0.014122
 79,0.00057189,0.00023371,0.00050502,0.62201009,-0.02630927,-0.17138965
 ,0.05536235,0.00434479,0.00463308,0.00385727,-0.00756331,0.46201284,-0
 .00117354,0.04670784,-0.09073028,0.00139167,-0.00254108,-0.00028135,-0
 .01456894,0.01740627,0.51153327,0.00535492,0.00053215,0.00274165,-0.00
 010780,0.00013217,0.00027472,-0.14329297,0.00202424,-0.06865088,0.5393
 1066,0.02611480,-0.01481113,0.03747538,-0.00092408,-0.00070240,-0.0007
 2920,-0.00658056,-0.07332157,-0.01034221,0.00158909,0.59616531,-0.0163
 1060,0.01295208,-0.02270053,0.00004925,-0.00006725,-0.00028326,-0.0595
 4932,-0.00190017,-0.14961328,-0.04565039,0.00231723,0.53678396,0.00389
 535,-0.00795986,-0.00299471,-0.00022939,-0.00046880,-0.00009708,-0.088
 40327,0.01976549,0.01539799,0.00311821,-0.01798607,-0.01679691,0.58030
 535,0.00216629,-0.04822799,-0.00829781,0.00018300,-0.00068294,0.000144
 62,0.01541359,-0.13400986,-0.05839885,-0.00244822,0.00152540,-0.006048
 45,0.01578044,0.52439447,-0.00367928,0.02294940,0.01020763,-0.00052425
 ,0.00019626,-0.00003418,0.01226185,-0.06596882,-0.13653513,0.00208146,
 -0.02367370,-0.02302349,0.01278032,-0.04884740,0.55212129,-0.20346040,
 0.04734869,-0.12524363,-0.00493071,-0.04180714,-0.01744517,0.00179439,
 0.01650486,-0.00442882,-0.00046764,-0.00333420,0.00142103,0.00042870,-
 0.00186939,0.00376880,0.41051591,0.02567324,-0.11844517,0.04124464,-0.
 01099629,-0.04603732,-0.01525379,0.03232447,-0.01718279,0.02506104,-0.
 00019207,-0.00399160,0.00114432,0.00023129,-0.00076601,0.00038740,-0.0
 1489197,0.93004089,-0.10602821,0.04667585,-0.12385269,-0.01625968,-0.0
 3904782,-0.00057161,-0.01336200,0.01933532,-0.02514507,-0.00010072,0.0
 0263404,-0.00113861,0.00001988,-0.00331278,0.00393210,0.25218909,0.019
 38596,0.33090971,-0.02489705,0.05020320,-0.02863883,-0.14188519,-0.059
 93867,-0.08885800,-0.00480707,-0.00956486,0.00074560,0.00074447,0.0022
 6592,-0.00052060,0.00011016,0.00030542,-0.00059472,-0.08932556,0.06603
 786,-0.02602585,0.46930518,0.00985424,-0.01670725,0.00551525,-0.100215
 04,-0.22590442,-0.09535086,-0.00077147,-0.00132530,-0.00192608,-0.0005
 7247,0.00084995,0.00008647,0.00003760,-0.00010660,0.00038635,0.0934919
 8,-0.54247338,0.04905825,-0.09495199,0.88862011,-0.02646526,0.03829484
 ,-0.01017705,-0.09024046,-0.06271238,-0.12563836,-0.00518986,-0.005884
 93,-0.00003413,0.00016533,0.00188238,-0.00030250,0.00008053,0.00015839
 ,-0.00074581,-0.02660511,0.03046635,-0.07780028,0.29712708,-0.03617941
 ,0.37788660,-0.00344559,-0.00683089,0.00497504,-0.00034231,-0.00029101
 ,-0.00058133,-0.27278134,0.00504309,0.07942808,-0.01970342,0.00087900,
 0.00541241,-0.00298099,0.00085324,0.00108671,0.00103090,0.00020286,-0.
 00254974,0.00124375,0.00030414,0.00104001,0.29537152,-0.03127319,-0.01
 715511,0.02268378,0.00006142,-0.00005450,0.00019103,0.01180777,-0.0491
 2573,-0.00500027,0.00060562,0.00102249,-0.00136839,0.02492432,0.000103
 84,-0.01011473,-0.00464315,0.00319320,-0.00301675,0.00069579,-0.000968
 78,-0.00044409,-0.00170969,0.06386516,0.01575857,0.01316436,-0.0108542
 4,-0.00018155,-0.00030623,-0.00040137,0.07595629,-0.00481785,-0.079460
 93,-0.02644604,-0.00035217,0.00890540,0.02110028,-0.00318126,-0.007343
 25,0.00334769,-0.00101699,0.00227872,-0.00057249,0.00089314,-0.0000356
 3,-0.08660646,-0.00167186,0.09053444,0.00209092,-0.00018944,0.00060441
 ,0.00014706,0.00014223,0.00007074,-0.02515518,-0.00179485,0.00806232,-
 0.28076861,-0.01281373,0.08869822,0.00102706,0.00059671,0.00120691,0.0
 0042756,0.00024805,-0.00011384,0.00000264,-0.00020053,-0.00004822,-0.0
 0118863,0.00017515,-0.00415802,0.30762501,0.00016839,0.00056874,-0.000
 66546,-0.00008519,-0.00001330,0.00000361,0.00119452,-0.00118182,0.0004
 4884,-0.01327443,-0.04811890,0.00375266,-0.00078665,-0.00020124,0.0003
 8918,0.00018759,-0.00025591,0.00013396,-0.00004895,0.00007877,-0.00001
 555,0.00016096,0.00066905,0.00014101,0.01468151,0.04668447,0.00158076,
 -0.00149171,0.00186367,-0.00003259,0.00002455,0.00006563,-0.02714799,-
 0.00176501,0.00841150,0.09092468,0.00439918,-0.08095250,-0.00059940,0.
 00077464,0.00192838,-0.00020915,0.00007099,-0.00027379,0.00018976,-0.0
 0008858,0.00006235,-0.00334058,0.00038753,-0.00376780,-0.09491754,-0.0
 0422381,0.08598602,0.00058400,-0.00039682,0.00192817,-0.00014254,-0.00
 008778,-0.00003516,0.00341580,-0.01932775,-0.01450737,-0.05564316,0.03
 663759,0.02897974,-0.00272827,0.00109018,-0.00330276,-0.00022549,-0.00
 018057,0.00006568,0.00010392,0.00016278,0.00009144,0.00085722,-0.00043
 342,0.00089282,-0.00367113,0.02432789,0.01771720,0.05734163,-0.0000505
 8,0.00145128,0.00014012,0.00004648,0.00008325,0.00000468,-0.00016850,-
 0.00073923,0.00230485,0.03465018,-0.21059731,-0.13022938,-0.00072480,0
 .00061860,0.00007901,0.00009763,0.00009358,0.00008207,-0.00006950,-0.0
 0001244,-0.00007671,-0.00050553,0.00019200,-0.00017252,-0.00031786,0.0
 0211026,0.00256283,-0.03802160,0.22546293,0.00093015,0.00000986,0.0025
 2248,0.00014446,0.00009746,0.00031625,0.00553810,-0.02078720,-0.016708
 70,0.02772184,-0.12788626,-0.14866977,-0.00417848,0.00158762,-0.003460
 09,-0.00024506,0.00026410,-0.00005422,-0.00010349,-0.00024844,-0.00015
 016,0.00013008,0.00049183,0.00106844,0.00104735,-0.00801384,-0.0069920
 9,-0.02770863,0.14222755,0.16072302,-0.00328470,0.00159028,-0.00506518
 ,0.00028188,0.00021427,0.00014076,0.00376387,0.01857162,-0.00789966,-0
 .05047220,-0.02693234,0.01489995,0.00043323,0.00008999,0.00048974,0.00
 117945,0.00066026,-0.00054878,-0.00053812,-0.00016809,-0.00037594,0.00
 022489,0.00001794,0.00107452,-0.00139836,-0.02658205,0.01494032,-0.000
 73679,0.00467178,-0.00334453,0.05079351,0.00104315,0.00080646,0.000477
 55,-0.00002456,-0.00010684,0.00003323,-0.00055421,-0.00200138,-0.00129
 765,-0.02534236,-0.24449662,0.11945599,-0.00031936,-0.00026071,-0.0003
 5782,-0.00060356,0.00067303,-0.00022769,0.00005576,-0.00000651,0.00002
 832,0.00041326,0.00014615,0.00020517,-0.00002127,-0.00035956,-0.000727
 84,-0.00302760,-0.01911464,0.01333990,0.02813820,0.26398694,-0.0053995
 7,0.00181776,-0.00470353,0.00027866,0.00027348,0.00026155,0.00792950,0
 .02027349,-0.00998646,0.01375699,0.11682570,-0.11869018,0.00065979,0.0
 0033746,0.00068436,0.00122227,0.00076349,0.00000466,-0.00067203,-0.000
 25918,-0.00062089,-0.00021045,-0.00021545,0.00081410,0.00024233,0.0085
 2843,-0.00620844,-0.00276049,-0.01706923,0.01193821,-0.01433784,-0.130
 41421,0.12684678,0.00111316,0.00038963,-0.00119895,0.00008543,0.000165
 12,0.00007255,-0.00649064,-0.00008235,0.00280986,0.00107632,-0.0002945
 2,-0.00073649,-0.28523967,-0.00489409,0.08601648,-0.00030404,0.0000974
 6,-0.00015942,0.00007307,-0.00011275,0.00001778,0.00132071,0.00071674,
 0.00036480,0.00048483,-0.00011132,0.00045996,0.00022368,0.00005136,-0.
 00013124,-0.00000631,0.00015367,0.00000063,0.30821821,-0.00098991,0.00
 314559,0.00083057,-0.00001468,0.00003994,0.00003735,0.02675476,-0.0015
 8745,-0.01128922,0.00076229,0.00075435,0.00133451,-0.00617895,-0.04622
 654,0.00310762,0.00040067,-0.00028687,0.00051696,-0.00015534,0.0000591
 7,-0.00009675,0.00041718,-0.00375742,-0.00348028,-0.00067912,0.0001743
 2,-0.00006398,-0.00005100,-0.00002277,0.00029649,-0.00016471,0.0000137
 6,0.00001511,0.00464453,0.04793163,-0.00145461,0.00101802,0.00156577,-
 0.00002882,-0.00000626,-0.00002706,0.02247920,0.00090291,-0.01011658,0
 .00123900,0.00078914,0.00094155,0.08509547,0.00159896,-0.07832354,-0.0
 0050394,0.00010785,-0.00033035,0.00010065,0.00014913,0.00004676,-0.000
 10962,-0.00372397,-0.00198725,-0.00071700,-0.00036568,-0.00028871,-0.0
 0037316,0.00011928,0.00030558,0.00003014,0.00000946,-0.00007565,-0.095
 46327,0.00132920,0.08401273,-0.00020531,-0.00076684,-0.00027790,0.0001
 6778,0.00018958,0.00000831,0.00343788,-0.00139264,0.00555659,0.0006158
 1,0.00064755,0.00035684,-0.15638645,0.00938019,-0.13256211,-0.00063445
 ,0.00021060,-0.00026868,0.00008002,-0.00011378,0.00023966,0.00048368,-
 0.00080852,-0.00016543,0.00046680,0.00022952,0.00024905,0.00050216,0.0
 0025154,0.00004391,-0.00014472,0.00016843,-0.00003721,-0.01758097,0.00
 222113,-0.02408082,0.16582696,0.00019711,0.00254599,0.00158148,0.00022
 167,0.00051012,0.00033493,-0.01869135,0.00224486,-0.02028790,0.0015910
 8,-0.00435433,-0.00259425,0.00964550,-0.04764448,0.01152841,-0.0000416
 9,-0.00082544,-0.00026582,0.00007250,-0.00043628,0.00003523,0.00021538
 ,0.00082900,0.00104050,0.00017714,-0.00006826,0.00017274,-0.00091090,0
 .00013168,-0.00141638,0.00010729,0.00026432,-0.00019848,-0.00069728,-0
 .00112970,-0.00082720,-0.01186082,0.05035205,0.00079743,0.00048498,0.0
 0139653,0.00020874,0.00041177,0.00019349,-0.01374463,0.00399233,-0.016
 69668,0.00195253,-0.00409120,-0.00168381,-0.13199207,0.00975049,-0.209
 10587,-0.00096179,0.00023963,-0.00050914,0.00032687,-0.00025185,0.0002
 8788,0.00025111,0.00036355,0.00046529,-0.00010378,-0.00000622,0.000081
 58,-0.00115720,-0.00014149,-0.00085726,0.00022204,-0.00002463,0.000395
 56,0.00739535,-0.00073710,0.00995856,0.14568206,-0.01035665,0.22690737
 ,0.00111998,0.00144252,0.00020021,0.00006472,0.00020297,0.00001029,-0.
 00131274,0.00392968,-0.00298394,-0.00006605,-0.00014920,-0.00005215,-0
 .05312029,-0.03679858,0.02126165,0.00003108,-0.00003306,-0.00006572,0.
 00013664,-0.00009957,0.00015219,-0.00009245,-0.00035690,-0.00026852,0.
 00001912,-0.00012377,0.00006456,-0.00012273,0.00013219,-0.00003451,0.0
 0017663,-0.00018749,-0.00039583,-0.00291791,-0.02698283,0.01369644,0.0
 0312745,0.01894956,-0.00905149,0.05278603,0.00177975,-0.00718999,-0.00
 254166,-0.00004033,-0.00035250,-0.00012984,-0.00527537,-0.01756399,0.0
 1591521,-0.00006865,0.00063505,0.00114738,-0.03653081,-0.24878244,0.11
 061143,-0.00184494,0.00057603,-0.00161940,0.00039116,-0.00000745,0.000
 38423,0.00069330,0.00068844,-0.00016437,0.00006365,-0.00003782,-0.0001
 0437,0.00026646,0.00035390,-0.00013322,-0.00023013,0.00038510,-0.00074
 881,0.00005479,0.00086489,-0.00103394,0.00036435,-0.00050999,0.0000327
 8,0.04024200,0.27046137,0.00025466,-0.00663619,-0.00080187,0.00020035,
 0.00012156,0.00012142,-0.00444293,-0.01513443,0.01085669,-0.00016260,0
 .00037245,0.00027693,0.02147887,0.11302263,-0.10984879,-0.00098696,-0.
 00004589,-0.00088114,0.00019656,-0.00025738,0.00025130,0.00035263,0.00
 092982,0.00059824,-0.00010029,-0.00000799,-0.00002484,0.00014180,0.000
 12112,0.00023660,-0.00022273,-0.00048609,-0.00047267,0.00032273,0.0084
 1823,-0.00575406,0.00521268,0.02126925,-0.01144777,-0.02261948,-0.1218
 5289,0.11675851,-0.01795022,-0.01236882,-0.01858671,0.00618083,0.00336
 296,-0.00416280,0.00001337,-0.00356325,0.00170731,0.00011444,0.0005806
 3,-0.00008884,-0.00028377,0.00005872,-0.00034790,-0.11752789,-0.101193
 75,-0.08647037,0.00394923,0.00347690,0.00448537,0.00030079,0.00036623,
 -0.00011690,0.00006057,-0.00009292,0.00006595,0.00006771,0.00001005,0.
 00019558,-0.00008484,0.00013425,-0.00017162,0.00000006,-0.00004271,0.0
 0005805,0.00030595,0.00107603,0.00024931,0.00023353,0.00009211,0.00039
 856,0.12717262,0.00862031,0.01107834,0.00714957,0.00245217,-0.00365821
 ,0.00167421,-0.00005371,0.00146658,0.00100218,0.00003511,-0.00014016,-
 0.00002758,0.00047432,-0.00023750,-0.00029779,-0.10313276,-0.20097992,
 -0.10193227,-0.01809838,-0.01212030,-0.01762686,0.00013213,-0.00002782
 ,-0.00001532,-0.00007984,0.00001333,0.00005324,-0.00002856,0.00000676,
 -0.00005866,-0.00002733,-0.00006914,0.00000064,-0.00006247,0.00007410,
 -0.00006674,0.00124027,-0.00187471,0.00030365,-0.00014446,0.00026282,0
 .00004952,0.10779616,0.20608200,-0.01456956,-0.00696013,-0.01283053,-0
 .00575065,0.00097649,0.00636786,-0.00139651,-0.00390367,0.00197228,0.0
 0037513,0.00036214,-0.00033563,0.00006855,0.00037993,-0.00013376,-0.08
 714355,-0.10316075,-0.10987519,0.00459148,0.00270861,0.00347981,0.0003
 7304,0.00028269,-0.00078022,0.00020052,-0.00006003,0.00012211,-0.00000
 260,0.00002904,0.00013014,-0.00004541,0.00009971,-0.00010657,0.0002131
 5,-0.00014514,0.00006602,0.00005152,0.00013304,0.00071698,0.00008240,0
 .00010644,0.00010599,0.10047990,0.10879585,0.11408740,0.00744615,-0.00
 003193,-0.00251417,-0.01413501,0.00266799,-0.01336214,-0.00032622,0.00
 024514,-0.00126126,0.00009564,0.00027635,-0.00009957,0.00001353,-0.000
 06746,0.00011334,-0.00148848,0.00035778,-0.00203041,-0.19090524,0.0821
 4495,-0.13312834,-0.00021922,0.00002097,-0.00003594,-0.00002677,-0.000
 00740,0.00000663,0.00000023,-0.00001023,0.00001875,-0.00008057,0.00000
 735,-0.00005137,-0.00001182,0.00002725,0.00000399,-0.00002086,0.000026
 05,0.00001145,-0.00002565,-0.00003584,-0.00000794,-0.00181960,0.000285
 56,0.00230864,0.20065602,-0.00054529,-0.00573264,0.00041090,-0.0220069
 5,0.01062379,-0.01867448,0.00144063,0.00068882,-0.00060182,-0.00015467
 ,-0.00040869,0.00014293,-0.00001911,-0.00022828,0.00024501,0.02083184,
 -0.00073296,0.01798135,0.08702866,-0.10507537,0.07163241,-0.00010449,-
 0.00005282,0.00006755,-0.00001787,0.00001212,-0.00003838,-0.00000931,0
 .00002096,0.00000210,0.00007097,-0.00000066,0.00012714,-0.00000205,0.0
 0002243,-0.00000123,-0.00000757,0.00000413,-0.00003001,-0.00000005,-0.
 00009607,-0.00006611,-0.00055490,-0.00018044,-0.00002938,-0.08289950,0
 .10434747,-0.00567007,-0.00073837,0.00452345,-0.01390752,0.00327999,-0
 .01073803,0.00020990,-0.00030091,0.00176065,-0.00009879,-0.00035208,0.
 00010736,-0.00000964,0.00013592,-0.00017979,0.00072662,-0.00105694,0.0
 0117913,-0.13393705,0.06917260,-0.14818578,0.00022220,-0.00001901,0.00
 001957,0.00003724,-0.00000702,-0.00000896,-0.00001558,0.00000161,0.000
 01988,0.00010133,-0.00000010,0.00007852,0.00001137,-0.00003158,-0.0000
 1592,0.00003302,-0.00002879,-0.00000110,0.00002654,0.00004940,0.000032
 30,0.00235315,0.00048654,-0.00239580,0.15143301,-0.06818521,0.15333024
 ,-0.00184874,0.00146664,0.00042347,-0.24051907,0.13858586,-0.18949249,
 -0.00008475,-0.00083064,0.00037497,0.00009136,0.00002375,-0.00001254,0
 .00004049,0.00015999,-0.00005624,0.00295666,0.00144385,0.00170877,-0.0
 2339086,0.00773311,-0.02134621,-0.00007953,-0.00016706,0.00005636,-0.0
 0014290,0.00016231,0.00004838,0.00017374,-0.00004260,-0.00002428,-0.00
 010687,-0.00003366,-0.00005377,-0.00004411,0.00003144,0.00002829,-0.00
 004171,-0.00007728,-0.00008591,-0.00003736,0.00007848,-0.00001590,-0.0
 0073276,0.00059147,0.00016395,0.00084786,-0.00305035,-0.00151571,0.262
 91855,0.00322816,0.00163603,0.00110366,0.17539052,-0.16105281,0.140647
 01,0.00015091,-0.00161740,0.00283884,0.00013094,-0.00000985,-0.0000981
 1,0.00011546,0.00073228,-0.00061982,-0.00669448,-0.00259935,-0.0063812
 4,-0.02422857,0.01553608,-0.01984546,0.00012706,0.00043286,-0.00033287
 ,0.00003006,-0.00007427,0.00005800,-0.00000960,-0.00003883,0.00022708,
 -0.00002794,0.00014029,-0.00005735,-0.00001646,-0.00006944,0.00000106,
 0.00004702,-0.00003897,0.00005996,-0.00002301,0.00031265,0.00018238,0.
 00086230,0.00030427,0.00038516,-0.00300703,-0.00321179,-0.00240605,-0.
 14607532,0.14961825,0.00014865,0.00094409,-0.00257619,-0.18654325,0.10
 936686,-0.16236986,0.00039954,-0.00066692,0.00077420,-0.00012390,0.000
 36917,0.00037836,-0.00001339,0.00019588,-0.00014007,0.00109770,0.00139
 859,0.00212779,-0.02335495,0.00659198,-0.01832412,0.00012687,0.0002442
 8,-0.00005352,-0.00001136,-0.00003208,-0.00000411,0.00004610,0.0000171
 6,-0.00036832,-0.00005873,-0.00011332,-0.00015936,0.00000471,-0.000041
 99,0.00002214,-0.00004150,-0.00012014,-0.00010161,-0.00002265,0.000081
 62,-0.00000682,-0.00004803,0.00050984,-0.00059089,-0.00140467,-0.00298
 275,0.00047428,0.20979886,-0.11576226,0.18091808\\-0.00000008,0.000000
 02,0.00000012,-0.00000067,-0.00000020,-0.00000019,-0.00000013,0.000000
 19,-0.00000005,-0.00000121,0.00000035,0.00000081,0.00000109,0.00000008
 ,0.00000021,0.00000071,-0.00000027,-0.00000054,0.00000031,-0.00000039,
 -0.00000089,-0.00000056,-0.00000029,-0.00000091,-0.00000088,0.00000067
 ,0.00000172,-0.00000203,0.00000026,0.00000071,-0.00000135,0.00000027,0
 .00000075,0.00000133,0.00000041,0.00000105,0.00000174,-0.00000012,-0.0
 0000046,0.00000090,0.,0.00000005,0.00000119,-0.00000050,-0.00000113,0.
 00000062,-0.00000061,-0.00000155,-0.00000100,0.00000012,0.00000030\\\@


 You never know when you're making a memory.
                        -- Rickie Lee Jones
 Job cpu time:       0 days  3 hours 18 minutes 23.1 seconds.
 Elapsed time:       0 days  1 hours 39 minutes 45.7 seconds.
 File lengths (MBytes):  RWF=   1392 Int=      0 D2E=      0 Chk=     32 Scr=     32
 Normal termination of Gaussian 16 at Fri Sep 27 04:13:39 2019.
