 Entering Gaussian System, Link 0=g16
 Input=tight/species/CC(C)OC=CO/conformers/CC(C)OC=CO_39.com
 Output=tight/species/CC(C)OC=CO/conformers/CC(C)OC=CO_39.log
 Initial command:
 /shared/centos7/gaussian/g16/l1.exe "/scratch/harms.n/gauss_scrdir/Gau-4254.inp" -scrdir="/scratch/harms.n/gauss_scrdir/"
 Entering Link 1 = /shared/centos7/gaussian/g16/l1.exe PID=      4255.
  
 Copyright (c) 1988,1990,1992,1993,1995,1998,2003,2009,2016,
            Gaussian, Inc.  All Rights Reserved.
  
 This is part of the Gaussian(R) 16 program.  It is based on
 the Gaussian(R) 09 system (copyright 2009, Gaussian, Inc.),
 the Gaussian(R) 03 system (copyright 2003, Gaussian, Inc.),
 the Gaussian(R) 98 system (copyright 1998, Gaussian, Inc.),
 the Gaussian(R) 94 system (copyright 1995, Gaussian, Inc.),
 the Gaussian 92(TM) system (copyright 1992, Gaussian, Inc.),
 the Gaussian 90(TM) system (copyright 1990, Gaussian, Inc.),
 the Gaussian 88(TM) system (copyright 1988, Gaussian, Inc.),
 the Gaussian 86(TM) system (copyright 1986, Carnegie Mellon
 University), and the Gaussian 82(TM) system (copyright 1983,
 Carnegie Mellon University). Gaussian is a federally registered
 trademark of Gaussian, Inc.
  
 This software contains proprietary and confidential information,
 including trade secrets, belonging to Gaussian, Inc.
  
 This software is provided under written license and may be
 used, copied, transmitted, or stored only in accord with that
 written license.
  
 The following legend is applicable only to US Government
 contracts under FAR:
  
                    RESTRICTED RIGHTS LEGEND
  
 Use, reproduction and disclosure by the US Government is
 subject to restrictions as set forth in subparagraphs (a)
 and (c) of the Commercial Computer Software - Restricted
 Rights clause in FAR 52.227-19.
  
 Gaussian, Inc.
 340 Quinnipiac St., Bldg. 40, Wallingford CT 06492
  
  
 ---------------------------------------------------------------
 Warning -- This program may not be used in any manner that
 competes with the business of Gaussian, Inc. or will provide
 assistance to any competitor of Gaussian, Inc.  The licensee
 of this program is prohibited from giving any competitor of
 Gaussian, Inc. access to this program.  By using this program,
 the user acknowledges that Gaussian, Inc. is engaged in the
 business of creating and licensing software in the field of
 computational chemistry and represents and warrants to the
 licensee that it is not a competitor of Gaussian, Inc. and that
 it will not use this program in any manner prohibited above.
 ---------------------------------------------------------------
  

 Cite this work as:
 Gaussian 16, Revision A.03,
 M. J. Frisch, G. W. Trucks, H. B. Schlegel, G. E. Scuseria, 
 M. A. Robb, J. R. Cheeseman, G. Scalmani, V. Barone, 
 G. A. Petersson, H. Nakatsuji, X. Li, M. Caricato, A. V. Marenich, 
 J. Bloino, B. G. Janesko, R. Gomperts, B. Mennucci, H. P. Hratchian, 
 J. V. Ortiz, A. F. Izmaylov, J. L. Sonnenberg, D. Williams-Young, 
 F. Ding, F. Lipparini, F. Egidi, J. Goings, B. Peng, A. Petrone, 
 T. Henderson, D. Ranasinghe, V. G. Zakrzewski, J. Gao, N. Rega, 
 G. Zheng, W. Liang, M. Hada, M. Ehara, K. Toyota, R. Fukuda, 
 J. Hasegawa, M. Ishida, T. Nakajima, Y. Honda, O. Kitao, H. Nakai, 
 T. Vreven, K. Throssell, J. A. Montgomery, Jr., J. E. Peralta, 
 F. Ogliaro, M. J. Bearpark, J. J. Heyd, E. N. Brothers, K. N. Kudin, 
 V. N. Staroverov, T. A. Keith, R. Kobayashi, J. Normand, 
 K. Raghavachari, A. P. Rendell, J. C. Burant, S. S. Iyengar, 
 J. Tomasi, M. Cossi, J. M. Millam, M. Klene, C. Adamo, R. Cammi, 
 J. W. Ochterski, R. L. Martin, K. Morokuma, O. Farkas, 
 J. B. Foresman, and D. J. Fox, Gaussian, Inc., Wallingford CT, 2016.
 
 ******************************************
 Gaussian 16:  EM64L-G16RevA.03 25-Dec-2016
                26-Sep-2019 
 ******************************************
 %nprocshared=20
 Will use up to   20 processors via shared memory.
 %mem=5GB
 ----------------------------------------------------------------------
 #p m062x/cc-pVTZ opt=(calcfc,maxcycles=900,Tight) freq IOP(7/33=1,2/16
 =3) scf=(maxcycle=900)
 ----------------------------------------------------------------------
 1/6=900,7=10,10=4,18=20,19=15,26=3,38=1/1,3;
 2/9=110,12=2,16=3,17=6,18=5,40=1/2;
 3/5=16,6=1,11=2,25=1,30=1,71=2,74=-55,140=1/1,2,3;
 4//1;
 5/5=2,7=900,38=5/2;
 8/6=4,10=90,11=11/1;
 11/6=1,8=1,9=11,15=111,16=1/1,2,10;
 10/6=1,13=1/2;
 6/7=2,8=2,9=2,10=2,28=1/1;
 7/10=1,18=20,25=1,33=1/1,2,3,16;
 1/6=900,7=10,10=4,18=20,19=15,26=3/3(2);
 2/9=110,16=3/2;
 99//99;
 2/9=110,16=3/2;
 3/5=16,6=1,11=2,25=1,30=1,71=1,74=-55/1,2,3;
 4/5=5,16=3,69=1/1;
 5/5=2,7=900,38=5/2;
 7/33=1/1,2,3,16;
 1/6=900,7=10,18=20,19=15,26=3/3(-5);
 2/9=110,16=3/2;
 6/7=2,8=2,9=2,10=2,19=2,28=1/1;
 99/9=1/99;
 Leave Link    1 at Thu Sep 26 17:07:50 2019, MaxMem=   671088640 cpu:               4.8 elap:               2.4
 (Enter /shared/centos7/gaussian/g16/l101.exe)
 ------------------------------
 Gaussian input prepared by ASE
 ------------------------------
 Symbolic Z-matrix:
 Charge =  0 Multiplicity = 1
 O                     0.09505   1.01613   0.87364 
 O                     2.71342  -1.18039   2.16197 
 C                     0.30355   2.11558   1.73481 
 C                    -0.34753   1.89238   3.09983 
 C                    -0.16644   3.37081   1.07635 
 C                     0.90962  -0.05936   1.14509 
 C                     1.93742  -0.0518    1.94359 
 H                     1.41205   2.217     1.90006 
 H                    -1.10288   1.08044   3.05074 
 H                     0.39985   1.61408   3.86499 
 H                    -0.86544   2.82274   3.45876 
 H                    -1.28997   3.38971   0.95797 
 H                     0.28732   3.48335   0.06962 
 H                     0.12794   4.26608   1.69392 
 H                     0.60496  -0.95192   0.57565 
 H                     2.24457   0.83076   2.48505 
 H                     3.5241   -0.87974   2.66615 
 
 ITRead=  0  0  0  0  0  0  0  0  0  0  0  0  0  0  0  0  0
 MicOpt= -1 -1 -1 -1 -1 -1 -1 -1 -1 -1 -1 -1 -1 -1 -1 -1 -1
 NAtoms=     17 NQM=       17 NQMF=       0 NMMI=      0 NMMIF=      0
                NMic=       0 NMicF=      0.
                    Isotopes and Nuclear Properties:
 (Nuclear quadrupole moments (NQMom) in fm**2, nuclear magnetic moments (NMagM)
  in nuclear magnetons)

  Atom         1           2           3           4           5           6           7           8           9          10
 IAtWgt=          16          16          12          12          12          12          12           1           1           1
 AtmWgt=  15.9949146  15.9949146  12.0000000  12.0000000  12.0000000  12.0000000  12.0000000   1.0078250   1.0078250   1.0078250
 NucSpn=           0           0           0           0           0           0           0           1           1           1
 AtZEff=  -0.0000000  -0.0000000  -0.0000000  -0.0000000  -0.0000000  -0.0000000  -0.0000000  -0.0000000  -0.0000000  -0.0000000
 NQMom=    0.0000000   0.0000000   0.0000000   0.0000000   0.0000000   0.0000000   0.0000000   0.0000000   0.0000000   0.0000000
 NMagM=    0.0000000   0.0000000   0.0000000   0.0000000   0.0000000   0.0000000   0.0000000   2.7928460   2.7928460   2.7928460
 AtZNuc=   8.0000000   8.0000000   6.0000000   6.0000000   6.0000000   6.0000000   6.0000000   1.0000000   1.0000000   1.0000000

  Atom        11          12          13          14          15          16          17
 IAtWgt=           1           1           1           1           1           1           1
 AtmWgt=   1.0078250   1.0078250   1.0078250   1.0078250   1.0078250   1.0078250   1.0078250
 NucSpn=           1           1           1           1           1           1           1
 AtZEff=  -0.0000000  -0.0000000  -0.0000000  -0.0000000  -0.0000000  -0.0000000  -0.0000000
 NQMom=    0.0000000   0.0000000   0.0000000   0.0000000   0.0000000   0.0000000   0.0000000
 NMagM=    2.7928460   2.7928460   2.7928460   2.7928460   2.7928460   2.7928460   2.7928460
 AtZNuc=   1.0000000   1.0000000   1.0000000   1.0000000   1.0000000   1.0000000   1.0000000
 Leave Link  101 at Thu Sep 26 17:07:52 2019, MaxMem=   671088640 cpu:               3.0 elap:               1.5
 (Enter /shared/centos7/gaussian/g16/l103.exe)

 GradGradGradGradGradGradGradGradGradGradGradGradGradGradGradGradGradGrad
 Berny optimization.
 Initialization pass.
                           ----------------------------
                           !    Initial Parameters    !
                           ! (Angstroms and Degrees)  !
 --------------------------                            --------------------------
 ! Name  Definition              Value          Derivative Info.                !
 --------------------------------------------------------------------------------
 ! R1    R(1,3)                  1.412          calculate D2E/DX2 analytically  !
 ! R2    R(1,6)                  1.3762         calculate D2E/DX2 analytically  !
 ! R3    R(2,7)                  1.3869         calculate D2E/DX2 analytically  !
 ! R4    R(2,17)                 1.0009         calculate D2E/DX2 analytically  !
 ! R5    R(3,4)                  1.5287         calculate D2E/DX2 analytically  !
 ! R6    R(3,5)                  1.4933         calculate D2E/DX2 analytically  !
 ! R7    R(3,8)                  1.1253         calculate D2E/DX2 analytically  !
 ! R8    R(4,9)                  1.1101         calculate D2E/DX2 analytically  !
 ! R9    R(4,10)                 1.1052         calculate D2E/DX2 analytically  !
 ! R10   R(4,11)                 1.1237         calculate D2E/DX2 analytically  !
 ! R11   R(5,12)                 1.1299         calculate D2E/DX2 analytically  !
 ! R12   R(5,13)                 1.11           calculate D2E/DX2 analytically  !
 ! R13   R(5,14)                 1.1267         calculate D2E/DX2 analytically  !
 ! R14   R(6,7)                  1.3016         calculate D2E/DX2 analytically  !
 ! R15   R(6,15)                 1.1017         calculate D2E/DX2 analytically  !
 ! R16   R(7,16)                 1.08           calculate D2E/DX2 analytically  !
 ! A1    A(3,1,6)              113.6279         calculate D2E/DX2 analytically  !
 ! A2    A(7,2,17)             106.7419         calculate D2E/DX2 analytically  !
 ! A3    A(1,3,4)              111.5918         calculate D2E/DX2 analytically  !
 ! A4    A(1,3,5)              109.8211         calculate D2E/DX2 analytically  !
 ! A5    A(1,3,8)              107.7693         calculate D2E/DX2 analytically  !
 ! A6    A(4,3,5)              112.482          calculate D2E/DX2 analytically  !
 ! A7    A(4,3,8)              107.5519         calculate D2E/DX2 analytically  !
 ! A8    A(5,3,8)              107.3984         calculate D2E/DX2 analytically  !
 ! A9    A(3,4,9)              110.9227         calculate D2E/DX2 analytically  !
 ! A10   A(3,4,10)             111.5269         calculate D2E/DX2 analytically  !
 ! A11   A(3,4,11)             111.1391         calculate D2E/DX2 analytically  !
 ! A12   A(9,4,10)             107.8533         calculate D2E/DX2 analytically  !
 ! A13   A(9,4,11)             107.8248         calculate D2E/DX2 analytically  !
 ! A14   A(10,4,11)            107.3997         calculate D2E/DX2 analytically  !
 ! A15   A(3,5,12)             111.9134         calculate D2E/DX2 analytically  !
 ! A16   A(3,5,13)             110.8838         calculate D2E/DX2 analytically  !
 ! A17   A(3,5,14)             110.1187         calculate D2E/DX2 analytically  !
 ! A18   A(12,5,13)            108.046          calculate D2E/DX2 analytically  !
 ! A19   A(12,5,14)            107.694          calculate D2E/DX2 analytically  !
 ! A20   A(13,5,14)            108.0435         calculate D2E/DX2 analytically  !
 ! A21   A(1,6,7)              125.724          calculate D2E/DX2 analytically  !
 ! A22   A(1,6,15)             111.5621         calculate D2E/DX2 analytically  !
 ! A23   A(7,6,15)             122.6962         calculate D2E/DX2 analytically  !
 ! A24   A(2,7,6)              122.2557         calculate D2E/DX2 analytically  !
 ! A25   A(2,7,16)             115.2712         calculate D2E/DX2 analytically  !
 ! A26   A(6,7,16)             122.4728         calculate D2E/DX2 analytically  !
 ! D1    D(6,1,3,4)            -77.4144         calculate D2E/DX2 analytically  !
 ! D2    D(6,1,3,5)            157.1493         calculate D2E/DX2 analytically  !
 ! D3    D(6,1,3,8)             40.4518         calculate D2E/DX2 analytically  !
 ! D4    D(3,1,6,7)            -11.3232         calculate D2E/DX2 analytically  !
 ! D5    D(3,1,6,15)           170.1834         calculate D2E/DX2 analytically  !
 ! D6    D(17,2,7,6)           169.6478         calculate D2E/DX2 analytically  !
 ! D7    D(17,2,7,16)          -10.5513         calculate D2E/DX2 analytically  !
 ! D8    D(1,3,4,9)            -17.4855         calculate D2E/DX2 analytically  !
 ! D9    D(1,3,4,10)           102.7557         calculate D2E/DX2 analytically  !
 ! D10   D(1,3,4,11)          -137.4315         calculate D2E/DX2 analytically  !
 ! D11   D(5,3,4,9)            106.4635         calculate D2E/DX2 analytically  !
 ! D12   D(5,3,4,10)          -133.2953         calculate D2E/DX2 analytically  !
 ! D13   D(5,3,4,11)           -13.4825         calculate D2E/DX2 analytically  !
 ! D14   D(8,3,4,9)           -135.4822         calculate D2E/DX2 analytically  !
 ! D15   D(8,3,4,10)           -15.241          calculate D2E/DX2 analytically  !
 ! D16   D(8,3,4,11)           104.5718         calculate D2E/DX2 analytically  !
 ! D17   D(1,3,5,12)            68.191          calculate D2E/DX2 analytically  !
 ! D18   D(1,3,5,13)           -52.5305         calculate D2E/DX2 analytically  !
 ! D19   D(1,3,5,14)          -172.0569         calculate D2E/DX2 analytically  !
 ! D20   D(4,3,5,12)           -56.7342         calculate D2E/DX2 analytically  !
 ! D21   D(4,3,5,13)          -177.4557         calculate D2E/DX2 analytically  !
 ! D22   D(4,3,5,14)            63.0179         calculate D2E/DX2 analytically  !
 ! D23   D(8,3,5,12)          -174.879          calculate D2E/DX2 analytically  !
 ! D24   D(8,3,5,13)            64.3995         calculate D2E/DX2 analytically  !
 ! D25   D(8,3,5,14)           -55.1269         calculate D2E/DX2 analytically  !
 ! D26   D(1,6,7,2)           -179.7964         calculate D2E/DX2 analytically  !
 ! D27   D(1,6,7,16)             0.4169         calculate D2E/DX2 analytically  !
 ! D28   D(15,6,7,2)            -1.4614         calculate D2E/DX2 analytically  !
 ! D29   D(15,6,7,16)          178.752          calculate D2E/DX2 analytically  !
 --------------------------------------------------------------------------------
 Trust Radius=3.00D-01 FncErr=1.00D-07 GrdErr=1.00D-06 EigMax=2.50D+02 EigMin=1.00D-04
 Number of steps in this run=    102 maximum allowed number of steps=    102.
 GradGradGradGradGradGradGradGradGradGradGradGradGradGradGradGradGradGrad

 Leave Link  103 at Thu Sep 26 17:07:53 2019, MaxMem=   671088640 cpu:               1.5 elap:               0.8
 (Enter /shared/centos7/gaussian/g16/l202.exe)
                          Input orientation:                          
 ---------------------------------------------------------------------
 Center     Atomic      Atomic             Coordinates (Angstroms)
 Number     Number       Type             X           Y           Z
 ---------------------------------------------------------------------
      1          8           0        0.095045    1.016131    0.873643
      2          8           0        2.713423   -1.180393    2.161975
      3          6           0        0.303554    2.115581    1.734811
      4          6           0       -0.347529    1.892383    3.099833
      5          6           0       -0.166444    3.370810    1.076351
      6          6           0        0.909617   -0.059362    1.145090
      7          6           0        1.937423   -0.051800    1.943595
      8          1           0        1.412046    2.217002    1.900056
      9          1           0       -1.102876    1.080440    3.050737
     10          1           0        0.399847    1.614075    3.864987
     11          1           0       -0.865442    2.822743    3.458758
     12          1           0       -1.289973    3.389706    0.957975
     13          1           0        0.287323    3.483353    0.069621
     14          1           0        0.127944    4.266080    1.693918
     15          1           0        0.604958   -0.951917    0.575647
     16          1           0        2.244566    0.830756    2.485055
     17          1           0        3.524101   -0.879744    2.666152
 ---------------------------------------------------------------------
                    Distance matrix (angstroms):
                    1          2          3          4          5
     1  O    0.000000
     2  O    3.652454   0.000000
     3  C    1.412047   4.105287   0.000000
     4  C    2.433026   4.437449   1.528729   0.000000
     5  C    2.377811   5.494149   1.493342   2.512573   0.000000
     6  C    1.376189   2.354672   2.333551   3.034921   3.595652
     7  C    2.383197   1.386935   2.722252   3.215235   4.110065
     8  H    2.056722   3.647530   1.125320   2.154286   2.121649
     9  H    2.485737   4.523871   2.186601   1.110050   3.165581
    10  H    3.065711   4.007735   2.190532   1.105209   3.344144
    11  H    3.296848   5.524040   2.199687   1.123668   2.542606
    12  H    2.749408   6.193754   2.183162   2.778081   1.129905
    13  H    2.602039   5.658130   2.154976   3.480863   1.109989
    14  H    3.352030   6.047136   2.158045   2.799484   1.126748
    15  H    2.054756   2.648445   3.293030   3.920305   4.419472
    16  H    2.692852   2.090199   2.445642   2.867744   3.774824
    17  H    4.308811   1.000891   4.495697   4.781452   5.849342
                    6          7          8          9         10
     6  C    0.000000
     7  C    1.301558   0.000000
     8  H    2.450355   2.329244   0.000000
     9  H    2.996793   3.427995   2.990096   0.000000
    10  H    3.233899   2.971705   2.291075   1.790516   0.000000
    11  H    4.100052   4.291243   2.825496   1.805124   1.796345
    12  H    4.095030   4.819906   3.092516   3.122077   3.802509
    13  H    3.754292   4.328038   2.493820   4.073536   4.232217
    14  H    4.429636   4.688352   2.426959   3.674803   3.438110
    15  H    1.101697   2.111150   3.528101   3.629496   4.176859
    16  H    2.090432   1.080011   1.719590   3.404072   2.433267
    17  H    3.134036   1.930059   3.825900   5.039756   4.173404
                   11         12         13         14         15
    11  H    0.000000
    12  H    2.599152   0.000000
    13  H    3.640264   1.812678   0.000000
    14  H    2.486906   1.822123   1.810084   0.000000
    15  H    4.972169   4.752538   4.475329   5.357757   0.000000
    16  H    3.819458   4.623111   4.086733   4.111865   3.084166
    17  H    5.796957   6.657430   6.021239   6.241684   3.591214
                   16         17
    16  H    0.000000
    17  H    2.143786   0.000000
 Stoichiometry    C5H10O2
 Framework group  C1[X(C5H10O2)]
 Deg. of freedom    45
 Full point group                 C1      NOp   1
 Largest Abelian subgroup         C1      NOp   1
 Largest concise Abelian subgroup C1      NOp   1
                         Standard orientation:                         
 ---------------------------------------------------------------------
 Center     Atomic      Atomic             Coordinates (Angstroms)
 Number     Number       Type             X           Y           Z
 ---------------------------------------------------------------------
      1          8           0       -0.414748   -0.895794    0.544680
      2          8           0        2.980299    0.193976   -0.246823
      3          6           0       -1.122654    0.058535   -0.218212
      4          6           0       -1.222820    1.398861    0.510146
      5          6           0       -2.460238   -0.487032   -0.596752
      6          6           0        0.949934   -0.720055    0.519107
      7          6           0        1.598827    0.075752   -0.280694
      8          1           0       -0.548207    0.231748   -1.170238
      9          1           0       -1.007827    1.278861    1.592546
     10          1           0       -0.507809    2.136419    0.102404
     11          1           0       -2.252220    1.838235    0.410573
     12          1           0       -3.137563   -0.602988    0.300171
     13          1           0       -2.359541   -1.480113   -1.082267
     14          1           0       -2.970188    0.206684   -1.323574
     15          1           0        1.455154   -1.365592    1.255157
     16          1           0        1.101150    0.692535   -1.014395
     17          1           0        3.244347    0.722387   -1.054810
 ---------------------------------------------------------------------
 Rotational constants (GHZ):           5.6213512           1.3832241           1.2703049
 Leave Link  202 at Thu Sep 26 17:07:54 2019, MaxMem=   671088640 cpu:               2.8 elap:               1.4
 (Enter /shared/centos7/gaussian/g16/l301.exe)
 Standard basis: CC-pVTZ (5D, 7F)
 Ernie: Thresh=  0.10000D-02 Tol=  0.10000D-05 Strict=F.
 Ernie:  21 primitive shells out of 262 were deleted.
 There are   395 symmetry adapted cartesian basis functions of A   symmetry.
 There are   350 symmetry adapted basis functions of A   symmetry.
   350 basis functions,   534 primitive gaussians,   395 cartesian basis functions
    28 alpha electrons       28 beta electrons
       nuclear repulsion energy       314.6947057881 Hartrees.
 IExCor= 4336 DFT=T Ex+Corr=M062X ExCW=0 ScaHFX=  0.540000
 ScaDFX=  1.000000  1.000000  1.000000  1.000000 ScalE2=  1.000000  1.000000
 IRadAn=      5 IRanWt=     -1 IRanGd=            0 ICorTp=0 IEmpDi=  4
 NAtoms=   17 NActive=   17 NUniq=   17 SFac= 1.00D+00 NAtFMM=   60 NAOKFM=F Big=F
 Integral buffers will be    131072 words long.
 Raffenetti 2 integral format.
 Two-electron integral symmetry is turned on.
 Leave Link  301 at Thu Sep 26 17:07:55 2019, MaxMem=   671088640 cpu:               1.6 elap:               0.8
 (Enter /shared/centos7/gaussian/g16/l302.exe)
 NPDir=0 NMtPBC=     1 NCelOv=     1 NCel=       1 NClECP=     1 NCelD=      1
         NCelK=      1 NCelE2=     1 NClLst=     1 CellRange=     0.0.
 One-electron integrals computed using PRISM.
 One-electron integral symmetry used in STVInt
 NBasis=   350 RedAO= T EigKep=  3.17D-04  NBF=   350
 NBsUse=   350 1.00D-06 EigRej= -1.00D+00 NBFU=   350
 Precomputing XC quadrature grid using
 IXCGrd= 4 IRadAn=           5 IRanWt=          -1 IRanGd=           0 AccXCQ= 0.00D+00.
 Generated NRdTot=       0 NPtTot=           0 NUsed=           0 NTot=          32
 NSgBfM=   395   395   395   395   395 MxSgAt=    17 MxSgA2=    17.
 Leave Link  302 at Thu Sep 26 17:09:13 2019, MaxMem=   671088640 cpu:             157.3 elap:              78.7
 (Enter /shared/centos7/gaussian/g16/l303.exe)
 DipDrv:  MaxL=1.
 Leave Link  303 at Thu Sep 26 17:09:18 2019, MaxMem=   671088640 cpu:               8.5 elap:               4.3
 (Enter /shared/centos7/gaussian/g16/l401.exe)
 ExpMin= 1.03D-01 ExpMax= 1.53D+04 ExpMxC= 5.22D+02 IAcc=3 IRadAn=         5 AccDes= 0.00D+00
 Harris functional with IExCor= 1009 and IRadAn=       5 diagonalized for initial guess.
 HarFok:  IExCor= 1009 AccDes= 0.00D+00 IRadAn=         5 IDoV= 1 UseB2=F ITyADJ=14
 ICtDFT=  3500011 ScaDFX=  1.000000  1.000000  1.000000  1.000000
 FoFCou: FMM=F IPFlag=           0 FMFlag=      100000 FMFlg1=           0
         NFxFlg=           0 DoJE=T BraDBF=F KetDBF=T FulRan=T
         wScrn=  0.000000 ICntrl=       500 IOpCl=  0 I1Cent=   200000004 NGrid=           0
         NMat0=    1 NMatS0=      1 NMatT0=    0 NMatD0=    1 NMtDS0=    0 NMtDT0=    0
 Petite list used in FoFCou.
 Harris En= -346.806013000853    
 JPrj=0 DoOrth=F DoCkMO=F.
 Leave Link  401 at Thu Sep 26 17:09:52 2019, MaxMem=   671088640 cpu:              68.0 elap:              34.1
 (Enter /shared/centos7/gaussian/g16/l502.exe)
 Integral symmetry usage will be decided dynamically.
 Closed shell SCF:
 Using DIIS extrapolation, IDIIS=  1040.
 NGot=   671088640 LenX=   670765141 LenY=   670608675
 Requested convergence on RMS density matrix=1.00D-08 within 900 cycles.
 Requested convergence on MAX density matrix=1.00D-06.
 Requested convergence on             energy=1.00D-06.
 No special actions if energy rises.
 Fock matrices will be formed incrementally for  20 cycles.
 Integral accuracy reduced to 1.0D-05 until final iterations.

 Cycle   1  Pass 0  IDiag  1:
 FoFJK:  IHMeth= 1 ICntrl=       0 DoSepK=F KAlg= 0 I1Cent=           0 FoldK=F
 IRaf= 950000000 NMat=       1 IRICut=       1 DoRegI=T DoRafI=F ISym2E= 0 IDoP0=0 IntGTp=1.
 FoFCou: FMM=F IPFlag=           0 FMFlag=      100000 FMFlg1=           0
         NFxFlg=           0 DoJE=F BraDBF=F KetDBF=F FulRan=T
         wScrn=  0.000000 ICntrl=         0 IOpCl=  0 I1Cent=           0 NGrid=           0
         NMat0=    1 NMatS0=      1 NMatT0=    0 NMatD0=    1 NMtDS0=    0 NMtDT0=    0
 Symmetry not used in FoFCou.
 E= -346.693382754097    
 DIIS: error= 2.91D-02 at cycle   1 NSaved=   1.
 NSaved= 1 IEnMin= 1 EnMin= -346.693382754097     IErMin= 1 ErrMin= 2.91D-02
 ErrMax= 2.91D-02  0.00D+00 EMaxC= 1.00D-01 BMatC= 2.87D-01 BMatP= 2.87D-01
 IDIUse=3 WtCom= 7.09D-01 WtEn= 2.91D-01
 Coeff-Com:  0.100D+01
 Coeff-En:   0.100D+01
 Coeff:      0.100D+01
 Gap=     0.347 Goal=   None    Shift=    0.000
 GapD=    0.347 DampG=1.000 DampE=0.500 DampFc=0.5000 IDamp=-1.
 Damping current iteration by 5.00D-01
 RMSDP=1.95D-03 MaxDP=8.45D-02              OVMax= 1.38D-01

 Cycle   2  Pass 0  IDiag  1:
 RMSU=  9.73D-04    CP:  9.98D-01
 E= -346.813034088163     Delta-E=       -0.119651334066 Rises=F Damp=T
 DIIS: error= 5.44D-03 at cycle   2 NSaved=   2.
 NSaved= 2 IEnMin= 2 EnMin= -346.813034088163     IErMin= 2 ErrMin= 5.44D-03
 ErrMax= 5.44D-03  0.00D+00 EMaxC= 1.00D-01 BMatC= 2.09D-02 BMatP= 2.87D-01
 IDIUse=3 WtCom= 9.46D-01 WtEn= 5.44D-02
 Coeff-Com: -0.128D+00 0.113D+01
 Coeff-En:   0.000D+00 0.100D+01
 Coeff:     -0.121D+00 0.112D+01
 Gap=     0.315 Goal=   None    Shift=    0.000
 RMSDP=4.35D-04 MaxDP=1.55D-02 DE=-1.20D-01 OVMax= 6.84D-02

 Cycle   3  Pass 0  IDiag  1:
 RMSU=  4.33D-04    CP:  1.00D+00  9.76D-01
 E= -346.921425285418     Delta-E=       -0.108391197255 Rises=F Damp=F
 DIIS: error= 2.18D-03 at cycle   3 NSaved=   3.
 NSaved= 3 IEnMin= 3 EnMin= -346.921425285418     IErMin= 3 ErrMin= 2.18D-03
 ErrMax= 2.18D-03  0.00D+00 EMaxC= 1.00D-01 BMatC= 3.05D-03 BMatP= 2.09D-02
 IDIUse=3 WtCom= 9.78D-01 WtEn= 2.18D-02
 Coeff-Com: -0.767D-01 0.284D+00 0.793D+00
 Coeff-En:   0.000D+00 0.000D+00 0.100D+01
 Coeff:     -0.750D-01 0.277D+00 0.798D+00
 Gap=     0.315 Goal=   None    Shift=    0.000
 RMSDP=1.21D-04 MaxDP=4.95D-03 DE=-1.08D-01 OVMax= 1.07D-02

 Cycle   4  Pass 0  IDiag  1:
 RMSU=  1.02D-04    CP:  1.00D+00  1.03D+00  9.30D-01
 E= -346.922962960230     Delta-E=       -0.001537674812 Rises=F Damp=F
 DIIS: error= 1.28D-03 at cycle   4 NSaved=   4.
 NSaved= 4 IEnMin= 4 EnMin= -346.922962960230     IErMin= 4 ErrMin= 1.28D-03
 ErrMax= 1.28D-03  0.00D+00 EMaxC= 1.00D-01 BMatC= 9.15D-04 BMatP= 3.05D-03
 IDIUse=3 WtCom= 9.87D-01 WtEn= 1.28D-02
 Coeff-Com: -0.269D-01 0.693D-01 0.400D+00 0.558D+00
 Coeff-En:   0.000D+00 0.000D+00 0.185D+00 0.815D+00
 Coeff:     -0.266D-01 0.684D-01 0.397D+00 0.561D+00
 Gap=     0.311 Goal=   None    Shift=    0.000
 RMSDP=5.09D-05 MaxDP=2.17D-03 DE=-1.54D-03 OVMax= 4.97D-03

 Cycle   5  Pass 0  IDiag  1:
 RMSU=  2.65D-05    CP:  1.00D+00  1.03D+00  9.59D-01  5.95D-01
 E= -346.923612111752     Delta-E=       -0.000649151522 Rises=F Damp=F
 DIIS: error= 1.79D-04 at cycle   5 NSaved=   5.
 NSaved= 5 IEnMin= 5 EnMin= -346.923612111752     IErMin= 5 ErrMin= 1.79D-04
 ErrMax= 1.79D-04  0.00D+00 EMaxC= 1.00D-01 BMatC= 1.75D-05 BMatP= 9.15D-04
 IDIUse=3 WtCom= 9.98D-01 WtEn= 1.79D-03
 Coeff-Com: -0.370D-02 0.679D-02 0.819D-01 0.181D+00 0.734D+00
 Coeff-En:   0.000D+00 0.000D+00 0.000D+00 0.000D+00 0.100D+01
 Coeff:     -0.369D-02 0.678D-02 0.818D-01 0.181D+00 0.734D+00
 Gap=     0.311 Goal=   None    Shift=    0.000
 RMSDP=1.03D-05 MaxDP=2.41D-04 DE=-6.49D-04 OVMax= 1.17D-03

 Cycle   6  Pass 0  IDiag  1:
 RMSU=  7.61D-06    CP:  1.00D+00  1.03D+00  9.67D-01  6.35D-01  8.82D-01
 E= -346.923624709883     Delta-E=       -0.000012598131 Rises=F Damp=F
 DIIS: error= 5.24D-05 at cycle   6 NSaved=   6.
 NSaved= 6 IEnMin= 6 EnMin= -346.923624709883     IErMin= 6 ErrMin= 5.24D-05
 ErrMax= 5.24D-05  0.00D+00 EMaxC= 1.00D-01 BMatC= 1.85D-06 BMatP= 1.75D-05
 IDIUse=1 WtCom= 1.00D+00 WtEn= 0.00D+00
 Coeff-Com:  0.267D-03-0.176D-02 0.941D-02 0.437D-01 0.296D+00 0.653D+00
 Coeff:      0.267D-03-0.176D-02 0.941D-02 0.437D-01 0.296D+00 0.653D+00
 Gap=     0.311 Goal=   None    Shift=    0.000
 RMSDP=3.50D-06 MaxDP=1.19D-04 DE=-1.26D-05 OVMax= 4.97D-04

 Initial convergence to 1.0D-05 achieved.  Increase integral accuracy.
 Cycle   7  Pass 1  IDiag  1:
 E= -346.923599716448     Delta-E=        0.000024993435 Rises=F Damp=F
 DIIS: error= 2.59D-05 at cycle   1 NSaved=   1.
 NSaved= 1 IEnMin= 1 EnMin= -346.923599716448     IErMin= 1 ErrMin= 2.59D-05
 ErrMax= 2.59D-05  0.00D+00 EMaxC= 1.00D-01 BMatC= 6.61D-07 BMatP= 6.61D-07
 IDIUse=1 WtCom= 1.00D+00 WtEn= 0.00D+00
 Coeff-Com:  0.100D+01
 Coeff:      0.100D+01
 Gap=     0.311 Goal=   None    Shift=    0.000
 RMSDP=3.50D-06 MaxDP=1.19D-04 DE= 2.50D-05 OVMax= 3.33D-04

 Cycle   8  Pass 1  IDiag  1:
 RMSU=  7.74D-06    CP:  1.00D+00
 E= -346.923599907492     Delta-E=       -0.000000191044 Rises=F Damp=F
 DIIS: error= 2.24D-05 at cycle   2 NSaved=   2.
 NSaved= 2 IEnMin= 2 EnMin= -346.923599907492     IErMin= 2 ErrMin= 2.24D-05
 ErrMax= 2.24D-05  0.00D+00 EMaxC= 1.00D-01 BMatC= 2.68D-07 BMatP= 6.61D-07
 IDIUse=1 WtCom= 1.00D+00 WtEn= 0.00D+00
 Coeff-Com:  0.346D+00 0.654D+00
 Coeff:      0.346D+00 0.654D+00
 Gap=     0.311 Goal=   None    Shift=    0.000
 RMSDP=1.59D-06 MaxDP=5.66D-05 DE=-1.91D-07 OVMax= 2.97D-04

 Cycle   9  Pass 1  IDiag  1:
 RMSU=  1.56D-06    CP:  1.00D+00  9.64D-01
 E= -346.923600067636     Delta-E=       -0.000000160144 Rises=F Damp=F
 DIIS: error= 1.34D-05 at cycle   3 NSaved=   3.
 NSaved= 3 IEnMin= 3 EnMin= -346.923600067636     IErMin= 3 ErrMin= 1.34D-05
 ErrMax= 1.34D-05  0.00D+00 EMaxC= 1.00D-01 BMatC= 8.64D-08 BMatP= 2.68D-07
 IDIUse=1 WtCom= 1.00D+00 WtEn= 0.00D+00
 Coeff-Com: -0.976D-02 0.359D+00 0.651D+00
 Coeff:     -0.976D-02 0.359D+00 0.651D+00
 Gap=     0.311 Goal=   None    Shift=    0.000
 RMSDP=6.31D-07 MaxDP=1.88D-05 DE=-1.60D-07 OVMax= 1.10D-04

 Cycle  10  Pass 1  IDiag  1:
 RMSU=  2.29D-07    CP:  1.00D+00  9.98D-01  6.65D-01
 E= -346.923600138032     Delta-E=       -0.000000070396 Rises=F Damp=F
 DIIS: error= 1.49D-06 at cycle   4 NSaved=   4.
 NSaved= 4 IEnMin= 4 EnMin= -346.923600138032     IErMin= 4 ErrMin= 1.49D-06
 ErrMax= 1.49D-06  0.00D+00 EMaxC= 1.00D-01 BMatC= 2.03D-09 BMatP= 8.64D-08
 IDIUse=1 WtCom= 1.00D+00 WtEn= 0.00D+00
 Coeff-Com: -0.124D-01 0.151D+00 0.300D+00 0.561D+00
 Coeff:     -0.124D-01 0.151D+00 0.300D+00 0.561D+00
 Gap=     0.311 Goal=   None    Shift=    0.000
 RMSDP=8.16D-08 MaxDP=4.31D-06 DE=-7.04D-08 OVMax= 7.74D-06

 Cycle  11  Pass 1  IDiag  1:
 RMSU=  7.88D-08    CP:  1.00D+00  1.00D+00  6.71D-01  9.28D-01
 E= -346.923600139598     Delta-E=       -0.000000001565 Rises=F Damp=F
 DIIS: error= 3.63D-07 at cycle   5 NSaved=   5.
 NSaved= 5 IEnMin= 5 EnMin= -346.923600139598     IErMin= 5 ErrMin= 3.63D-07
 ErrMax= 3.63D-07  0.00D+00 EMaxC= 1.00D-01 BMatC= 6.49D-11 BMatP= 2.03D-09
 IDIUse=1 WtCom= 1.00D+00 WtEn= 0.00D+00
 Coeff-Com: -0.795D-03-0.209D-01-0.302D-01 0.902D-01 0.962D+00
 Coeff:     -0.795D-03-0.209D-01-0.302D-01 0.902D-01 0.962D+00
 Gap=     0.311 Goal=   None    Shift=    0.000
 RMSDP=2.93D-08 MaxDP=7.62D-07 DE=-1.57D-09 OVMax= 3.01D-06

 Cycle  12  Pass 1  IDiag  1:
 RMSU=  1.85D-08    CP:  1.00D+00  1.00D+00  6.75D-01  1.02D+00  1.08D+00
 E= -346.923600139687     Delta-E=       -0.000000000090 Rises=F Damp=F
 DIIS: error= 1.19D-07 at cycle   6 NSaved=   6.
 NSaved= 6 IEnMin= 6 EnMin= -346.923600139687     IErMin= 6 ErrMin= 1.19D-07
 ErrMax= 1.19D-07  0.00D+00 EMaxC= 1.00D-01 BMatC= 8.97D-12 BMatP= 6.49D-11
 IDIUse=1 WtCom= 1.00D+00 WtEn= 0.00D+00
 Coeff-Com:  0.623D-03-0.190D-01-0.339D-01-0.123D-01 0.339D+00 0.726D+00
 Coeff:      0.623D-03-0.190D-01-0.339D-01-0.123D-01 0.339D+00 0.726D+00
 Gap=     0.311 Goal=   None    Shift=    0.000
 RMSDP=8.93D-09 MaxDP=3.06D-07 DE=-8.96D-11 OVMax= 8.11D-07

 SCF Done:  E(RM062X) =  -346.923600140     A.U. after   12 cycles
            NFock= 12  Conv=0.89D-08     -V/T= 2.0063
 KE= 3.447629848443D+02 PE=-1.439403354164D+03 EE= 4.330220633915D+02
 Leave Link  502 at Thu Sep 26 17:22:42 2019, MaxMem=   671088640 cpu:            1538.7 elap:             769.8
 (Enter /shared/centos7/gaussian/g16/l801.exe)
 DoSCS=F DFT=T ScalE2(SS,OS)=  1.000000  1.000000
 Range of M.O.s used for correlation:     1   350
 NBasis=   350 NAE=    28 NBE=    28 NFC=     0 NFV=     0
 NROrb=    350 NOA=    28 NOB=    28 NVA=   322 NVB=   322
 Leave Link  801 at Thu Sep 26 17:22:43 2019, MaxMem=   671088640 cpu:               2.3 elap:               1.2
 (Enter /shared/centos7/gaussian/g16/l1101.exe)
 Using compressed storage, NAtomX=    17.
 Will process     18 centers per pass.
 Leave Link 1101 at Thu Sep 26 17:23:15 2019, MaxMem=   671088640 cpu:              63.6 elap:              31.8
 (Enter /shared/centos7/gaussian/g16/l1102.exe)
 Symmetrizing basis deriv contribution to polar:
 IMax=3 JMax=2 DiffMx= 0.00D+00
 Leave Link 1102 at Thu Sep 26 17:23:17 2019, MaxMem=   671088640 cpu:               5.0 elap:               2.5
 (Enter /shared/centos7/gaussian/g16/l1110.exe)
 Forming Gx(P) for the SCF density, NAtomX=    17.
 Integral derivatives from FoFJK, PRISM(SPDF).
 Do as many integral derivatives as possible in FoFJK.
 G2DrvN: MDV=     671087280.
 G2DrvN: will do    18 centers at a time, making    1 passes.
 Calling FoFCou, ICntrl=  3107 FMM=F I1Cent=   0 AccDes= 0.00D+00.
 FoFJK:  IHMeth= 1 ICntrl=    3107 DoSepK=F KAlg= 0 I1Cent=           0 FoldK=F
 IRaf=         0 NMat=       1 IRICut=       1 DoRegI=T DoRafI=F ISym2E= 0 IDoP0=0 IntGTp=1.
 FoFCou: FMM=F IPFlag=           0 FMFlag=      100000 FMFlg1=           0
         NFxFlg=           0 DoJE=F BraDBF=F KetDBF=F FulRan=T
         wScrn=  0.000000 ICntrl=      3107 IOpCl=  0 I1Cent=           0 NGrid=           0
         NMat0=    1 NMatS0=      1 NMatT0=    0 NMatD0=    1 NMtDS0=    0 NMtDT0=    0
 Symmetry not used in FoFCou.
 End of G2Drv F.D. properties file   721 does not exist.
 End of G2Drv F.D. properties file   722 does not exist.
 End of G2Drv F.D. properties file   788 does not exist.
 Leave Link 1110 at Thu Sep 26 17:47:40 2019, MaxMem=   671088640 cpu:            2924.2 elap:            1462.4
 (Enter /shared/centos7/gaussian/g16/l1002.exe)
 Minotr:  Closed shell wavefunction.
          IDoAtm=11111111111111111
          Direct CPHF calculation.
          Differentiating once with respect to nuclear coordinates.
          Requested convergence is 1.0D-08 RMS, and 1.0D-07 maximum.
          Secondary convergence is 1.0D-12 RMS, and 1.0D-12 maximum.
          NewPWx=T KeepS1=F KeepF1=F KeepIn=T MapXYZ=F SortEE=F KeepMc=T.
         5116 words used for storage of precomputed grid.
 Two-electron integrals replicated using symmetry.
          MDV=     671088640 using IRadAn=       1.
          Solving linear equations simultaneously, MaxMat=     380.
 FoF2E skips out because all densities are zero.
 CalDSu exits because no D1Ps are significant.
 FoFJK:  IHMeth= 1 ICntrl=       0 DoSepK=F KAlg= 0 I1Cent=           0 FoldK=F
 IRaf= 930000000 NMat=      51 IRICut=     127 DoRegI=T DoRafI=T ISym2E= 2 IDoP0=3 IntGTp=3.
 FoFCou: FMM=F IPFlag=           0 FMFlag=      100000 FMFlg1=           0
         NFxFlg=           0 DoJE=F BraDBF=F KetDBF=F FulRan=T
         wScrn=  0.000000 ICntrl=         0 IOpCl=  0 I1Cent=           0 NGrid=           0
         NMat0=   51 NMatS0=     51 NMatT0=    0 NMatD0=   51 NMtDS0=    0 NMtDT0=    0
 Integrals replicated using symmetry in FoFCou.
 Raff kept on since  90.51% of shell-pairs survive, threshold=   0.20 IRatSp=91.
          There are    54 degrees of freedom in the 1st order CPHF.  IDoFFX=6 NUNeed=     0.
     48 vectors produced by pass  0 Test12= 1.67D-14 1.85D-09 XBig12= 7.23D-02 5.80D-02.
 AX will form    48 AO Fock derivatives at one time.
     48 vectors produced by pass  1 Test12= 1.67D-14 1.85D-09 XBig12= 7.21D-03 3.43D-02.
     48 vectors produced by pass  2 Test12= 1.67D-14 1.85D-09 XBig12= 2.14D-04 2.27D-03.
     48 vectors produced by pass  3 Test12= 1.67D-14 1.85D-09 XBig12= 2.51D-06 2.40D-04.
     48 vectors produced by pass  4 Test12= 1.67D-14 1.85D-09 XBig12= 1.57D-08 1.48D-05.
     48 vectors produced by pass  5 Test12= 1.67D-14 1.85D-09 XBig12= 8.49D-11 1.12D-06.
     26 vectors produced by pass  6 Test12= 1.67D-14 1.85D-09 XBig12= 3.99D-13 6.28D-08.
      6 vectors produced by pass  7 Test12= 1.67D-14 1.85D-09 XBig12= 1.49D-15 3.66D-09.
 InvSVY:  IOpt=1 It=  1 EMax= 3.61D-16
 Solved reduced A of dimension   320 with    54 vectors.
 End of Minotr F.D. properties file   721 does not exist.
 End of Minotr F.D. properties file   722 does not exist.
 End of Minotr F.D. properties file   788 does not exist.
 Leave Link 1002 at Thu Sep 26 18:31:38 2019, MaxMem=   671088640 cpu:            5276.4 elap:            2638.7
 (Enter /shared/centos7/gaussian/g16/l601.exe)
 Copying SCF densities to generalized density rwf, IOpCl= 0 IROHF=0.

 **********************************************************************

            Population analysis using the SCF density.

 **********************************************************************

 Orbital symmetries:
       Occupied  (A) (A) (A) (A) (A) (A) (A) (A) (A) (A) (A) (A)
                 (A) (A) (A) (A) (A) (A) (A) (A) (A) (A) (A) (A)
                 (A) (A) (A) (A)
       Virtual   (A) (A) (A) (A) (A) (A) (A) (A) (A) (A) (A) (A)
                 (A) (A) (A) (A) (A) (A) (A) (A) (A) (A) (A) (A)
                 (A) (A) (A) (A) (A) (A) (A) (A) (A) (A) (A) (A)
                 (A) (A) (A) (A) (A) (A) (A) (A) (A) (A) (A) (A)
                 (A) (A) (A) (A) (A) (A) (A) (A) (A) (A) (A) (A)
                 (A) (A) (A) (A) (A) (A) (A) (A) (A) (A) (A) (A)
                 (A) (A) (A) (A) (A) (A) (A) (A) (A) (A) (A) (A)
                 (A) (A) (A) (A) (A) (A) (A) (A) (A) (A) (A) (A)
                 (A) (A) (A) (A) (A) (A) (A) (A) (A) (A) (A) (A)
                 (A) (A) (A) (A) (A) (A) (A) (A) (A) (A) (A) (A)
                 (A) (A) (A) (A) (A) (A) (A) (A) (A) (A) (A) (A)
                 (A) (A) (A) (A) (A) (A) (A) (A) (A) (A) (A) (A)
                 (A) (A) (A) (A) (A) (A) (A) (A) (A) (A) (A) (A)
                 (A) (A) (A) (A) (A) (A) (A) (A) (A) (A) (A) (A)
                 (A) (A) (A) (A) (A) (A) (A) (A) (A) (A) (A) (A)
                 (A) (A) (A) (A) (A) (A) (A) (A) (A) (A) (A) (A)
                 (A) (A) (A) (A) (A) (A) (A) (A) (A) (A) (A) (A)
                 (A) (A) (A) (A) (A) (A) (A) (A) (A) (A) (A) (A)
                 (A) (A) (A) (A) (A) (A) (A) (A) (A) (A) (A) (A)
                 (A) (A) (A) (A) (A) (A) (A) (A) (A) (A) (A) (A)
                 (A) (A) (A) (A) (A) (A) (A) (A) (A) (A) (A) (A)
                 (A) (A) (A) (A) (A) (A) (A) (A) (A) (A) (A) (A)
                 (A) (A) (A) (A) (A) (A) (A) (A) (A) (A) (A) (A)
                 (A) (A) (A) (A) (A) (A) (A) (A) (A) (A) (A) (A)
                 (A) (A) (A) (A) (A) (A) (A) (A) (A) (A) (A) (A)
                 (A) (A) (A) (A) (A) (A) (A) (A) (A) (A) (A) (A)
                 (A) (A) (A) (A) (A) (A) (A) (A) (A) (A)
 The electronic state is 1-A.
 Alpha  occ. eigenvalues --  -19.64605 -19.64453 -10.59583 -10.57899 -10.57755
 Alpha  occ. eigenvalues --  -10.53609 -10.53350  -1.18387  -1.15935  -0.89260
 Alpha  occ. eigenvalues --   -0.84093  -0.77984  -0.70926  -0.63559  -0.62143
 Alpha  occ. eigenvalues --   -0.57123  -0.54103  -0.52887  -0.49978  -0.46780
 Alpha  occ. eigenvalues --   -0.45845  -0.45191  -0.44397  -0.42701  -0.41758
 Alpha  occ. eigenvalues --   -0.39146  -0.37057  -0.26725
 Alpha virt. eigenvalues --    0.04422   0.07064   0.08015   0.09861   0.11336
 Alpha virt. eigenvalues --    0.12058   0.13033   0.14593   0.14966   0.16598
 Alpha virt. eigenvalues --    0.17552   0.20049   0.20758   0.23027   0.25264
 Alpha virt. eigenvalues --    0.26266   0.29397   0.30987   0.31819   0.32914
 Alpha virt. eigenvalues --    0.34636   0.36737   0.37274   0.39157   0.40354
 Alpha virt. eigenvalues --    0.41640   0.42827   0.44282   0.45611   0.46218
 Alpha virt. eigenvalues --    0.47654   0.48505   0.48873   0.49631   0.50401
 Alpha virt. eigenvalues --    0.50882   0.51452   0.51833   0.52895   0.53939
 Alpha virt. eigenvalues --    0.55598   0.57893   0.60726   0.61705   0.62543
 Alpha virt. eigenvalues --    0.64486   0.66412   0.68420   0.68683   0.71139
 Alpha virt. eigenvalues --    0.72381   0.75982   0.79378   0.79982   0.82958
 Alpha virt. eigenvalues --    0.83076   0.86317   0.88022   0.89705   0.90955
 Alpha virt. eigenvalues --    0.92456   0.93074   0.96527   0.98451   0.99697
 Alpha virt. eigenvalues --    1.00786   1.00885   1.02724   1.04091   1.05753
 Alpha virt. eigenvalues --    1.06116   1.08544   1.11565   1.12469   1.12761
 Alpha virt. eigenvalues --    1.14782   1.16425   1.18834   1.19491   1.20621
 Alpha virt. eigenvalues --    1.23358   1.24880   1.26296   1.27700   1.28090
 Alpha virt. eigenvalues --    1.28614   1.30435   1.31557   1.34146   1.35421
 Alpha virt. eigenvalues --    1.36708   1.36888   1.37705   1.40198   1.41549
 Alpha virt. eigenvalues --    1.42848   1.46766   1.49348   1.50566   1.52684
 Alpha virt. eigenvalues --    1.53731   1.56082   1.57147   1.60604   1.61763
 Alpha virt. eigenvalues --    1.64930   1.69352   1.72092   1.77409   1.80498
 Alpha virt. eigenvalues --    1.86743   1.88693   1.97973   2.01077   2.02536
 Alpha virt. eigenvalues --    2.04341   2.09871   2.15472   2.19154   2.21863
 Alpha virt. eigenvalues --    2.26467   2.29341   2.31035   2.32034   2.35290
 Alpha virt. eigenvalues --    2.38016   2.39557   2.42627   2.44229   2.46044
 Alpha virt. eigenvalues --    2.46738   2.49292   2.53641   2.56226   2.56482
 Alpha virt. eigenvalues --    2.59243   2.61693   2.64383   2.65799   2.69550
 Alpha virt. eigenvalues --    2.69772   2.73438   2.74240   2.78445   2.80373
 Alpha virt. eigenvalues --    2.81970   2.83409   2.83931   2.84592   2.87106
 Alpha virt. eigenvalues --    2.87754   2.89196   2.91329   2.91558   2.93212
 Alpha virt. eigenvalues --    2.95805   2.96615   2.97907   2.99692   3.01699
 Alpha virt. eigenvalues --    3.02072   3.02986   3.04497   3.05728   3.06370
 Alpha virt. eigenvalues --    3.09048   3.09861   3.10951   3.12528   3.13654
 Alpha virt. eigenvalues --    3.15798   3.16967   3.20161   3.22069   3.23646
 Alpha virt. eigenvalues --    3.24288   3.27028   3.27507   3.29165   3.30143
 Alpha virt. eigenvalues --    3.31054   3.33634   3.34216   3.36032   3.36953
 Alpha virt. eigenvalues --    3.39272   3.40460   3.41789   3.42498   3.44049
 Alpha virt. eigenvalues --    3.44881   3.47688   3.48452   3.50818   3.52304
 Alpha virt. eigenvalues --    3.54593   3.54861   3.58146   3.58320   3.60391
 Alpha virt. eigenvalues --    3.62259   3.63648   3.64815   3.69521   3.70516
 Alpha virt. eigenvalues --    3.71393   3.74685   3.75530   3.76711   3.80030
 Alpha virt. eigenvalues --    3.81097   3.81909   3.84316   3.85336   3.86520
 Alpha virt. eigenvalues --    3.87365   3.90414   3.93215   3.93560   3.94262
 Alpha virt. eigenvalues --    3.94927   3.96955   3.98313   3.98473   4.01349
 Alpha virt. eigenvalues --    4.01559   4.02858   4.04370   4.05364   4.07072
 Alpha virt. eigenvalues --    4.08270   4.10353   4.13763   4.15003   4.15755
 Alpha virt. eigenvalues --    4.16725   4.20847   4.22826   4.26678   4.29994
 Alpha virt. eigenvalues --    4.32625   4.36805   4.38113   4.41272   4.43440
 Alpha virt. eigenvalues --    4.44809   4.49804   4.51290   4.52576   4.56830
 Alpha virt. eigenvalues --    4.58006   4.61539   4.64449   4.65943   4.70035
 Alpha virt. eigenvalues --    4.71123   4.74381   4.77044   4.78705   4.80962
 Alpha virt. eigenvalues --    4.85905   4.87105   4.89169   4.93602   4.94605
 Alpha virt. eigenvalues --    4.97019   4.98130   5.00154   5.06214   5.07137
 Alpha virt. eigenvalues --    5.07300   5.10829   5.12419   5.14452   5.18113
 Alpha virt. eigenvalues --    5.19911   5.23420   5.24031   5.25536   5.27089
 Alpha virt. eigenvalues --    5.29856   5.32947   5.36658   5.40072   5.47777
 Alpha virt. eigenvalues --    5.53039   5.54937   5.66578   5.69087   5.74693
 Alpha virt. eigenvalues --    5.75627   5.79153   5.79616   5.80886   5.83325
 Alpha virt. eigenvalues --    5.94141   5.99425   6.02065   6.19179   6.26298
 Alpha virt. eigenvalues --    6.33108   6.41308   6.57883   6.61639   6.70826
 Alpha virt. eigenvalues --    6.74299   6.75108   6.77339   6.83278   6.96846
 Alpha virt. eigenvalues --    7.03874   7.19671   7.26844   7.34418   7.39523
 Alpha virt. eigenvalues --   10.61926  11.00240  11.70504  11.73302  13.20801
 Alpha virt. eigenvalues --   13.40217  14.39541
          Condensed to atoms (all electrons):
               1          2          3          4          5          6
     1  O    7.838693   0.001790   0.286373  -0.063964  -0.037266   0.377280
     2  O    0.001790   7.795333  -0.001411  -0.000108  -0.000044  -0.064617
     3  C    0.286373  -0.001411   4.938446   0.312209   0.309747  -0.072572
     4  C   -0.063964  -0.000108   0.312209   5.079495  -0.045416   0.012962
     5  C   -0.037266  -0.000044   0.309747  -0.045416   4.968448   0.000840
     6  C    0.377280  -0.064617  -0.072572   0.012962   0.000840   4.922454
     7  C   -0.083209   0.334022  -0.011126   0.005556   0.002936   0.540123
     8  H   -0.049682  -0.000285   0.404926  -0.093425  -0.043902  -0.014279
     9  H    0.004196   0.000048  -0.034575   0.375607   0.000576  -0.001180
    10  H    0.003620   0.000148  -0.032843   0.387449   0.008003  -0.003673
    11  H    0.003125  -0.000004  -0.039921   0.404478  -0.010120   0.000667
    12  H    0.000527   0.000001  -0.043020  -0.010053   0.404685  -0.000302
    13  H    0.003539   0.000000  -0.035567   0.010276   0.397119  -0.000046
    14  H    0.003872  -0.000001  -0.045916  -0.002533   0.401053  -0.000044
    15  H   -0.032846   0.003260   0.007349   0.000297  -0.000276   0.404278
    16  H   -0.002694  -0.048436   0.009258  -0.001001   0.002270  -0.080021
    17  H   -0.000329   0.332256  -0.000045   0.000038  -0.000006   0.007478
               7          8          9         10         11         12
     1  O   -0.083209  -0.049682   0.004196   0.003620   0.003125   0.000527
     2  O    0.334022  -0.000285   0.000048   0.000148  -0.000004   0.000001
     3  C   -0.011126   0.404926  -0.034575  -0.032843  -0.039921  -0.043020
     4  C    0.005556  -0.093425   0.375607   0.387449   0.404478  -0.010053
     5  C    0.002936  -0.043902   0.000576   0.008003  -0.010120   0.404685
     6  C    0.540123  -0.014279  -0.001180  -0.003673   0.000667  -0.000302
     7  C    4.923081   0.000316  -0.001883  -0.002085   0.000194   0.000051
     8  H    0.000316   0.717875   0.010547  -0.011708   0.004165   0.010288
     9  H   -0.001883   0.010547   0.559829  -0.029938  -0.025576   0.001908
    10  H   -0.002085  -0.011708  -0.029938   0.593720  -0.033234   0.000127
    11  H    0.000194   0.004165  -0.025576  -0.033234   0.577934   0.000163
    12  H    0.000051   0.010288   0.001908   0.000127   0.000163   0.581415
    13  H    0.000009  -0.009510  -0.000611  -0.000556   0.000472  -0.029264
    14  H   -0.000178  -0.006629   0.000423  -0.000150  -0.002147  -0.034704
    15  H   -0.066179  -0.000832  -0.000443   0.000000   0.000034  -0.000070
    16  H    0.435118  -0.012097  -0.000526  -0.000137   0.000246  -0.000135
    17  H   -0.044012  -0.000157   0.000002  -0.000035   0.000000   0.000000
              13         14         15         16         17
     1  O    0.003539   0.003872  -0.032846  -0.002694  -0.000329
     2  O    0.000000  -0.000001   0.003260  -0.048436   0.332256
     3  C   -0.035567  -0.045916   0.007349   0.009258  -0.000045
     4  C    0.010276  -0.002533   0.000297  -0.001001   0.000038
     5  C    0.397119   0.401053  -0.000276   0.002270  -0.000006
     6  C   -0.000046  -0.000044   0.404278  -0.080021   0.007478
     7  C    0.000009  -0.000178  -0.066179   0.435118  -0.044012
     8  H   -0.009510  -0.006629  -0.000832  -0.012097  -0.000157
     9  H   -0.000611   0.000423  -0.000443  -0.000526   0.000002
    10  H   -0.000556  -0.000150   0.000000  -0.000137  -0.000035
    11  H    0.000472  -0.002147   0.000034   0.000246   0.000000
    12  H   -0.029264  -0.034704  -0.000070  -0.000135   0.000000
    13  H    0.567571  -0.026894  -0.000006   0.000133   0.000000
    14  H   -0.026894   0.608648   0.000031   0.000219   0.000001
    15  H   -0.000006   0.000031   0.531360   0.005535  -0.000604
    16  H    0.000133   0.000219   0.005535   0.589726  -0.010021
    17  H    0.000000   0.000001  -0.000604  -0.010021   0.451682
 Mulliken charges:
               1
     1  O   -0.253025
     2  O   -0.351951
     3  C    0.048688
     4  C   -0.371868
     5  C   -0.358648
     6  C   -0.029349
     7  C   -0.032734
     8  H    0.094390
     9  H    0.141596
    10  H    0.121290
    11  H    0.119523
    12  H    0.118382
    13  H    0.123333
    14  H    0.104948
    15  H    0.149112
    16  H    0.112563
    17  H    0.263751
 Sum of Mulliken charges =  -0.00000
 Mulliken charges with hydrogens summed into heavy atoms:
               1
     1  O   -0.253025
     2  O   -0.088201
     3  C    0.143078
     4  C    0.010541
     5  C   -0.011984
     6  C    0.119763
     7  C    0.079828
 APT charges:
               1
     1  O   -0.174216
     2  O   -0.595294
     3  C    0.009571
     4  C   -1.091388
     5  C   -1.323221
     6  C   -0.415239
     7  C   -0.244705
     8  H    0.226613
     9  H    0.299978
    10  H    0.272340
    11  H    0.492898
    12  H    0.427970
    13  H    0.352402
    14  H    0.423198
    15  H    0.468578
    16  H    0.186770
    17  H    0.683744
 Sum of APT charges =  -0.00000
 APT charges with hydrogens summed into heavy atoms:
               1
     1  O   -0.174216
     2  O    0.088450
     3  C    0.236184
     4  C   -0.026172
     5  C   -0.119651
     6  C    0.053339
     7  C   -0.057935
 Electronic spatial extent (au):  <R**2>=            984.6311
 Charge=             -0.0000 electrons
 Dipole moment (field-independent basis, Debye):
    X=             -0.4668    Y=              1.7110    Z=             -1.9272  Tot=              2.6190
 Quadrupole moment (field-independent basis, Debye-Ang):
   XX=            -43.9084   YY=            -44.3633   ZZ=            -41.6894
   XY=              1.5479   XZ=             -3.3308   YZ=             -2.4321
 Traceless Quadrupole moment (field-independent basis, Debye-Ang):
   XX=             -0.5880   YY=             -1.0429   ZZ=              1.6309
   XY=              1.5479   XZ=             -3.3308   YZ=             -2.4321
 Octapole moment (field-independent basis, Debye-Ang**2):
  XXX=              4.8948  YYY=             -1.8473  ZZZ=             -1.1773  XYY=              7.6888
  XXY=              8.8617  XXZ=            -14.5834  XZZ=             10.9873  YZZ=              0.8072
  YYZ=             -1.2791  XYZ=             -8.1753
 Hexadecapole moment (field-independent basis, Debye-Ang**3):
 XXXX=           -919.7823 YYYY=           -229.6179 ZZZZ=           -130.9206 XXXY=             35.6940
 XXXZ=            -58.4540 YYYX=              7.7609 YYYZ=             -6.8391 ZZZX=            -12.8914
 ZZZY=             -8.0212 XXYY=           -181.5491 XXZZ=           -152.7437 YYZZ=            -57.3494
 XXYZ=            -22.7203 YYXZ=             -1.3085 ZZXY=              5.1738
 N-N= 3.146947057881D+02 E-N=-1.439403360270D+03  KE= 3.447629848443D+02
  Exact polarizability:   0.000   0.000   0.000   0.000   0.000   0.000
 Approx polarizability:  86.670   5.150  75.687  -5.763  -9.949  77.542
 No NMR shielding tensors so no spin-rotation constants.
 Leave Link  601 at Thu Sep 26 18:32:10 2019, MaxMem=   671088640 cpu:              64.0 elap:              32.1
 (Enter /shared/centos7/gaussian/g16/l701.exe)
 SCFChk:  SCF convergence  8.93D-09 required  1.00D-08
 ... and contract with generalized density number  0.
 Compute integral second derivatives.
 Entering OneElI...
 Calculate overlap and kinetic energy integrals
    NBasis = 395  MinDer = 2  MaxDer = 2
 Requested accuracy = 0.1000D-12
 PrmmSu-InSpLW:  IPartL=    0 NPrtUS=   20 NPrtUL=    1 DoSpLW=F IThBeg=    0 IThEnd=   19 NThAct=   20.
 PrsmSu:  NPrtUS=  20 ThrOK=T IAlg=1 NPAlg=1 LenDen=           0 ISkipM=0 DoSpLW=F IThBeg=    0 IThEnd=   19.
 Prism:   IPart=     0 DynPar=F LinDyn=F Incr=           4.
 PRISM was handed    33313242 working-precision words and  8397 shell-pairs
 PRISM was handed    33313242 working-precision words and  8397 shell-pairs
 PRISM was handed    33313242 working-precision words and  8397 shell-pairs
 PRISM was handed    33313242 working-precision words and  8397 shell-pairs
 PRISM was handed    33313242 working-precision words and  8397 shell-pairs
 PRISM was handed    33313242 working-precision words and  8397 shell-pairs
 PRISM was handed    33313242 working-precision words and  8397 shell-pairs
 PRISM was handed    33313242 working-precision words and  8397 shell-pairs
 PRISM was handed    33313242 working-precision words and  8397 shell-pairs
 PRISM was handed    33313242 working-precision words and  8397 shell-pairs
 PRISM was handed    33313242 working-precision words and  8397 shell-pairs
 PRISM was handed    33313242 working-precision words and  8397 shell-pairs
 PRISM was handed    33313242 working-precision words and  8397 shell-pairs
 PRISM was handed    33313242 working-precision words and  8397 shell-pairs
 PRISM was handed    33313242 working-precision words and  8397 shell-pairs
 PRISM was handed    33313242 working-precision words and  8397 shell-pairs
 IPart=  4 NShTot=         440 NBatch=          63 AvBLen=         7.0
 PRISM was handed    33313242 working-precision words and  8397 shell-pairs
 PRISM was handed    33313242 working-precision words and  8397 shell-pairs
 PRISM was handed    33313242 working-precision words and  8397 shell-pairs
 PRISM was handed    33313242 working-precision words and  8397 shell-pairs
 IPart= 10 NShTot=         411 NBatch=          47 AvBLen=         8.7
 IPart=  0 NShTot=         467 NBatch=          84 AvBLen=         5.6
 IPart=  6 NShTot=         431 NBatch=          60 AvBLen=         7.2
 IPart=  9 NShTot=         417 NBatch=          49 AvBLen=         8.5
 IPart=  5 NShTot=         435 NBatch=          61 AvBLen=         7.1
 IPart=  2 NShTot=         454 NBatch=          74 AvBLen=         6.1
 IPart= 15 NShTot=         397 NBatch=          39 AvBLen=        10.2
 IPart= 14 NShTot=         400 NBatch=          39 AvBLen=        10.3
 IPart= 12 NShTot=         406 NBatch=          42 AvBLen=         9.7
 IPart= 16 NShTot=         397 NBatch=          39 AvBLen=        10.2
 IPart= 17 NShTot=         395 NBatch=          38 AvBLen=        10.4
 IPart= 11 NShTot=         410 NBatch=          46 AvBLen=         8.9
 IPart=  1 NShTot=         462 NBatch=          81 AvBLen=         5.7
 IPart= 18 NShTot=         393 NBatch=          37 AvBLen=        10.6
 IPart= 13 NShTot=         403 NBatch=          40 AvBLen=        10.1
 IPart= 19 NShTot=         393 NBatch=          37 AvBLen=        10.6
 IPart=  7 NShTot=         419 NBatch=          50 AvBLen=         8.4
 IPart=  8 NShTot=         418 NBatch=          50 AvBLen=         8.4
 IPart=  3 NShTot=         449 NBatch=          69 AvBLen=         6.5
 PrSmSu:  NxtVal=             81.
 Entering OneElI...
 Calculate potential energy integrals
    NBasis = 395  MinDer = 2  MaxDer = 2
 Requested accuracy = 0.1000D-12
 PrmmSu-InSpLW:  IPartL=    0 NPrtUS=   20 NPrtUL=    1 DoSpLW=F IThBeg=    0 IThEnd=   19 NThAct=   20.
 PrsmSu:  NPrtUS=  20 ThrOK=T IAlg=1 NPAlg=1 LenDen=           0 ISkipM=0 DoSpLW=F IThBeg=    0 IThEnd=   19.
 Prism:   IPart=     0 DynPar=F LinDyn=F Incr=          65.
 PRISM was handed    33356182 working-precision words and  7650 shell-pairs
 PRISM was handed    33356182 working-precision words and  7650 shell-pairs
 PRISM was handed    33356182 working-precision words and  7650 shell-pairs
 PRISM was handed    33356182 working-precision words and  7650 shell-pairs
 PRISM was handed    33356182 working-precision words and  7650 shell-pairs
 PRISM was handed    33356182 working-precision words and  7650 shell-pairs
 PRISM was handed    33356182 working-precision words and  7650 shell-pairs
 PRISM was handed    33356182 working-precision words and  7650 shell-pairs
 PRISM was handed    33356182 working-precision words and  7650 shell-pairs
 PRISM was handed    33356182 working-precision words and  7650 shell-pairs
 PRISM was handed    33356182 working-precision words and  7650 shell-pairs
 PRISM was handed    33356182 working-precision words and  7650 shell-pairs
 PRISM was handed    33356182 working-precision words and  7650 shell-pairs
 PRISM was handed    33356182 working-precision words and  7650 shell-pairs
 PRISM was handed    33356182 working-precision words and  7650 shell-pairs
 PRISM was handed    33356182 working-precision words and  7650 shell-pairs
 PRISM was handed    33356182 working-precision words and  7650 shell-pairs
 PRISM was handed    33356182 working-precision words and  7650 shell-pairs
 PRISM was handed    33356182 working-precision words and  7650 shell-pairs
 PRISM was handed    33356182 working-precision words and  7650 shell-pairs
 IPart= 16 NShTot=        6205 NBatch=         365 AvBLen=        17.0
 IPart=  9 NShTot=        6443 NBatch=         379 AvBLen=        17.0
 IPart=  4 NShTot=        6749 NBatch=         397 AvBLen=        17.0
 IPart= 12 NShTot=        6307 NBatch=         371 AvBLen=        17.0
 IPart= 17 NShTot=        6154 NBatch=         362 AvBLen=        17.0
 IPart=  5 NShTot=        6698 NBatch=         394 AvBLen=        17.0
 IPart=  2 NShTot=        6987 NBatch=         411 AvBLen=        17.0
 IPart= 14 NShTot=        6239 NBatch=         367 AvBLen=        17.0
 IPart= 15 NShTot=        6222 NBatch=         366 AvBLen=        17.0
 IPart= 19 NShTot=        6035 NBatch=         355 AvBLen=        17.0
 IPart=  6 NShTot=        6698 NBatch=         394 AvBLen=        17.0
 IPart=  8 NShTot=        6545 NBatch=         385 AvBLen=        17.0
 IPart=  7 NShTot=        6545 NBatch=         385 AvBLen=        17.0
 IPart= 18 NShTot=        6120 NBatch=         360 AvBLen=        17.0
 IPart= 11 NShTot=        6358 NBatch=         374 AvBLen=        17.0
 IPart=  3 NShTot=        6868 NBatch=         404 AvBLen=        17.0
 IPart= 10 NShTot=        6426 NBatch=         378 AvBLen=        17.0
 IPart= 13 NShTot=        6273 NBatch=         369 AvBLen=        17.0
 IPart=  0 NShTot=        7123 NBatch=         419 AvBLen=        17.0
 IPart=  1 NShTot=        7055 NBatch=         415 AvBLen=        17.0
 PrSmSu:  NxtVal=           1301.
 Polarizability after L701:
                1             2             3 
      1  0.000000D+00
      2  0.000000D+00  0.000000D+00
      3  0.000000D+00  0.000000D+00  0.000000D+00
 Dipole Derivatives after L701:
                 1             2             3             4             5 
      1  -0.242662D+00  0.328909D-01 -0.172566D-01 -0.354115D+00 -0.104329D+01
      2   0.216377D+00 -0.110389D+00 -0.798318D-01 -0.135803D+00 -0.587620D+00
      3  -0.116363D+00 -0.764339D-01 -0.169596D+00  0.219466D+00  0.307414D+00
                 6             7             8             9            10 
      1   0.152758D+01  0.424128D+00  0.479505D-01 -0.220381D+00 -0.103505D+01
      2   0.299048D+00  0.364686D-01  0.525890D-01  0.235270D+00  0.833274D-02
      3  -0.844147D+00  0.186764D+00  0.188560D+00 -0.448004D+00 -0.394350D-02
                11            12            13            14            15 
      1   0.594852D+00  0.358179D+00 -0.189628D+01 -0.391578D+00 -0.242177D+00
      2  -0.134595D+01 -0.243713D+00 -0.114382D+00 -0.101514D+01 -0.967453D-02
      3  -0.596264D-01 -0.893159D+00 -0.212677D+00 -0.612038D-01 -0.105825D+01
                16            17            18            19            20 
      1  -0.559667D+00 -0.253406D-01 -0.429380D-01 -0.202493D+00  0.241694D+00
      2   0.584097D-02 -0.344012D+00  0.386985D+00  0.996740D-01 -0.216417D+00
      3  -0.738204D-01  0.380945D+00 -0.342038D+00 -0.212086D+00  0.285900D+00
                21            22            23            24            25 
      1  -0.225257D+00  0.632874D-01 -0.210505D-01  0.182173D+00  0.379342D-01
      2   0.316858D+00  0.100452D+00  0.188522D+00 -0.251531D-01  0.108301D+00
      3  -0.315205D+00 -0.199644D+00 -0.108388D+00  0.428028D+00  0.154182D+00
                26            27            28            29            30 
      1   0.269048D-02 -0.340788D+00  0.458846D-01 -0.783758D-01  0.159767D-01
      2   0.885320D-01  0.423775D+00  0.539305D+00  0.636801D+00 -0.291562D+00
      3  -0.436135D-01  0.773469D+00 -0.213188D-01  0.301841D-02  0.134333D+00
                31            32            33            34            35 
      1   0.968435D+00 -0.372816D+00  0.708491D-01  0.891819D+00  0.103986D+00
      2  -0.646750D+00  0.419304D+00 -0.340303D-01  0.163348D+00  0.127380D+00
      3  -0.115838D+00  0.683409D-01  0.909553D-01 -0.107482D+00 -0.143936D-01
                36            37            38            39            40 
      1  -0.900248D+00  0.707911D-01  0.785421D+00  0.404517D+00  0.629394D+00
      2  -0.172360D+00 -0.399165D-01  0.676509D+00  0.295022D+00 -0.584431D-01
      3   0.264710D+00 -0.445938D-01  0.393080D+00  0.309906D+00  0.251619D+00
                41            42            43            44            45 
      1  -0.648106D+00  0.674498D+00  0.422229D+00 -0.384763D+00  0.419745D+00
      2   0.197777D+00 -0.972723D-01 -0.258350D+00  0.481946D+00 -0.434939D+00
      3  -0.330625D+00  0.442424D+00  0.235039D+00 -0.369937D+00  0.501559D+00
                46            47            48            49            50 
      1  -0.991290D-01  0.221616D+00 -0.330621D+00  0.835495D+00  0.934222D+00
      2  -0.135079D+00  0.265018D+00 -0.265678D+00  0.110625D+00  0.485147D+00
      3   0.217272D+00 -0.256974D+00  0.394421D+00 -0.156575D+00 -0.306062D+00
                51 
      1  -0.133385D+01
      2  -0.302745D+00
      3   0.730591D+00
 Hessian after L701:
                1             2             3             4             5 
      1  0.494858D+01
      2  0.175304D+01  0.140629D+02
      3 -0.247090D+01  0.280294D+01  0.164456D+02
      4  0.395735D+00  0.191801D+00 -0.136128D+00  0.403739D+01
      5  0.170216D+00 -0.159035D+00 -0.346284D-01 -0.203376D+01  0.128877D+02
      6 -0.108995D+00 -0.281544D-01 -0.194137D+00  0.166586D+01  0.224415D+01
      7 -0.562853D+01 -0.300484D+01  0.272942D+01  0.206466D+00 -0.192481D-01
      8 -0.282198D+01 -0.507112D+01 -0.309939D+01  0.411332D-02 -0.106992D+00
      9  0.255898D+01 -0.310340D+01 -0.701170D+01 -0.128848D-01  0.142322D-01
     10 -0.141436D+00 -0.146950D+00 -0.160729D+00  0.156118D+00 -0.964210D-01
     11 -0.128836D+00  0.502518D+00  0.409435D+00 -0.443634D-01 -0.812404D-01
     12 -0.107678D+00  0.257047D+00 -0.718153D-01 -0.262334D-01  0.139611D-01
     13  0.265458D+00 -0.841846D-01  0.276107D+00  0.698361D-01  0.100066D-01
     14 -0.122668D+00 -0.234874D+00 -0.317895D-01  0.887498D-02 -0.481764D-01
     15  0.296315D+00 -0.719654D-02 -0.753077D-01  0.514131D-02  0.158865D-02
     16  0.227997D+00  0.114063D+01  0.466640D-02 -0.349246D+00  0.131872D+00
     17  0.903957D+00 -0.969327D+01 -0.964053D-01  0.131901D+00  0.192626D+00
     18  0.159643D+00 -0.790395D-01 -0.985955D+01 -0.108134D+00  0.461378D-01
     19 -0.656327D-01  0.126813D+00 -0.250229D+00  0.744859D+00  0.794862D+00
     20  0.179032D+00  0.365208D+00  0.261732D-01  0.800099D+00 -0.832277D+01
     21 -0.268039D+00  0.284841D-01  0.395102D+00  0.553339D-01  0.339313D-01
     22  0.204735D+00  0.135570D+00 -0.166572D+00  0.130970D-01  0.203312D-01
     23  0.962240D-01 -0.195931D+00  0.218487D+00 -0.719325D-02 -0.187479D-01
     24 -0.127984D+00  0.286938D+00  0.367425D+00  0.427166D-01  0.885792D-03
     25 -0.829005D-01 -0.171955D-01  0.156973D-01  0.121428D-01 -0.635771D-02
     26 -0.280156D-01  0.113866D+00  0.386020D-02 -0.723416D-02 -0.103245D-01
     27 -0.773011D-02  0.875798D-01 -0.742219D-01 -0.310991D-01  0.120380D-01
     28 -0.507579D-01  0.210776D-01 -0.580576D-02  0.827538D-02 -0.118660D-01
     29  0.185241D-02  0.163810D+00 -0.458266D-01 -0.372477D-01  0.740209D-02
     30 -0.401905D-02 -0.514470D-01 -0.410375D-01  0.655510D-02 -0.461714D-02
     31  0.345866D-01 -0.107047D+00  0.991586D-02  0.219517D-01 -0.127871D-01
     32 -0.851539D-01  0.737123D-01 -0.980980D-02 -0.109425D-01 -0.104779D-02
     33  0.507191D-02 -0.472555D-02 -0.440940D-01 -0.179316D-02  0.767375D-03
     34  0.109336D+00 -0.187329D-01  0.461547D-01  0.170979D-01  0.248621D-03
     35 -0.114738D-01 -0.472594D-01 -0.444361D-02  0.229096D-02 -0.461321D-02
     36 -0.703857D-02 -0.104183D-03 -0.435896D-01 -0.946862D-02  0.981329D-03
     37  0.376147D-01  0.180678D-02  0.616920D-01  0.974964D-02  0.388674D-02
     38  0.561440D-01 -0.560638D-01  0.410826D-01  0.169687D-01 -0.338021D-02
     39  0.933958D-01  0.652179D-02 -0.100883D-01  0.968687D-02  0.165328D-02
     40  0.533667D-01 -0.716234D-01  0.852059D-01  0.144982D-01 -0.289593D-02
     41 -0.638770D-01 -0.416847D-02 -0.535618D-01 -0.665180D-02 -0.304844D-02
     42  0.821454D-01 -0.572435D-01  0.274269D-01  0.948627D-02 -0.230374D-02
     43 -0.303849D+00  0.410382D-01 -0.214286D-01  0.304146D-01  0.544850D-01
     44  0.158069D-01  0.140884D+00 -0.606453D-01  0.102126D+00 -0.123589D-01
     45 -0.293278D-02 -0.497279D-01  0.177951D+00 -0.974147D-01 -0.608517D-01
     46 -0.214056D-01  0.289923D-01 -0.742665D-02 -0.271192D+00 -0.120011D-01
     47  0.582037D-01  0.360203D-01 -0.564711D-01  0.356459D-01  0.244915D+00
     48 -0.564884D-01 -0.750998D-01  0.657569D-02 -0.163288D+00 -0.436272D-01
     49  0.171027D-01  0.980302D-02 -0.963151D-02 -0.511720D+01  0.100943D+01
     50  0.275273D-01  0.275420D-02 -0.900829D-02  0.853576D+00 -0.456090D+01
     51 -0.337464D-01 -0.133698D-01  0.548379D-02 -0.120834D+01 -0.222430D+01
                6             7             8             9            10 
      6  0.113058D+02
      7  0.334180D-01  0.176868D+02
      8  0.824305D-02  0.183511D+01  0.182537D+02
      9 -0.126010D+00 -0.235101D+01  0.163516D+01  0.201645D+02
     10 -0.331560D-01 -0.607483D+01 -0.451854D+00 -0.237830D+00  0.140930D+02
     11  0.174301D-01 -0.362242D+00 -0.225528D+01  0.181578D+01  0.661093D+00
     12 -0.872584D-01 -0.206910D+00  0.180981D+01 -0.517942D+01  0.998047D-01
     13  0.150373D-01 -0.268873D+01  0.138259D+01  0.122177D+01 -0.662896D-02
     14  0.414372D-03  0.135894D+01 -0.584923D+01  0.438291D+00  0.257846D+00
     15 -0.509637D-01  0.118842D+01  0.431546D+00 -0.590105D+01  0.138540D+00
     16 -0.753508D-01  0.341242D+00 -0.147259D+00  0.137457D+00  0.105485D+00
     17  0.565719D-01 -0.829180D-01 -0.286920D-01  0.386544D-01 -0.338087D+00
     18  0.777019D-01  0.114226D+00 -0.389614D-02  0.135135D+00  0.124126D-01
     19  0.852496D-01  0.134710D+00  0.320602D-01 -0.820316D-01  0.325194D+00
     20  0.152573D-01  0.146148D-01 -0.203201D+00  0.318966D-01 -0.131829D+00
     21 -0.824869D+01  0.459735D-01  0.200861D-01 -0.156010D+00 -0.635797D-01
     22  0.222758D-01 -0.427640D+01  0.220238D+00 -0.116269D+01  0.320899D+00
     23 -0.347919D-02  0.284363D+00 -0.475048D+01 -0.613420D+00  0.976878D-01
     24 -0.433376D-03 -0.138013D+01 -0.585279D+00 -0.225463D+01  0.158288D+00
     25 -0.935821D-02  0.828313D-01  0.405623D-02  0.120752D-01 -0.393597D+01
     26  0.244114D-02 -0.182864D-01  0.329863D-01 -0.124808D+00 -0.896665D-02
     27 -0.232730D-02 -0.940628D-02 -0.654328D-01 -0.237304D-01  0.549723D+00
     28 -0.290495D-02  0.769533D-01 -0.124998D-01 -0.359153D-01 -0.306367D+01
     29 -0.154206D-02 -0.734188D-01 -0.841649D-01 -0.748332D-01  0.125327D+01
     30 -0.163988D-01 -0.435471D-01 -0.764227D-01  0.663669D-01 -0.545765D+00
     31  0.274693D-02  0.525768D-01  0.586797D-01  0.174043D-01 -0.180075D+01
     32 -0.101518D-02  0.110270D+00 -0.405356D-01 -0.426709D-02 -0.113353D+01
     33 -0.649845D-02  0.331268D-01 -0.123889D-01  0.874702D-01  0.757026D-01
     34  0.155295D-02 -0.260646D-02 -0.551241D-01  0.601101D-01 -0.118351D-01
     35  0.254086D-03 -0.576499D-01  0.566057D-01  0.340250D-01 -0.607585D-02
     36 -0.645201D-02  0.101367D-03  0.133720D-01  0.109910D+00 -0.118781D-01
     37  0.346679D-02  0.366689D-01 -0.941153D-01 -0.231649D-01 -0.352371D-01
     38  0.728286D-02 -0.359638D-01  0.616049D-02  0.203295D-01  0.629674D-01
     39 -0.253172D-02 -0.615864D-02 -0.842550D-02  0.666858D-01  0.340237D-01
     40  0.745891D-02 -0.271523D-01  0.922883D-01 -0.892809D-01  0.226566D-01
     41 -0.383126D-02  0.491378D-01  0.108721D+00  0.478391D-02  0.494085D-02
     42 -0.432008D-03 -0.834796D-01  0.373923D-01  0.345493D-01  0.521422D-01
     43 -0.518960D-01  0.894666D-01 -0.826509D-01  0.788990D-01  0.187610D-01
     44 -0.577607D-01 -0.944494D-01 -0.378986D-03 -0.483816D-01 -0.374805D-01
     45 -0.157786D-01  0.100254D+00 -0.539339D-01  0.215911D-02  0.173974D-01
     46 -0.127310D+00 -0.307752D-01  0.322066D-01 -0.838563D-01  0.969488D-02
     47 -0.270400D-01  0.796485D-01 -0.646503D-01 -0.560116D-01  0.424436D-02
     48  0.172308D+00 -0.140261D+00 -0.458906D-01 -0.174251D-01 -0.607515D-01
     49 -0.142810D+01  0.212710D-01  0.413472D-02 -0.803160D-02  0.185967D-01
     50 -0.222923D+01  0.169274D-01 -0.343498D-02 -0.802976D-02  0.913945D-02
     51 -0.279786D+01 -0.240278D-01 -0.454661D-02  0.319048D-02 -0.243457D-01
               11            12            13            14            15 
     11  0.121450D+02
     12 -0.116904D+01  0.153872D+02
     13  0.168951D+00  0.810180D-01  0.120099D+02
     14  0.116504D+00  0.139722D+00 -0.937605D+00  0.147066D+02
     15  0.134151D+00 -0.118910D+00 -0.129775D+01 -0.407681D+00  0.147063D+02
     16 -0.328950D+00  0.543614D-02  0.194512D+00 -0.313398D-01  0.145406D+00
     17  0.242052D-01  0.229931D-02  0.255501D-02 -0.136480D+00  0.452780D-02
     18  0.848039D-02 -0.250897D+00  0.135473D+00 -0.176843D-02 -0.836913D-01
     19 -0.107957D+00 -0.570463D-01  0.208889D+00  0.496751D-01  0.213100D-01
     20 -0.190629D+00  0.218329D-01  0.597783D-01 -0.952600D-01  0.102242D-01
     21  0.100383D-01 -0.216359D+00  0.229410D-01  0.988895D-02 -0.103860D+00
     22  0.933609D-01  0.122554D+00 -0.157161D+00 -0.562351D-01  0.538436D-01
     23  0.133875D+00 -0.311860D+00 -0.665534D-01  0.103320D+00  0.144502D-01
     24 -0.381766D+00 -0.195737D+00  0.686432D-01  0.100626D-01  0.134847D+00
     25 -0.439294D-01  0.418486D+00 -0.121916D-01  0.202453D-01  0.352306D-01
     26 -0.407141D+01 -0.810102D-01  0.178002D-01 -0.107329D-01  0.332676D-01
     27 -0.298863D+00 -0.157060D+01  0.322803D-01  0.393829D-01  0.421906D-01
     28  0.104592D+01 -0.530854D+00  0.260594D-01  0.105112D+00  0.222812D-01
     29 -0.292880D+01 -0.661625D+00  0.111931D+00  0.965054D-01  0.350766D-01
     30 -0.569951D+00 -0.378287D+01  0.184364D-01  0.229794D-01 -0.430350D-01
     31 -0.995613D+00  0.131201D+00  0.929634D-03 -0.128613D-01 -0.326294D-02
     32 -0.346462D+01 -0.102346D+00  0.136124D-01 -0.117819D-01 -0.220688D-02
     33 -0.675184D-01 -0.391061D+01  0.856944D-02 -0.827117D-02 -0.195713D-01
     34 -0.145795D-01  0.326342D-02 -0.279242D+01  0.176432D+00 -0.141964D+01
     35 -0.915598D-02  0.971278D-02  0.187763D+00 -0.380386D+01 -0.282372D+00
     36 -0.122743D-02  0.664794D-02 -0.121469D+01 -0.231287D+00 -0.233616D+01
     37  0.707016D-01  0.346713D-01 -0.399429D+01 -0.132443D-01 -0.188287D-01
     38  0.125535D+00  0.941195D-01 -0.202246D+00 -0.188873D+01  0.969425D+00
     39  0.101824D+00  0.215946D-02 -0.114274D+00  0.103568D+01 -0.342817D+01
     40  0.140684D-01  0.371182D-01 -0.318820D+01 -0.818612D+00  0.831879D+00
     41 -0.271196D-01 -0.282642D-02 -0.696325D+00 -0.292470D+01 -0.919206D+00
     42  0.935811D-02  0.733372D-02  0.764458D+00 -0.998096D+00 -0.270262D+01
     43 -0.265638D-01  0.123365D-01  0.977832D-02 -0.748132D-02  0.885456D-02
     44  0.129047D-01 -0.156799D-01 -0.986781D-02 -0.341527D-02 -0.658833D-02
     45 -0.123729D-01 -0.644592D-02  0.140438D-01 -0.865778D-02 -0.755907D-03
     46 -0.203473D-02 -0.119826D-01  0.469927D-01  0.214138D-01 -0.562252D-02
     47 -0.285504D-01 -0.367163D-02  0.353607D-01 -0.125979D-01 -0.702846D-02
     48 -0.201383D-02 -0.966873D-02 -0.249035D-01 -0.837002D-02 -0.183046D-01
     49  0.974269D-03 -0.518491D-02  0.726702D-02  0.150920D-02 -0.211950D-02
     50 -0.368425D-02 -0.436548D-03  0.643163D-02 -0.313945D-02 -0.197865D-02
     51 -0.374298D-02 -0.270142D-02 -0.716114D-02 -0.503331D-03 -0.958950D-03
               16            17            18            19            20 
     16  0.102252D+02
     17 -0.308770D+01  0.222534D+02
     18  0.173900D+01  0.631457D+01  0.221273D+02
     19 -0.744518D+01  0.335049D+01 -0.288935D+01  0.973593D+01
     20  0.315349D+01 -0.910393D+01 -0.555296D+01 -0.295206D+01  0.217048D+02
     21 -0.272480D+01 -0.559659D+01 -0.879824D+01  0.178015D+01  0.628438D+01
     22 -0.410285D-01 -0.191471D-01 -0.100236D+00  0.290887D-01 -0.229975D+00
     23 -0.322275D-01  0.754387D-01 -0.945238D-02 -0.229067D+00 -0.239556D-01
     24 -0.620831D-01 -0.278037D-01 -0.862558D-01  0.623898D-01 -0.104767D+00
     25 -0.249768D-01 -0.134377D-01 -0.120541D-01 -0.449283D-02 -0.129981D-01
     26 -0.173629D-01  0.570687D-02  0.236746D-01 -0.132417D-01 -0.335848D-02
     27 -0.337574D-01  0.446836D-01  0.638563D-02 -0.344402D-01  0.193111D-01
     28 -0.149235D-01  0.117652D-01 -0.443000D-02 -0.312034D-01 -0.163393D-02
     29 -0.643297D-02  0.777575D-02  0.289194D-02 -0.405529D-01  0.245508D-01
     30  0.229026D-02 -0.716033D-02 -0.719655D-02 -0.413321D-03  0.417466D-02
     31  0.299644D-01 -0.278898D-01  0.698191D-02  0.363211D-01 -0.147680D-01
     32 -0.319552D-01  0.324352D-02 -0.386361D-02 -0.214646D-01 -0.308441D-02
     33  0.466330D-02 -0.297849D-02 -0.130235D-01 -0.504972D-02  0.295580D-02
     34  0.257276D-01  0.477096D-03  0.135183D-02  0.285786D-01  0.476917D-02
     35 -0.849261D-03 -0.105970D-01  0.437652D-03  0.377491D-02 -0.749017D-02
     36 -0.108577D-01 -0.143889D-03 -0.950002D-02 -0.154483D-01 -0.200250D-02
     37  0.193923D-01  0.670979D-02  0.160212D-01  0.171309D-01  0.120715D-01
     38  0.234793D-01 -0.743798D-02  0.119770D-01  0.301759D-01  0.199129D-02
     39  0.278394D-01  0.776556D-02 -0.215103D-02  0.169750D-01  0.792899D-02
     40  0.169469D-01 -0.476134D-02  0.103235D-01  0.210735D-01 -0.379834D-03
     41 -0.114467D-01 -0.527694D-02 -0.581856D-02 -0.951777D-02 -0.716899D-02
     42  0.161770D-01 -0.338434D-02 -0.114610D-02  0.148902D-01 -0.122926D-03
     43 -0.377266D+01 -0.845538D+00  0.951841D+00  0.295756D+00 -0.223220D-01
     44 -0.832511D+00 -0.341095D+01 -0.114135D+01 -0.392939D-01 -0.474779D-01
     45  0.931022D+00 -0.113517D+01 -0.316565D+01  0.485964D-01  0.346915D+00
     46  0.379193D+00 -0.764285D-01  0.742150D-01 -0.403965D+01 -0.747993D+00
     47 -0.153607D-01 -0.175515D+00  0.462380D+00 -0.952349D+00 -0.412757D+01
     48  0.141878D-01  0.476489D+00 -0.110985D+00  0.128850D+01 -0.115626D+01
     49  0.823297D-01  0.880456D-01 -0.107292D+00  0.863046D-02 -0.109898D+00
     50  0.939160D-01  0.970579D-02 -0.723985D-01 -0.223476D-01  0.393314D-01
     51 -0.121296D+00 -0.759232D-01  0.417562D-01  0.159521D-01  0.450603D-01
               21            22            23            24            25 
     21  0.207460D+02
     22 -0.120083D-01  0.391255D+01
     23 -0.709288D-01 -0.904786D-01  0.476830D+01
     24 -0.617031D-01  0.139389D+01  0.786039D+00  0.189903D+01
     25 -0.735795D-02 -0.361215D-01 -0.675214D-02 -0.252564D-01  0.393136D+01
     26  0.101749D-01 -0.111061D-01 -0.222360D-01  0.666557D-01  0.514771D-01
     27  0.111515D-01 -0.333203D-01  0.475745D-01  0.134161D+00 -0.401949D+00
     28 -0.956023D-02  0.370466D-01 -0.324481D-03  0.409998D-02  0.999866D-01
     29  0.176061D-01 -0.839388D-02 -0.674677D-01 -0.690350D-01 -0.574251D-01
     30 -0.205960D-01 -0.291412D-02 -0.619210D-01 -0.554418D-02  0.114378D+00
     31 -0.418310D-02  0.227977D-01 -0.291995D-01 -0.437333D-01 -0.395847D-01
     32  0.278562D-02 -0.373623D-01  0.879571D-02  0.380182D-01  0.661574D-01
     33 -0.113423D-01 -0.307962D-01  0.253786D-01  0.103786D-01 -0.153762D+00
     34 -0.430650D-02  0.886634D-01  0.430281D-01 -0.904429D-01  0.112854D-01
     35  0.343434D-03  0.368801D-01 -0.217406D-01 -0.272062D-01  0.143135D-01
     36 -0.510251D-02 -0.730652D-01 -0.254719D-01  0.144123D-01  0.495190D-02
     37  0.571480D-02 -0.183807D-01 -0.429814D-01  0.616355D-02 -0.718674D-03
     38  0.645246D-02 -0.363490D-01 -0.118645D-01  0.377640D-03  0.874754D-04
     39 -0.762055D-02  0.133434D-02  0.212292D-02  0.217997D-01  0.212057D-03
     40  0.732583D-02 -0.434184D-01  0.195347D-02 -0.715759D-02  0.317682D-02
     41 -0.211073D-02 -0.413953D-02  0.150942D-01  0.262012D-02  0.433969D-03
     42 -0.397789D-02 -0.408342D-02  0.347961D-03  0.130023D-01  0.973770D-02
     43  0.284581D-01 -0.512488D-02  0.274202D-03 -0.235765D-04 -0.197078D-02
     44  0.356739D+00  0.530238D-02  0.119743D-02 -0.193901D-02  0.973096D-03
     45 -0.152239D+00 -0.606886D-02 -0.977016D-03  0.140667D-02  0.344786D-03
     46  0.101354D+01 -0.499185D-01 -0.171852D-01 -0.267423D-02 -0.271916D-02
     47 -0.115919D+01 -0.190018D-01  0.906023D-02  0.270686D-02  0.111308D-03
     48 -0.340790D+01 -0.249994D-02  0.111360D-02  0.131397D-01  0.839047D-04
     49  0.134401D+00 -0.132401D-02 -0.156901D-02  0.329172D-02  0.864503D-03
     50  0.479107D-01  0.505738D-03 -0.266391D-02  0.349242D-02  0.240302D-03
     51  0.413496D-01  0.356146D-03  0.199732D-02 -0.529887D-02 -0.145945D-02
               26            27            28            29            30 
     26  0.386112D+01
     27 -0.146657D+00  0.163923D+01
     28 -0.325980D-01  0.877748D-01  0.311094D+01
     29  0.410006D-01  0.174728D+00 -0.107457D+01  0.261700D+01
     30  0.147168D+00 -0.150343D+00  0.405819D+00  0.602809D+00  0.390819D+01
     31  0.493669D-01 -0.143877D+00 -0.205222D+00 -0.706068D-01  0.505921D-01
     32  0.675544D-01  0.711367D-01 -0.561384D-01  0.121297D+00 -0.325414D-03
     33  0.588345D-01 -0.308605D-01  0.687213D-01  0.526427D-02  0.103765D+00
     34  0.172067D-01  0.198683D-01  0.733362D-02  0.103488D-01 -0.215811D-02
     35  0.391652D-02  0.124254D-01  0.663181D-02  0.422490D-02 -0.101774D-02
     36  0.579119D-02 -0.676877D-02 -0.508379D-02 -0.476431D-02 -0.859322D-03
     37 -0.315593D-02 -0.180739D-02 -0.906405D-03 -0.422240D-02 -0.216988D-02
     38 -0.270995D-02  0.304089D-02  0.163641D-02 -0.131300D-02 -0.379120D-02
     39 -0.245583D-02  0.139295D-02  0.772056D-03 -0.240873D-03 -0.163933D-02
     40  0.354556D-02  0.128887D-01  0.677180D-02  0.742227D-02  0.128444D-02
     41 -0.250803D-02  0.658001D-04  0.668716D-03 -0.216161D-02  0.110683D-02
[...]
   yy         0.739297D+02      0.109553D+02      0.121894D+02
   zx        -0.527573D+01     -0.781782D+00     -0.869850D+00
   zy         0.276854D+00      0.410255D-01      0.456470D-01
   zz         0.611226D+02      0.905743D+01      0.100778D+02

 ----------------------------------------------------------------------

 Test job not archived.
 1\1\GINC-C0268\Freq\RM062X\CC-pVTZ\C5H10O2\HARMS.N\27-Sep-2019\0\\#P G
 eom=AllCheck Guess=TCheck SCRF=Check Test GenChk RM062X/CC-pVTZ Freq\\
 Gaussian input prepared by ASE\\0,1\O,0.1904672687,1.0220192521,0.9814
 926832\O,2.6633484018,-1.3086212598,2.2679026665\C,0.3396273647,2.2047
 947589,1.7638298913\C,-0.3100395613,2.0293322796,3.1275251272\C,-0.307
 4314057,3.3198453947,0.968511567\C,1.0215272894,-0.0172310825,1.226076
 8836\C,1.9821645032,-0.1142011672,2.1380826833\H,1.4091709083,2.412082
 288,1.8741305414\H,-1.3836402178,1.8878243808,3.0011664796\H,0.0894092
 96,1.1656139337,3.6551335295\H,-0.1475694899,2.9163031236,3.7398001797
 \H,-1.3596835624,3.0886176121,0.8023066641\H,0.179130015,3.4335855491,
 0.0016466865\H,-0.2393693336,4.2616330737,1.5119971548\H,0.8250587052,
 -0.8555578721,0.571118019\H,2.2284397213,0.6626527554,2.8499150417\H,3
 .606974454,-1.1328493845,2.2775656665\\Version=EM64L-G16RevA.03\State=
 1-A\HF=-346.9403526\RMSD=3.385e-09\RMSF=7.330e-07\ZeroPoint=0.1472441\
 Thermal=0.1557761\Dipole=0.4815389,0.7316234,0.2734728\DipoleDeriv=-0.
 7538428,0.4472623,-0.1960711,0.7910917,-1.3902569,0.0724633,-0.029655,
 -0.1789856,-0.4946261,-0.6317863,0.4318024,-0.1753351,0.6581295,-0.891
 0536,0.1926128,-0.1546609,0.072769,-0.4939598,0.2730625,-0.0079651,-0.
 0744959,-0.2777542,0.8580484,0.0290877,-0.1997103,0.2551343,0.4609562,
 0.0378081,0.0131863,0.0721127,0.0533967,-0.0300233,0.1004795,0.0792623
 ,-0.0144719,-0.1118165,0.0604833,0.0614808,-0.0056694,0.0678781,-0.025
 2241,0.0450925,0.0006847,0.0737266,0.0097197,0.5610927,-0.5311803,0.26
 55155,-0.6566858,0.763474,-0.1131206,0.2657715,-0.0334567,0.124243,0.1
 27,-0.3299733,0.2174947,-0.6734112,0.5834584,-0.1527875,0.0841147,0.07
 74889,-0.0078923,-0.1433691,-0.0569562,-0.0030038,0.0402295,-0.0158448
 ,0.0085656,0.0280337,-0.0290804,-0.0207327,-0.1005176,-0.0108189,0.015
 28,-0.0209738,0.0642768,-0.0085253,-0.0580313,-0.0040267,0.0394283,0.0
 443997,0.0379581,-0.0356436,0.0277064,-0.0270185,0.0868523,-0.0294319,
 0.0768705,0.0121344,0.0470579,-0.0281012,-0.0117006,-0.0148874,-0.0652
 871,-0.1004875,0.0247434,-0.084731,0.0170096,-0.092838,-0.0034272,-0.0
 324217,-0.0720362,0.0420774,-0.0023858,-0.0060013,0.0261906,0.0559833,
 0.0238217,-0.0018006,0.0729823,0.0045136,0.0558324,0.0143751,0.0512226
 ,0.0565024,-0.0867015,0.0553459,-0.0053138,-0.0224193,0.0200037,-0.078
 6996,-0.0495345,-0.0149525,-0.0966899,0.0069144,0.0948335,0.0371145,-0
 .0420756,0.0457824,-0.029747,-0.0655562,-0.0369059,-0.06632,0.08194,0.
 129041,0.0056407,-0.0468431,0.0752541,-0.0646678,-0.0645243,-0.0689786
 ,-0.0962421,0.036804,0.2684074,-0.0589083,0.002294,-0.0682371,0.250655
 3,0.0073927,0.0644947,-0.034678,0.370596\Polar=68.6807384,-12.5622537,
 72.1825788,6.0541381,-1.2886156,62.4586963\Quadrupole=3.5589496,-2.314
 2293,-1.2447204,-0.9227267,0.4772001,1.3652982\PG=C01 [X(C5H10O2)]\NIm
 ag=0\\0.26426976,-0.15115554,0.49541623,0.10016843,0.08055713,0.222342
 04,-0.00567736,0.01130481,-0.00823798,0.66417231,0.01312058,-0.0103245
 6,-0.00403528,-0.03450696,0.35593825,-0.01069622,0.00381644,0.00384905
 ,0.04085323,-0.02283198,0.04647323,-0.08738654,-0.02341801,-0.03376510
 ,-0.00015183,0.00005591,-0.00210120,0.62165087,-0.00577197,-0.15270694
 ,-0.05339469,-0.00528615,0.00496029,-0.00426268,0.00179796,0.48632665,
 -0.02209770,-0.06950664,-0.12042505,-0.00319915,0.00348430,-0.00273256
 ,0.01985178,-0.02712828,0.49037235,0.00559775,-0.00082302,-0.00453139,
 -0.00007176,-0.00008759,0.00023155,-0.11020945,-0.00769303,0.05291357,
 0.55874304,0.01572384,-0.01257620,-0.03989458,0.00045294,-0.00076759,0
 .00088729,-0.00946548,-0.08053317,0.02671447,-0.00573299,0.59157993,0.
 00782063,-0.01396085,-0.02759371,0.00058586,-0.00029754,0.00017248,0.0
 4535968,0.02107753,-0.16559069,0.04363928,0.00517890,0.50511817,0.0043
 6986,-0.00184902,0.00260134,0.00031822,0.00043184,0.00011737,-0.110774
 85,0.04505277,-0.03376900,0.00692989,-0.01217796,0.00790716,0.56339547
 ,0.02012257,-0.04750486,0.00964523,0.00068174,-0.00009011,0.00043029,0
 .03585860,-0.13462357,0.04859298,0.00116559,-0.00318199,0.00992987,0.0
 3065540,0.54125075,0.01130017,-0.02386651,0.00961312,0.00068400,-0.000
 43274,0.00035460,-0.03511478,0.06082347,-0.11962114,-0.01285950,0.0272
 1771,-0.02228465,-0.02588046,0.03839573,0.57008845,-0.16880469,0.13280
 005,-0.05293342,-0.01644677,0.00460110,-0.01212444,0.00159098,0.008878
 55,0.00944440,-0.00078411,-0.00349928,0.00057720,-0.00100119,-0.003638
 73,-0.00229510,0.55345707,0.11133096,-0.22410651,0.00546398,0.03599033
 ,-0.00454328,0.02768739,0.01919172,-0.04943303,-0.00317361,0.00141300,
 0.00546223,0.00107921,-0.00004614,-0.00245705,-0.00247293,-0.12275282,
 0.59789444,-0.06493626,0.02258031,-0.08783205,-0.00344108,0.00716770,0
 .00108867,0.01684069,-0.01272968,0.00418221,-0.00028555,-0.00461691,-0
 .00062649,-0.00102261,-0.00185313,-0.00185589,0.35359452,0.13975058,0.
 55617977,-0.01779441,0.01522966,-0.01573628,-0.13639234,0.07827714,-0.
 02471357,-0.00112375,-0.00056907,-0.00122688,0.00002239,0.00003089,0.0
 0033818,-0.00019070,-0.00026791,0.00000015,-0.30933360,0.01302919,-0.2
 4395744,0.54835706,0.02173147,0.00469262,0.02436041,0.11634410,-0.2550
 6755,0.00807766,0.00314780,0.00059780,0.00306387,-0.00012574,0.0005749
 4,-0.00036040,0.00030079,-0.00006030,-0.00002465,0.03033752,-0.1163253
 2,-0.00843579,-0.11097710,0.54975423,-0.00800853,0.01112497,0.00143550
 ,-0.03135510,0.00988190,-0.05416956,0.00356382,0.00168708,0.00104228,0
 .00047382,0.00057957,-0.00115567,-0.00028600,-0.00063459,-0.00014446,-
 0.24314242,-0.01883444,-0.30109215,0.35658835,0.12788363,0.53928081,-0
 .00137626,-0.00825637,-0.00524418,0.00041642,-0.00000422,0.00122187,-0
 .29137231,-0.04256418,-0.02030779,-0.01356801,-0.00147317,-0.00032741,
 -0.01274603,-0.00070892,-0.00152270,0.00103275,0.00204301,0.00003271,-
 0.00122465,-0.00008376,-0.00245120,0.31636757,-0.02949449,-0.02418430,
 -0.01374045,0.00061006,0.00002864,-0.00017748,-0.03613293,-0.05533399,
 -0.00087716,-0.00445083,0.00078332,0.00081981,0.02541614,0.00480741,0.
 00362900,-0.00588264,0.00570585,-0.00179825,0.00127152,-0.00020285,0.0
 0190474,0.04672088,0.07196704,-0.02062174,-0.01570132,-0.00688014,0.00
 006016,-0.00035124,-0.00000395,-0.01752361,-0.00255728,-0.05217538,0.0
 3088848,0.00538650,0.00222070,-0.01830617,-0.00131913,-0.00216833,-0.0
 0245388,0.00290083,-0.00042488,0.00097414,0.00111103,0.00050391,0.0272
 2386,0.00670161,0.06275960,0.00171376,0.00052498,-0.00064567,-0.000007
 21,0.00016063,0.00011755,-0.01752905,-0.00324663,-0.00105173,-0.307115
 05,-0.03367800,-0.03401795,0.00102056,0.00061905,-0.00112435,-0.000322
 41,0.00039938,-0.00000041,0.00006249,-0.00027412,-0.00001873,0.0003089
 8,-0.00002976,0.00278933,0.33408388,0.00044291,0.00120148,0.00025020,0
 .00003186,-0.00004417,-0.00014666,-0.00473822,-0.00213014,-0.00099488,
 -0.03322791,-0.05157037,-0.00363709,-0.00076213,0.00007665,-0.00033375
 ,0.00079513,-0.00104045,0.00034939,0.00003092,-0.00005024,-0.00033109,
 -0.00008328,0.00066008,0.00110268,0.03790502,0.05092939,-0.00168428,0.
 00118998,0.00268094,-0.00011183,0.00011383,0.00001246,0.03320973,0.005
 38331,0.00130100,-0.03615708,-0.00493847,-0.05053297,0.00112996,-0.000
 83359,0.00180927,-0.00005741,-0.00035361,0.00012966,-0.00012322,0.0000
 0534,0.00008145,0.00245299,0.00065188,-0.00539384,0.03471227,0.0028699
 9,0.05540813,-0.00024684,0.00075850,-0.00176545,-0.00012197,-0.0002161
 7,-0.00006052,0.00637150,-0.01460616,0.00581220,-0.08646226,0.08194179
 ,-0.04928991,-0.00106619,0.00020910,0.00245512,0.00033097,-0.00034857,
 0.00030580,-0.00116123,0.00094096,0.00074119,0.00049034,-0.00006004,-0
 .00078783,-0.01058009,0.02600890,-0.01447174,0.09184437,-0.00035356,0.
 00090828,0.00051784,0.00008775,-0.00009265,-0.00037326,0.00060231,-0.0
 0325960,0.00018339,0.08068591,-0.22024748,0.10566177,-0.00096051,0.000
 67978,0.00047070,0.00070603,-0.00063606,-0.00054978,0.00128144,-0.0004
 0425,-0.00047850,-0.00018841,-0.00003571,0.00019178,-0.00194478,0.0047
 9811,-0.00341808,-0.09015357,0.23716850,-0.00045356,-0.00104325,0.0027
 8796,-0.00019951,0.00038822,0.00006088,-0.01330189,0.02513788,-0.01369
 268,-0.04869221,0.10285831,-0.10969418,0.00396869,-0.00062560,-0.00525
 727,-0.00054249,0.00017228,-0.00075773,0.00053089,-0.00082863,0.000242
 08,-0.00005002,-0.00046734,0.00093000,-0.00117434,0.00264868,-0.002551
 14,0.05167641,-0.11502210,0.11831108,-0.00059743,0.00141628,0.00446681
 ,-0.00012414,0.00008731,-0.00005507,0.00150728,0.01282477,0.00597091,-
 0.05305024,-0.03459692,-0.02283190,0.00003966,0.00003625,-0.00043059,0
 .00067585,-0.00079398,0.00040595,-0.00009573,-0.00011778,-0.00009704,0
 .00007103,0.00014041,-0.00084577,-0.00280132,-0.02636796,-0.01804855,0
 .00113856,0.00975255,0.00809482,0.05308373,0.00038517,0.00149416,0.001
 29458,0.00015413,-0.00014156,0.00002557,0.00089342,0.00173942,0.002896
 42,-0.03408061,-0.22684771,-0.12392041,0.00008196,-0.00033951,0.000050
 12,-0.00025768,0.00044496,0.00016464,0.00003871,0.00024105,-0.00013399
 ,0.00036354,0.00033018,-0.00055319,-0.00003484,-0.00268302,-0.00070082
 ,-0.00482999,-0.01905029,-0.01472268,0.03734070,0.24460536,0.00448098,
 -0.00283804,-0.00768164,0.00029860,-0.00043655,0.00027921,-0.00810308,
 -0.02420482,-0.01157890,-0.02203144,-0.12162103,-0.13083842,-0.0005080
 4,-0.00046618,0.00094924,-0.00198137,0.00212700,-0.00107637,0.00011822
 ,0.00022496,0.00043903,0.00043357,0.00018089,0.00121480,-0.00033615,-0
 .00202571,-0.00267028,0.00362802,0.01292199,0.01003087,0.02362051,0.13
 521864,0.14115286,0.00145143,-0.00062528,0.00056034,0.00005237,0.00010
 078,0.00008130,-0.01774015,-0.00311113,-0.00317962,0.00093376,-0.00043
 366,0.00107540,-0.29730902,-0.05733328,-0.03772773,0.00014166,0.000219
 66,0.00015053,0.00012862,-0.00020179,-0.00011995,0.00042013,0.00255919
 ,-0.00160253,0.00064252,0.00004002,-0.00064861,0.00031620,0.00013492,0
 .00013411,0.00005304,0.00008545,0.00009807,0.32344164,-0.00125741,0.00
 302026,-0.00004427,-0.00020858,-0.00001852,-0.00011457,0.02675220,0.00
 397273,0.00497952,0.00060158,0.00082606,-0.00147509,-0.05952098,-0.059
 44202,-0.00924563,0.00039996,-0.00036334,0.00009446,0.00013763,-0.0001
 1351,0.00012667,0.00192938,-0.00340435,0.00263538,-0.00057388,0.000127
 30,0.00008667,-0.00006829,-0.00005117,-0.00021135,-0.00012209,0.000018
 39,0.00003717,0.06145672,0.06213266,0.00141683,-0.00096027,0.00040984,
 -0.00000955,0.00013174,0.00004963,-0.01910164,-0.00452781,-0.00432845,
 -0.00121781,-0.00103720,0.00086981,-0.03676188,-0.00800367,-0.05340543
 ,0.00010578,-0.00006146,-0.00005023,-0.00006603,-0.00009176,-0.0002167
 0,-0.00109368,0.00290067,-0.00118870,0.00049382,0.00043946,-0.00033979
 ,0.00038596,0.00001549,0.00018228,-0.00003979,0.00005615,-0.00007499,0
 .04349622,0.00669438,0.05524713,0.00014359,-0.00142375,0.00014567,0.00
 000605,-0.00005710,0.00001859,0.00675975,0.00157097,-0.01529906,-0.001
 00461,0.00247248,-0.00103583,-0.10534808,-0.01264432,0.11167124,-0.000
 04967,-0.00007337,-0.00002456,-0.00003061,-0.00001085,-0.00003096,0.00
 080542,-0.00089291,0.00003580,0.00041095,0.00026389,-0.00022119,0.0007
 6728,0.00036111,-0.00076891,-0.00015741,0.00006608,0.00021176,-0.01266
 464,-0.00209110,0.02803538,0.11001887,-0.00062071,0.00273166,-0.000625
 40,-0.00016558,0.00011871,-0.00011580,-0.01273181,-0.00377479,0.022736
 35,0.00261661,-0.00385938,0.00164659,-0.01172244,-0.04954264,0.0218067
 1,0.00051593,-0.00047743,0.00005183,-0.00003352,0.00002007,-0.00000365
 ,-0.00016429,0.00085656,-0.00084690,0.00021437,-0.00004861,-0.00024867
 ,-0.00041216,0.00008062,0.00154071,0.00011182,0.00023974,0.00021657,-0
 .00289491,-0.00169796,0.00661634,0.01170756,0.05093333,-0.00008180,-0.
 00121026,0.00167827,0.00000593,0.00002086,0.00006200,0.00874874,0.0000
 0412,-0.01673486,-0.00276480,0.00342235,-0.00081512,0.10965765,0.02463
 135,-0.26149312,-0.00015857,0.00014825,0.00022478,-0.00004672,-0.00013
 309,0.00001880,-0.00034600,-0.00034997,0.00046580,-0.00004804,-0.00008
 742,0.00018036,0.00071753,0.00014355,-0.00097060,-0.00005225,-0.000096
 68,0.00035512,-0.00272487,-0.00066228,0.00577616,-0.11926270,-0.028185
 68,0.28380233,-0.00131260,0.00412374,-0.00161070,-0.00016651,0.0000789
 7,-0.00004164,0.00031269,0.01049220,0.00906184,0.00025652,-0.00029523,
 0.00034035,-0.04785629,-0.01569367,-0.00990279,0.00111613,0.00033643,0
 .00034822,0.00001471,-0.00010223,0.00000441,-0.00003282,-0.00064353,0.
 00048057,-0.00003085,-0.00013787,-0.00013893,-0.00022711,-0.00002237,0
 .00009409,0.00029302,-0.00007613,-0.00003684,0.00013743,-0.02738346,-0
 .01566654,0.00029793,0.01365080,0.00625523,0.04734456,0.00440777,-0.00
 594010,0.00259733,0.00039192,-0.00032117,0.00021349,-0.00523442,-0.016
 83949,-0.01496451,-0.00049974,0.00068039,-0.00095886,-0.01470695,-0.24
 884764,-0.11525664,-0.00152432,0.00026163,-0.00056059,0.00000504,0.000
 05264,-0.00003550,0.00045110,0.00066506,-0.00002939,0.00001750,-0.0000
 8561,0.00007863,0.00018806,0.00040150,0.00007964,0.00003600,0.00022285
 ,0.00085879,0.00001667,-0.00502457,-0.00222907,0.00075651,0.00441652,0
 .00226786,0.01547852,0.27065895,-0.00212891,0.00432173,-0.00073898,-0.
 00001913,0.00000308,-0.00005649,0.00345495,0.01316834,0.00848430,0.000
 09585,-0.00024392,0.00013069,-0.00940608,-0.11837541,-0.11670988,0.000
 30753,0.00083377,0.00072881,0.00006536,-0.00001910,0.00004250,0.000111
 63,-0.00075726,0.00052714,0.00016768,-0.00005479,0.00002669,-0.0000210
 5,-0.00010402,0.00027393,-0.00009185,0.00051761,-0.00044767,0.00028186
 ,-0.00271739,-0.00305666,-0.00343358,-0.02464182,-0.01246687,0.0108690
 9,0.12789810,0.12329188,0.00244131,0.02405056,0.01453171,-0.00134842,-
 0.00188926,0.00474735,-0.00070865,0.00170424,-0.00271124,0.00012382,0.
 00005074,-0.00025332,0.00032870,0.00082906,0.00067301,-0.06170849,-0.0
 4588247,-0.04606582,0.00405665,-0.01705581,-0.01526123,0.00006790,0.00
 047401,0.00017144,-0.00002281,0.00000832,0.00000869,-0.00000605,-0.000
 14940,0.00012656,0.00000630,-0.00007616,0.00008335,-0.00004777,-0.0000
 5181,0.00000917,0.00002184,-0.00002448,-0.00000854,-0.00017927,0.00023
 836,-0.00021513,0.05709974,0.00183645,-0.02966564,-0.01515327,-0.00150
 419,-0.00004441,0.00240060,0.00328821,0.00205597,0.00306433,-0.0001415
 5,-0.00053331,-0.00030141,-0.00016665,-0.00077743,-0.00083572,-0.04313
 002,-0.21302910,-0.13836569,0.00276009,0.00335876,-0.00052027,-0.00024
 282,0.00002477,-0.00000730,0.00001583,0.00003105,-0.00000532,0.0000779
 4,0.00000427,-0.00004521,0.00012930,-0.00000338,-0.00020788,0.00003479
 ,0.00002494,-0.00000235,-0.00002739,-0.00000289,0.00004888,0.00017260,
 -0.00028427,0.00020547,0.03451766,0.23729227,0.00267092,0.00651850,0.0
 0747677,0.00395335,0.00159685,-0.00178288,-0.00197667,0.00120913,0.001
 63648,-0.00000995,0.00042653,0.00045594,-0.00005726,0.00011831,0.00006
 800,-0.04350541,-0.14059107,-0.16152077,-0.00616826,-0.01905332,-0.007
 08039,0.00006442,-0.00021115,-0.00021727,0.00003465,-0.00004698,0.0000
 2143,-0.00016789,0.00011305,-0.00000667,-0.00010934,0.00006416,0.00007
 864,0.00000157,0.00000947,0.00001811,0.00001206,0.00002335,-0.00002351
 ,-0.00001524,0.00004385,-0.00000196,0.05073473,0.15105778,0.15869793,0
 .00095818,-0.00116771,0.00325507,0.00443284,0.01869754,0.01046654,-0.0
 0135263,-0.00004037,-0.00052019,-0.00027664,0.00081090,0.00011028,-0.0
 0019846,0.00007008,0.00009090,0.00174418,-0.01682388,-0.01412897,-0.06
 570944,-0.04277605,-0.05710519,0.00031885,0.00031503,-0.00041004,0.000
 14034,-0.00021212,0.00013336,-0.00130173,0.00011742,0.00048299,-0.0000
 5792,-0.00002401,0.00009093,0.00002506,0.00002063,-0.00000885,0.000026
 60,-0.00005288,0.00008999,0.00002794,0.00001318,-0.00003242,0.00054505
 ,0.00273428,-0.00632215,0.05952338,-0.00056464,-0.00146238,0.00013159,
 0.00327060,-0.02896152,-0.01563881,-0.00004237,-0.00155092,0.00075313,
 0.00040691,0.00023299,-0.00040275,0.00009305,0.00014147,0.00012803,-0.
 00019523,0.00658333,0.00093569,-0.04598024,-0.18563980,-0.13679117,0.0
 0234802,-0.00249881,0.00131736,-0.00003665,-0.00016676,0.00010821,0.00
 049315,-0.00025862,0.00016430,0.00009797,-0.00026132,0.00002675,-0.000
 00660,-0.00004271,0.00007612,0.00000505,-0.00000628,0.00003619,0.00000
 234,0.00000773,-0.00003501,0.00294478,0.00129683,-0.00107586,0.0383542
 5,0.21258400,0.00118412,0.00226389,-0.00051362,0.00203387,0.00494602,0
 .00776744,-0.00031671,-0.00087041,-0.00089518,0.00031162,-0.00009073,0
 .00029427,0.00068668,0.00043864,0.00012788,-0.00158775,-0.01833273,-0.
 00758081,-0.06081275,-0.13768364,-0.17723910,0.00000443,0.00172548,-0.
 00021629,0.00013607,-0.00003646,-0.00014939,0.00075512,-0.00034050,0.0
 0009871,0.00001014,-0.00012301,-0.00004803,0.00013531,-0.00023100,0.00
 011524,-0.00004722,-0.00001992,-0.00002473,-0.00006794,0.00005421,-0.0
 0002441,-0.00620066,-0.00118129,0.00205464,0.06332194,0.15006509,0.175
 57659,0.00225051,-0.00148987,-0.00125919,-0.50888990,-0.07885051,-0.00
 806269,0.00015612,0.00056723,0.00030765,-0.00006503,-0.00013089,0.0000
 0230,0.00008846,0.00003937,-0.00001659,-0.00163865,0.00276754,0.002184
 30,-0.01958545,-0.00107740,-0.00349523,0.00002071,0.00007989,-0.000072
 23,0.00002532,0.00000252,0.00001584,-0.00008575,0.00004317,0.00007437,
 0.00001572,-0.00002975,-0.00006708,0.00001773,-0.00002051,0.00002264,-
 0.00000326,0.00000570,0.00001921,0.00000451,-0.00003520,-0.00000581,-0
 .00066985,-0.00035452,0.00086044,0.00115441,-0.00119038,0.00045373,0.5
 2720441,0.00011661,-0.00099320,0.00206962,-0.12764880,-0.06062878,0.00
 012251,0.00017513,0.00053276,0.00017632,-0.00002658,-0.00002266,-0.000
 07929,-0.00011918,-0.00008895,-0.00005289,0.00184644,-0.00394087,-0.00
 218477,0.04573561,-0.00142829,0.00457465,-0.00008652,-0.00016891,0.000
 01857,-0.00003809,-0.00000470,0.00001072,0.00007655,-0.00000520,-0.000
 02386,0.00002538,-0.00000932,-0.00001255,-0.00004154,0.00003578,-0.000
 01676,0.00001712,0.00001279,0.00000196,0.00001889,-0.00002442,0.000000
 61,0.00031166,0.00025157,-0.00020260,-0.00003629,0.00000278,-0.0005836
 6,0.07967361,0.06647961,0.00166695,-0.00328582,-0.00060830,-0.00190169
 ,0.00065084,-0.00142421,0.00027528,0.00118479,0.00075627,-0.00000446,-
 0.00022880,-0.00013016,-0.00007134,-0.00007111,-0.00007040,-0.00324717
 ,0.00365655,0.00028348,-0.00576414,0.00190349,-0.00198833,-0.00020249,
 -0.00013502,0.00004681,-0.00003398,0.00003445,-0.00001398,0.00008703,0
 .00006671,0.00001247,0.00003302,-0.00003712,-0.00008348,-0.00001140,0.
 00003784,-0.00000723,-0.00000648,0.00004939,-0.00003482,0.00002682,-0.
 00005734,-0.00000300,-0.00037007,-0.00015138,0.00012550,0.00048579,0.0
 0020112,0.00065678,0.00903833,-0.00381858,0.00248259\\-0.00000057,-0.0
 0000058,0.00000049,0.00000068,0.00000078,0.00000085,-0.00000053,0.0000
 0008,-0.00000009,0.00000055,0.00000044,-0.00000022,-0.00000065,-0.0000
 0096,-0.00000074,0.00000057,-0.00000058,0.00000081,0.00000038,0.000000
 17,0.00000032,0.00000001,0.00000008,-0.00000090,0.00000027,0.00000028,
 0.00000046,0.00000082,0.00000101,0.00000045,0.00000051,0.00000112,-0.0
 0000055,-0.00000095,-0.00000115,-0.00000026,-0.00000121,-0.00000137,-0
 .00000117,-0.00000071,-0.00000035,-0.00000141,-0.00000027,-0.00000089,
 0.00000146,0.00000044,0.00000103,-0.00000006,0.00000066,0.00000091,0.0
 0000057\\\@


 THERE IS SOMETHING FASCINATING ABOUT SCIENCE.
 ONE GETS SUCH WHOLESALE CONJECTURE OUT OF SUCH TRIFLING INVESTMENTS.

                                                       -- MARK TWAIN
 Job cpu time:       0 days  3 hours 37 minutes 51.0 seconds.
 Elapsed time:       0 days  1 hours 48 minutes 59.8 seconds.
 File lengths (MBytes):  RWF=   1392 Int=      0 D2E=      0 Chk=     32 Scr=     32
 Normal termination of Gaussian 16 at Fri Sep 27 01:25:09 2019.
