 Entering Gaussian System, Link 0=g16
 Input=tight/species/CC(C)OC=CO/conformers/CC(C)OC=CO_49.com
 Output=tight/species/CC(C)OC=CO/conformers/CC(C)OC=CO_49.log
 Initial command:
 /shared/centos7/gaussian/g16/l1.exe "/scratch/harms.n/gauss_scrdir/Gau-36570.inp" -scrdir="/scratch/harms.n/gauss_scrdir/"
 Entering Link 1 = /shared/centos7/gaussian/g16/l1.exe PID=     36571.
  
 Copyright (c) 1988,1990,1992,1993,1995,1998,2003,2009,2016,
            Gaussian, Inc.  All Rights Reserved.
  
 This is part of the Gaussian(R) 16 program.  It is based on
 the Gaussian(R) 09 system (copyright 2009, Gaussian, Inc.),
 the Gaussian(R) 03 system (copyright 2003, Gaussian, Inc.),
 the Gaussian(R) 98 system (copyright 1998, Gaussian, Inc.),
 the Gaussian(R) 94 system (copyright 1995, Gaussian, Inc.),
 the Gaussian 92(TM) system (copyright 1992, Gaussian, Inc.),
 the Gaussian 90(TM) system (copyright 1990, Gaussian, Inc.),
 the Gaussian 88(TM) system (copyright 1988, Gaussian, Inc.),
 the Gaussian 86(TM) system (copyright 1986, Carnegie Mellon
 University), and the Gaussian 82(TM) system (copyright 1983,
 Carnegie Mellon University). Gaussian is a federally registered
 trademark of Gaussian, Inc.
  
 This software contains proprietary and confidential information,
 including trade secrets, belonging to Gaussian, Inc.
  
 This software is provided under written license and may be
 used, copied, transmitted, or stored only in accord with that
 written license.
  
 The following legend is applicable only to US Government
 contracts under FAR:
  
                    RESTRICTED RIGHTS LEGEND
  
 Use, reproduction and disclosure by the US Government is
 subject to restrictions as set forth in subparagraphs (a)
 and (c) of the Commercial Computer Software - Restricted
 Rights clause in FAR 52.227-19.
  
 Gaussian, Inc.
 340 Quinnipiac St., Bldg. 40, Wallingford CT 06492
  
  
 ---------------------------------------------------------------
 Warning -- This program may not be used in any manner that
 competes with the business of Gaussian, Inc. or will provide
 assistance to any competitor of Gaussian, Inc.  The licensee
 of this program is prohibited from giving any competitor of
 Gaussian, Inc. access to this program.  By using this program,
 the user acknowledges that Gaussian, Inc. is engaged in the
 business of creating and licensing software in the field of
 computational chemistry and represents and warrants to the
 licensee that it is not a competitor of Gaussian, Inc. and that
 it will not use this program in any manner prohibited above.
 ---------------------------------------------------------------
  

 Cite this work as:
 Gaussian 16, Revision A.03,
 M. J. Frisch, G. W. Trucks, H. B. Schlegel, G. E. Scuseria, 
 M. A. Robb, J. R. Cheeseman, G. Scalmani, V. Barone, 
 G. A. Petersson, H. Nakatsuji, X. Li, M. Caricato, A. V. Marenich, 
 J. Bloino, B. G. Janesko, R. Gomperts, B. Mennucci, H. P. Hratchian, 
 J. V. Ortiz, A. F. Izmaylov, J. L. Sonnenberg, D. Williams-Young, 
 F. Ding, F. Lipparini, F. Egidi, J. Goings, B. Peng, A. Petrone, 
 T. Henderson, D. Ranasinghe, V. G. Zakrzewski, J. Gao, N. Rega, 
 G. Zheng, W. Liang, M. Hada, M. Ehara, K. Toyota, R. Fukuda, 
 J. Hasegawa, M. Ishida, T. Nakajima, Y. Honda, O. Kitao, H. Nakai, 
 T. Vreven, K. Throssell, J. A. Montgomery, Jr., J. E. Peralta, 
 F. Ogliaro, M. J. Bearpark, J. J. Heyd, E. N. Brothers, K. N. Kudin, 
 V. N. Staroverov, T. A. Keith, R. Kobayashi, J. Normand, 
 K. Raghavachari, A. P. Rendell, J. C. Burant, S. S. Iyengar, 
 J. Tomasi, M. Cossi, J. M. Millam, M. Klene, C. Adamo, R. Cammi, 
 J. W. Ochterski, R. L. Martin, K. Morokuma, O. Farkas, 
 J. B. Foresman, and D. J. Fox, Gaussian, Inc., Wallingford CT, 2016.
 
 ******************************************
 Gaussian 16:  EM64L-G16RevA.03 25-Dec-2016
                27-Sep-2019 
 ******************************************
 %nprocshared=20
 Will use up to   20 processors via shared memory.
 %mem=5GB
 ----------------------------------------------------------------------
 #p m062x/cc-pVTZ opt=(calcfc,maxcycles=900,Tight) freq IOP(7/33=1,2/16
 =3) scf=(maxcycle=900)
 ----------------------------------------------------------------------
 1/6=900,7=10,10=4,18=20,19=15,26=3,38=1/1,3;
 2/9=110,12=2,16=3,17=6,18=5,40=1/2;
 3/5=16,6=1,11=2,25=1,30=1,71=2,74=-55,140=1/1,2,3;
 4//1;
 5/5=2,7=900,38=5/2;
 8/6=4,10=90,11=11/1;
 11/6=1,8=1,9=11,15=111,16=1/1,2,10;
 10/6=1,13=1/2;
 6/7=2,8=2,9=2,10=2,28=1/1;
 7/10=1,18=20,25=1,33=1/1,2,3,16;
 1/6=900,7=10,10=4,18=20,19=15,26=3/3(2);
 2/9=110,16=3/2;
 99//99;
 2/9=110,16=3/2;
 3/5=16,6=1,11=2,25=1,30=1,71=1,74=-55/1,2,3;
 4/5=5,16=3,69=1/1;
 5/5=2,7=900,38=5/2;
 7/33=1/1,2,3,16;
 1/6=900,7=10,18=20,19=15,26=3/3(-5);
 2/9=110,16=3/2;
 6/7=2,8=2,9=2,10=2,19=2,28=1/1;
 99/9=1/99;
 Leave Link    1 at Fri Sep 27 02:51:44 2019, MaxMem=   671088640 cpu:               4.5 elap:               2.3
 (Enter /shared/centos7/gaussian/g16/l101.exe)
 ------------------------------
 Gaussian input prepared by ASE
 ------------------------------
 Symbolic Z-matrix:
 Charge =  0 Multiplicity = 1
 O                     1.51745   0.24142   3.56732 
 O                     1.99072  -2.45767   2.82364 
 C                     1.4961    1.63907   3.76729 
 C                     0.70484   1.93391   5.04165 
 C                     0.97122   2.39827   2.59333 
 C                     2.07201  -0.1313    2.36423 
 C                     2.27478  -1.36825   2.01367 
 H                     2.5541    1.98144   3.93982 
 H                    -0.33062   1.5405    4.9691 
 H                     1.18668   1.46739   5.9201 
 H                     0.63879   3.04089   5.22296 
 H                    -0.12076   2.17931   2.40277 
 H                     1.54126   2.13838   1.67703 
 H                     1.07468   3.50685   2.76624 
 H                     2.31596   0.69268   1.67482 
 H                     2.68907  -1.60974   1.04596 
 H                     2.22129  -3.27715   2.29726 
 
 ITRead=  0  0  0  0  0  0  0  0  0  0  0  0  0  0  0  0  0
 MicOpt= -1 -1 -1 -1 -1 -1 -1 -1 -1 -1 -1 -1 -1 -1 -1 -1 -1
 NAtoms=     17 NQM=       17 NQMF=       0 NMMI=      0 NMMIF=      0
                NMic=       0 NMicF=      0.
                    Isotopes and Nuclear Properties:
 (Nuclear quadrupole moments (NQMom) in fm**2, nuclear magnetic moments (NMagM)
  in nuclear magnetons)

  Atom         1           2           3           4           5           6           7           8           9          10
 IAtWgt=          16          16          12          12          12          12          12           1           1           1
 AtmWgt=  15.9949146  15.9949146  12.0000000  12.0000000  12.0000000  12.0000000  12.0000000   1.0078250   1.0078250   1.0078250
 NucSpn=           0           0           0           0           0           0           0           1           1           1
 AtZEff=  -0.0000000  -0.0000000  -0.0000000  -0.0000000  -0.0000000  -0.0000000  -0.0000000  -0.0000000  -0.0000000  -0.0000000
 NQMom=    0.0000000   0.0000000   0.0000000   0.0000000   0.0000000   0.0000000   0.0000000   0.0000000   0.0000000   0.0000000
 NMagM=    0.0000000   0.0000000   0.0000000   0.0000000   0.0000000   0.0000000   0.0000000   2.7928460   2.7928460   2.7928460
 AtZNuc=   8.0000000   8.0000000   6.0000000   6.0000000   6.0000000   6.0000000   6.0000000   1.0000000   1.0000000   1.0000000

  Atom        11          12          13          14          15          16          17
 IAtWgt=           1           1           1           1           1           1           1
 AtmWgt=   1.0078250   1.0078250   1.0078250   1.0078250   1.0078250   1.0078250   1.0078250
 NucSpn=           1           1           1           1           1           1           1
 AtZEff=  -0.0000000  -0.0000000  -0.0000000  -0.0000000  -0.0000000  -0.0000000  -0.0000000
 NQMom=    0.0000000   0.0000000   0.0000000   0.0000000   0.0000000   0.0000000   0.0000000
 NMagM=    2.7928460   2.7928460   2.7928460   2.7928460   2.7928460   2.7928460   2.7928460
 AtZNuc=   1.0000000   1.0000000   1.0000000   1.0000000   1.0000000   1.0000000   1.0000000
 Leave Link  101 at Fri Sep 27 02:51:45 2019, MaxMem=   671088640 cpu:               2.0 elap:               1.0
 (Enter /shared/centos7/gaussian/g16/l103.exe)

 GradGradGradGradGradGradGradGradGradGradGradGradGradGradGradGradGradGrad
 Berny optimization.
 Initialization pass.
                           ----------------------------
                           !    Initial Parameters    !
                           ! (Angstroms and Degrees)  !
 --------------------------                            --------------------------
 ! Name  Definition              Value          Derivative Info.                !
 --------------------------------------------------------------------------------
 ! R1    R(1,3)                  1.412          calculate D2E/DX2 analytically  !
 ! R2    R(1,6)                  1.3762         calculate D2E/DX2 analytically  !
 ! R3    R(2,7)                  1.3869         calculate D2E/DX2 analytically  !
 ! R4    R(2,17)                 1.0009         calculate D2E/DX2 analytically  !
 ! R5    R(3,4)                  1.5287         calculate D2E/DX2 analytically  !
 ! R6    R(3,5)                  1.4933         calculate D2E/DX2 analytically  !
 ! R7    R(3,8)                  1.1253         calculate D2E/DX2 analytically  !
 ! R8    R(4,9)                  1.1101         calculate D2E/DX2 analytically  !
 ! R9    R(4,10)                 1.1052         calculate D2E/DX2 analytically  !
 ! R10   R(4,11)                 1.1237         calculate D2E/DX2 analytically  !
 ! R11   R(5,12)                 1.1299         calculate D2E/DX2 analytically  !
 ! R12   R(5,13)                 1.11           calculate D2E/DX2 analytically  !
 ! R13   R(5,14)                 1.1267         calculate D2E/DX2 analytically  !
 ! R14   R(6,7)                  1.3016         calculate D2E/DX2 analytically  !
 ! R15   R(6,15)                 1.1017         calculate D2E/DX2 analytically  !
 ! R16   R(7,16)                 1.08           calculate D2E/DX2 analytically  !
 ! A1    A(3,1,6)              113.4514         calculate D2E/DX2 analytically  !
 ! A2    A(7,2,17)             106.7866         calculate D2E/DX2 analytically  !
 ! A3    A(1,3,4)              108.4682         calculate D2E/DX2 analytically  !
 ! A4    A(1,3,5)              113.4024         calculate D2E/DX2 analytically  !
 ! A5    A(1,3,8)              107.9773         calculate D2E/DX2 analytically  !
 ! A6    A(4,3,5)              112.0459         calculate D2E/DX2 analytically  !
 ! A7    A(4,3,8)              107.4666         calculate D2E/DX2 analytically  !
 ! A8    A(5,3,8)              107.2359         calculate D2E/DX2 analytically  !
 ! A9    A(3,4,9)              111.0992         calculate D2E/DX2 analytically  !
 ! A10   A(3,4,10)             110.824          calculate D2E/DX2 analytically  !
 ! A11   A(3,4,11)             110.789          calculate D2E/DX2 analytically  !
 ! A12   A(9,4,10)             108.0003         calculate D2E/DX2 analytically  !
 ! A13   A(9,4,11)             107.7497         calculate D2E/DX2 analytically  !
 ! A14   A(10,4,11)            108.2537         calculate D2E/DX2 analytically  !
 ! A15   A(3,5,12)             111.9469         calculate D2E/DX2 analytically  !
 ! A16   A(3,5,13)             110.452          calculate D2E/DX2 analytically  !
 ! A17   A(3,5,14)             110.321          calculate D2E/DX2 analytically  !
 ! A18   A(12,5,13)            108.163          calculate D2E/DX2 analytically  !
 ! A19   A(12,5,14)            107.7747         calculate D2E/DX2 analytically  !
 ! A20   A(13,5,14)            108.0526         calculate D2E/DX2 analytically  !
 ! A21   A(1,6,7)              123.7541         calculate D2E/DX2 analytically  !
 ! A22   A(1,6,15)             115.7044         calculate D2E/DX2 analytically  !
 ! A23   A(7,6,15)             120.5143         calculate D2E/DX2 analytically  !
 ! A24   A(2,7,6)              123.8694         calculate D2E/DX2 analytically  !
 ! A25   A(2,7,16)             115.2268         calculate D2E/DX2 analytically  !
 ! A26   A(6,7,16)             120.9036         calculate D2E/DX2 analytically  !
 ! D1    D(6,1,3,4)            172.9098         calculate D2E/DX2 analytically  !
 ! D2    D(6,1,3,5)             47.7581         calculate D2E/DX2 analytically  !
 ! D3    D(6,1,3,8)            -70.9188         calculate D2E/DX2 analytically  !
 ! D4    D(3,1,6,7)            175.1733         calculate D2E/DX2 analytically  !
 ! D5    D(3,1,6,15)            -6.7198         calculate D2E/DX2 analytically  !
 ! D6    D(17,2,7,6)           178.5979         calculate D2E/DX2 analytically  !
 ! D7    D(17,2,7,16)           -1.5544         calculate D2E/DX2 analytically  !
 ! D8    D(1,3,4,9)            -58.6806         calculate D2E/DX2 analytically  !
 ! D9    D(1,3,4,10)            61.3944         calculate D2E/DX2 analytically  !
 ! D10   D(1,3,4,11)          -178.4169         calculate D2E/DX2 analytically  !
 ! D11   D(5,3,4,9)             67.2661         calculate D2E/DX2 analytically  !
 ! D12   D(5,3,4,10)          -172.6589         calculate D2E/DX2 analytically  !
 ! D13   D(5,3,4,11)           -52.4702         calculate D2E/DX2 analytically  !
 ! D14   D(8,3,4,9)           -175.1817         calculate D2E/DX2 analytically  !
 ! D15   D(8,3,4,10)           -55.1067         calculate D2E/DX2 analytically  !
 ! D16   D(8,3,4,11)            65.082          calculate D2E/DX2 analytically  !
 ! D17   D(1,3,5,12)            65.7565         calculate D2E/DX2 analytically  !
 ! D18   D(1,3,5,13)           -54.838          calculate D2E/DX2 analytically  !
 ! D19   D(1,3,5,14)          -174.2307         calculate D2E/DX2 analytically  !
 ! D20   D(4,3,5,12)           -57.4503         calculate D2E/DX2 analytically  !
 ! D21   D(4,3,5,13)          -178.0447         calculate D2E/DX2 analytically  !
 ! D22   D(4,3,5,14)            62.5625         calculate D2E/DX2 analytically  !
 ! D23   D(8,3,5,12)          -175.1403         calculate D2E/DX2 analytically  !
 ! D24   D(8,3,5,13)            64.2653         calculate D2E/DX2 analytically  !
 ! D25   D(8,3,5,14)           -55.1275         calculate D2E/DX2 analytically  !
 ! D26   D(1,6,7,2)             -1.8316         calculate D2E/DX2 analytically  !
 ! D27   D(1,6,7,16)           178.3289         calculate D2E/DX2 analytically  !
 ! D28   D(15,6,7,2)          -179.8515         calculate D2E/DX2 analytically  !
 ! D29   D(15,6,7,16)            0.309          calculate D2E/DX2 analytically  !
 --------------------------------------------------------------------------------
 Trust Radius=3.00D-01 FncErr=1.00D-07 GrdErr=1.00D-06 EigMax=2.50D+02 EigMin=1.00D-04
 Number of steps in this run=    102 maximum allowed number of steps=    102.
 GradGradGradGradGradGradGradGradGradGradGradGradGradGradGradGradGradGrad

 Leave Link  103 at Fri Sep 27 02:51:46 2019, MaxMem=   671088640 cpu:               1.9 elap:               1.0
 (Enter /shared/centos7/gaussian/g16/l202.exe)
                          Input orientation:                          
 ---------------------------------------------------------------------
 Center     Atomic      Atomic             Coordinates (Angstroms)
 Number     Number       Type             X           Y           Z
 ---------------------------------------------------------------------
      1          8           0        1.517448    0.241421    3.567323
      2          8           0        1.990719   -2.457674    2.823637
      3          6           0        1.496102    1.639074    3.767295
      4          6           0        0.704837    1.933913    5.041650
      5          6           0        0.971224    2.398269    2.593329
      6          6           0        2.072013   -0.131297    2.364229
      7          6           0        2.274780   -1.368247    2.013670
      8          1           0        2.554102    1.981443    3.939824
      9          1           0       -0.330623    1.540502    4.969104
     10          1           0        1.186679    1.467387    5.920096
     11          1           0        0.638790    3.040890    5.222955
     12          1           0       -0.120761    2.179313    2.402772
     13          1           0        1.541255    2.138382    1.677033
     14          1           0        1.074678    3.506854    2.766240
     15          1           0        2.315955    0.692683    1.674819
     16          1           0        2.689072   -1.609738    1.045958
     17          1           0        2.221294   -3.277152    2.297259
 ---------------------------------------------------------------------
                    Distance matrix (angstroms):
                    1          2          3          4          5
     1  O    0.000000
     2  O    2.839396   0.000000
     3  C    1.412047   4.233023   0.000000
     4  C    2.387154   5.085186   1.528729   0.000000
     5  C    2.428789   4.967151   1.493342   2.506165   0.000000
     6  C    1.376189   2.372698   2.331197   3.647307   2.768199
     7  C    2.361868   1.386935   3.567285   4.747383   4.027642
     8  H    2.059389   4.611836   1.125320   2.153151   2.119504
     9  H    2.658565   5.096771   2.188832   1.110050   2.841632
    10  H    2.673564   5.063659   2.181690   1.105209   3.461263
    11  H    3.369003   6.149687   2.195226   1.123668   2.727345
    12  H    2.792012   5.112448   2.183582   2.775881   1.129905
    13  H    2.678101   4.758199   2.149545   3.473046   1.109989
    14  H    3.391287   6.034734   2.160627   2.790774   1.126748
    15  H    2.103050   3.369022   2.438497   3.933434   2.358174
    16  H    3.340176   2.089697   4.402685   5.697386   4.627038
    17  H    3.806419   1.000891   5.182296   6.081655   5.818998
                    6          7          8          9         10
     6  C    0.000000
     7  C    1.301558   0.000000
     8  H    2.679287   3.874082   0.000000
     9  H    3.918283   4.897299   3.094427   0.000000
    10  H    3.997974   4.948227   2.460808   1.792188   0.000000
    11  H    4.504355   5.693546   2.537178   1.804262   1.806128
    12  H    3.185696   4.298279   3.091371   2.652957   3.819399
    13  H    2.430100   3.598310   2.484092   3.833943   4.310400
    14  H    3.793735   5.076733   2.427525   3.270171   3.757497
    15  H    1.101697   2.089006   2.616842   4.309928   4.460696
    16  H    2.074703   1.080011   4.614029   5.868019   5.956770
    17  H    3.150107   1.930596   5.519203   6.071312   6.058550
                   11         12         13         14         15
    11  H    0.000000
    12  H    3.045106   0.000000
    13  H    3.768624   1.814020   0.000000
    14  H    2.538223   1.823060   1.810188   0.000000
    15  H    4.573426   2.945772   1.640187   3.263667   0.000000
    16  H    6.578701   4.908464   3.970409   5.634284   2.415746
    17  H    7.140145   5.938802   5.493191   6.896188   4.019451
                   16         17
    16  H    0.000000
    17  H    2.136548   0.000000
 Stoichiometry    C5H10O2
 Framework group  C1[X(C5H10O2)]
 Deg. of freedom    45
 Full point group                 C1      NOp   1
 Largest Abelian subgroup         C1      NOp   1
 Largest concise Abelian subgroup C1      NOp   1
                         Standard orientation:                         
 ---------------------------------------------------------------------
 Center     Atomic      Atomic             Coordinates (Angstroms)
 Number     Number       Type             X           Y           Z
 ---------------------------------------------------------------------
      1          8           0        0.032328   -0.412896   -0.037491
      2          8           0       -2.776569   -0.750590    0.203823
      3          6           0        1.361531   -0.037003   -0.330408
      4          6           0        2.287492   -1.189892    0.057479
      5          6           0        1.769070    1.249031    0.309980
      6          6           0       -0.874807    0.608724   -0.202702
      7          6           0       -2.161721    0.460639   -0.076310
      8          1           0        1.445377    0.103633   -1.443753
      9          1           0        2.187091   -1.437941    1.134792
     10          1           0        2.049679   -2.098091   -0.525707
     11          1           0        3.361523   -0.920297   -0.133323
     12          1           0        1.798625    1.169002    1.436660
     13          1           0        1.060056    2.058972    0.039112
     14          1           0        2.796099    1.552400   -0.040364
     15          1           0       -0.444656    1.598621   -0.423632
     16          1           0       -2.830581    1.300949   -0.190010
     17          1           0       -3.758679   -0.568357    0.267337
 ---------------------------------------------------------------------
 Rotational constants (GHZ):           6.0004392           1.3376325           1.1423412
 Leave Link  202 at Fri Sep 27 02:51:48 2019, MaxMem=   671088640 cpu:               3.5 elap:               1.8
 (Enter /shared/centos7/gaussian/g16/l301.exe)
 Standard basis: CC-pVTZ (5D, 7F)
 Ernie: Thresh=  0.10000D-02 Tol=  0.10000D-05 Strict=F.
 Ernie:  21 primitive shells out of 262 were deleted.
 There are   395 symmetry adapted cartesian basis functions of A   symmetry.
 There are   350 symmetry adapted basis functions of A   symmetry.
   350 basis functions,   534 primitive gaussians,   395 cartesian basis functions
    28 alpha electrons       28 beta electrons
       nuclear repulsion energy       311.2786544152 Hartrees.
 IExCor= 4336 DFT=T Ex+Corr=M062X ExCW=0 ScaHFX=  0.540000
 ScaDFX=  1.000000  1.000000  1.000000  1.000000 ScalE2=  1.000000  1.000000
 IRadAn=      5 IRanWt=     -1 IRanGd=            0 ICorTp=0 IEmpDi=  4
 NAtoms=   17 NActive=   17 NUniq=   17 SFac= 1.00D+00 NAtFMM=   60 NAOKFM=F Big=F
 Integral buffers will be    131072 words long.
 Raffenetti 2 integral format.
 Two-electron integral symmetry is turned on.
 Leave Link  301 at Fri Sep 27 02:51:48 2019, MaxMem=   671088640 cpu:               1.4 elap:               0.7
 (Enter /shared/centos7/gaussian/g16/l302.exe)
 NPDir=0 NMtPBC=     1 NCelOv=     1 NCel=       1 NClECP=     1 NCelD=      1
         NCelK=      1 NCelE2=     1 NClLst=     1 CellRange=     0.0.
 One-electron integrals computed using PRISM.
 One-electron integral symmetry used in STVInt
 NBasis=   350 RedAO= T EigKep=  1.99D-04  NBF=   350
 NBsUse=   350 1.00D-06 EigRej= -1.00D+00 NBFU=   350
 Precomputing XC quadrature grid using
 IXCGrd= 4 IRadAn=           5 IRanWt=          -1 IRanGd=           0 AccXCQ= 0.00D+00.
 Generated NRdTot=       0 NPtTot=           0 NUsed=           0 NTot=          32
 NSgBfM=   395   395   395   395   395 MxSgAt=    17 MxSgA2=    17.
 Leave Link  302 at Fri Sep 27 02:52:45 2019, MaxMem=   671088640 cpu:             112.4 elap:              56.2
 (Enter /shared/centos7/gaussian/g16/l303.exe)
 DipDrv:  MaxL=1.
 Leave Link  303 at Fri Sep 27 02:52:50 2019, MaxMem=   671088640 cpu:              11.2 elap:               5.6
 (Enter /shared/centos7/gaussian/g16/l401.exe)
 ExpMin= 1.03D-01 ExpMax= 1.53D+04 ExpMxC= 5.22D+02 IAcc=3 IRadAn=         5 AccDes= 0.00D+00
 Harris functional with IExCor= 1009 and IRadAn=       5 diagonalized for initial guess.
 HarFok:  IExCor= 1009 AccDes= 0.00D+00 IRadAn=         5 IDoV= 1 UseB2=F ITyADJ=14
 ICtDFT=  3500011 ScaDFX=  1.000000  1.000000  1.000000  1.000000
 FoFCou: FMM=F IPFlag=           0 FMFlag=      100000 FMFlg1=           0
         NFxFlg=           0 DoJE=T BraDBF=F KetDBF=T FulRan=T
         wScrn=  0.000000 ICntrl=       500 IOpCl=  0 I1Cent=   200000004 NGrid=           0
         NMat0=    1 NMatS0=      1 NMatT0=    0 NMatD0=    1 NMtDS0=    0 NMtDT0=    0
 Petite list used in FoFCou.
 Harris En= -346.810394050214    
 JPrj=0 DoOrth=F DoCkMO=F.
 Leave Link  401 at Fri Sep 27 02:53:22 2019, MaxMem=   671088640 cpu:              62.7 elap:              31.4
 (Enter /shared/centos7/gaussian/g16/l502.exe)
 Integral symmetry usage will be decided dynamically.
 Closed shell SCF:
 Using DIIS extrapolation, IDIIS=  1040.
 NGot=   671088640 LenX=   670765141 LenY=   670608675
 Requested convergence on RMS density matrix=1.00D-08 within 900 cycles.
 Requested convergence on MAX density matrix=1.00D-06.
 Requested convergence on             energy=1.00D-06.
 No special actions if energy rises.
 Fock matrices will be formed incrementally for  20 cycles.
 Integral accuracy reduced to 1.0D-05 until final iterations.

 Cycle   1  Pass 0  IDiag  1:
 FoFJK:  IHMeth= 1 ICntrl=       0 DoSepK=F KAlg= 0 I1Cent=           0 FoldK=F
 IRaf= 930000000 NMat=       1 IRICut=       1 DoRegI=T DoRafI=F ISym2E= 0 IDoP0=0 IntGTp=1.
 FoFCou: FMM=F IPFlag=           0 FMFlag=      100000 FMFlg1=           0
         NFxFlg=           0 DoJE=F BraDBF=F KetDBF=F FulRan=T
         wScrn=  0.000000 ICntrl=         0 IOpCl=  0 I1Cent=           0 NGrid=           0
         NMat0=    1 NMatS0=      1 NMatT0=    0 NMatD0=    1 NMtDS0=    0 NMtDT0=    0
 Symmetry not used in FoFCou.
 E= -346.693164275616    
 DIIS: error= 2.09D-02 at cycle   1 NSaved=   1.
 NSaved= 1 IEnMin= 1 EnMin= -346.693164275616     IErMin= 1 ErrMin= 2.09D-02
 ErrMax= 2.09D-02  0.00D+00 EMaxC= 1.00D-01 BMatC= 2.88D-01 BMatP= 2.88D-01
 IDIUse=3 WtCom= 7.91D-01 WtEn= 2.09D-01
 Coeff-Com:  0.100D+01
 Coeff-En:   0.100D+01
 Coeff:      0.100D+01
 Gap=     0.346 Goal=   None    Shift=    0.000
 GapD=    0.346 DampG=1.000 DampE=0.500 DampFc=0.5000 IDamp=-1.
 Damping current iteration by 5.00D-01
 RMSDP=2.44D-03 MaxDP=1.59D-01              OVMax= 1.43D-01

 Cycle   2  Pass 0  IDiag  1:
 RMSU=  1.22D-03    CP:  1.00D+00
 E= -346.812969701640     Delta-E=       -0.119805426024 Rises=F Damp=T
 DIIS: error= 3.52D-03 at cycle   2 NSaved=   2.
 NSaved= 2 IEnMin= 2 EnMin= -346.812969701640     IErMin= 2 ErrMin= 3.52D-03
 ErrMax= 3.52D-03  0.00D+00 EMaxC= 1.00D-01 BMatC= 2.11D-02 BMatP= 2.88D-01
 IDIUse=3 WtCom= 9.65D-01 WtEn= 3.52D-02
 Coeff-Com: -0.121D+00 0.112D+01
 Coeff-En:   0.000D+00 0.100D+01
 Coeff:     -0.116D+00 0.112D+01
 Gap=     0.318 Goal=   None    Shift=    0.000
 RMSDP=4.77D-04 MaxDP=2.48D-02 DE=-1.20D-01 OVMax= 6.94D-02

 Cycle   3  Pass 0  IDiag  1:
 RMSU=  4.50D-04    CP:  1.00D+00  8.71D-01
 E= -346.921773186601     Delta-E=       -0.108803484961 Rises=F Damp=F
 DIIS: error= 2.75D-03 at cycle   3 NSaved=   3.
 NSaved= 3 IEnMin= 3 EnMin= -346.921773186601     IErMin= 3 ErrMin= 2.75D-03
 ErrMax= 2.75D-03  0.00D+00 EMaxC= 1.00D-01 BMatC= 4.25D-03 BMatP= 2.11D-02
 IDIUse=3 WtCom= 9.72D-01 WtEn= 2.75D-02
 Coeff-Com: -0.837D-01 0.328D+00 0.756D+00
 Coeff-En:   0.000D+00 0.000D+00 0.100D+01
 Coeff:     -0.814D-01 0.319D+00 0.762D+00
 Gap=     0.317 Goal=   None    Shift=    0.000
 RMSDP=2.16D-04 MaxDP=1.52D-02 DE=-1.09D-01 OVMax= 1.31D-02

 Cycle   4  Pass 0  IDiag  1:
 RMSU=  1.37D-04    CP:  1.00D+00  9.96D-01  8.50D-01
 E= -346.923939879000     Delta-E=       -0.002166692400 Rises=F Damp=F
 DIIS: error= 1.50D-03 at cycle   4 NSaved=   4.
 NSaved= 4 IEnMin= 4 EnMin= -346.923939879000     IErMin= 4 ErrMin= 1.50D-03
 ErrMax= 1.50D-03  0.00D+00 EMaxC= 1.00D-01 BMatC= 1.25D-03 BMatP= 4.25D-03
 IDIUse=3 WtCom= 9.85D-01 WtEn= 1.50D-02
 Coeff-Com: -0.289D-01 0.763D-01 0.393D+00 0.560D+00
 Coeff-En:   0.000D+00 0.000D+00 0.193D+00 0.807D+00
 Coeff:     -0.285D-01 0.751D-01 0.390D+00 0.564D+00
 Gap=     0.314 Goal=   None    Shift=    0.000
 RMSDP=8.09D-05 MaxDP=5.64D-03 DE=-2.17D-03 OVMax= 5.05D-03

 Cycle   5  Pass 0  IDiag  1:
 RMSU=  2.98D-05    CP:  1.00D+00  9.63D-01  9.15D-01  5.93D-01
 E= -346.924830818008     Delta-E=       -0.000890939008 Rises=F Damp=F
 DIIS: error= 2.36D-04 at cycle   5 NSaved=   5.
 NSaved= 5 IEnMin= 5 EnMin= -346.924830818008     IErMin= 5 ErrMin= 2.36D-04
 ErrMax= 2.36D-04  0.00D+00 EMaxC= 1.00D-01 BMatC= 2.39D-05 BMatP= 1.25D-03
 IDIUse=3 WtCom= 9.98D-01 WtEn= 2.36D-03
 Coeff-Com: -0.445D-02 0.784D-02 0.903D-01 0.192D+00 0.715D+00
 Coeff-En:   0.000D+00 0.000D+00 0.000D+00 0.000D+00 0.100D+01
 Coeff:     -0.444D-02 0.782D-02 0.901D-01 0.191D+00 0.715D+00
 Gap=     0.313 Goal=   None    Shift=    0.000
 RMSDP=9.41D-06 MaxDP=2.43D-04 DE=-8.91D-04 OVMax= 8.16D-04

 Initial convergence to 1.0D-05 achieved.  Increase integral accuracy.
 Cycle   6  Pass 1  IDiag  1:
 E= -346.924851760144     Delta-E=       -0.000020942136 Rises=F Damp=F
 DIIS: error= 4.18D-05 at cycle   1 NSaved=   1.
 NSaved= 1 IEnMin= 1 EnMin= -346.924851760144     IErMin= 1 ErrMin= 4.18D-05
 ErrMax= 4.18D-05  0.00D+00 EMaxC= 1.00D-01 BMatC= 1.94D-06 BMatP= 1.94D-06
 IDIUse=1 WtCom= 1.00D+00 WtEn= 0.00D+00
 Coeff-Com:  0.100D+01
 Coeff:      0.100D+01
 Gap=     0.314 Goal=   None    Shift=    0.000
 RMSDP=9.41D-06 MaxDP=2.43D-04 DE=-2.09D-05 OVMax= 3.63D-04

 Cycle   7  Pass 1  IDiag  1:
 RMSU=  9.09D-06    CP:  1.00D+00
 E= -346.924852129232     Delta-E=       -0.000000369088 Rises=F Damp=F
 DIIS: error= 3.77D-05 at cycle   2 NSaved=   2.
 NSaved= 2 IEnMin= 2 EnMin= -346.924852129232     IErMin= 2 ErrMin= 3.77D-05
 ErrMax= 3.77D-05  0.00D+00 EMaxC= 1.00D-01 BMatC= 1.55D-06 BMatP= 1.94D-06
 IDIUse=1 WtCom= 1.00D+00 WtEn= 0.00D+00
 Coeff-Com:  0.468D+00 0.532D+00
 Coeff:      0.468D+00 0.532D+00
 Gap=     0.314 Goal=   None    Shift=    0.000
 RMSDP=2.18D-06 MaxDP=8.93D-05 DE=-3.69D-07 OVMax= 1.74D-04

 Cycle   8  Pass 1  IDiag  1:
 RMSU=  2.09D-06    CP:  1.00D+00  9.33D-01
 E= -346.924853281240     Delta-E=       -0.000001152008 Rises=F Damp=F
 DIIS: error= 6.78D-06 at cycle   3 NSaved=   3.
 NSaved= 3 IEnMin= 3 EnMin= -346.924853281240     IErMin= 3 ErrMin= 6.78D-06
 ErrMax= 6.78D-06  0.00D+00 EMaxC= 1.00D-01 BMatC= 4.20D-08 BMatP= 1.55D-06
 IDIUse=1 WtCom= 1.00D+00 WtEn= 0.00D+00
 Coeff-Com:  0.919D-03 0.126D+00 0.873D+00
 Coeff:      0.919D-03 0.126D+00 0.873D+00
 Gap=     0.314 Goal=   None    Shift=    0.000
 RMSDP=5.74D-07 MaxDP=2.26D-05 DE=-1.15D-06 OVMax= 5.14D-05

 Cycle   9  Pass 1  IDiag  1:
 RMSU=  4.80D-07    CP:  1.00D+00  9.67D-01  9.69D-01
 E= -346.924853311863     Delta-E=       -0.000000030623 Rises=F Damp=F
 DIIS: error= 2.99D-06 at cycle   4 NSaved=   4.
 NSaved= 4 IEnMin= 4 EnMin= -346.924853311863     IErMin= 4 ErrMin= 2.99D-06
 ErrMax= 2.99D-06  0.00D+00 EMaxC= 1.00D-01 BMatC= 8.06D-09 BMatP= 4.20D-08
 IDIUse=1 WtCom= 1.00D+00 WtEn= 0.00D+00
 Coeff-Com: -0.235D-01 0.319D-01 0.421D+00 0.570D+00
 Coeff:     -0.235D-01 0.319D-01 0.421D+00 0.570D+00
 Gap=     0.314 Goal=   None    Shift=    0.000
 RMSDP=1.89D-07 MaxDP=5.92D-06 DE=-3.06D-08 OVMax= 2.18D-05

 Cycle  10  Pass 1  IDiag  1:
 RMSU=  1.72D-07    CP:  1.00D+00  9.72D-01  9.82D-01  8.82D-01
 E= -346.924853318164     Delta-E=       -0.000000006301 Rises=F Damp=F
 DIIS: error= 8.86D-07 at cycle   5 NSaved=   5.
 NSaved= 5 IEnMin= 5 EnMin= -346.924853318164     IErMin= 5 ErrMin= 8.86D-07
 ErrMax= 8.86D-07  0.00D+00 EMaxC= 1.00D-01 BMatC= 3.72D-10 BMatP= 8.06D-09
 IDIUse=1 WtCom= 1.00D+00 WtEn= 0.00D+00
 Coeff-Com: -0.726D-02-0.519D-02 0.299D-01 0.159D+00 0.823D+00
 Coeff:     -0.726D-02-0.519D-02 0.299D-01 0.159D+00 0.823D+00
 Gap=     0.314 Goal=   None    Shift=    0.000
 RMSDP=7.70D-08 MaxDP=2.53D-06 DE=-6.30D-09 OVMax= 1.01D-05

 Cycle  11  Pass 1  IDiag  1:
 RMSU=  5.79D-08    CP:  1.00D+00  9.74D-01  9.88D-01  9.76D-01  1.05D+00
 E= -346.924853318569     Delta-E=       -0.000000000405 Rises=F Damp=F
 DIIS: error= 3.58D-07 at cycle   6 NSaved=   6.
 NSaved= 6 IEnMin= 6 EnMin= -346.924853318569     IErMin= 6 ErrMin= 3.58D-07
 ErrMax= 3.58D-07  0.00D+00 EMaxC= 1.00D-01 BMatC= 8.76D-11 BMatP= 3.72D-10
 IDIUse=1 WtCom= 1.00D+00 WtEn= 0.00D+00
 Coeff-Com:  0.371D-03-0.707D-02-0.490D-01-0.220D-01 0.351D+00 0.727D+00
 Coeff:      0.371D-03-0.707D-02-0.490D-01-0.220D-01 0.351D+00 0.727D+00
 Gap=     0.314 Goal=   None    Shift=    0.000
 RMSDP=2.81D-08 MaxDP=1.28D-06 DE=-4.05D-10 OVMax= 3.66D-06

 Cycle  12  Pass 1  IDiag  1:
 RMSU=  1.54D-08    CP:  1.00D+00  9.74D-01  9.92D-01  1.00D+00  1.14D+00
                    CP:  8.08D-01
 E= -346.924853318657     Delta-E=       -0.000000000088 Rises=F Damp=F
 DIIS: error= 1.17D-07 at cycle   7 NSaved=   7.
 NSaved= 7 IEnMin= 7 EnMin= -346.924853318657     IErMin= 7 ErrMin= 1.17D-07
 ErrMax= 1.17D-07  0.00D+00 EMaxC= 1.00D-01 BMatC= 5.93D-12 BMatP= 8.76D-11
 IDIUse=1 WtCom= 1.00D+00 WtEn= 0.00D+00
 Coeff-Com:  0.579D-03-0.289D-02-0.238D-01-0.184D-01 0.113D+00 0.322D+00
 Coeff-Com:  0.610D+00
 Coeff:      0.579D-03-0.289D-02-0.238D-01-0.184D-01 0.113D+00 0.322D+00
 Coeff:      0.610D+00
 Gap=     0.314 Goal=   None    Shift=    0.000
 RMSDP=5.35D-09 MaxDP=2.74D-07 DE=-8.81D-11 OVMax= 9.83D-07

 SCF Done:  E(RM062X) =  -346.924853319     A.U. after   12 cycles
            NFock= 12  Conv=0.54D-08     -V/T= 2.0064
 KE= 3.447346293674D+02 PE=-1.432723187603D+03 EE= 4.297850505020D+02
 Leave Link  502 at Fri Sep 27 03:02:26 2019, MaxMem=   671088640 cpu:            1087.6 elap:             543.9
 (Enter /shared/centos7/gaussian/g16/l801.exe)
 DoSCS=F DFT=T ScalE2(SS,OS)=  1.000000  1.000000
 Range of M.O.s used for correlation:     1   350
 NBasis=   350 NAE=    28 NBE=    28 NFC=     0 NFV=     0
 NROrb=    350 NOA=    28 NOB=    28 NVA=   322 NVB=   322

 **** Warning!!: The largest alpha MO coefficient is  0.13483749D+02

 Leave Link  801 at Fri Sep 27 03:02:26 2019, MaxMem=   671088640 cpu:               1.4 elap:               0.7
 (Enter /shared/centos7/gaussian/g16/l1101.exe)
 Using compressed storage, NAtomX=    17.
 Will process     18 centers per pass.
 Leave Link 1101 at Fri Sep 27 03:02:53 2019, MaxMem=   671088640 cpu:              53.3 elap:              26.7
 (Enter /shared/centos7/gaussian/g16/l1102.exe)
 Symmetrizing basis deriv contribution to polar:
 IMax=3 JMax=2 DiffMx= 0.00D+00
 Leave Link 1102 at Fri Sep 27 03:02:55 2019, MaxMem=   671088640 cpu:               4.6 elap:               2.3
 (Enter /shared/centos7/gaussian/g16/l1110.exe)
 Forming Gx(P) for the SCF density, NAtomX=    17.
 Integral derivatives from FoFJK, PRISM(SPDF).
 Do as many integral derivatives as possible in FoFJK.
 G2DrvN: MDV=     671087280.
 G2DrvN: will do    18 centers at a time, making    1 passes.
 Calling FoFCou, ICntrl=  3107 FMM=F I1Cent=   0 AccDes= 0.00D+00.
 FoFJK:  IHMeth= 1 ICntrl=    3107 DoSepK=F KAlg= 0 I1Cent=           0 FoldK=F
 IRaf=         0 NMat=       1 IRICut=       1 DoRegI=T DoRafI=F ISym2E= 0 IDoP0=0 IntGTp=1.
 FoFCou: FMM=F IPFlag=           0 FMFlag=      100000 FMFlg1=           0
         NFxFlg=           0 DoJE=F BraDBF=F KetDBF=F FulRan=T
         wScrn=  0.000000 ICntrl=      3107 IOpCl=  0 I1Cent=           0 NGrid=           0
         NMat0=    1 NMatS0=      1 NMatT0=    0 NMatD0=    1 NMtDS0=    0 NMtDT0=    0
 Symmetry not used in FoFCou.
 End of G2Drv F.D. properties file   721 does not exist.
 End of G2Drv F.D. properties file   722 does not exist.
 End of G2Drv F.D. properties file   788 does not exist.
 Leave Link 1110 at Fri Sep 27 03:19:18 2019, MaxMem=   671088640 cpu:            1966.1 elap:             983.1
 (Enter /shared/centos7/gaussian/g16/l1002.exe)
 Minotr:  Closed shell wavefunction.
          IDoAtm=11111111111111111
          Direct CPHF calculation.
          Differentiating once with respect to nuclear coordinates.
          Requested convergence is 1.0D-08 RMS, and 1.0D-07 maximum.
          Secondary convergence is 1.0D-12 RMS, and 1.0D-12 maximum.
          NewPWx=T KeepS1=F KeepF1=F KeepIn=T MapXYZ=F SortEE=F KeepMc=T.
         5144 words used for storage of precomputed grid.
 Two-electron integrals replicated using symmetry.
          MDV=     671088640 using IRadAn=       1.
          Solving linear equations simultaneously, MaxMat=     380.
 FoF2E skips out because all densities are zero.
 CalDSu exits because no D1Ps are significant.
 FoFJK:  IHMeth= 1 ICntrl=       0 DoSepK=F KAlg= 0 I1Cent=           0 FoldK=F
 IRaf= 920000000 NMat=      51 IRICut=     127 DoRegI=T DoRafI=T ISym2E= 2 IDoP0=3 IntGTp=3.
 FoFCou: FMM=F IPFlag=           0 FMFlag=      100000 FMFlg1=           0
         NFxFlg=           0 DoJE=F BraDBF=F KetDBF=F FulRan=T
         wScrn=  0.000000 ICntrl=         0 IOpCl=  0 I1Cent=           0 NGrid=           0
         NMat0=   51 NMatS0=     51 NMatT0=    0 NMatD0=   51 NMtDS0=    0 NMtDT0=    0
 Integrals replicated using symmetry in FoFCou.
 Raff kept on since  88.00% of shell-pairs survive, threshold=   0.20 IRatSp=88.
          There are    54 degrees of freedom in the 1st order CPHF.  IDoFFX=6 NUNeed=     0.
     48 vectors produced by pass  0 Test12= 1.67D-14 1.85D-09 XBig12= 6.85D-02 6.37D-02.
 AX will form    48 AO Fock derivatives at one time.
     48 vectors produced by pass  1 Test12= 1.67D-14 1.85D-09 XBig12= 9.48D-03 2.57D-02.
     48 vectors produced by pass  2 Test12= 1.67D-14 1.85D-09 XBig12= 2.10D-04 1.94D-03.
     48 vectors produced by pass  3 Test12= 1.67D-14 1.85D-09 XBig12= 2.51D-06 2.00D-04.
     48 vectors produced by pass  4 Test12= 1.67D-14 1.85D-09 XBig12= 2.05D-08 1.83D-05.
     48 vectors produced by pass  5 Test12= 1.67D-14 1.85D-09 XBig12= 1.03D-10 1.11D-06.
     24 vectors produced by pass  6 Test12= 1.67D-14 1.85D-09 XBig12= 4.35D-13 6.34D-08.
      5 vectors produced by pass  7 Test12= 1.67D-14 1.85D-09 XBig12= 1.54D-15 3.93D-09.
 InvSVY:  IOpt=1 It=  1 EMax= 2.78D-16
 Solved reduced A of dimension   317 with    54 vectors.
 End of Minotr F.D. properties file   721 does not exist.
 End of Minotr F.D. properties file   722 does not exist.
 End of Minotr F.D. properties file   788 does not exist.
 Leave Link 1002 at Fri Sep 27 03:47:54 2019, MaxMem=   671088640 cpu:            3430.8 elap:            1715.5
 (Enter /shared/centos7/gaussian/g16/l601.exe)
 Copying SCF densities to generalized density rwf, IOpCl= 0 IROHF=0.

 **********************************************************************

            Population analysis using the SCF density.

 **********************************************************************

 Orbital symmetries:
       Occupied  (A) (A) (A) (A) (A) (A) (A) (A) (A) (A) (A) (A)
                 (A) (A) (A) (A) (A) (A) (A) (A) (A) (A) (A) (A)
                 (A) (A) (A) (A)
       Virtual   (A) (A) (A) (A) (A) (A) (A) (A) (A) (A) (A) (A)
                 (A) (A) (A) (A) (A) (A) (A) (A) (A) (A) (A) (A)
                 (A) (A) (A) (A) (A) (A) (A) (A) (A) (A) (A) (A)
                 (A) (A) (A) (A) (A) (A) (A) (A) (A) (A) (A) (A)
                 (A) (A) (A) (A) (A) (A) (A) (A) (A) (A) (A) (A)
                 (A) (A) (A) (A) (A) (A) (A) (A) (A) (A) (A) (A)
                 (A) (A) (A) (A) (A) (A) (A) (A) (A) (A) (A) (A)
                 (A) (A) (A) (A) (A) (A) (A) (A) (A) (A) (A) (A)
                 (A) (A) (A) (A) (A) (A) (A) (A) (A) (A) (A) (A)
                 (A) (A) (A) (A) (A) (A) (A) (A) (A) (A) (A) (A)
                 (A) (A) (A) (A) (A) (A) (A) (A) (A) (A) (A) (A)
                 (A) (A) (A) (A) (A) (A) (A) (A) (A) (A) (A) (A)
                 (A) (A) (A) (A) (A) (A) (A) (A) (A) (A) (A) (A)
                 (A) (A) (A) (A) (A) (A) (A) (A) (A) (A) (A) (A)
                 (A) (A) (A) (A) (A) (A) (A) (A) (A) (A) (A) (A)
                 (A) (A) (A) (A) (A) (A) (A) (A) (A) (A) (A) (A)
                 (A) (A) (A) (A) (A) (A) (A) (A) (A) (A) (A) (A)
                 (A) (A) (A) (A) (A) (A) (A) (A) (A) (A) (A) (A)
                 (A) (A) (A) (A) (A) (A) (A) (A) (A) (A) (A) (A)
                 (A) (A) (A) (A) (A) (A) (A) (A) (A) (A) (A) (A)
                 (A) (A) (A) (A) (A) (A) (A) (A) (A) (A) (A) (A)
                 (A) (A) (A) (A) (A) (A) (A) (A) (A) (A) (A) (A)
                 (A) (A) (A) (A) (A) (A) (A) (A) (A) (A) (A) (A)
                 (A) (A) (A) (A) (A) (A) (A) (A) (A) (A) (A) (A)
                 (A) (A) (A) (A) (A) (A) (A) (A) (A) (A) (A) (A)
                 (A) (A) (A) (A) (A) (A) (A) (A) (A) (A) (A) (A)
                 (A) (A) (A) (A) (A) (A) (A) (A) (A) (A)
 The electronic state is 1-A.
 Alpha  occ. eigenvalues --  -19.64201 -19.63889 -10.59502 -10.57663 -10.57239
 Alpha  occ. eigenvalues --  -10.53681 -10.53177  -1.17942  -1.15207  -0.89272
 Alpha  occ. eigenvalues --   -0.83817  -0.78213  -0.68581  -0.64713  -0.61130
 Alpha  occ. eigenvalues --   -0.56171  -0.55611  -0.53820  -0.47620  -0.45905
 Alpha  occ. eigenvalues --   -0.45577  -0.44558  -0.44277  -0.42885  -0.42473
 Alpha  occ. eigenvalues --   -0.38077  -0.37189  -0.26248
 Alpha virt. eigenvalues --    0.05121   0.07248   0.08509   0.09753   0.11331
 Alpha virt. eigenvalues --    0.11897   0.12893   0.14283   0.16204   0.16856
 Alpha virt. eigenvalues --    0.18146   0.20185   0.22391   0.24133   0.26404
 Alpha virt. eigenvalues --    0.27135   0.28807   0.30109   0.32604   0.33913
 Alpha virt. eigenvalues --    0.34083   0.36582   0.37716   0.38314   0.40005
 Alpha virt. eigenvalues --    0.40987   0.42367   0.43832   0.45177   0.46243
 Alpha virt. eigenvalues --    0.47647   0.48472   0.49346   0.49758   0.50677
 Alpha virt. eigenvalues --    0.51345   0.51953   0.52499   0.53645   0.54733
 Alpha virt. eigenvalues --    0.57442   0.58959   0.61236   0.61834   0.63056
 Alpha virt. eigenvalues --    0.66181   0.66687   0.69439   0.70102   0.71899
 Alpha virt. eigenvalues --    0.72796   0.76793   0.78401   0.79637   0.81334
 Alpha virt. eigenvalues --    0.82464   0.84645   0.86177   0.86641   0.89296
 Alpha virt. eigenvalues --    0.90859   0.94307   0.94894   0.97595   0.98055
 Alpha virt. eigenvalues --    0.99633   1.01792   1.03510   1.04821   1.06343
 Alpha virt. eigenvalues --    1.06970   1.07216   1.10022   1.12095   1.14075
 Alpha virt. eigenvalues --    1.15970   1.16344   1.17319   1.20191   1.21101
 Alpha virt. eigenvalues --    1.22734   1.23358   1.25684   1.27066   1.28376
 Alpha virt. eigenvalues --    1.29058   1.30280   1.32195   1.33509   1.34288
 Alpha virt. eigenvalues --    1.36408   1.38065   1.40397   1.40671   1.42563
 Alpha virt. eigenvalues --    1.44091   1.45015   1.49184   1.50610   1.51615
 Alpha virt. eigenvalues --    1.53310   1.55104   1.57241   1.59609   1.62538
 Alpha virt. eigenvalues --    1.64246   1.69788   1.77427   1.78780   1.82499
 Alpha virt. eigenvalues --    1.86821   1.96518   1.99308   2.02117   2.06759
 Alpha virt. eigenvalues --    2.08832   2.11077   2.14544   2.18174   2.20297
 Alpha virt. eigenvalues --    2.21947   2.28557   2.29944   2.31638   2.33232
 Alpha virt. eigenvalues --    2.36558   2.39703   2.41650   2.43845   2.47498
 Alpha virt. eigenvalues --    2.49111   2.51273   2.52971   2.57098   2.58148
 Alpha virt. eigenvalues --    2.60536   2.62010   2.63500   2.64008   2.67285
 Alpha virt. eigenvalues --    2.70852   2.72134   2.76754   2.78666   2.80560
 Alpha virt. eigenvalues --    2.82022   2.82351   2.84669   2.86209   2.87615
 Alpha virt. eigenvalues --    2.88099   2.89528   2.91835   2.93038   2.94278
 Alpha virt. eigenvalues --    2.97414   2.99233   2.99810   3.00752   3.02216
 Alpha virt. eigenvalues --    3.03604   3.03830   3.05534   3.06339   3.08108
 Alpha virt. eigenvalues --    3.09797   3.10367   3.10667   3.12282   3.13788
 Alpha virt. eigenvalues --    3.13986   3.16307   3.19376   3.22177   3.22818
 Alpha virt. eigenvalues --    3.23881   3.25450   3.27091   3.27513   3.28662
 Alpha virt. eigenvalues --    3.29345   3.30536   3.32774   3.34451   3.35577
 Alpha virt. eigenvalues --    3.37242   3.39040   3.40253   3.41073   3.42976
 Alpha virt. eigenvalues --    3.44834   3.45824   3.47271   3.50221   3.52097
 Alpha virt. eigenvalues --    3.52622   3.53948   3.55836   3.60557   3.61651
 Alpha virt. eigenvalues --    3.62152   3.65203   3.66848   3.69587   3.71877
 Alpha virt. eigenvalues --    3.73457   3.74388   3.77008   3.77877   3.79911
 Alpha virt. eigenvalues --    3.81074   3.82230   3.83378   3.84021   3.87630
 Alpha virt. eigenvalues --    3.88939   3.89784   3.91042   3.92367   3.94053
 Alpha virt. eigenvalues --    3.96128   3.97590   3.98143   4.00272   4.01814
 Alpha virt. eigenvalues --    4.03254   4.03564   4.04426   4.06505   4.08119
 Alpha virt. eigenvalues --    4.09967   4.11497   4.14102   4.16198   4.17519
 Alpha virt. eigenvalues --    4.18376   4.21807   4.25160   4.28529   4.29451
 Alpha virt. eigenvalues --    4.31368   4.31990   4.36476   4.38942   4.41555
 Alpha virt. eigenvalues --    4.44985   4.48462   4.49469   4.51394   4.56120
 Alpha virt. eigenvalues --    4.59047   4.63120   4.63948   4.65318   4.68409
 Alpha virt. eigenvalues --    4.71401   4.72465   4.73478   4.78519   4.79339
 Alpha virt. eigenvalues --    4.82127   4.86615   4.89804   4.92363   4.94433
 Alpha virt. eigenvalues --    4.98709   4.99600   5.01042   5.04904   5.05984
 Alpha virt. eigenvalues --    5.07939   5.10381   5.11626   5.15464   5.20342
 Alpha virt. eigenvalues --    5.22666   5.23542   5.26774   5.27264   5.30716
 Alpha virt. eigenvalues --    5.31466   5.34933   5.41490   5.45293   5.46792
 Alpha virt. eigenvalues --    5.55403   5.58666   5.65047   5.68266   5.72939
 Alpha virt. eigenvalues --    5.76096   5.77015   5.79642   5.85401   5.87205
 Alpha virt. eigenvalues --    5.96191   5.98899   6.04515   6.09535   6.23405
 Alpha virt. eigenvalues --    6.33182   6.49356   6.57034   6.57839   6.70831
 Alpha virt. eigenvalues --    6.73562   6.75184   6.79359   6.84427   6.96796
 Alpha virt. eigenvalues --    7.04995   7.20278   7.28167   7.37184   7.45277
 Alpha virt. eigenvalues --   10.34497  11.24747  11.50702  11.84394  13.21233
 Alpha virt. eigenvalues --   13.31530  14.58335
          Condensed to atoms (all electrons):
               1          2          3          4          5          6
     1  O    7.815567   0.003553   0.323231  -0.047491  -0.052638   0.338199
     2  O    0.003553   7.772357   0.000399  -0.000064  -0.000067  -0.084791
     3  C    0.323231   0.000399   4.848766   0.342320   0.314733  -0.060581
     4  C   -0.047491  -0.000064   0.342320   4.951992  -0.056410   0.004161
     5  C   -0.052638  -0.000067   0.314733  -0.056410   5.103051  -0.032078
     6  C    0.338199  -0.084791  -0.060581   0.004161  -0.032078   5.072944
     7  C   -0.057298   0.364303   0.000755  -0.000493  -0.000747   0.477083
     8  H   -0.054886  -0.000084   0.400451  -0.034486  -0.089120   0.003428
     9  H    0.002959   0.000010  -0.035396   0.397204  -0.011868  -0.000162
    10  H    0.001781   0.000012  -0.031987   0.400816   0.009697  -0.000550
    11  H    0.003543   0.000000  -0.035803   0.387510  -0.001282  -0.000062
    12  H    0.003154   0.000015  -0.033568  -0.006237   0.380906   0.000330
    13  H    0.000397  -0.000055  -0.041530   0.009312   0.415044  -0.012089
    14  H    0.003883   0.000001  -0.027411  -0.008243   0.391675   0.002563
    15  H   -0.052751   0.003151  -0.000900  -0.000804  -0.008155   0.403517
    16  H    0.003678  -0.050745  -0.000339   0.000008   0.000077  -0.114292
    17  H   -0.000125   0.326181   0.000010   0.000001   0.000007   0.019601
               7          8          9         10         11         12
     1  O   -0.057298  -0.054886   0.002959   0.001781   0.003543   0.003154
     2  O    0.364303  -0.000084   0.000010   0.000012   0.000000   0.000015
     3  C    0.000755   0.400451  -0.035396  -0.031987  -0.035803  -0.033568
     4  C   -0.000493  -0.034486   0.397204   0.400816   0.387510  -0.006237
     5  C   -0.000747  -0.089120  -0.011868   0.009697  -0.001282   0.380906
     6  C    0.477083   0.003428  -0.000162  -0.000550  -0.000062   0.000330
     7  C    4.893053   0.003966  -0.000012  -0.000134  -0.000001  -0.000095
     8  H    0.003966   0.663531   0.009636  -0.010526  -0.001059   0.011002
     9  H   -0.000012   0.009636   0.573257  -0.030058  -0.033181   0.005049
    10  H   -0.000134  -0.010526  -0.030058   0.563561  -0.029300  -0.000249
    11  H   -0.000001  -0.001059  -0.033181  -0.029300   0.610128   0.000053
    12  H   -0.000095   0.011002   0.005049  -0.000249   0.000053   0.576994
    13  H    0.000791  -0.013136  -0.000562  -0.000388  -0.000155  -0.035953
    14  H    0.000066  -0.002545   0.000538  -0.000148  -0.000353  -0.027535
    15  H   -0.065018   0.004281   0.000189   0.000074   0.000216   0.001665
    16  H    0.466686  -0.000012   0.000000   0.000001  -0.000002  -0.000003
    17  H   -0.045593   0.000003   0.000000  -0.000001   0.000000  -0.000000
              13         14         15         16         17
     1  O    0.000397   0.003883  -0.052751   0.003678  -0.000125
     2  O   -0.000055   0.000001   0.003151  -0.050745   0.326181
     3  C   -0.041530  -0.027411  -0.000900  -0.000339   0.000010
     4  C    0.009312  -0.008243  -0.000804   0.000008   0.000001
     5  C    0.415044   0.391675  -0.008155   0.000077   0.000007
     6  C   -0.012089   0.002563   0.403517  -0.114292   0.019601
     7  C    0.000791   0.000066  -0.065018   0.466686  -0.045593
     8  H   -0.013136  -0.002545   0.004281  -0.000012   0.000003
     9  H   -0.000562   0.000538   0.000189   0.000000   0.000000
    10  H   -0.000388  -0.000148   0.000074   0.000001  -0.000001
    11  H   -0.000155  -0.000353   0.000216  -0.000002   0.000000
    12  H   -0.035953  -0.027535   0.001665  -0.000003  -0.000000
    13  H    0.605752  -0.028739  -0.016157   0.000045   0.000011
    14  H   -0.028739   0.576294  -0.000262  -0.000007  -0.000000
    15  H   -0.016157  -0.000262   0.625209  -0.003287  -0.000556
    16  H    0.000045  -0.000007  -0.003287   0.616267  -0.014588
    17  H    0.000011  -0.000000  -0.000556  -0.014588   0.453808
 Mulliken charges:
               1
     1  O   -0.234757
     2  O   -0.334175
     3  C    0.036849
     4  C   -0.339098
     5  C   -0.362826
     6  C   -0.017222
     7  C   -0.037314
     8  H    0.109556
     9  H    0.122394
    10  H    0.127400
    11  H    0.099747
    12  H    0.124470
    13  H    0.117411
    14  H    0.120223
    15  H    0.109586
    16  H    0.096513
    17  H    0.261241
 Sum of Mulliken charges =  -0.00000
 Mulliken charges with hydrogens summed into heavy atoms:
               1
     1  O   -0.234757
     2  O   -0.072934
     3  C    0.146405
     4  C    0.010444
     5  C   -0.000722
     6  C    0.092364
     7  C    0.059199
 APT charges:
               1
     1  O   -0.183471
     2  O   -0.923651
     3  C   -0.201745
     4  C   -1.185226
     5  C   -1.087853
     6  C   -0.367331
     7  C   -0.333554
     8  H    0.327571
     9  H    0.314699
    10  H    0.365038
    11  H    0.500450
    12  H    0.319320
    13  H    0.232960
    14  H    0.515765
    15  H    0.296003
    16  H    0.479323
    17  H    0.931702
 Sum of APT charges =  -0.00000
 APT charges with hydrogens summed into heavy atoms:
               1
     1  O   -0.183471
     2  O    0.008051
     3  C    0.125826
     4  C   -0.005039
     5  C   -0.019808
     6  C   -0.071328
     7  C    0.145769
 Electronic spatial extent (au):  <R**2>=           1045.2285
 Charge=             -0.0000 electrons
 Dipole moment (field-independent basis, Debye):
    X=             -0.3014    Y=              2.0712    Z=             -0.3376  Tot=              2.1200
 Quadrupole moment (field-independent basis, Debye-Ang):
   XX=            -31.0590   YY=            -44.2768   ZZ=            -45.4861
   XY=             -2.7827   XZ=             -0.7275   YZ=             -0.3444
 Traceless Quadrupole moment (field-independent basis, Debye-Ang):
   XX=              9.2150   YY=             -4.0028   ZZ=             -5.2122
   XY=             -2.7827   XZ=             -0.7275   YZ=             -0.3444
 Octapole moment (field-independent basis, Debye-Ang**2):
  XXX=            -64.7857  YYY=             -2.4418  ZZZ=              2.3386  XYY=             -3.0860
  XXY=              1.9568  XXZ=              2.4657  XZZ=             -0.8228  YZZ=             -2.9364
  YYZ=             -1.5792  XYZ=              0.3349
 Hexadecapole moment (field-independent basis, Debye-Ang**3):
 XXXX=           -753.2838 YYYY=           -269.5402 ZZZZ=            -83.0453 XXXY=             15.6662
 XXXZ=            -24.0591 YYYX=              0.3830 YYYZ=             -2.0080 ZZZX=             -2.3220
 ZZZY=             -0.2602 XXYY=           -218.1825 XXZZ=           -191.9545 YYZZ=            -60.6895
 XXYZ=             -3.5720 YYXZ=             -1.2166 ZZXY=              3.3455
 N-N= 3.112786544152D+02 E-N=-1.432723194494D+03  KE= 3.447346293674D+02
  Exact polarizability:   0.000   0.000   0.000   0.000   0.000   0.000
 Approx polarizability:  98.218   2.077  74.926  -3.369  -2.321  68.368
 No NMR shielding tensors so no spin-rotation constants.
 Leave Link  601 at Fri Sep 27 03:48:22 2019, MaxMem=   671088640 cpu:              56.1 elap:              28.1
 (Enter /shared/centos7/gaussian/g16/l701.exe)
 SCFChk:  SCF convergence  5.35D-09 required  1.00D-08
 ... and contract with generalized density number  0.
 Compute integral second derivatives.
 Entering OneElI...
 Calculate overlap and kinetic energy integrals
    NBasis = 395  MinDer = 2  MaxDer = 2
 Requested accuracy = 0.1000D-12
 PrmmSu-InSpLW:  IPartL=    0 NPrtUS=   20 NPrtUL=    1 DoSpLW=F IThBeg=    0 IThEnd=   19 NThAct=   20.
 PrsmSu:  NPrtUS=  20 ThrOK=T IAlg=1 NPAlg=1 LenDen=           0 ISkipM=0 DoSpLW=F IThBeg=    0 IThEnd=   19.
 Prism:   IPart=     0 DynPar=F LinDyn=F Incr=           4.
 PRISM was handed    33316630 working-precision words and  8354 shell-pairs
 PRISM was handed    33316630 working-precision words and  8354 shell-pairs
 PRISM was handed    33316630 working-precision words and  8354 shell-pairs
 PRISM was handed    33316630 working-precision words and  8354 shell-pairs
 PRISM was handed    33316630 working-precision words and  8354 shell-pairs
 PRISM was handed    33316630 working-precision words and  8354 shell-pairs
 PRISM was handed    33316630 working-precision words and  8354 shell-pairs
 PRISM was handed    33316630 working-precision words and  8354 shell-pairs
 PRISM was handed    33316630 working-precision words and  8354 shell-pairs
 PRISM was handed    33316630 working-precision words and  8354 shell-pairs
 PRISM was handed    33316630 working-precision words and  8354 shell-pairs
 PRISM was handed    33316630 working-precision words and  8354 shell-pairs
 PRISM was handed    33316630 working-precision words and  8354 shell-pairs
 PRISM was handed    33316630 working-precision words and  8354 shell-pairs
 PRISM was handed    33316630 working-precision words and  8354 shell-pairs
 PRISM was handed    33316630 working-precision words and  8354 shell-pairs
 IPart= 10 NShTot=         410 NBatch=          48 AvBLen=         8.5
 IPart=  0 NShTot=         464 NBatch=          84 AvBLen=         5.5
 PRISM was handed    33316630 working-precision words and  8354 shell-pairs
 PRISM was handed    33316630 working-precision words and  8354 shell-pairs
 PRISM was handed    33316630 working-precision words and  8354 shell-pairs
 IPart= 11 NShTot=         408 NBatch=          46 AvBLen=         8.9
 IPart=  4 NShTot=         439 NBatch=          64 AvBLen=         6.9
 IPart= 14 NShTot=         398 NBatch=          38 AvBLen=        10.5
 PRISM was handed    33316630 working-precision words and  8354 shell-pairs
 IPart=  2 NShTot=         452 NBatch=          74 AvBLen=         6.1
 IPart=  6 NShTot=         427 NBatch=          61 AvBLen=         7.0
 IPart= 16 NShTot=         395 NBatch=          37 AvBLen=        10.7
 IPart= 19 NShTot=         392 NBatch=          36 AvBLen=        10.9
 IPart= 15 NShTot=         397 NBatch=          37 AvBLen=        10.7
 IPart=  7 NShTot=         416 NBatch=          52 AvBLen=         8.0
 IPart= 13 NShTot=         401 NBatch=          40 AvBLen=        10.0
 IPart=  8 NShTot=         415 NBatch=          52 AvBLen=         8.0
 IPart=  1 NShTot=         458 NBatch=          79 AvBLen=         5.8
 IPart= 18 NShTot=         392 NBatch=          36 AvBLen=        10.9
 IPart=  3 NShTot=         443 NBatch=          68 AvBLen=         6.5
 IPart= 17 NShTot=         394 NBatch=          37 AvBLen=        10.6
 IPart= 12 NShTot=         405 NBatch=          43 AvBLen=         9.4
 IPart=  9 NShTot=         412 NBatch=          50 AvBLen=         8.2
 IPart=  5 NShTot=         436 NBatch=          62 AvBLen=         7.0
 PrSmSu:  NxtVal=             81.
 Entering OneElI...
 Calculate potential energy integrals
    NBasis = 395  MinDer = 2  MaxDer = 2
 Requested accuracy = 0.1000D-12
 PrmmSu-InSpLW:  IPartL=    0 NPrtUS=   20 NPrtUL=    1 DoSpLW=F IThBeg=    0 IThEnd=   19 NThAct=   20.
 PrsmSu:  NPrtUS=  20 ThrOK=T IAlg=1 NPAlg=1 LenDen=           0 ISkipM=0 DoSpLW=F IThBeg=    0 IThEnd=   19.
 Prism:   IPart=     0 DynPar=F LinDyn=F Incr=          63.
 PRISM was handed    33360711 working-precision words and  7461 shell-pairs
 PRISM was handed    33360711 working-precision words and  7461 shell-pairs
 PRISM was handed    33360711 working-precision words and  7461 shell-pairs
 PRISM was handed    33360711 working-precision words and  7461 shell-pairs
 PRISM was handed    33360711 working-precision words and  7461 shell-pairs
 PRISM was handed    33360711 working-precision words and  7461 shell-pairs
 PRISM was handed    33360711 working-precision words and  7461 shell-pairs
 PRISM was handed    33360711 working-precision words and  7461 shell-pairs
 PRISM was handed    33360711 working-precision words and  7461 shell-pairs
 PRISM was handed    33360711 working-precision words and  7461 shell-pairs
 PRISM was handed    33360711 working-precision words and  7461 shell-pairs
 PRISM was handed    33360711 working-precision words and  7461 shell-pairs
 PRISM was handed    33360711 working-precision words and  7461 shell-pairs
 PRISM was handed    33360711 working-precision words and  7461 shell-pairs
 PRISM was handed    33360711 working-precision words and  7461 shell-pairs
 PRISM was handed    33360711 working-precision words and  7461 shell-pairs
 PRISM was handed    33360711 working-precision words and  7461 shell-pairs
 PRISM was handed    33360711 working-precision words and  7461 shell-pairs
 PRISM was handed    33360711 working-precision words and  7461 shell-pairs
 PRISM was handed    33360711 working-precision words and  7461 shell-pairs
 IPart= 10 NShTot=        6256 NBatch=         368 AvBLen=        17.0
 IPart= 14 NShTot=        6086 NBatch=         358 AvBLen=        17.0
 IPart=  8 NShTot=        6324 NBatch=         372 AvBLen=        17.0
 IPart= 12 NShTot=        6120 NBatch=         360 AvBLen=        17.0
 IPart=  9 NShTot=        6273 NBatch=         369 AvBLen=        17.0
 IPart= 15 NShTot=        6052 NBatch=         356 AvBLen=        17.0
 IPart=  4 NShTot=        6681 NBatch=         393 AvBLen=        17.0
 IPart=  0 NShTot=        6970 NBatch=         410 AvBLen=        17.0
 IPart= 11 NShTot=        6188 NBatch=         364 AvBLen=        17.0
 IPart=  5 NShTot=        6562 NBatch=         386 AvBLen=        17.0
 IPart= 16 NShTot=        6018 NBatch=         354 AvBLen=        17.0
 IPart=  2 NShTot=        6851 NBatch=         403 AvBLen=        17.0
 IPart= 17 NShTot=        5967 NBatch=         351 AvBLen=        17.0
 IPart=  6 NShTot=        6528 NBatch=         384 AvBLen=        17.0
 IPart= 19 NShTot=        5916 NBatch=         348 AvBLen=        17.0
 IPart=  7 NShTot=        6341 NBatch=         373 AvBLen=        17.0
 IPart= 18 NShTot=        5933 NBatch=         349 AvBLen=        17.0
 IPart= 13 NShTot=        6103 NBatch=         359 AvBLen=        17.0
 IPart=  1 NShTot=        6919 NBatch=         407 AvBLen=        17.0
 IPart=  3 NShTot=        6749 NBatch=         397 AvBLen=        17.0
 PrSmSu:  NxtVal=           1261.
 Polarizability after L701:
                1             2             3 
      1  0.000000D+00
      2  0.000000D+00  0.000000D+00
      3  0.000000D+00  0.000000D+00  0.000000D+00
 Dipole Derivatives after L701:
                 1             2             3             4             5 
      1  -0.230885D+00  0.356184D-01 -0.406163D-01 -0.226164D+01  0.667154D+00
      2  -0.133852D-03 -0.103365D+00 -0.411664D-01 -0.233841D+00 -0.128405D+00
      3  -0.204883D-01 -0.415391D-01 -0.216164D+00  0.127543D+00 -0.650426D-01
                 6             7             8             9            10 
      1   0.641574D-01 -0.119989D+00 -0.102279D+00  0.714992D+00 -0.144044D+01
      2  -0.239594D-01 -0.136784D+00  0.119452D+00  0.917542D-01  0.188050D+00
      3  -0.380911D+00  0.980419D-01  0.249422D-01 -0.604699D+00  0.291027D-01
                11            12            13            14            15 
      1   0.819524D+00 -0.231959D+00 -0.117604D+01 -0.788667D+00 -0.448864D+00
      2  -0.116409D+01  0.736108D-01 -0.157250D+00 -0.123650D+01 -0.156915D+00
      3  -0.395233D-01 -0.951153D+00  0.969285D-03  0.518958D-01 -0.851020D+00
                16            17            18            19            20 
      1  -0.673264D+00  0.161928D+00  0.236969D+00 -0.102616D+00  0.450498D+00
      2   0.201893D+00 -0.486548D+00  0.201608D-01  0.144642D-01 -0.883863D+00
      3   0.750973D-02  0.147611D+00  0.578193D-01  0.445959D-01  0.185306D+00
                21            22            23            24            25 
      1  -0.256732D+00  0.216824D+00  0.673326D-01 -0.475070D+00  0.935887D-01
      2   0.264195D+00  0.236123D-01  0.155212D+00 -0.180417D-01  0.972690D-02
      3  -0.141837D-01 -0.481318D-01 -0.304307D-01  0.610677D+00 -0.334295D-01
                26            27            28            29            30 
      1  -0.216838D+00  0.751206D+00 -0.127366D-02 -0.636058D+00 -0.380878D+00
      2   0.250722D+00 -0.523043D+00  0.146637D+00  0.837382D+00  0.447306D+00
      3  -0.124310D+00  0.599788D+00  0.558207D-01  0.198109D+00  0.259007D+00
                31            32            33            34            35 
      1   0.134884D+01  0.246862D+00 -0.153009D+00  0.144088D+00 -0.204227D-01
      2  -0.275081D+00  0.504142D-01  0.198655D-01  0.238476D-01  0.989431D-01
      3  -0.792402D-01 -0.213444D-01  0.102098D+00  0.298816D-01 -0.316810D-01
                36            37            38            39            40 
      1   0.649713D+00 -0.116551D+00  0.246541D+00 -0.720149D-01  0.113538D+01
      2   0.407437D+00 -0.608595D+00  0.679996D+00 -0.225010D+00  0.540382D+00
      3   0.714929D+00  0.285829D-01  0.342739D-02  0.135435D+00 -0.506999D-01
                41            42            43            44            45 
      1   0.330119D+00 -0.321654D+00  0.910573D-01 -0.148646D+00 -0.461573D-02
      2   0.284193D+00 -0.160165D+00  0.298258D+00  0.725143D+00 -0.745558D-01
      3  -0.641322D-02  0.127725D+00 -0.879111D-01 -0.187850D+00  0.718095D-01
                46            47            48            49            50 
      1   0.863007D+00 -0.898352D+00  0.119461D+00  0.222991D+01 -0.214314D+00
      2  -0.318465D+00  0.523401D+00 -0.739422D-01  0.283279D+00  0.277917D+00
      3   0.346617D-01 -0.738849D-01  0.515614D-01 -0.136809D+00  0.107277D-01
                51 
      1  -0.151085D+00
      2  -0.275307D-01
      3   0.287282D+00
 Hessian after L701:
                1             2             3             4             5 
      1  0.361733D+01
      2  0.287316D+01  0.132237D+02
      3  0.339531D+00  0.838809D+00  0.188904D+02
      4  0.906788D+00  0.168318D+00 -0.116597D+00  0.567690D+01
      5  0.220066D+00 -0.406300D+00 -0.356573D-01 -0.357676D+01  0.818442D+01
      6 -0.121691D+00 -0.313410D-01 -0.491774D+00  0.147250D+01  0.152711D+01
      7 -0.533023D+00  0.181790D+01 -0.152199D+01  0.188227D+00  0.700368D-01
      8  0.165521D+01 -0.834554D+01 -0.533489D+00  0.565376D-01 -0.814340D-01
      9 -0.145808D+01 -0.500899D+00 -0.916508D+01 -0.182230D-01 -0.110901D-02
     10  0.241378D+00 -0.291743D+00  0.131888D+00  0.969826D-01 -0.847031D-02
     11 -0.250282D+00 -0.962158D-01 -0.117812D-01  0.663795D-03 -0.598295D-01
     12  0.113555D+00 -0.893754D-02 -0.156205D+00 -0.867792D-02 -0.882480D-03
     13 -0.281925D-01  0.399729D+00  0.348473D+00  0.743640D-01  0.751575D-01
     14  0.348912D+00  0.377225D+00  0.310000D+00  0.509613D-01 -0.439924D-01
     15  0.249952D+00  0.238920D+00 -0.355298D-02 -0.538109D-02 -0.446240D-02
     16 -0.474467D+01 -0.508958D+01  0.583181D+00  0.373757D+00 -0.206175D+00
     17 -0.497972D+01 -0.458013D+01 -0.752395D+00 -0.416374D+00 -0.778556D+00
     18  0.633635D+00 -0.810439D+00 -0.970844D+01  0.121333D+00  0.267736D+00
     19  0.125285D+00  0.844668D-01  0.760179D-01 -0.682367D+01  0.391649D+01
     20  0.158425D+00 -0.291587D+00  0.402602D-01  0.408142D+01 -0.115908D+01
     21 -0.597696D-03  0.797690D-01  0.211591D+00 -0.995875D+00 -0.177099D+01
     22 -0.302149D+00 -0.204967D+00  0.135983D+00  0.132540D-01  0.756021D-02
     23 -0.184061D+00  0.141097D+00  0.520143D-01  0.545109D-02 -0.928920D-02
     24  0.169255D+00  0.694052D-01  0.487260D+00 -0.248085D-01 -0.824107D-02
     25  0.612432D-01 -0.582344D-01  0.200410D-01  0.155050D-01 -0.179516D-02
     26 -0.747929D-01 -0.299676D-01 -0.179266D-01 -0.689767D-02 -0.833791D-02
     27  0.800090D-01 -0.382768D-01 -0.403500D-01  0.174878D-01 -0.168382D-03
     28  0.450381D-01 -0.621394D-01  0.504074D-02  0.126915D-01 -0.460671D-02
     29 -0.115396D+00  0.195797D-01  0.403106D-02 -0.180038D-01 -0.485721D-02
     30 -0.284371D-01  0.206526D-01 -0.565392D-01 -0.106116D-01  0.221525D-02
     31  0.162126D+00  0.970836D-03 -0.183826D-01  0.150693D-01  0.255789D-02
     32 -0.977146D-02 -0.469774D-01  0.219115D-02  0.589072D-03 -0.413715D-02
     33 -0.139209D-01  0.111887D-02 -0.417351D-01 -0.114781D-02 -0.357951D-03
     34  0.233886D-01  0.835981D-01  0.393360D-01  0.119375D-01  0.105340D-01
     35  0.727105D-01  0.118207D-01  0.339740D-01  0.845086D-02 -0.413271D-02
     36  0.749856D-01  0.779292D-01 -0.152340D-01  0.164168D-01  0.114135D-01
     37 -0.376672D-01  0.734173D-02  0.314110D-01 -0.241626D-02  0.222785D-02
     38  0.713593D-01  0.872054D-01  0.707520D-01  0.220303D-01  0.122835D-01
     39  0.177810D-01  0.315096D-01 -0.463980D-01 -0.422483D-02 -0.559306D-02
     40  0.103006D+00  0.100954D+00 -0.127622D-01  0.124852D-01  0.112505D-01
     41  0.905137D-01  0.144876D-01 -0.959175D-02  0.754993D-02 -0.297527D-03
     42 -0.156597D-01 -0.106931D-01 -0.423698D-01 -0.235546D-02 -0.184981D-02
     43  0.188749D+00  0.274160D+00 -0.426111D-01  0.326409D-01  0.924316D-01
     44  0.233691D+00 -0.889865D-01  0.117294D-01  0.979146D-01  0.736749D-01
     45 -0.441245D-01  0.475947D-01  0.232658D+00 -0.236379D-01 -0.258011D-01
     46  0.966841D-01 -0.975063D-01  0.679386D-02  0.220424D+00 -0.998166D-01
     47 -0.110072D+00  0.253221D-01 -0.279372D-02 -0.143331D+00 -0.143262D+00
     48  0.110427D-01 -0.538268D-02 -0.384259D-01  0.243828D-01  0.683518D-01
     49  0.746819D-01 -0.643601D-02 -0.534835D-02 -0.824942D+00 -0.510691D+00
     50  0.421860D-04 -0.147740D-01 -0.127011D-03 -0.338523D+00 -0.556687D+01
     51 -0.723289D-02  0.260255D-03 -0.158437D-01 -0.440578D+00 -0.217215D-01
                6             7             8             9            10 
      6  0.145048D+02
      7 -0.407805D-01  0.141796D+02
      8 -0.904211D-02 -0.862723D+00  0.194277D+02
      9 -0.102963D+00  0.680397D+00  0.518943D-01  0.221404D+02
     10 -0.552123D-02 -0.415041D+01 -0.224538D+01  0.740140D+00  0.128514D+02
     11 -0.982201D-03 -0.219215D+01 -0.356950D+01 -0.795809D+00  0.191903D+01
     12 -0.640678D-01  0.709269D+00 -0.795542D+00 -0.581063D+01 -0.506082D+00
     13  0.529499D-02 -0.598004D+01  0.143627D+01  0.629103D+00 -0.694098D-01
     14  0.343967D-02  0.137128D+01 -0.277693D+01  0.160790D+01 -0.816582D-01
     15 -0.660488D-01  0.615312D+00  0.160523D+01 -0.571160D+01  0.446218D-02
     16  0.112362D+00  0.212978D+00 -0.412693D-01  0.558160D-01  0.191491D+00
     17  0.326107D+00 -0.133730D+00 -0.650254D-01  0.424227D-01 -0.203722D+00
     18  0.244041D+00  0.497550D-01  0.459072D-01  0.125865D-01  0.408895D-01
     19 -0.986722D+00  0.299132D+00 -0.683839D-01  0.140504D-01  0.786427D-01
     20 -0.181361D+01 -0.740457D-01 -0.130642D+00  0.183242D-01 -0.419177D-01
     21 -0.820825D+01 -0.290620D-01  0.199426D-01 -0.110234D+00 -0.167051D-02
     22 -0.113325D-01 -0.442736D+01  0.779995D-01 -0.559129D+00  0.322962D-01
     23 -0.220688D-02  0.764880D-01 -0.452360D+01 -0.312917D+00  0.512084D-01
     24  0.109504D-02 -0.453315D+00 -0.280410D+00 -0.147049D+01 -0.859170D-01
     25  0.419789D-02  0.695795D-01  0.112476D-01 -0.463619D-01 -0.397340D+01
     26 -0.155908D-02 -0.863900D-02  0.230649D-01  0.753575D-01  0.110882D+00
     27 -0.381967D-02  0.450065D-02  0.226024D-01  0.412590D-01 -0.229613D+00
     28 -0.311080D-02  0.605795D-01  0.350093D-01  0.152122D-01 -0.389777D+01
     29  0.361576D-02 -0.288555D-01 -0.246992D-01  0.342998D-01  0.497041D+00
     30 -0.619473D-02 -0.126243D-02  0.486702D-01  0.650379D-01  0.245663D+00
     31 -0.171052D-02 -0.830231D-01  0.104097D-01 -0.148355D-01 -0.139053D+01
     32 -0.199377D-03  0.620729D-01  0.842840D-01 -0.167139D-01  0.417864D+00
     33 -0.460183D-02 -0.826880D-02 -0.181335D-01  0.521608D-01 -0.332640D+00
     34  0.559911D-02  0.666747D-01 -0.247711D-01 -0.326523D-01 -0.136063D-01
     35  0.202599D-02 -0.110472D-01 -0.850246D-02 -0.138354D+00 -0.467260D-02
     36 -0.204055D-02  0.187996D-03 -0.905534D-01  0.333899D-02 -0.979378D-03
     37  0.143074D-02  0.100483D+00 -0.134319D-01  0.285406D-01 -0.158633D-01
     38 -0.942589D-03  0.802593D-01 -0.339560D-01 -0.458898D-01 -0.995219D-01
     39 -0.908493D-02  0.408106D-01 -0.583451D-01  0.801607D-01  0.192641D-02
     40 -0.136760D-02 -0.507486D-01 -0.254017D-01 -0.407734D-01  0.508478D-02
     41 -0.685521D-03 -0.810807D-01  0.508399D-01 -0.368035D-03  0.143945D-01
     42 -0.462090D-02 -0.450838D-01 -0.101210D-01  0.317091D-01 -0.532132D-02
     43 -0.302785D-01  0.379093D-02  0.207479D-02 -0.320167D-02 -0.109109D-01
     44 -0.353186D-01 -0.657354D-01 -0.198320D-01 -0.128632D-01 -0.202753D-01
     45 -0.263109D-01  0.121767D-02  0.174275D-02 -0.432575D-01  0.227568D-02
     46  0.153863D-01  0.184131D-01 -0.704329D-02  0.520492D-02  0.931973D-02
     47  0.723742D-01 -0.197048D-01 -0.179559D-02 -0.490115D-02 -0.113836D-01
     48  0.150305D+00  0.131132D-02  0.652891D-04 -0.702741D-02  0.161458D-02
     49 -0.414256D+00  0.251660D-01  0.364672D-02  0.479404D-02  0.152987D-01
     50 -0.387936D-01 -0.329044D-03 -0.445301D-02 -0.378095D-03 -0.167791D-02
     51 -0.591047D+01 -0.299447D-02 -0.422720D-03 -0.538739D-02 -0.111409D-02
               11            12            13            14            15 
     11  0.129886D+02
     12  0.335200D+00  0.149159D+02
     13 -0.163766D+00 -0.111216D-01  0.140364D+02
     14  0.198152D+00  0.490962D-01 -0.906544D+00  0.123795D+02
     15  0.741725D-02 -0.119744D+00 -0.635016D+00 -0.814814D+00  0.154464D+02
     16 -0.177844D+00  0.267222D-01  0.227139D+00 -0.394930D-01 -0.343781D-02
     17 -0.334755D-01 -0.132724D-01  0.103821D+00 -0.123901D+00  0.324478D-01
     18 -0.181506D-01 -0.137838D+00 -0.146287D-01 -0.138849D-02 -0.137076D+00
     19 -0.370012D-01 -0.103907D-03  0.157178D+00  0.303313D-01 -0.109056D-01
     20 -0.438903D-01 -0.250455D-04  0.638111D-01 -0.883191D-01  0.559420D-02
     21  0.222405D-03 -0.547447D-01 -0.117330D-01  0.714127D-02 -0.883669D-01
     22  0.505311D-01 -0.854326D-01  0.293705D+00 -0.352651D-01 -0.719218D-01
     23  0.166011D-01  0.100683D+00 -0.596702D-01  0.160160D+00 -0.286373D+00
     24  0.876047D-01 -0.373609D-01 -0.136075D+00 -0.340228D+00 -0.233445D+00
     25  0.493059D-01 -0.358532D-01  0.100393D-02  0.214249D-01 -0.615043D-02
     26 -0.380013D+01 -0.726684D+00  0.432256D-02 -0.254123D-01  0.267996D-02
     27 -0.590023D+00 -0.151928D+01  0.373668D-02  0.911885D-03  0.186569D-01
     28  0.316728D+00  0.153463D+00 -0.550426D-01 -0.198871D-01 -0.599300D-02
     29 -0.212622D+01  0.110986D+01 -0.900431D-02  0.170216D+00  0.574703D-01
     30  0.104727D+01 -0.330352D+01 -0.529239D-02  0.645755D-01 -0.346151D-01
     31  0.566090D+00 -0.349140D+00  0.360492D-01 -0.700424D-01 -0.120848D-01
     32 -0.364267D+01 -0.441632D-01 -0.479239D-01  0.167154D-01  0.124673D-01
     33 -0.599013D-01 -0.363686D+01 -0.168002D-01  0.175437D-01 -0.344572D-01
     34 -0.108303D-01 -0.417957D-02 -0.386139D+01 -0.287462D-01  0.179738D+00
     35  0.478004D-02  0.607349D-02 -0.144274D-01 -0.392381D+01 -0.408208D-01
     36  0.234380D-01  0.770120D-02  0.510303D-01 -0.212084D+00 -0.127268D+01
     37 -0.875419D-01  0.114164D-02 -0.321474D+01 -0.119717D+01  0.352896D+00
     38  0.161892D+00 -0.785905D-02 -0.149761D+01 -0.271123D+01 -0.532742D+00
     39 -0.907600D-02 -0.517899D-01  0.374191D+00 -0.450947D+00 -0.413135D+01
     40  0.197115D-01 -0.874833D-03 -0.169746D+01  0.628862D+00 -0.652722D+00
     41 -0.543589D-03 -0.113976D-02  0.733997D+00 -0.359985D+01 -0.260622D+00
     42 -0.115976D-01 -0.990485D-02 -0.610022D+00 -0.215194D+00 -0.357438D+01
     43 -0.215686D-02  0.578399D-04  0.372587D-01 -0.645132D-01  0.565558D-02
     44  0.814497D-02 -0.298425D-02 -0.108641D+00 -0.241996D-02 -0.240753D-01
     45 -0.300903D-02 -0.130044D-01  0.240173D-01 -0.248555D-01 -0.445316D-01
     46 -0.456344D-02 -0.160722D-03  0.256917D-01 -0.773436D-02  0.231846D-03
     47 -0.225018D-02  0.395051D-03 -0.117641D-01 -0.345311D-02  0.153396D-02
     48 -0.454844D-03 -0.545388D-02  0.561111D-02 -0.146945D-02 -0.976985D-02
     49  0.407578D-02 -0.258138D-02  0.174841D-01 -0.715003D-03 -0.463401D-02
     50 -0.346699D-02  0.182961D-03  0.224388D-02 -0.266464D-02  0.145874D-03
     51 -0.372384D-03 -0.318349D-02 -0.767967D-03  0.369080D-03 -0.344686D-02
               16            17            18            19            20 
     16  0.842619D+01
     17  0.304789D+01  0.170880D+02
     18  0.958965D+00  0.198471D+01  0.276561D+02
     19 -0.429171D+00  0.121852D+01 -0.157985D+01  0.102578D+02
     20  0.859778D+00 -0.975871D+01 -0.947771D+00 -0.329056D+01  0.138867D+02
     21 -0.142813D+01 -0.103625D+01 -0.135669D+02  0.212834D+01  0.291591D+01
     22 -0.555191D-03  0.880810D-02  0.609448D-02  0.932793D-01 -0.788586D-02
     23  0.704384D-02 -0.506985D-01 -0.511089D-02 -0.851022D-02 -0.245027D-01
     24 -0.412014D-01 -0.146470D-02 -0.306605D-01 -0.550529D-01  0.169718D-02
     25  0.616010D-02 -0.141718D-01  0.104720D-01  0.116470D-01 -0.754868D-02
     26 -0.158432D-01 -0.119997D-02 -0.919750D-02 -0.125217D-01 -0.302733D-02
     27  0.211393D-01 -0.159495D-01  0.214173D-02  0.207938D-01 -0.663077D-02
     28  0.274125D-02 -0.134798D-01 -0.797093D-03  0.523932D-02 -0.662381D-02
     29 -0.231366D-01  0.140948D-01  0.175191D-02 -0.210642D-01  0.342126D-02
     30 -0.763625D-02  0.936185D-02 -0.973351D-02 -0.955963D-02  0.476163D-02
     31  0.221837D-01 -0.970612D-02  0.178758D-02  0.201637D-01 -0.266425D-02
     32 -0.352040D-02 -0.584942D-02 -0.149720D-03 -0.199166D-02 -0.465991D-02
     33 -0.102057D-02 -0.844879D-04 -0.769619D-02 -0.918958D-03  0.179517D-03
     34  0.177606D-01  0.990553D-02  0.402453D-01  0.181499D-01  0.530506D-02
     35  0.811214D-02 -0.268325D-01  0.769390D-02  0.497375D-02 -0.959789D-02
     36  0.557006D-01  0.140948D-01  0.232816D-01  0.326965D-01  0.679379D-02
     37 -0.586799D-01 -0.148065D-01 -0.398524D-01  0.182825D-01  0.155983D-01
     38  0.240783D-01  0.368445D-01 -0.183212D-01  0.520704D-01  0.379340D-02
     39 -0.404658D-01 -0.230890D-01 -0.146343D-01 -0.143126D-01 -0.669806D-02
     40  0.808729D-01  0.261224D-01  0.262791D-02  0.279700D-01  0.844073D-02
     41  0.320838D-01 -0.188508D-01  0.258748D-02  0.893281D-02 -0.395298D-02
     42 -0.108939D-02 -0.148262D-02 -0.221156D-01 -0.317291D-02 -0.792411D-03
     43 -0.427696D+01  0.850860D+00 -0.135096D+00 -0.180270D+00 -0.291318D+00
     44  0.109104D+01 -0.192623D+01 -0.473394D+00 -0.347635D+00  0.490032D-01
     45 -0.203699D+00 -0.535427D+00 -0.459293D+01  0.140421D+00  0.759748D-01
     46 -0.393626D+00  0.353289D+00 -0.196517D-01 -0.340794D+01 -0.142559D+01
     47  0.386136D+00  0.267980D+00 -0.339070D-02 -0.135759D+01 -0.251942D+01
     48 -0.218547D-01 -0.522459D-02  0.368732D+00  0.184823D+00 -0.296909D+00
     49  0.342391D+00  0.166494D+00 -0.759242D-01 -0.271736D+00 -0.446303D-01
     50  0.140698D+00 -0.374946D-01 -0.230769D-01 -0.170525D+00  0.945136D-01
     51 -0.653553D-01 -0.245082D-01 -0.788016D-01  0.634609D-01  0.293761D-02
               21            22            23            24            25 
     21  0.260952D+02
     22 -0.203645D-01  0.429286D+01
     23  0.178951D-02  0.106106D+00  0.441368D+01
     24 -0.150402D-01  0.583441D+00  0.490215D+00  0.107002D+01
     25  0.476345D-02 -0.278186D-01 -0.169083D-01  0.378012D-01  0.378077D+01
     26 -0.240060D-02 -0.116478D-01  0.390071D-02 -0.756737D-01  0.105491D+00
     27 -0.295536D-02  0.235129D-01 -0.642607D-01  0.967362D-01 -0.132512D+00
     28 -0.182991D-02  0.223196D-01  0.246866D-01 -0.125829D-01  0.101132D+00
     29  0.440967D-02  0.200817D-01 -0.508302D-01  0.321490D-01 -0.104095D-01
     30 -0.397685D-02 -0.580555D-02  0.318988D-01  0.104909D-01 -0.401156D-01
     31 -0.255667D-02 -0.277963D-02 -0.548883D-03  0.990210D-02 -0.284695D-01
     32  0.125674D-03  0.238520D-02 -0.160387D-02  0.601115D-03 -0.629956D-01
     33 -0.424106D-02 -0.239380D-02  0.109747D-03 -0.368366D-03  0.185661D+00
     34  0.111749D-01 -0.369896D-01  0.710303D-02  0.270163D-01 -0.186869D-01
     35  0.204642D-02  0.287015D-02 -0.216115D-01  0.662721D-01 -0.110047D-01
     36  0.407191D-03  0.112338D-01  0.540553D-01  0.149177D+00 -0.290409D-02
     37 -0.608517D-02  0.376572D-01  0.134757D-01  0.603910D-02 -0.377184D-04
     38 -0.573621D-02  0.205734D-01 -0.471397D-01 -0.700235D-01  0.128646D-03
     39 -0.190742D-01  0.170498D-01 -0.598188D-01 -0.149680D-01  0.120673D-03
     40 -0.309607D-02 -0.185652D-02 -0.646289D-02  0.376134D-02 -0.321342D-02
     41 -0.567686D-03 -0.707171D-02 -0.471992D-02 -0.282842D-02  0.326891D-02
     42 -0.545856D-02 -0.732974D-02 -0.729594D-02 -0.284420D-02 -0.168349D-02
     43  0.110540D+00  0.686984D-02 -0.156293D-01 -0.155075D-01  0.332518D-03
     44  0.715914D-01 -0.269786D-01 -0.182514D-03  0.258990D-01 -0.561689D-02
     45  0.188437D+00 -0.118556D-01  0.706553D-02 -0.887971D-02  0.198598D-02
     46  0.200648D+00  0.334767D-02 -0.758216D-03 -0.547795D-02  0.156025D-02
     47 -0.303154D+00 -0.320585D-02 -0.721473D-03  0.480693D-02 -0.183819D-02
     48 -0.449272D+01 -0.994549D-03  0.289856D-03 -0.111436D-02  0.523056D-03
     49  0.455315D-01  0.391457D-02  0.986167D-03 -0.727854D-02  0.269712D-02
     50  0.161482D-01  0.106726D-03 -0.535983D-03  0.218483D-03 -0.343547D-03
     51  0.763519D-01 -0.755640D-03 -0.138276D-03  0.388995D-03  0.141062D-04
               26            27            28            29            30 
     26  0.360883D+01
     27  0.773029D+00  0.166620D+01
     28  0.185200D-02 -0.895785D-02  0.376605D+01
     29  0.769513D-01 -0.112917D+00 -0.118020D+00  0.192673D+01
     30 -0.114978D+00 -0.172159D+00 -0.774253D-01 -0.109765D+01  0.342017D+01
     31 -0.861365D-01  0.193991D+00 -0.638290D-01 -0.167423D+00 -0.557555D-01
     32  0.879285D-01  0.689837D-01 -0.153539D+00 -0.296922D-01 -0.318473D-01
     33  0.901254D-01 -0.640654D-01 -0.635491D-01 -0.425635D-01  0.913847D-01
     34 -0.683430D-02  0.141711D-03 -0.162399D-02  0.488384D-03  0.248928D-03
     35  0.449316D-01 -0.377675D-02  0.533552D-04  0.231062D-02  0.251784D-02
     36  0.199769D-01 -0.262075D-01  0.354295D-03  0.946416D-02  0.475814D-02
     37 -0.236152D-02  0.474318D-02 -0.101558D-03 -0.439845D-02 -0.217282D-02
     38  0.585861D-03 -0.601651D-02  0.286612D-02 -0.409187D-03  0.299742D-02
     39 -0.130795D-02  0.200132D-02  0.533550D-03 -0.283494D-02 -0.255774D-03
[...]
   yy         0.858112D+02      0.127159D+02      0.141484D+02
   zx         0.876493D+00      0.129883D+00      0.144514D+00
   zy         0.104228D+02      0.154450D+01      0.171849D+01
   zz         0.645046D+02      0.955860D+01      0.106354D+02

 ----------------------------------------------------------------------

 Test job not archived.
 1\1\GINC-C0152\Freq\RM062X\CC-pVTZ\C5H10O2\HARMS.N\27-Sep-2019\0\\#P G
 eom=AllCheck Guess=TCheck SCRF=Check Test GenChk RM062X/CC-pVTZ Freq\\
 Gaussian input prepared by ASE\\0,1\O,1.7174994787,0.3003726157,3.6882
 582324\O,1.3308022622,-2.0911606826,2.3020367795\C,1.5025771844,1.7102
 989072,3.7165461146\C,0.8224325719,2.0134911815,5.0338903103\C,0.67331
 05289,2.1443426321,2.5205629925\C,2.5640870662,-0.1257678809,2.7146800
 083\C,2.3993817078,-1.2736494601,2.0730538308\H,2.4813892068,2.2061853
 972,3.6834814231\H,-0.1350366265,1.4943863285,5.0790838576\H,1.4371874
 758,1.6772883839,5.866809242\H,0.6448367095,3.0837277386,5.1333819647\
 H,-0.2955116227,1.6446754591,2.5475107194\H,1.169951959,1.8796918969,1
 .5873831548\H,0.5145834267,3.2225504658,2.5354770245\H,3.4263522385,0.
 4966762238,2.5001256694\H,3.1411773454,-1.5972457188,1.3557493027\H,1.
 4025444178,-2.869841995,1.7491621558\\Version=EM64L-G16RevA.03\State=1
 -A\HF=-346.9414281\RMSD=2.314e-09\RMSF=3.044e-07\ZeroPoint=0.1467832\T
 hermal=0.1556428\Dipole=0.368599,0.1068113,-0.6345054\DipoleDeriv=-0.6
 169647,0.5563078,0.4016027,0.2830688,-1.1699558,-0.3686744,0.2960726,-
 0.7192305,-0.8455775,-0.6680383,-0.8381533,-0.2298329,-0.306537,-1.015
 973,-0.1469192,0.0445456,0.1657803,-0.2700827,0.4294528,-0.1314359,0.0
 186434,-0.2571098,1.0259447,0.2391677,0.0119398,0.0851572,0.4864645,0.
 033255,0.0403247,0.0399676,0.0306231,0.03796,-0.0152406,0.0523727,-0.0
 390481,-0.066062,-0.0072384,0.0576187,-0.0533441,0.0633644,-0.0260577,
 -0.0347347,-0.0800548,0.0848774,-0.109847,0.3352691,-0.4547269,-0.4779
 142,-0.1026777,0.1806792,0.287516,-0.4459346,0.6973537,0.4745797,0.419
 3595,0.8960337,0.0822512,0.4364683,0.6621138,0.1546479,-0.1065523,-0.0
 934514,-0.0838102,-0.1808289,-0.092966,-0.0028501,-0.0037508,-0.065992
 7,-0.0268196,0.0108516,0.0193607,-0.0154978,-0.0666454,-0.0523775,0.02
 86646,-0.0873194,0.0345317,0.0127328,-0.0226189,-0.0265852,0.0418698,0
 .0029823,0.0304509,-0.0815753,0.0300735,0.0649082,0.0590119,-0.0493631
 ,0.0261306,-0.0707672,0.0567854,0.0301841,0.0217335,0.0406998,-0.12627
 64,-0.0376392,0.014187,0.0030674,0.044697,-0.066777,-0.0404364,-0.0190
 23,-0.0890446,0.0306839,0.0065811,0.0277623,0.0189463,0.0428027,0.0131
 475,0.0140692,0.0640852,0.0127994,0.0786323,-0.0443292,0.0431341,-0.03
 64902,-0.0935913,0.0522603,0.0315878,-0.0060569,0.0452231,-0.1380716,-
 0.0005461,-0.0120298,-0.0178999,0.0773815,-0.015641,-0.055463,0.062701
 9,-0.1097767,0.0455529,0.0002258,0.0672214,-0.097011,0.0443777,-0.0104
 06,-0.0369952,0.0922928,-0.0098635,0.0236062,-0.0670731,0.0977296,-0.0
 472656,0.0608404,0.2900279,0.0459773,0.0586537,0.0237591,0.3577145,-0.
 017907,0.0507369,-0.0236916,0.2822224\Polar=61.0096724,-2.6417732,82.0
 880718,-3.8329432,13.5095285,65.797514\Quadrupole=-2.0679762,3.278,-1.
 2100238,-1.0577422,-1.4845456,4.9760589\PG=C01 [X(C5H10O2)]\NImag=0\\0
 .24747530,-0.08337534,0.42731669,-0.18285958,0.07618976,0.29049028,0.0
 0874367,-0.00388342,-0.01579618,0.28810431,0.00954632,-0.00289187,-0.0
 0343702,0.13736580,0.55801382,-0.00602966,0.00691567,0.00210601,-0.104
 36510,0.25247871,0.25152033,-0.07336455,-0.00382532,0.01299435,0.00015
 965,0.00009390,-0.00131395,0.59431755,0.01253040,-0.20895655,0.0011488
 2,0.00577415,0.00470418,-0.00141128,0.04589541,0.47683734,0.01066077,0
 .02377046,-0.07275163,0.00156098,0.00120663,-0.00026941,-0.02507791,0.
 00379959,0.52639340,-0.00312205,0.00664476,0.00775102,-0.00001441,0.00
 018095,0.00007792,-0.11103119,0.00922321,0.05377182,0.56377987,0.02751
 074,-0.02546802,-0.04070273,-0.00060632,-0.00034284,0.00025490,0.00127
 137,-0.07543370,-0.00809833,0.00273694,0.59036188,0.00367606,-0.006696
 84,-0.00289284,0.00029034,0.00021221,-0.00005606,0.05333438,-0.0211857
 8,-0.18224755,0.04069498,-0.01609600,0.52134802,-0.00100483,0.00968978
 ,-0.00433916,-0.00032866,0.00005748,0.00008067,-0.12330218,0.01439269,
 -0.05470827,0.00996679,-0.00547902,0.01101438,0.54825471,0.02981784,-0
 .03585821,0.02841576,-0.00114916,-0.00073887,0.00037303,0.00946000,-0.
 07695431,0.01459481,-0.00522726,0.00489856,-0.00335692,0.01486225,0.58
 167773,0.00027453,0.00342162,0.00240976,0.00048494,0.00012148,0.000127
 18,-0.05349774,0.02225964,-0.15939837,-0.01706936,0.00762923,-0.032090
 14,-0.04582639,0.02435709,0.52538107,-0.16301217,0.04062540,0.12650980
 ,-0.01819498,-0.05598447,-0.01296870,-0.01286476,0.01849124,0.00664794
 ,-0.00023870,-0.00220629,-0.00025285,-0.00011142,-0.00165016,-0.000508
 36,0.50012082,0.02019252,-0.11638909,-0.03824361,-0.01996087,-0.029993
 78,-0.01532563,0.03025462,-0.02569287,-0.03650968,0.00107028,-0.006425
 42,0.00060190,0.00045185,-0.00044382,0.00090841,0.17164905,0.77238502,
 0.13026697,-0.06482769,-0.18759592,0.01126548,0.01357093,0.01147713,0.
 00583485,-0.02278530,-0.01227852,0.00076025,-0.00028179,0.00006210,-0.
 00114844,0.00670822,0.00292899,-0.17033351,0.27554698,0.42538086,-0.00
 467015,0.03763395,0.03613914,-0.22791804,-0.14110922,0.04778368,-0.002
 85971,-0.00778602,0.00219517,0.00018121,0.00258394,-0.00037586,0.00069
 170,0.00164675,-0.00069798,-0.09082659,-0.06666537,-0.02000403,0.51060
 329,0.00092981,-0.00629212,-0.01429298,-0.10616467,-0.17457853,-0.0151
 3771,-0.00077983,-0.00076664,-0.00034258,0.00013365,0.00043363,0.00011
 465,-0.00000972,0.00078768,-0.00058307,-0.04758356,-0.44513308,-0.2197
 6062,0.13467737,0.74594006,0.01520495,-0.04388357,-0.02961240,0.070903
 47,0.00845789,-0.07646813,0.00164131,0.00890425,-0.00088834,-0.0000104
 9,-0.00155065,0.00037336,0.00002118,-0.00109267,-0.00048303,-0.0084841
 3,-0.20207325,-0.17927069,-0.19321970,0.31359540,0.45219638,0.00738002
 ,0.00012573,0.00112406,0.00012679,0.00002682,0.00032023,-0.25089874,-0
 .09403492,0.00611095,-0.01302003,-0.00565890,0.00102721,-0.01730404,-0
 .00744523,-0.00011121,0.00231199,0.00215230,0.00025305,0.00031274,-0.0
 0003647,-0.00054299,0.26974844,-0.02476989,-0.04169451,-0.00231731,-0.
 00012817,0.00000236,-0.00002057,-0.08929896,-0.08890883,0.00131641,0.0
 0657349,0.00491896,0.00017809,0.00816668,0.00639125,-0.00003273,-0.006
 52738,0.00198526,0.00581688,0.00095711,-0.00017926,-0.00078733,0.10268
 887,0.11584482,0.00163115,-0.00046087,0.00150757,0.00009285,0.00012759
 ,-0.00002907,0.00589147,0.00292945,-0.05228931,0.02758938,0.01258680,-
 0.00223859,-0.02628230,-0.01059098,-0.00048118,-0.00219080,-0.00158346
 ,0.00067915,0.00004947,0.00003414,-0.00007183,-0.00679261,-0.00342498,
 0.05759106,0.00116078,0.00001341,-0.00081299,0.00016596,0.00013462,-0.
 00004975,-0.01684259,-0.00852673,0.00160659,-0.25424267,-0.11307440,0.
 00703994,0.00094317,0.00048981,-0.00111659,0.00015214,0.00028783,-0.00
 002786,-0.00011889,-0.00010704,-0.00000560,0.00003489,0.00117135,0.002
 89199,0.27595667,-0.00025387,0.00150086,0.00062180,0.00004775,0.000039
 77,0.00001551,0.00635793,0.00198167,-0.00070327,-0.11430468,-0.1089189
 0,0.00509606,0.00015622,-0.00017671,0.00034203,0.00054438,-0.00004474,
 -0.00030753,-0.00015005,-0.00000698,0.00011727,0.00089481,0.00044531,-
 0.00119296,0.12493393,0.11353680,-0.00197742,0.00107872,0.00160524,-0.
 00007904,-0.00005123,-0.00003623,0.02890526,0.01603082,-0.00284423,0.0
 0543839,0.00349608,-0.04752628,0.00107322,0.00057179,0.00201338,0.0002
 1607,0.00003117,-0.00020941,-0.00010447,-0.00002040,0.00011064,0.00247
 359,-0.00175279,-0.00482630,-0.01061941,-0.00459869,0.05164836,0.00045
 325,-0.00109585,-0.00100469,-0.00007523,-0.00008700,0.00003037,0.00942
 329,-0.00550373,0.01377160,-0.13835579,0.04867231,-0.12043119,-0.00107
 103,0.00113221,0.00237153,-0.00004913,-0.00019563,0.00006823,0.0001285
 1,0.00003268,-0.00004908,0.00095667,-0.00049653,-0.00073391,-0.0150357
 2,0.01007601,-0.02109560,0.14610800,-0.00062361,0.00085101,0.00028806,
 0.00012535,0.00007653,0.00000806,-0.00422144,0.00017133,-0.00567266,0.
 04846451,-0.07347437,0.06552463,0.00045670,-0.00016410,-0.00098729,0.0
 0017124,0.00000451,-0.00023241,-0.00020054,-0.00001772,0.00007861,-0.0
 0005378,-0.00006600,0.00049327,-0.00868427,0.00503655,-0.01313382,-0.0
 5330587,0.07467834,-0.00043069,0.00075908,0.00295240,0.00008699,0.0000
 1863,0.00002086,-0.01883823,0.01020317,-0.02337865,-0.11772844,0.06326
 387,-0.20377651,0.00450550,-0.00221422,-0.00433857,0.00043967,-0.00018
 860,0.00004305,-0.00013474,0.00006152,0.00018610,0.00017707,0.00023519
 ,0.00118563,0.00140626,-0.00116623,0.00144232,0.12820566,-0.07060352,0
 .22320936,-0.00194178,0.00160791,0.00401329,0.00021280,0.00011535,-0.0
 0004831,-0.00286998,0.01449337,-0.00203216,-0.05352587,0.04195762,0.00
 461390,0.00020024,-0.00004534,-0.00055646,0.00110362,0.00084373,-0.000
 06708,-0.00055539,-0.00006490,0.00031144,-0.00006568,-0.00031598,-0.00
 066403,0.00667202,-0.02817511,-0.00293692,-0.00327494,0.01772709,0.003
 30719,0.05397876,0.00176466,0.00038886,-0.00220548,-0.00020285,-0.0001
 7038,0.00000056,-0.00069592,-0.00644772,0.00236999,0.04306873,-0.30951
 203,-0.02436350,-0.00016972,-0.00018957,0.00064237,-0.00073158,0.00024
 936,0.00054960,0.00035222,0.00005208,-0.00022284,0.00038136,0.00031314
 ,-0.00034434,0.00332209,-0.01334893,-0.00108126,0.00055768,-0.00796754
 ,-0.00103238,-0.04778655,0.33575553,0.00461307,-0.00283900,-0.00603351
 ,-0.00025130,-0.00020804,0.00010660,0.00038884,-0.02732125,0.00132102,
 0.00407873,-0.02125323,-0.05048598,-0.00035979,-0.00004293,0.00088061,
 -0.00059021,-0.00148736,0.00044232,0.00072714,0.00013111,-0.00042323,0
 .00009007,0.00063659,0.00098639,-0.00058660,0.00132297,-0.00128362,-0.
 00228159,0.02458167,0.00351400,-0.00589602,0.02602984,0.05174164,0.002
 25976,0.00044851,0.00137181,0.00042077,0.00018921,-0.00000537,-0.02011
 024,-0.01019557,-0.00054238,0.00091171,0.00023035,0.00127602,-0.257726
 67,-0.10984791,0.00876763,-0.00039859,0.00016628,0.00007645,-0.0004833
 7,-0.00025761,-0.00007507,-0.00077520,0.00157618,-0.00325482,0.0006952
 1,-0.00008562,-0.00067282,0.00028684,0.00024733,0.00013471,-0.00000357
 ,0.00011628,-0.00005733,0.28067198,-0.00057384,0.00190548,-0.00032616,
 -0.00014009,0.00000659,0.00000997,0.00927544,0.00314485,0.00042829,0.0
 0019139,-0.00000714,-0.00051716,-0.11106212,-0.10440361,0.00329592,0.0
 0018862,-0.00014361,-0.00057954,0.00004878,0.00008438,0.00003712,0.001
 45545,0.00023071,0.00167103,-0.00021603,0.00011670,-0.00028111,0.00019
 604,-0.00001002,-0.00009312,-0.00015771,-0.00002370,-0.00001312,0.1210
 4934,0.10809540,0.00241621,-0.00085177,0.00131316,-0.00032850,-0.00020
 844,0.00000281,-0.02620692,-0.01405981,-0.00074666,-0.00099801,-0.0007
 3939,0.00184478,0.01005319,0.00478595,-0.04729643,-0.00004850,0.000076
 34,0.00007530,0.00027172,0.00015274,-0.00004476,-0.00300605,0.00198033
 ,-0.00396004,0.00052031,0.00037431,-0.00043182,0.00034018,0.00016375,0
 .00024053,0.00004247,-0.00006262,-0.00005307,-0.00647709,-0.00522539,0
 .05060298,0.00056425,-0.00143821,0.00157033,-0.00021952,-0.00035774,0.
 00002999,0.00985602,-0.00589120,-0.01759024,-0.00194467,0.00164032,-0.
 00242164,-0.10635926,0.03032652,0.10782635,-0.00012834,0.00106298,-0.0
 0028800,-0.00020350,0.00031667,-0.00005975,0.00092171,-0.00053794,0.00
 084253,0.00020921,0.00022437,-0.00032801,0.00071474,0.00006813,-0.0010
 8973,-0.00020695,0.00000700,0.00009653,-0.01231078,0.00843195,0.023979
 05,0.11243021,-0.00059953,0.00073485,-0.00089655,0.00014918,0.00026372
 ,-0.00003532,-0.00539289,0.00097772,0.00867479,0.00123996,-0.00051958,
 0.00138338,0.03030034,-0.06303806,-0.05732971,0.00049460,-0.00026455,0
 .00075700,-0.00012695,-0.00064094,-0.00023190,-0.00006064,-0.00001455,
 -0.00063645,0.00024626,0.00002344,-0.00025955,-0.00001168,0.00053491,0
 .00057576,-0.00008803,0.00035195,0.00020773,-0.00653923,0.00366555,0.0
 1397773,-0.03440689,0.06429001,0.00021594,-0.00068112,0.00194047,-0.00
 053950,-0.00038514,-0.00007791,0.01419040,-0.00749352,-0.02313528,-0.0
 0469240,0.00223728,-0.00302599,0.10619375,-0.05549893,-0.24247825,0.00
 041272,-0.00026995,-0.00013137,0.00041115,0.00064548,0.00056797,-0.000
 15036,-0.00008676,0.00101471,-0.00008704,0.00002438,0.00026337,0.00083
 622,-0.00032602,-0.00149263,-0.00004992,-0.00008120,0.00031087,-0.0002
 9633,0.00035105,-0.00000056,-0.11514481,0.06132693,0.26533195,-0.00237
 886,0.00385717,-0.00307316,0.00038313,0.00024019,-0.00004379,-0.002082
 52,0.01692105,0.00391703,0.00027539,-0.00010361,0.00062235,-0.05254271
 ,0.03733615,-0.00039658,0.00089498,-0.00027415,-0.00130362,-0.00046774
 ,-0.00031015,0.00021584,-0.00001023,-0.00065286,0.00069370,0.00001899,
 -0.00012323,-0.00006043,-0.00019307,-0.00010370,0.00010485,0.00033218,
 -0.00013235,-0.00005390,0.00633272,-0.02853597,-0.00056824,-0.00296410
 ,0.01465381,-0.00096508,0.05240236,0.00277173,-0.00052906,0.00151262,-
 0.00021710,-0.00028133,0.00005138,-0.00104048,-0.00880502,-0.00287926,
 -0.00023230,-0.00014780,-0.00070293,0.03833193,-0.31167247,-0.00422957
 ,-0.00105272,0.00060736,0.00113832,0.00023639,0.00017018,-0.00018577,0
 .00046147,0.00037363,0.00029633,0.00012649,-0.00000430,0.00002667,0.00
 003095,0.00034798,0.00008218,-0.00012891,0.00061073,0.00028200,0.00298
 055,-0.01265697,-0.00037434,0.00044692,-0.00626434,0.00010809,-0.04281
 277,0.33822738,-0.00504010,0.00519923,-0.00372067,0.00017620,0.0002055
 1,-0.00015361,0.00029748,0.02433217,0.00298920,0.00048680,-0.00008177,
 0.00074324,-0.00002635,-0.00629951,-0.04701312,0.00124080,-0.00104626,
 -0.00162012,-0.00018855,0.00021586,0.00075783,0.00002680,-0.00078271,0
 .00088185,0.00001960,0.00004660,-0.00006944,-0.00003701,-0.00022584,0.
 00029041,-0.00006792,-0.00010929,-0.00082769,-0.00013910,0.00118475,-0
 .00143610,0.00266950,-0.02761794,0.00094472,0.00080073,0.00500184,0.04
 813283,-0.02069587,-0.00467989,0.01268938,0.00306002,-0.00162543,0.002
 72096,0.00126129,-0.00493433,-0.00002968,0.00037118,0.00062563,-0.0001
 0292,-0.00020960,0.00033159,0.00022746,-0.21787591,-0.13671659,0.04654
 993,-0.00079045,-0.00002199,0.00031361,0.00032001,0.00137239,0.0002076
 7,0.00020401,-0.00011088,-0.00022131,-0.00000895,-0.00005362,-0.000101
 59,-0.00005354,0.00012550,0.00013442,0.00018582,-0.00010752,-0.0000189
 1,-0.00034071,0.00010008,-0.00038391,0.00000265,0.00007644,-0.00023153
 ,0.23493752,0.00888194,0.00687491,-0.00333659,0.00100275,-0.00108528,-
 0.00602034,0.00368167,0.00360843,-0.00055034,0.00019803,0.00007749,-0.
 00020693,-0.00018825,-0.00028336,0.00011672,-0.13467538,-0.15006583,0.
 01899650,-0.02252393,-0.00896413,0.00925806,-0.00101595,0.00058079,0.0
 0013364,-0.00009653,-0.00020048,-0.00006931,0.00000044,-0.00000107,0.0
 0003473,-0.00006502,-0.00002968,0.00004388,-0.00009078,0.00001293,-0.0
 0001377,0.00007113,-0.00000345,0.00005651,0.00002483,-0.00001306,-0.00
 001970,0.14494776,0.15111761,0.02741204,0.00837562,-0.00973369,0.00234
 606,-0.00603779,0.00267376,0.00046601,0.00498164,0.00049832,-0.0001789
 7,-0.00030073,-0.00007977,-0.00022410,-0.00067093,0.00011828,0.0460774
 0,0.01944413,-0.05082926,-0.01245186,-0.00628384,0.00409362,-0.0009069
 6,-0.00091885,0.00005105,-0.00018091,0.00000777,0.00012578,0.00002363,
 0.00005015,-0.00004283,0.00000715,-0.00010907,-0.00007303,-0.00008327,
 0.00005142,-0.00016354,-0.00010425,0.00006382,-0.00012569,0.00013280,-
 0.00012554,0.00007414,-0.06056436,-0.01916439,0.05469241,0.00231504,-0
 .00370052,0.00310732,-0.02139681,-0.00035724,0.01612767,0.00099129,-0.
 00025973,-0.00018770,-0.00001217,-0.00016410,0.00000987,-0.00008588,-0
 .00010223,-0.00014663,0.00447707,-0.00176624,-0.00434779,-0.17783095,0
 .05585741,0.13776631,-0.00008004,0.00008077,0.00003731,0.00001841,-0.0
 0001040,0.00000056,-0.00000471,-0.00000221,-0.00002953,0.00001063,0.00
 000177,-0.00007392,0.00003093,-0.00001778,-0.00000087,-0.00003317,0.00
 005837,0.00004366,0.00001434,-0.00000564,0.00003906,-0.00087026,0.0012
 9763,-0.00193103,0.19193809,-0.00281623,-0.00321395,-0.00454625,-0.021
 86095,0.00359512,0.01583527,-0.00093013,0.00145550,-0.00122806,0.00002
 998,-0.00055037,0.00004294,0.00003273,0.00000394,0.00011597,0.02068617
 ,-0.00071683,-0.01545507,0.05611779,-0.08482156,-0.07410949,0.00006843
 ,-0.00030683,-0.00004005,-0.00001328,0.00003830,0.00002567,-0.00001679
 ,0.00002240,0.00005944,0.00011480,-0.00007180,-0.00010838,0.00000451,0
 .00001397,0.00002215,0.00004975,-0.00003322,0.00000384,0.00004632,-0.0
 0002959,0.00000044,0.00102656,-0.00132112,0.00169502,-0.05236287,0.082
 70226,0.00120115,-0.00573236,0.00724994,0.00344028,0.00118220,0.001289
 24,0.00108197,0.00007169,-0.00090065,0.00004264,-0.00039459,0.00005805
 ,-0.00002567,-0.00010207,-0.00024271,0.01106610,-0.00107458,-0.0081735
 3,0.13715769,-0.07160169,-0.17213760,-0.00014072,0.00001881,0.00004097
 ,0.00000552,0.00000750,0.00000979,-0.00001215,0.00000476,-0.00003375,0
 .00003106,0.00000050,-0.00013682,-0.00000125,0.00000893,0.00001289,-0.
 00004019,0.00005940,0.00006367,0.00000315,-0.00001860,0.00005372,-0.00
 219368,0.00106334,-0.00252014,-0.15146247,0.07592586,0.17435813,-0.000
 16183,0.00135193,0.00061526,-0.03322944,0.05157046,0.05765316,0.000217
 37,-0.00058929,-0.00007452,0.00002139,0.00006342,-0.00001498,-0.000010
 33,0.00006417,-0.00002512,-0.00536004,-0.00255261,0.00244512,-0.005192
 67,-0.03661163,-0.02393130,0.00004070,0.00014086,-0.00000905,0.0000083
 9,-0.00002157,-0.00001166,-0.00000274,-0.00001130,-0.00001495,-0.00001
 255,0.00002168,0.00002185,0.00001267,-0.00002594,0.00002997,0.00001487
 ,-0.00001676,0.00000552,-0.00001751,0.00002706,-0.00002643,0.00050279,
 -0.00145033,0.00016060,0.00051821,-0.00017678,-0.00015342,0.04265073,-
 0.00093363,0.00172072,0.00212787,0.00984862,-0.35661921,-0.23799222,-0
 .00010537,-0.00091537,-0.00017680,0.00000836,0.00010963,-0.00002779,0.
 00001018,0.00016393,-0.00004810,-0.00243915,0.00008212,0.00114551,0.00
 430779,-0.02606703,-0.01631112,0.00005067,0.00008375,0.00000185,-0.000
 00751,-0.00001835,-0.00001277,0.00001477,-0.00002273,0.00000449,-0.000
 03232,0.00003970,0.00003752,0.00000817,-0.00003148,0.00000223,-0.00001
 376,-0.00006345,0.00006907,-0.00003073,0.00006669,-0.00000339,-0.00035
 570,-0.00030470,-0.00105841,0.00145301,0.00323377,0.00058089,-0.011783
 38,0.37854201,-0.00123540,0.00026306,0.00076583,0.03071205,-0.26725411
 ,-0.19223348,-0.00009158,-0.00040430,-0.00007332,-0.00001425,0.0000310
 5,-0.00000983,-0.00000142,0.00006251,-0.00003747,0.00276656,0.00119344
 ,-0.00098007,0.00244204,0.01307199,0.00111412,0.00004785,-0.00005827,-
 0.00004207,-0.00000347,-0.00000752,0.00000846,-0.00000218,-0.00001140,
 -0.00002173,-0.00000767,0.00001912,0.00001350,-0.00002177,-0.00000289,
 0.00004054,0.00005235,-0.00001912,0.00002995,-0.00002564,0.00001657,-0
 .00002719,0.00100445,-0.00032201,0.00124059,0.00104818,0.00176070,0.00
 100878,-0.03667007,0.25166118,0.18920340\\0.00000012,-0.00000008,-0.00
 000011,0.00000025,0.00000021,-0.00000066,-0.00000008,-0.00000001,0.000
 00029,0.00000007,-0.00000039,0.00000029,-0.00000026,0.00000014,0.00000
 027,0.00000006,0.00000024,-0.00000027,-0.00000003,0.00000009,-0.000000
 49,-0.00000011,-0.00000005,0.00000018,0.00000017,-0.00000048,0.0000002
 5,0.00000015,-0.00000052,0.00000014,0.00000002,-0.00000055,0.00000049,
 0.,0.00000004,0.00000032,-0.00000024,0.00000028,0.00000026,-0.00000024
 ,-0.00000006,0.00000056,-0.00000007,0.00000030,-0.00000022,0.00000003,
 0.00000051,-0.00000062,0.00000015,0.00000032,-0.00000067\\\@


 NO SCIENCE HAS EVER MADE MORE RAPID PROGRESS IN A
 SHORTER TIME THAN CHEMISTRY.
   -- MARTIN HEINRICH KLOPROTH, 1791
 (FIRST PROFESSOR OF CHEMISTRY AT THE UNIVERSITY OF BERLIN)
 Job cpu time:       0 days  2 hours 35 minutes 30.6 seconds.
 Elapsed time:       0 days  1 hours 17 minutes 45.8 seconds.
 File lengths (MBytes):  RWF=   1392 Int=      0 D2E=      0 Chk=     32 Scr=     32
 Normal termination of Gaussian 16 at Fri Sep 27 09:51:24 2019.
