 Entering Gaussian System, Link 0=g16
 Input=tight/species/CC(C)OC=CO/conformers/CC(C)OC=CO_60.com
 Output=tight/species/CC(C)OC=CO/conformers/CC(C)OC=CO_60.log
 Initial command:
 /shared/centos7/gaussian/g16/l1.exe "/scratch/harms.n/gauss_scrdir/Gau-22819.inp" -scrdir="/scratch/harms.n/gauss_scrdir/"
 Entering Link 1 = /shared/centos7/gaussian/g16/l1.exe PID=     22820.
  
 Copyright (c) 1988,1990,1992,1993,1995,1998,2003,2009,2016,
            Gaussian, Inc.  All Rights Reserved.
  
 This is part of the Gaussian(R) 16 program.  It is based on
 the Gaussian(R) 09 system (copyright 2009, Gaussian, Inc.),
 the Gaussian(R) 03 system (copyright 2003, Gaussian, Inc.),
 the Gaussian(R) 98 system (copyright 1998, Gaussian, Inc.),
 the Gaussian(R) 94 system (copyright 1995, Gaussian, Inc.),
 the Gaussian 92(TM) system (copyright 1992, Gaussian, Inc.),
 the Gaussian 90(TM) system (copyright 1990, Gaussian, Inc.),
 the Gaussian 88(TM) system (copyright 1988, Gaussian, Inc.),
 the Gaussian 86(TM) system (copyright 1986, Carnegie Mellon
 University), and the Gaussian 82(TM) system (copyright 1983,
 Carnegie Mellon University). Gaussian is a federally registered
 trademark of Gaussian, Inc.
  
 This software contains proprietary and confidential information,
 including trade secrets, belonging to Gaussian, Inc.
  
 This software is provided under written license and may be
 used, copied, transmitted, or stored only in accord with that
 written license.
  
 The following legend is applicable only to US Government
 contracts under FAR:
  
                    RESTRICTED RIGHTS LEGEND
  
 Use, reproduction and disclosure by the US Government is
 subject to restrictions as set forth in subparagraphs (a)
 and (c) of the Commercial Computer Software - Restricted
 Rights clause in FAR 52.227-19.
  
 Gaussian, Inc.
 340 Quinnipiac St., Bldg. 40, Wallingford CT 06492
  
  
 ---------------------------------------------------------------
 Warning -- This program may not be used in any manner that
 competes with the business of Gaussian, Inc. or will provide
 assistance to any competitor of Gaussian, Inc.  The licensee
 of this program is prohibited from giving any competitor of
 Gaussian, Inc. access to this program.  By using this program,
 the user acknowledges that Gaussian, Inc. is engaged in the
 business of creating and licensing software in the field of
 computational chemistry and represents and warrants to the
 licensee that it is not a competitor of Gaussian, Inc. and that
 it will not use this program in any manner prohibited above.
 ---------------------------------------------------------------
  

 Cite this work as:
 Gaussian 16, Revision A.03,
 M. J. Frisch, G. W. Trucks, H. B. Schlegel, G. E. Scuseria, 
 M. A. Robb, J. R. Cheeseman, G. Scalmani, V. Barone, 
 G. A. Petersson, H. Nakatsuji, X. Li, M. Caricato, A. V. Marenich, 
 J. Bloino, B. G. Janesko, R. Gomperts, B. Mennucci, H. P. Hratchian, 
 J. V. Ortiz, A. F. Izmaylov, J. L. Sonnenberg, D. Williams-Young, 
 F. Ding, F. Lipparini, F. Egidi, J. Goings, B. Peng, A. Petrone, 
 T. Henderson, D. Ranasinghe, V. G. Zakrzewski, J. Gao, N. Rega, 
 G. Zheng, W. Liang, M. Hada, M. Ehara, K. Toyota, R. Fukuda, 
 J. Hasegawa, M. Ishida, T. Nakajima, Y. Honda, O. Kitao, H. Nakai, 
 T. Vreven, K. Throssell, J. A. Montgomery, Jr., J. E. Peralta, 
 F. Ogliaro, M. J. Bearpark, J. J. Heyd, E. N. Brothers, K. N. Kudin, 
 V. N. Staroverov, T. A. Keith, R. Kobayashi, J. Normand, 
 K. Raghavachari, A. P. Rendell, J. C. Burant, S. S. Iyengar, 
 J. Tomasi, M. Cossi, J. M. Millam, M. Klene, C. Adamo, R. Cammi, 
 J. W. Ochterski, R. L. Martin, K. Morokuma, O. Farkas, 
 J. B. Foresman, and D. J. Fox, Gaussian, Inc., Wallingford CT, 2016.
 
 ******************************************
 Gaussian 16:  EM64L-G16RevA.03 25-Dec-2016
                29-Sep-2019 
 ******************************************
 %nprocshared=20
 Will use up to   20 processors via shared memory.
 %mem=5GB
 ----------------------------------------------------------------------
 #p m062x/cc-pVTZ opt=(calcfc,maxcycles=900,Tight) freq IOP(7/33=1,2/16
 =3) scf=(maxcycle=900)
 ----------------------------------------------------------------------
 1/6=900,7=10,10=4,18=20,19=15,26=3,38=1/1,3;
 2/9=110,12=2,16=3,17=6,18=5,40=1/2;
 3/5=16,6=1,11=2,25=1,30=1,71=2,74=-55,140=1/1,2,3;
 4//1;
 5/5=2,7=900,38=5/2;
 8/6=4,10=90,11=11/1;
 11/6=1,8=1,9=11,15=111,16=1/1,2,10;
 10/6=1,13=1/2;
 6/7=2,8=2,9=2,10=2,28=1/1;
 7/10=1,18=20,25=1,33=1/1,2,3,16;
 1/6=900,7=10,10=4,18=20,19=15,26=3/3(2);
 2/9=110,16=3/2;
 99//99;
 2/9=110,16=3/2;
 3/5=16,6=1,11=2,25=1,30=1,71=1,74=-55/1,2,3;
 4/5=5,16=3,69=1/1;
 5/5=2,7=900,38=5/2;
 7/33=1/1,2,3,16;
 1/6=900,7=10,18=20,19=15,26=3/3(-5);
 2/9=110,16=3/2;
 6/7=2,8=2,9=2,10=2,19=2,28=1/1;
 99/9=1/99;
 Leave Link    1 at Sun Sep 29 00:14:52 2019, MaxMem=   671088640 cpu:               4.2 elap:               2.1
 (Enter /shared/centos7/gaussian/g16/l101.exe)
 ------------------------------
 Gaussian input prepared by ASE
 ------------------------------
 Symbolic Z-matrix:
 Charge =  0 Multiplicity = 1
 O                    -0.09553  -1.56187   2.07395 
 O                     2.63898   0.22954   0.43253 
 C                    -0.9984   -0.51316   2.35484 
 C                    -1.33413  -0.50859   3.84624 
 C                    -2.21185  -0.62247   1.49131 
 C                     1.04814  -1.20589   1.39631 
 C                     1.44237  -0.00285   1.09412 
 H                    -0.49705   0.46719   2.12266 
 H                    -1.26667  -1.52919   4.27756 
 H                    -0.63717   0.14215   4.40506 
 H                    -2.37599  -0.12821   4.02646 
 H                    -2.68842  -1.64338   1.57683 
 H                    -1.95983  -0.45555   0.42328 
 H                    -2.98835   0.13996   1.78336 
 H                     1.64817  -2.09431   1.14251 
 H                     0.87114   0.88018   1.33984 
 H                     2.72106   1.22099   0.32265 
 
 ITRead=  0  0  0  0  0  0  0  0  0  0  0  0  0  0  0  0  0
 MicOpt= -1 -1 -1 -1 -1 -1 -1 -1 -1 -1 -1 -1 -1 -1 -1 -1 -1
 NAtoms=     17 NQM=       17 NQMF=       0 NMMI=      0 NMMIF=      0
                NMic=       0 NMicF=      0.
                    Isotopes and Nuclear Properties:
 (Nuclear quadrupole moments (NQMom) in fm**2, nuclear magnetic moments (NMagM)
  in nuclear magnetons)

  Atom         1           2           3           4           5           6           7           8           9          10
 IAtWgt=          16          16          12          12          12          12          12           1           1           1
 AtmWgt=  15.9949146  15.9949146  12.0000000  12.0000000  12.0000000  12.0000000  12.0000000   1.0078250   1.0078250   1.0078250
 NucSpn=           0           0           0           0           0           0           0           1           1           1
 AtZEff=  -0.0000000  -0.0000000  -0.0000000  -0.0000000  -0.0000000  -0.0000000  -0.0000000  -0.0000000  -0.0000000  -0.0000000
 NQMom=    0.0000000   0.0000000   0.0000000   0.0000000   0.0000000   0.0000000   0.0000000   0.0000000   0.0000000   0.0000000
 NMagM=    0.0000000   0.0000000   0.0000000   0.0000000   0.0000000   0.0000000   0.0000000   2.7928460   2.7928460   2.7928460
 AtZNuc=   8.0000000   8.0000000   6.0000000   6.0000000   6.0000000   6.0000000   6.0000000   1.0000000   1.0000000   1.0000000

  Atom        11          12          13          14          15          16          17
 IAtWgt=           1           1           1           1           1           1           1
 AtmWgt=   1.0078250   1.0078250   1.0078250   1.0078250   1.0078250   1.0078250   1.0078250
 NucSpn=           1           1           1           1           1           1           1
 AtZEff=  -0.0000000  -0.0000000  -0.0000000  -0.0000000  -0.0000000  -0.0000000  -0.0000000
 NQMom=    0.0000000   0.0000000   0.0000000   0.0000000   0.0000000   0.0000000   0.0000000
 NMagM=    2.7928460   2.7928460   2.7928460   2.7928460   2.7928460   2.7928460   2.7928460
 AtZNuc=   1.0000000   1.0000000   1.0000000   1.0000000   1.0000000   1.0000000   1.0000000
 Leave Link  101 at Sun Sep 29 00:14:53 2019, MaxMem=   671088640 cpu:               3.4 elap:               1.7
 (Enter /shared/centos7/gaussian/g16/l103.exe)

 GradGradGradGradGradGradGradGradGradGradGradGradGradGradGradGradGradGrad
 Berny optimization.
 Initialization pass.
                           ----------------------------
                           !    Initial Parameters    !
                           ! (Angstroms and Degrees)  !
 --------------------------                            --------------------------
 ! Name  Definition              Value          Derivative Info.                !
 --------------------------------------------------------------------------------
 ! R1    R(1,3)                  1.412          calculate D2E/DX2 analytically  !
 ! R2    R(1,6)                  1.3762         calculate D2E/DX2 analytically  !
 ! R3    R(2,7)                  1.3869         calculate D2E/DX2 analytically  !
 ! R4    R(2,17)                 1.0009         calculate D2E/DX2 analytically  !
 ! R5    R(3,4)                  1.5287         calculate D2E/DX2 analytically  !
 ! R6    R(3,5)                  1.4933         calculate D2E/DX2 analytically  !
 ! R7    R(3,8)                  1.1253         calculate D2E/DX2 analytically  !
 ! R8    R(4,9)                  1.1101         calculate D2E/DX2 analytically  !
 ! R9    R(4,10)                 1.1052         calculate D2E/DX2 analytically  !
 ! R10   R(4,11)                 1.1237         calculate D2E/DX2 analytically  !
 ! R11   R(5,12)                 1.1299         calculate D2E/DX2 analytically  !
 ! R12   R(5,13)                 1.11           calculate D2E/DX2 analytically  !
 ! R13   R(5,14)                 1.1267         calculate D2E/DX2 analytically  !
 ! R14   R(6,7)                  1.3016         calculate D2E/DX2 analytically  !
 ! R15   R(6,15)                 1.1017         calculate D2E/DX2 analytically  !
 ! R16   R(7,16)                 1.08           calculate D2E/DX2 analytically  !
 ! A1    A(3,1,6)              115.926          calculate D2E/DX2 analytically  !
 ! A2    A(7,2,17)             106.8038         calculate D2E/DX2 analytically  !
 ! A3    A(1,3,4)              109.6765         calculate D2E/DX2 analytically  !
 ! A4    A(1,3,5)              110.4979         calculate D2E/DX2 analytically  !
 ! A5    A(1,3,8)              108.7296         calculate D2E/DX2 analytically  !
 ! A6    A(4,3,5)              112.6996         calculate D2E/DX2 analytically  !
 ! A7    A(4,3,8)              107.2487         calculate D2E/DX2 analytically  !
 ! A8    A(5,3,8)              107.847          calculate D2E/DX2 analytically  !
 ! A9    A(3,4,9)              111.2828         calculate D2E/DX2 analytically  !
 ! A10   A(3,4,10)             110.8885         calculate D2E/DX2 analytically  !
 ! A11   A(3,4,11)             111.1683         calculate D2E/DX2 analytically  !
 ! A12   A(9,4,10)             107.8518         calculate D2E/DX2 analytically  !
 ! A13   A(9,4,11)             107.7735         calculate D2E/DX2 analytically  !
 ! A14   A(10,4,11)            107.7157         calculate D2E/DX2 analytically  !
 ! A15   A(3,5,12)             111.4134         calculate D2E/DX2 analytically  !
 ! A16   A(3,5,13)             111.1552         calculate D2E/DX2 analytically  !
 ! A17   A(3,5,14)             111.1357         calculate D2E/DX2 analytically  !
 ! A18   A(12,5,13)            107.726          calculate D2E/DX2 analytically  !
 ! A19   A(12,5,14)            107.524          calculate D2E/DX2 analytically  !
 ! A20   A(13,5,14)            107.7046         calculate D2E/DX2 analytically  !
 ! A21   A(1,6,7)              127.2384         calculate D2E/DX2 analytically  !
 ! A22   A(1,6,15)             110.9443         calculate D2E/DX2 analytically  !
 ! A23   A(7,6,15)             121.7974         calculate D2E/DX2 analytically  !
 ! A24   A(2,7,6)              121.7998         calculate D2E/DX2 analytically  !
 ! A25   A(2,7,16)             115.3322         calculate D2E/DX2 analytically  !
 ! A26   A(6,7,16)             122.8676         calculate D2E/DX2 analytically  !
 ! D1    D(6,1,3,4)           -127.4465         calculate D2E/DX2 analytically  !
 ! D2    D(6,1,3,5)            107.7186         calculate D2E/DX2 analytically  !
 ! D3    D(6,1,3,8)            -10.4613         calculate D2E/DX2 analytically  !
 ! D4    D(3,1,6,7)              6.6462         calculate D2E/DX2 analytically  !
 ! D5    D(3,1,6,15)          -174.9675         calculate D2E/DX2 analytically  !
 ! D6    D(17,2,7,6)          -179.5568         calculate D2E/DX2 analytically  !
 ! D7    D(17,2,7,16)            0.2264         calculate D2E/DX2 analytically  !
 ! D8    D(1,3,4,9)            -29.1023         calculate D2E/DX2 analytically  !
 ! D9    D(1,3,4,10)            90.9505         calculate D2E/DX2 analytically  !
 ! D10   D(1,3,4,11)          -149.2444         calculate D2E/DX2 analytically  !
 ! D11   D(5,3,4,9)             94.4496         calculate D2E/DX2 analytically  !
 ! D12   D(5,3,4,10)          -145.4976         calculate D2E/DX2 analytically  !
 ! D13   D(5,3,4,11)           -25.6925         calculate D2E/DX2 analytically  !
 ! D14   D(8,3,4,9)           -147.0133         calculate D2E/DX2 analytically  !
 ! D15   D(8,3,4,10)           -26.9605         calculate D2E/DX2 analytically  !
 ! D16   D(8,3,4,11)            92.8447         calculate D2E/DX2 analytically  !
 ! D17   D(1,3,5,12)            53.8712         calculate D2E/DX2 analytically  !
 ! D18   D(1,3,5,13)           -66.2897         calculate D2E/DX2 analytically  !
 ! D19   D(1,3,5,14)           173.763          calculate D2E/DX2 analytically  !
 ! D20   D(4,3,5,12)           -69.2238         calculate D2E/DX2 analytically  !
 ! D21   D(4,3,5,13)           170.6152         calculate D2E/DX2 analytically  !
 ! D22   D(4,3,5,14)            50.668          calculate D2E/DX2 analytically  !
 ! D23   D(8,3,5,12)           172.5895         calculate D2E/DX2 analytically  !
 ! D24   D(8,3,5,13)            52.4285         calculate D2E/DX2 analytically  !
 ! D25   D(8,3,5,14)           -67.5187         calculate D2E/DX2 analytically  !
 ! D26   D(1,6,7,2)            178.3776         calculate D2E/DX2 analytically  !
 ! D27   D(1,6,7,16)            -1.3891         calculate D2E/DX2 analytically  !
 ! D28   D(15,6,7,2)             0.1508         calculate D2E/DX2 analytically  !
 ! D29   D(15,6,7,16)         -179.6159         calculate D2E/DX2 analytically  !
 --------------------------------------------------------------------------------
 Trust Radius=3.00D-01 FncErr=1.00D-07 GrdErr=1.00D-06 EigMax=2.50D+02 EigMin=1.00D-04
 Number of steps in this run=    102 maximum allowed number of steps=    102.
 GradGradGradGradGradGradGradGradGradGradGradGradGradGradGradGradGradGrad

 Leave Link  103 at Sun Sep 29 00:14:54 2019, MaxMem=   671088640 cpu:               1.8 elap:               0.9
 (Enter /shared/centos7/gaussian/g16/l202.exe)
                          Input orientation:                          
 ---------------------------------------------------------------------
 Center     Atomic      Atomic             Coordinates (Angstroms)
 Number     Number       Type             X           Y           Z
 ---------------------------------------------------------------------
      1          8           0       -0.095531   -1.561875    2.073951
      2          8           0        2.638980    0.229541    0.432532
      3          6           0       -0.998404   -0.513161    2.354837
      4          6           0       -1.334132   -0.508586    3.846239
      5          6           0       -2.211848   -0.622472    1.491312
      6          6           0        1.048138   -1.205893    1.396313
      7          6           0        1.442369   -0.002848    1.094125
      8          1           0       -0.497054    0.467189    2.122656
      9          1           0       -1.266675   -1.529186    4.277557
     10          1           0       -0.637172    0.142147    4.405060
     11          1           0       -2.375990   -0.128215    4.026462
     12          1           0       -2.688417   -1.643380    1.576833
     13          1           0       -1.959829   -0.455552    0.423278
     14          1           0       -2.988355    0.139964    1.783357
     15          1           0        1.648165   -2.094310    1.142506
     16          1           0        0.871137    0.880180    1.339843
     17          1           0        2.721059    1.220991    0.322653
 ---------------------------------------------------------------------
                    Distance matrix (angstroms):
                    1          2          3          4          5
     1  O    0.000000
     2  O    3.658002   0.000000
     3  C    1.412047   4.180602   0.000000
     4  C    2.405110   5.289976   1.528729   0.000000
     5  C    2.387623   5.037607   1.493342   2.515757   0.000000
     6  C    1.376189   2.349494   2.363680   3.487633   3.313143
     7  C    2.399116   1.386935   2.794135   3.941936   3.727599
     8  H    2.068983   3.570393   1.125320   2.150250   2.127551
     9  H    2.495702   5.755995   2.191148   1.110050   3.078740
    10  H    2.937879   5.149931   2.182505   1.105209   3.399142
    11  H    3.326887   6.180150   2.200058   1.123668   2.588092
    12  H    2.641368   5.761807   2.176885   2.876117   1.129905
    13  H    2.724753   4.649568   2.158374   3.480082   1.109989
    14  H    3.368847   5.787889   2.170959   2.722600   1.126748
    15  H    2.047329   2.624131   3.312720   4.326522   4.145803
    16  H    2.727085   2.090889   2.542989   3.615785   3.433031
    17  H    4.329499   1.000891   4.579461   5.643728   5.394228
                    6          7          8          9         10
     6  C    0.000000
     7  C    1.301558   0.000000
     8  H    2.390479   2.245033   0.000000
     9  H    3.710046   4.450042   3.036681   0.000000
    10  H    3.702707   3.912519   2.309687   1.790498   0.000000
    11  H    4.450138   4.816034   2.740326   1.804536   1.799977
    12  H    3.766407   4.470766   3.091035   3.054226   3.923592
    13  H    3.249258   3.497131   2.424675   4.060619   4.238072
    14  H    4.272518   4.486285   2.535504   3.459953   3.521560
    15  H    1.101697   2.102119   3.481944   4.317894   4.568235
    16  H    2.094330   1.080011   1.629510   4.359524   3.495031
    17  H    3.137065   1.930802   3.763573   6.253540   5.395153
                   11         12         13         14         15
    11  H    0.000000
    12  H    2.897244   0.000000
    13  H    3.641879   1.808996   0.000000
    14  H    2.340605   1.820147   1.806190   0.000000
    15  H    5.326966   4.381543   4.027461   5.186520   0.000000
    16  H    4.333430   4.369776   3.261692   3.954782   3.080634
    17  H    6.443483   6.248201   4.973091   5.991635   3.579732
                   16         17
    16  H    0.000000
    17  H    2.138467   0.000000
 Stoichiometry    C5H10O2
 Framework group  C1[X(C5H10O2)]
 Deg. of freedom    45
 Full point group                 C1      NOp   1
 Largest Abelian subgroup         C1      NOp   1
 Largest concise Abelian subgroup C1      NOp   1
                         Standard orientation:                         
 ---------------------------------------------------------------------
 Center     Atomic      Atomic             Coordinates (Angstroms)
 Number     Number       Type             X           Y           Z
 ---------------------------------------------------------------------
      1          8           0        0.356983   -0.228536    0.957116
      2          8           0       -3.055452    0.033611   -0.334218
      3          6           0        1.123039    0.024967   -0.201665
      4          6           0        2.105483   -1.123665   -0.430705
      5          6           0        1.801044    1.351666   -0.100426
      6          6           0       -1.008590   -0.153287    0.804003
      7          6           0       -1.669077    0.005957   -0.306155
      8          1           0        0.433813    0.056828   -1.090652
      9          1           0        2.395202   -1.603197    0.527587
     10          1           0        1.659099   -1.901015   -1.077200
     11          1           0        3.044327   -0.761052   -0.930418
     12          1           0        2.406726    1.433956    0.849871
     13          1           0        1.062448    2.180245   -0.103249
     14          1           0        2.503624    1.515967   -0.965843
     15          1           0       -1.520719   -0.275817    1.771704
     16          1           0       -1.185082    0.121538   -1.264702
     17          1           0       -3.323079    0.158119   -1.290595
 ---------------------------------------------------------------------
 Rotational constants (GHZ):           5.3760054           1.2970263           1.2499389
 Leave Link  202 at Sun Sep 29 00:14:56 2019, MaxMem=   671088640 cpu:               2.9 elap:               1.5
 (Enter /shared/centos7/gaussian/g16/l301.exe)
 Standard basis: CC-pVTZ (5D, 7F)
 Ernie: Thresh=  0.10000D-02 Tol=  0.10000D-05 Strict=F.
 Ernie:  21 primitive shells out of 262 were deleted.
 There are   395 symmetry adapted cartesian basis functions of A   symmetry.
 There are   350 symmetry adapted basis functions of A   symmetry.
   350 basis functions,   534 primitive gaussians,   395 cartesian basis functions
    28 alpha electrons       28 beta electrons
       nuclear repulsion energy       311.7954909420 Hartrees.
 IExCor= 4336 DFT=T Ex+Corr=M062X ExCW=0 ScaHFX=  0.540000
 ScaDFX=  1.000000  1.000000  1.000000  1.000000 ScalE2=  1.000000  1.000000
 IRadAn=      5 IRanWt=     -1 IRanGd=            0 ICorTp=0 IEmpDi=  4
 NAtoms=   17 NActive=   17 NUniq=   17 SFac= 1.00D+00 NAtFMM=   60 NAOKFM=F Big=F
 Integral buffers will be    131072 words long.
 Raffenetti 2 integral format.
 Two-electron integral symmetry is turned on.
 Leave Link  301 at Sun Sep 29 00:14:57 2019, MaxMem=   671088640 cpu:               2.6 elap:               1.3
 (Enter /shared/centos7/gaussian/g16/l302.exe)
 NPDir=0 NMtPBC=     1 NCelOv=     1 NCel=       1 NClECP=     1 NCelD=      1
         NCelK=      1 NCelE2=     1 NClLst=     1 CellRange=     0.0.
 One-electron integrals computed using PRISM.
 One-electron integral symmetry used in STVInt
 NBasis=   350 RedAO= T EigKep=  3.37D-04  NBF=   350
 NBsUse=   350 1.00D-06 EigRej= -1.00D+00 NBFU=   350
 Precomputing XC quadrature grid using
 IXCGrd= 4 IRadAn=           5 IRanWt=          -1 IRanGd=           0 AccXCQ= 0.00D+00.
 Generated NRdTot=       0 NPtTot=           0 NUsed=           0 NTot=          32
 NSgBfM=   395   395   395   395   395 MxSgAt=    17 MxSgA2=    17.
 Leave Link  302 at Sun Sep 29 00:16:18 2019, MaxMem=   671088640 cpu:             160.7 elap:              80.4
 (Enter /shared/centos7/gaussian/g16/l303.exe)
 DipDrv:  MaxL=1.
 Leave Link  303 at Sun Sep 29 00:16:23 2019, MaxMem=   671088640 cpu:              11.4 elap:               5.7
 (Enter /shared/centos7/gaussian/g16/l401.exe)
 ExpMin= 1.03D-01 ExpMax= 1.53D+04 ExpMxC= 5.22D+02 IAcc=3 IRadAn=         5 AccDes= 0.00D+00
 Harris functional with IExCor= 1009 and IRadAn=       5 diagonalized for initial guess.
 HarFok:  IExCor= 1009 AccDes= 0.00D+00 IRadAn=         5 IDoV= 1 UseB2=F ITyADJ=14
 ICtDFT=  3500011 ScaDFX=  1.000000  1.000000  1.000000  1.000000
 FoFCou: FMM=F IPFlag=           0 FMFlag=      100000 FMFlg1=           0
         NFxFlg=           0 DoJE=T BraDBF=F KetDBF=T FulRan=T
         wScrn=  0.000000 ICntrl=       500 IOpCl=  0 I1Cent=   200000004 NGrid=           0
         NMat0=    1 NMatS0=      1 NMatT0=    0 NMatD0=    1 NMtDS0=    0 NMtDT0=    0
 Petite list used in FoFCou.
 Harris En= -346.806136754925    
 JPrj=0 DoOrth=F DoCkMO=F.
 Leave Link  401 at Sun Sep 29 00:16:58 2019, MaxMem=   671088640 cpu:              69.0 elap:              34.5
 (Enter /shared/centos7/gaussian/g16/l502.exe)
 Integral symmetry usage will be decided dynamically.
 Closed shell SCF:
 Using DIIS extrapolation, IDIIS=  1040.
 NGot=   671088640 LenX=   670765141 LenY=   670608675
 Requested convergence on RMS density matrix=1.00D-08 within 900 cycles.
 Requested convergence on MAX density matrix=1.00D-06.
 Requested convergence on             energy=1.00D-06.
 No special actions if energy rises.
 Fock matrices will be formed incrementally for  20 cycles.
 Integral accuracy reduced to 1.0D-05 until final iterations.

 Cycle   1  Pass 0  IDiag  1:
 FoFJK:  IHMeth= 1 ICntrl=       0 DoSepK=F KAlg= 0 I1Cent=           0 FoldK=F
 IRaf= 950000000 NMat=       1 IRICut=       1 DoRegI=T DoRafI=F ISym2E= 0 IDoP0=0 IntGTp=1.
 FoFCou: FMM=F IPFlag=           0 FMFlag=      100000 FMFlg1=           0
         NFxFlg=           0 DoJE=F BraDBF=F KetDBF=F FulRan=T
         wScrn=  0.000000 ICntrl=         0 IOpCl=  0 I1Cent=           0 NGrid=           0
         NMat0=    1 NMatS0=      1 NMatT0=    0 NMatD0=    1 NMtDS0=    0 NMtDT0=    0
 Symmetry not used in FoFCou.
 E= -346.688940431181    
 DIIS: error= 3.32D-02 at cycle   1 NSaved=   1.
 NSaved= 1 IEnMin= 1 EnMin= -346.688940431181     IErMin= 1 ErrMin= 3.32D-02
 ErrMax= 3.32D-02  0.00D+00 EMaxC= 1.00D-01 BMatC= 2.88D-01 BMatP= 2.88D-01
 IDIUse=3 WtCom= 6.68D-01 WtEn= 3.32D-01
 Coeff-Com:  0.100D+01
 Coeff-En:   0.100D+01
 Coeff:      0.100D+01
 Gap=     0.346 Goal=   None    Shift=    0.000
 GapD=    0.346 DampG=1.000 DampE=0.500 DampFc=0.5000 IDamp=-1.
 Damping current iteration by 5.00D-01
 RMSDP=1.88D-03 MaxDP=7.40D-02              OVMax= 1.41D-01

 Cycle   2  Pass 0  IDiag  1:
 RMSU=  9.39D-04    CP:  9.97D-01
 E= -346.809386178158     Delta-E=       -0.120445746978 Rises=F Damp=T
 DIIS: error= 4.64D-03 at cycle   2 NSaved=   2.
 NSaved= 2 IEnMin= 2 EnMin= -346.809386178158     IErMin= 2 ErrMin= 4.64D-03
 ErrMax= 4.64D-03  0.00D+00 EMaxC= 1.00D-01 BMatC= 2.09D-02 BMatP= 2.88D-01
 IDIUse=3 WtCom= 9.54D-01 WtEn= 4.64D-02
 Coeff-Com: -0.129D+00 0.113D+01
 Coeff-En:   0.000D+00 0.100D+01
 Coeff:     -0.123D+00 0.112D+01
 Gap=     0.313 Goal=   None    Shift=    0.000
 RMSDP=4.24D-04 MaxDP=1.41D-02 DE=-1.20D-01 OVMax= 7.00D-02

 Cycle   3  Pass 0  IDiag  1:
 RMSU=  4.22D-04    CP:  1.00D+00  1.02D+00
 E= -346.918243543461     Delta-E=       -0.108857365303 Rises=F Damp=F
 DIIS: error= 2.72D-03 at cycle   3 NSaved=   3.
 NSaved= 3 IEnMin= 3 EnMin= -346.918243543461     IErMin= 3 ErrMin= 2.72D-03
 ErrMax= 2.72D-03  0.00D+00 EMaxC= 1.00D-01 BMatC= 3.15D-03 BMatP= 2.09D-02
 IDIUse=3 WtCom= 9.73D-01 WtEn= 2.72D-02
 Coeff-Com: -0.776D-01 0.288D+00 0.790D+00
 Coeff-En:   0.000D+00 0.000D+00 0.100D+01
 Coeff:     -0.755D-01 0.280D+00 0.796D+00
 Gap=     0.314 Goal=   None    Shift=    0.000
 RMSDP=1.23D-04 MaxDP=5.63D-03 DE=-1.09D-01 OVMax= 1.14D-02

 Cycle   4  Pass 0  IDiag  1:
 RMSU=  1.05D-04    CP:  1.00D+00  1.08D+00  9.38D-01
 E= -346.919800214321     Delta-E=       -0.001556670860 Rises=F Damp=F
 DIIS: error= 1.38D-03 at cycle   4 NSaved=   4.
 NSaved= 4 IEnMin= 4 EnMin= -346.919800214321     IErMin= 4 ErrMin= 1.38D-03
 ErrMax= 1.38D-03  0.00D+00 EMaxC= 1.00D-01 BMatC= 9.74D-04 BMatP= 3.15D-03
 IDIUse=3 WtCom= 9.86D-01 WtEn= 1.38D-02
 Coeff-Com: -0.270D-01 0.691D-01 0.402D+00 0.556D+00
 Coeff-En:   0.000D+00 0.000D+00 0.197D+00 0.803D+00
 Coeff:     -0.266D-01 0.682D-01 0.399D+00 0.559D+00
 Gap=     0.310 Goal=   None    Shift=    0.000
 RMSDP=5.09D-05 MaxDP=2.24D-03 DE=-1.56D-03 OVMax= 5.02D-03

 Cycle   5  Pass 0  IDiag  1:
 RMSU=  2.45D-05    CP:  1.00D+00  1.08D+00  9.71D-01  5.97D-01
 E= -346.920494770771     Delta-E=       -0.000694556450 Rises=F Damp=F
 DIIS: error= 2.08D-04 at cycle   5 NSaved=   5.
 NSaved= 5 IEnMin= 5 EnMin= -346.920494770771     IErMin= 5 ErrMin= 2.08D-04
 ErrMax= 2.08D-04  0.00D+00 EMaxC= 1.00D-01 BMatC= 1.56D-05 BMatP= 9.74D-04
 IDIUse=3 WtCom= 9.98D-01 WtEn= 2.08D-03
 Coeff-Com: -0.318D-02 0.552D-02 0.754D-01 0.169D+00 0.754D+00
 Coeff-En:   0.000D+00 0.000D+00 0.000D+00 0.000D+00 0.100D+01
 Coeff:     -0.317D-02 0.551D-02 0.752D-01 0.168D+00 0.754D+00
 Gap=     0.310 Goal=   None    Shift=    0.000
 RMSDP=1.00D-05 MaxDP=2.72D-04 DE=-6.95D-04 OVMax= 1.04D-03

 Cycle   6  Pass 0  IDiag  1:
 RMSU=  7.51D-06    CP:  1.00D+00  1.08D+00  9.81D-01  6.42D-01  9.42D-01
 E= -346.920506109131     Delta-E=       -0.000011338360 Rises=F Damp=F
 DIIS: error= 7.99D-05 at cycle   6 NSaved=   6.
 NSaved= 6 IEnMin= 6 EnMin= -346.920506109131     IErMin= 6 ErrMin= 7.99D-05
 ErrMax= 7.99D-05  0.00D+00 EMaxC= 1.00D-01 BMatC= 1.74D-06 BMatP= 1.56D-05
 IDIUse=1 WtCom= 1.00D+00 WtEn= 0.00D+00
 Coeff-Com:  0.424D-03-0.211D-02 0.710D-02 0.393D-01 0.299D+00 0.656D+00
 Coeff:      0.424D-03-0.211D-02 0.710D-02 0.393D-01 0.299D+00 0.656D+00
 Gap=     0.310 Goal=   None    Shift=    0.000
 RMSDP=3.14D-06 MaxDP=1.25D-04 DE=-1.13D-05 OVMax= 4.51D-04

 Initial convergence to 1.0D-05 achieved.  Increase integral accuracy.
 Cycle   7  Pass 1  IDiag  1:
 E= -346.920486483249     Delta-E=        0.000019625881 Rises=F Damp=F
 DIIS: error= 3.77D-05 at cycle   1 NSaved=   1.
 NSaved= 1 IEnMin= 1 EnMin= -346.920486483249     IErMin= 1 ErrMin= 3.77D-05
 ErrMax= 3.77D-05  0.00D+00 EMaxC= 1.00D-01 BMatC= 6.90D-07 BMatP= 6.90D-07
 IDIUse=1 WtCom= 1.00D+00 WtEn= 0.00D+00
 Coeff-Com:  0.100D+01
 Coeff:      0.100D+01
 Gap=     0.310 Goal=   None    Shift=    0.000
 RMSDP=3.14D-06 MaxDP=1.25D-04 DE= 1.96D-05 OVMax= 3.22D-04

 Cycle   8  Pass 1  IDiag  1:
 RMSU=  9.29D-06    CP:  1.00D+00
 E= -346.920486698743     Delta-E=       -0.000000215493 Rises=F Damp=F
 DIIS: error= 2.16D-05 at cycle   2 NSaved=   2.
 NSaved= 2 IEnMin= 2 EnMin= -346.920486698743     IErMin= 2 ErrMin= 2.16D-05
 ErrMax= 2.16D-05  0.00D+00 EMaxC= 1.00D-01 BMatC= 2.16D-07 BMatP= 6.90D-07
 IDIUse=1 WtCom= 1.00D+00 WtEn= 0.00D+00
 Coeff-Com:  0.302D+00 0.698D+00
 Coeff:      0.302D+00 0.698D+00
 Gap=     0.310 Goal=   None    Shift=    0.000
 RMSDP=1.60D-06 MaxDP=7.12D-05 DE=-2.15D-07 OVMax= 2.76D-04

 Cycle   9  Pass 1  IDiag  1:
 RMSU=  1.58D-06    CP:  1.00D+00  1.02D+00
 E= -346.920486814887     Delta-E=       -0.000000116144 Rises=F Damp=F
 DIIS: error= 1.35D-05 at cycle   3 NSaved=   3.
 NSaved= 3 IEnMin= 3 EnMin= -346.920486814887     IErMin= 3 ErrMin= 1.35D-05
 ErrMax= 1.35D-05  0.00D+00 EMaxC= 1.00D-01 BMatC= 8.82D-08 BMatP= 2.16D-07
 IDIUse=1 WtCom= 1.00D+00 WtEn= 0.00D+00
 Coeff-Com: -0.973D-02 0.387D+00 0.623D+00
 Coeff:     -0.973D-02 0.387D+00 0.623D+00
 Gap=     0.310 Goal=   None    Shift=    0.000
 RMSDP=7.14D-07 MaxDP=3.01D-05 DE=-1.16D-07 OVMax= 1.22D-04

 Cycle  10  Pass 1  IDiag  1:
 RMSU=  3.49D-07    CP:  1.00D+00  1.06D+00  6.92D-01
 E= -346.920486889006     Delta-E=       -0.000000074119 Rises=F Damp=F
 DIIS: error= 2.23D-06 at cycle   4 NSaved=   4.
 NSaved= 4 IEnMin= 4 EnMin= -346.920486889006     IErMin= 4 ErrMin= 2.23D-06
 ErrMax= 2.23D-06  0.00D+00 EMaxC= 1.00D-01 BMatC= 2.63D-09 BMatP= 8.82D-08
 IDIUse=1 WtCom= 1.00D+00 WtEn= 0.00D+00
 Coeff-Com: -0.125D-01 0.174D+00 0.309D+00 0.530D+00
 Coeff:     -0.125D-01 0.174D+00 0.309D+00 0.530D+00
 Gap=     0.310 Goal=   None    Shift=    0.000
 RMSDP=1.01D-07 MaxDP=3.85D-06 DE=-7.41D-08 OVMax= 7.45D-06

 Cycle  11  Pass 1  IDiag  1:
 RMSU=  8.87D-08    CP:  1.00D+00  1.07D+00  7.12D-01  1.01D+00
 E= -346.920486890921     Delta-E=       -0.000000001916 Rises=F Damp=F
 DIIS: error= 3.66D-07 at cycle   5 NSaved=   5.
 NSaved= 5 IEnMin= 5 EnMin= -346.920486890921     IErMin= 5 ErrMin= 3.66D-07
 ErrMax= 3.66D-07  0.00D+00 EMaxC= 1.00D-01 BMatC= 5.43D-11 BMatP= 2.63D-09
 IDIUse=1 WtCom= 1.00D+00 WtEn= 0.00D+00
 Coeff-Com: -0.464D-03-0.266D-01-0.339D-01 0.538D-01 0.101D+01
 Coeff:     -0.464D-03-0.266D-01-0.339D-01 0.538D-01 0.101D+01
 Gap=     0.310 Goal=   None    Shift=    0.000
 RMSDP=5.33D-08 MaxDP=3.29D-06 DE=-1.92D-09 OVMax= 3.86D-06

 Cycle  12  Pass 1  IDiag  1:
 RMSU=  1.86D-08    CP:  1.00D+00  1.07D+00  7.24D-01  1.11D+00  1.13D+00
 E= -346.920486891003     Delta-E=       -0.000000000081 Rises=F Damp=F
 DIIS: error= 1.61D-07 at cycle   6 NSaved=   6.
 NSaved= 6 IEnMin= 6 EnMin= -346.920486891003     IErMin= 6 ErrMin= 1.61D-07
 ErrMax= 1.61D-07  0.00D+00 EMaxC= 1.00D-01 BMatC= 1.20D-11 BMatP= 5.43D-11
 IDIUse=1 WtCom= 1.00D+00 WtEn= 0.00D+00
 Coeff-Com:  0.630D-03-0.230D-01-0.351D-01-0.160D-01 0.421D+00 0.652D+00
 Coeff:      0.630D-03-0.230D-01-0.351D-01-0.160D-01 0.421D+00 0.652D+00
 Gap=     0.310 Goal=   None    Shift=    0.000
 RMSDP=9.34D-09 MaxDP=3.32D-07 DE=-8.14D-11 OVMax= 9.12D-07

 SCF Done:  E(RM062X) =  -346.920486891     A.U. after   12 cycles
            NFock= 12  Conv=0.93D-08     -V/T= 2.0063
 KE= 3.447581926143D+02 PE=-1.433620219546D+03 EE= 4.301460490983D+02
 Leave Link  502 at Sun Sep 29 00:30:36 2019, MaxMem=   671088640 cpu:            1636.2 elap:             818.3
 (Enter /shared/centos7/gaussian/g16/l801.exe)
 DoSCS=F DFT=T ScalE2(SS,OS)=  1.000000  1.000000
 Range of M.O.s used for correlation:     1   350
 NBasis=   350 NAE=    28 NBE=    28 NFC=     0 NFV=     0
 NROrb=    350 NOA=    28 NOB=    28 NVA=   322 NVB=   322

 **** Warning!!: The largest alpha MO coefficient is  0.11753619D+02

 Leave Link  801 at Sun Sep 29 00:30:37 2019, MaxMem=   671088640 cpu:               1.6 elap:               0.8
 (Enter /shared/centos7/gaussian/g16/l1101.exe)
 Using compressed storage, NAtomX=    17.
 Will process     18 centers per pass.
 Leave Link 1101 at Sun Sep 29 00:31:08 2019, MaxMem=   671088640 cpu:              62.3 elap:              31.2
 (Enter /shared/centos7/gaussian/g16/l1102.exe)
 Symmetrizing basis deriv contribution to polar:
 IMax=3 JMax=2 DiffMx= 0.00D+00
 Leave Link 1102 at Sun Sep 29 00:31:12 2019, MaxMem=   671088640 cpu:               6.6 elap:               3.4
 (Enter /shared/centos7/gaussian/g16/l1110.exe)
 Forming Gx(P) for the SCF density, NAtomX=    17.
 Integral derivatives from FoFJK, PRISM(SPDF).
 Do as many integral derivatives as possible in FoFJK.
 G2DrvN: MDV=     671087280.
 G2DrvN: will do    18 centers at a time, making    1 passes.
 Calling FoFCou, ICntrl=  3107 FMM=F I1Cent=   0 AccDes= 0.00D+00.
 FoFJK:  IHMeth= 1 ICntrl=    3107 DoSepK=F KAlg= 0 I1Cent=           0 FoldK=F
 IRaf=         0 NMat=       1 IRICut=       1 DoRegI=T DoRafI=F ISym2E= 0 IDoP0=0 IntGTp=1.
 FoFCou: FMM=F IPFlag=           0 FMFlag=      100000 FMFlg1=           0
         NFxFlg=           0 DoJE=F BraDBF=F KetDBF=F FulRan=T
         wScrn=  0.000000 ICntrl=      3107 IOpCl=  0 I1Cent=           0 NGrid=           0
         NMat0=    1 NMatS0=      1 NMatT0=    0 NMatD0=    1 NMtDS0=    0 NMtDT0=    0
 Symmetry not used in FoFCou.
 End of G2Drv F.D. properties file   721 does not exist.
 End of G2Drv F.D. properties file   722 does not exist.
 End of G2Drv F.D. properties file   788 does not exist.
 Leave Link 1110 at Sun Sep 29 00:55:01 2019, MaxMem=   671088640 cpu:            2857.2 elap:            1428.9
 (Enter /shared/centos7/gaussian/g16/l1002.exe)
 Minotr:  Closed shell wavefunction.
          IDoAtm=11111111111111111
          Direct CPHF calculation.
          Differentiating once with respect to nuclear coordinates.
          Requested convergence is 1.0D-08 RMS, and 1.0D-07 maximum.
          Secondary convergence is 1.0D-12 RMS, and 1.0D-12 maximum.
          NewPWx=T KeepS1=F KeepF1=F KeepIn=T MapXYZ=F SortEE=F KeepMc=T.
         5116 words used for storage of precomputed grid.
 Two-electron integrals replicated using symmetry.
          MDV=     671088640 using IRadAn=       1.
          Solving linear equations simultaneously, MaxMat=     380.
 FoF2E skips out because all densities are zero.
 CalDSu exits because no D1Ps are significant.
 FoFJK:  IHMeth= 1 ICntrl=       0 DoSepK=F KAlg= 0 I1Cent=           0 FoldK=F
 IRaf= 930000000 NMat=      51 IRICut=     127 DoRegI=T DoRafI=T ISym2E= 2 IDoP0=3 IntGTp=3.
 FoFCou: FMM=F IPFlag=           0 FMFlag=      100000 FMFlg1=           0
         NFxFlg=           0 DoJE=F BraDBF=F KetDBF=F FulRan=T
         wScrn=  0.000000 ICntrl=         0 IOpCl=  0 I1Cent=           0 NGrid=           0
         NMat0=   51 NMatS0=     51 NMatT0=    0 NMatD0=   51 NMtDS0=    0 NMtDT0=    0
 Integrals replicated using symmetry in FoFCou.
 Raff kept on since  89.81% of shell-pairs survive, threshold=   0.20 IRatSp=90.
          There are    54 degrees of freedom in the 1st order CPHF.  IDoFFX=6 NUNeed=     0.
     48 vectors produced by pass  0 Test12= 1.67D-14 1.85D-09 XBig12= 7.24D-02 6.35D-02.
 AX will form    48 AO Fock derivatives at one time.
     48 vectors produced by pass  1 Test12= 1.67D-14 1.85D-09 XBig12= 7.55D-03 3.68D-02.
     48 vectors produced by pass  2 Test12= 1.67D-14 1.85D-09 XBig12= 2.46D-04 3.19D-03.
     48 vectors produced by pass  3 Test12= 1.67D-14 1.85D-09 XBig12= 3.03D-06 2.53D-04.
     48 vectors produced by pass  4 Test12= 1.67D-14 1.85D-09 XBig12= 1.96D-08 1.87D-05.
     48 vectors produced by pass  5 Test12= 1.67D-14 1.85D-09 XBig12= 1.10D-10 1.38D-06.
     26 vectors produced by pass  6 Test12= 1.67D-14 1.85D-09 XBig12= 4.94D-13 7.72D-08.
      5 vectors produced by pass  7 Test12= 1.67D-14 1.85D-09 XBig12= 1.99D-15 5.41D-09.
 InvSVY:  IOpt=1 It=  1 EMax= 3.89D-16
 Solved reduced A of dimension   319 with    54 vectors.
 End of Minotr F.D. properties file   721 does not exist.
 End of Minotr F.D. properties file   722 does not exist.
 End of Minotr F.D. properties file   788 does not exist.
 Leave Link 1002 at Sun Sep 29 01:35:44 2019, MaxMem=   671088640 cpu:            4886.1 elap:            2443.5
 (Enter /shared/centos7/gaussian/g16/l601.exe)
 Copying SCF densities to generalized density rwf, IOpCl= 0 IROHF=0.

 **********************************************************************

            Population analysis using the SCF density.

 **********************************************************************

 Orbital symmetries:
       Occupied  (A) (A) (A) (A) (A) (A) (A) (A) (A) (A) (A) (A)
                 (A) (A) (A) (A) (A) (A) (A) (A) (A) (A) (A) (A)
                 (A) (A) (A) (A)
       Virtual   (A) (A) (A) (A) (A) (A) (A) (A) (A) (A) (A) (A)
                 (A) (A) (A) (A) (A) (A) (A) (A) (A) (A) (A) (A)
                 (A) (A) (A) (A) (A) (A) (A) (A) (A) (A) (A) (A)
                 (A) (A) (A) (A) (A) (A) (A) (A) (A) (A) (A) (A)
                 (A) (A) (A) (A) (A) (A) (A) (A) (A) (A) (A) (A)
                 (A) (A) (A) (A) (A) (A) (A) (A) (A) (A) (A) (A)
                 (A) (A) (A) (A) (A) (A) (A) (A) (A) (A) (A) (A)
                 (A) (A) (A) (A) (A) (A) (A) (A) (A) (A) (A) (A)
                 (A) (A) (A) (A) (A) (A) (A) (A) (A) (A) (A) (A)
                 (A) (A) (A) (A) (A) (A) (A) (A) (A) (A) (A) (A)
                 (A) (A) (A) (A) (A) (A) (A) (A) (A) (A) (A) (A)
                 (A) (A) (A) (A) (A) (A) (A) (A) (A) (A) (A) (A)
                 (A) (A) (A) (A) (A) (A) (A) (A) (A) (A) (A) (A)
                 (A) (A) (A) (A) (A) (A) (A) (A) (A) (A) (A) (A)
                 (A) (A) (A) (A) (A) (A) (A) (A) (A) (A) (A) (A)
                 (A) (A) (A) (A) (A) (A) (A) (A) (A) (A) (A) (A)
                 (A) (A) (A) (A) (A) (A) (A) (A) (A) (A) (A) (A)
                 (A) (A) (A) (A) (A) (A) (A) (A) (A) (A) (A) (A)
                 (A) (A) (A) (A) (A) (A) (A) (A) (A) (A) (A) (A)
                 (A) (A) (A) (A) (A) (A) (A) (A) (A) (A) (A) (A)
                 (A) (A) (A) (A) (A) (A) (A) (A) (A) (A) (A) (A)
                 (A) (A) (A) (A) (A) (A) (A) (A) (A) (A) (A) (A)
                 (A) (A) (A) (A) (A) (A) (A) (A) (A) (A) (A) (A)
                 (A) (A) (A) (A) (A) (A) (A) (A) (A) (A) (A) (A)
                 (A) (A) (A) (A) (A) (A) (A) (A) (A) (A) (A) (A)
                 (A) (A) (A) (A) (A) (A) (A) (A) (A) (A) (A) (A)
                 (A) (A) (A) (A) (A) (A) (A) (A) (A) (A)
 The electronic state is 1-A.
 Alpha  occ. eigenvalues --  -19.64543 -19.64426 -10.59555 -10.57983 -10.57751
 Alpha  occ. eigenvalues --  -10.53454 -10.53276  -1.18263  -1.15890  -0.89343
 Alpha  occ. eigenvalues --   -0.83928  -0.77940  -0.71024  -0.63863  -0.62102
 Alpha  occ. eigenvalues --   -0.56984  -0.54105  -0.52335  -0.50059  -0.46539
 Alpha  occ. eigenvalues --   -0.45599  -0.45324  -0.44866  -0.42334  -0.42099
 Alpha  occ. eigenvalues --   -0.38855  -0.37191  -0.26445
 Alpha virt. eigenvalues --    0.04594   0.06988   0.08210   0.09929   0.11544
 Alpha virt. eigenvalues --    0.11778   0.12663   0.14134   0.15673   0.16886
 Alpha virt. eigenvalues --    0.17661   0.20152   0.20590   0.23596   0.25811
 Alpha virt. eigenvalues --    0.27138   0.28455   0.29685   0.31048   0.32236
 Alpha virt. eigenvalues --    0.33586   0.36562   0.38105   0.39132   0.39803
 Alpha virt. eigenvalues --    0.42098   0.42511   0.43281   0.45143   0.45925
 Alpha virt. eigenvalues --    0.47113   0.47758   0.48497   0.48830   0.49830
 Alpha virt. eigenvalues --    0.50689   0.51770   0.52199   0.53213   0.54035
 Alpha virt. eigenvalues --    0.55848   0.58496   0.61638   0.62720   0.64019
 Alpha virt. eigenvalues --    0.65450   0.66634   0.68698   0.70720   0.71288
 Alpha virt. eigenvalues --    0.72925   0.74173   0.78003   0.79133   0.82181
 Alpha virt. eigenvalues --    0.83373   0.85545   0.86291   0.89655   0.90545
 Alpha virt. eigenvalues --    0.91479   0.92694   0.94253   0.95999   0.98108
 Alpha virt. eigenvalues --    0.98735   1.02803   1.04823   1.05145   1.05642
 Alpha virt. eigenvalues --    1.06949   1.08424   1.09197   1.12165   1.13482
 Alpha virt. eigenvalues --    1.15039   1.16065   1.16575   1.18760   1.20343
 Alpha virt. eigenvalues --    1.22121   1.23060   1.25458   1.27415   1.27475
 Alpha virt. eigenvalues --    1.29851   1.30620   1.31362   1.33322   1.35865
 Alpha virt. eigenvalues --    1.36617   1.36879   1.37610   1.39956   1.41820
 Alpha virt. eigenvalues --    1.43871   1.44179   1.46179   1.49627   1.52927
 Alpha virt. eigenvalues --    1.53518   1.55201   1.57414   1.59726   1.60520
 Alpha virt. eigenvalues --    1.64702   1.68553   1.73187   1.76098   1.83674
 Alpha virt. eigenvalues --    1.85015   1.86699   1.96756   2.02601   2.04939
 Alpha virt. eigenvalues --    2.05491   2.10996   2.13949   2.16875   2.23591
 Alpha virt. eigenvalues --    2.26988   2.28354   2.30847   2.32344   2.34983
 Alpha virt. eigenvalues --    2.35621   2.38186   2.40833   2.42421   2.45429
 Alpha virt. eigenvalues --    2.47490   2.51681   2.52754   2.53441   2.54403
 Alpha virt. eigenvalues --    2.56065   2.58965   2.63504   2.65366   2.66540
 Alpha virt. eigenvalues --    2.71562   2.73021   2.75230   2.77966   2.80351
 Alpha virt. eigenvalues --    2.81274   2.82621   2.84219   2.84982   2.86657
 Alpha virt. eigenvalues --    2.87979   2.88883   2.91099   2.91969   2.94073
 Alpha virt. eigenvalues --    2.94871   2.95814   2.96579   3.00094   3.00844
 Alpha virt. eigenvalues --    3.01634   3.02562   3.04246   3.05979   3.07310
 Alpha virt. eigenvalues --    3.08381   3.09262   3.11494   3.12121   3.13170
 Alpha virt. eigenvalues --    3.14651   3.18018   3.21124   3.21450   3.23709
 Alpha virt. eigenvalues --    3.25110   3.25939   3.28781   3.29178   3.29571
 Alpha virt. eigenvalues --    3.30491   3.31593   3.32250   3.32824   3.35830
 Alpha virt. eigenvalues --    3.39376   3.40670   3.41170   3.42569   3.43377
 Alpha virt. eigenvalues --    3.45122   3.46205   3.48788   3.49390   3.50998
 Alpha virt. eigenvalues --    3.52418   3.53554   3.56539   3.59601   3.61324
 Alpha virt. eigenvalues --    3.63417   3.63819   3.67154   3.69659   3.72785
 Alpha virt. eigenvalues --    3.74255   3.74766   3.75485   3.78394   3.80098
 Alpha virt. eigenvalues --    3.81329   3.83542   3.84141   3.84398   3.85723
 Alpha virt. eigenvalues --    3.87019   3.89294   3.90451   3.91314   3.94193
 Alpha virt. eigenvalues --    3.94432   3.95935   3.97226   3.97688   3.98003
 Alpha virt. eigenvalues --    3.98904   4.00772   4.05091   4.06173   4.06679
 Alpha virt. eigenvalues --    4.07899   4.09972   4.12586   4.15410   4.17180
 Alpha virt. eigenvalues --    4.18441   4.22702   4.24460   4.25283   4.28392
 Alpha virt. eigenvalues --    4.29272   4.30313   4.34729   4.36336   4.42702
 Alpha virt. eigenvalues --    4.45505   4.47992   4.49984   4.51327   4.53238
 Alpha virt. eigenvalues --    4.56154   4.60935   4.64593   4.68189   4.71447
 Alpha virt. eigenvalues --    4.72354   4.74317   4.78355   4.79865   4.82634
 Alpha virt. eigenvalues --    4.83069   4.86420   4.88653   4.90547   4.94166
 Alpha virt. eigenvalues --    4.96280   4.99644   5.00445   5.04320   5.06492
 Alpha virt. eigenvalues --    5.08422   5.10185   5.14632   5.16882   5.19171
 Alpha virt. eigenvalues --    5.21384   5.22580   5.24169   5.25567   5.28903
 Alpha virt. eigenvalues --    5.32298   5.34814   5.35989   5.38811   5.44751
 Alpha virt. eigenvalues --    5.52060   5.54069   5.61211   5.72427   5.74948
 Alpha virt. eigenvalues --    5.76711   5.78099   5.78960   5.81011   5.81263
 Alpha virt. eigenvalues --    5.92490   5.98796   6.01663   6.22088   6.28026
 Alpha virt. eigenvalues --    6.33057   6.40982   6.57410   6.63332   6.68645
 Alpha virt. eigenvalues --    6.74824   6.75838   6.76389   6.83690   7.00842
 Alpha virt. eigenvalues --    7.04051   7.18398   7.26780   7.33258   7.39808
 Alpha virt. eigenvalues --   10.60826  11.23663  11.68001  11.69573  13.02525
 Alpha virt. eigenvalues --   13.31009  14.44189
          Condensed to atoms (all electrons):
               1          2          3          4          5          6
     1  O    7.854723   0.001673   0.228199  -0.029578  -0.021983   0.372063
     2  O    0.001673   7.798447  -0.000951   0.000024   0.000111  -0.065529
     3  C    0.228199  -0.000951   4.947705   0.314483   0.335079  -0.030767
     4  C   -0.029578   0.000024   0.314483   4.985460  -0.061480  -0.002180
     5  C   -0.021983   0.000111   0.335079  -0.061480   4.968572  -0.008224
     6  C    0.372063  -0.065529  -0.030767  -0.002180  -0.008224   4.872888
     7  C   -0.082253   0.330032  -0.003976  -0.002050  -0.003290   0.563594
     8  H   -0.042499  -0.000664   0.410638  -0.057815  -0.059662  -0.029493
     9  H    0.001610   0.000001  -0.035080   0.388077  -0.002503   0.000051
    10  H    0.000062  -0.000021  -0.030232   0.398297   0.007937   0.000814
    11  H    0.004182   0.000001  -0.050059   0.402666  -0.002397  -0.000183
    12  H   -0.001448   0.000001  -0.033231  -0.005249   0.390515  -0.000224
    13  H   -0.004065  -0.000111  -0.024502   0.010516   0.388500   0.003007
    14  H    0.005486   0.000002  -0.041179  -0.009673   0.399182  -0.000015
    15  H   -0.032464   0.003444   0.007479  -0.000252  -0.000475   0.404603
    16  H   -0.001003  -0.046276  -0.002742   0.001332   0.000610  -0.065700
    17  H   -0.000326   0.333536  -0.000096  -0.000007   0.000006   0.007689
               7          8          9         10         11         12
     1  O   -0.082253  -0.042499   0.001610   0.000062   0.004182  -0.001448
     2  O    0.330032  -0.000664   0.000001  -0.000021   0.000001   0.000001
     3  C   -0.003976   0.410638  -0.035080  -0.030232  -0.050059  -0.033231
     4  C   -0.002050  -0.057815   0.388077   0.398297   0.402666  -0.005249
     5  C   -0.003290  -0.059662  -0.002503   0.007937  -0.002397   0.390515
     6  C    0.563594  -0.029493   0.000051   0.000814  -0.000183  -0.000224
     7  C    4.919140   0.000265   0.000380   0.000543  -0.000209   0.000435
     8  H    0.000265   0.691153   0.009889  -0.014731   0.002384   0.010517
     9  H    0.000380   0.009889   0.568709  -0.029850  -0.029473   0.002118
    10  H    0.000543  -0.014731  -0.029850   0.589712  -0.036605  -0.000333
    11  H   -0.000209   0.002384  -0.029473  -0.036605   0.610923   0.000902
    12  H    0.000435   0.010517   0.002118  -0.000333   0.000902   0.576493
    13  H    0.001620  -0.014123  -0.000552  -0.000411   0.000462  -0.027104
    14  H   -0.000527   0.000534   0.000655   0.000216  -0.004587  -0.034263
    15  H   -0.068643  -0.000544  -0.000214   0.000054   0.000029  -0.000165
    16  H    0.427319  -0.007367  -0.000227   0.000377   0.000078  -0.000256
    17  H   -0.044077   0.000062   0.000002  -0.000003   0.000000   0.000002
              13         14         15         16         17
     1  O   -0.004065   0.005486  -0.032464  -0.001003  -0.000326
     2  O   -0.000111   0.000002   0.003444  -0.046276   0.333536
     3  C   -0.024502  -0.041179   0.007479  -0.002742  -0.000096
     4  C    0.010516  -0.009673  -0.000252   0.001332  -0.000007
     5  C    0.388500   0.399182  -0.000475   0.000610   0.000006
     6  C    0.003007  -0.000015   0.404603  -0.065700   0.007689
     7  C    0.001620  -0.000527  -0.068643   0.427319  -0.044077
     8  H   -0.014123   0.000534  -0.000544  -0.007367   0.000062
     9  H   -0.000552   0.000655  -0.000214  -0.000227   0.000002
    10  H   -0.000411   0.000216   0.000054   0.000377  -0.000003
    11  H    0.000462  -0.004587   0.000029   0.000078   0.000000
    12  H   -0.027104  -0.034263  -0.000165  -0.000256   0.000002
    13  H    0.573963  -0.032769   0.000114   0.000702  -0.000017
    14  H   -0.032769   0.612707   0.000029   0.000183   0.000001
    15  H    0.000114   0.000029   0.533115   0.005733  -0.000660
    16  H    0.000702   0.000183   0.005733   0.583898  -0.010334
    17  H   -0.000017   0.000001  -0.000660  -0.010334   0.450081
 Mulliken charges:
               1
     1  O   -0.252380
     2  O   -0.353719
     3  C    0.009232
     4  C   -0.332571
     5  C   -0.330496
     6  C   -0.022393
     7  C   -0.038303
     8  H    0.101455
     9  H    0.126407
    10  H    0.114174
    11  H    0.101885
    12  H    0.121289
    13  H    0.124769
    14  H    0.104019
    15  H    0.148818
    16  H    0.113672
    17  H    0.264141
 Sum of Mulliken charges =  -0.00000
 Mulliken charges with hydrogens summed into heavy atoms:
               1
     1  O   -0.252380
     2  O   -0.089577
     3  C    0.110687
     4  C    0.009896
     5  C    0.019581
     6  C    0.126425
     7  C    0.075369
 APT charges:
               1
     1  O   -0.185504
     2  O   -0.607461
     3  C   -0.042049
     4  C   -1.210538
     5  C   -1.178858
     6  C   -0.421518
     7  C   -0.228533
     8  H    0.224467
     9  H    0.372278
    10  H    0.322726
    11  H    0.466026
    12  H    0.419100
    13  H    0.277060
    14  H    0.449662
    15  H    0.466171
    16  H    0.182043
    17  H    0.694928
 Sum of APT charges =  -0.00000
 APT charges with hydrogens summed into heavy atoms:
               1
     1  O   -0.185504
     2  O    0.087467
     3  C    0.182418
     4  C   -0.049507
     5  C   -0.033036
     6  C    0.044653
     7  C   -0.046490
 Electronic spatial extent (au):  <R**2>=           1020.6621
 Charge=             -0.0000 electrons
 Dipole moment (field-independent basis, Debye):
    X=              0.4963    Y=              0.4306    Z=             -2.5753  Tot=              2.6578
 Quadrupole moment (field-independent basis, Debye-Ang):
   XX=            -43.9458   YY=            -45.6061   ZZ=            -40.2454
   XY=             -0.3941   XZ=              3.9253   YZ=             -0.5496
 Traceless Quadrupole moment (field-independent basis, Debye-Ang):
   XX=             -0.6801   YY=             -2.3403   ZZ=              3.0203
   XY=             -0.3941   XZ=              3.9253   YZ=             -0.5496
 Octapole moment (field-independent basis, Debye-Ang**2):
  XXX=             -5.5729  YYY=             -0.7298  ZZZ=             -2.3457  XYY=             -1.7970
  XXY=              2.4231  XXZ=            -17.1674  XZZ=            -17.5488  YZZ=             -0.0688
  YYZ=              0.2893  XYZ=              1.8170
 Hexadecapole moment (field-independent basis, Debye-Ang**3):
 XXXX=           -953.0979 YYYY=           -224.0183 ZZZZ=           -145.1333 XXXY=             -7.4659
 XXXZ=             71.3013 YYYX=             -3.6126 YYYZ=             -0.7577 ZZZX=             18.6778
 ZZZY=             -3.5476 XXYY=           -203.2899 XXZZ=           -142.8372 YYZZ=            -63.0183
 XXYZ=             -8.3016 YYXZ=              4.4565 ZZXY=             -0.3631
 N-N= 3.117954909420D+02 E-N=-1.433620230640D+03  KE= 3.447581926143D+02
  Exact polarizability:   0.000   0.000   0.000   0.000   0.000   0.000
 Approx polarizability:  87.713  -1.116  65.983   8.085  -2.882  86.137
 No NMR shielding tensors so no spin-rotation constants.
 Leave Link  601 at Sun Sep 29 01:36:08 2019, MaxMem=   671088640 cpu:              48.0 elap:              24.0
 (Enter /shared/centos7/gaussian/g16/l701.exe)
 SCFChk:  SCF convergence  9.34D-09 required  1.00D-08
 ... and contract with generalized density number  0.
 Compute integral second derivatives.
 Entering OneElI...
 Calculate overlap and kinetic energy integrals
    NBasis = 395  MinDer = 2  MaxDer = 2
 Requested accuracy = 0.1000D-12
 PrmmSu-InSpLW:  IPartL=    0 NPrtUS=   20 NPrtUL=    1 DoSpLW=F IThBeg=    0 IThEnd=   19 NThAct=   20.
 PrsmSu:  NPrtUS=  20 ThrOK=T IAlg=1 NPAlg=1 LenDen=           0 ISkipM=0 DoSpLW=F IThBeg=    0 IThEnd=   19.
 Prism:   IPart=     0 DynPar=F LinDyn=F Incr=           4.
 PRISM was handed    33314437 working-precision words and  8384 shell-pairs
 PRISM was handed    33314437 working-precision words and  8384 shell-pairs
 PRISM was handed    33314437 working-precision words and  8384 shell-pairs
 PRISM was handed    33314437 working-precision words and  8384 shell-pairs
 PRISM was handed    33314437 working-precision words and  8384 shell-pairs
 PRISM was handed    33314437 working-precision words and  8384 shell-pairs
 PRISM was handed    33314437 working-precision words and  8384 shell-pairs
 PRISM was handed    33314437 working-precision words and  8384 shell-pairs
 PRISM was handed    33314437 working-precision words and  8384 shell-pairs
 PRISM was handed    33314437 working-precision words and  8384 shell-pairs
 PRISM was handed    33314437 working-precision words and  8384 shell-pairs
 PRISM was handed    33314437 working-precision words and  8384 shell-pairs
 PRISM was handed    33314437 working-precision words and  8384 shell-pairs
 PRISM was handed    33314437 working-precision words and  8384 shell-pairs
 PRISM was handed    33314437 working-precision words and  8384 shell-pairs
 PRISM was handed    33314437 working-precision words and  8384 shell-pairs
 PRISM was handed    33314437 working-precision words and  8384 shell-pairs
 PRISM was handed    33314437 working-precision words and  8384 shell-pairs
 PRISM was handed    33314437 working-precision words and  8384 shell-pairs
 IPart= 16 NShTot=         396 NBatch=          38 AvBLen=        10.4
 PRISM was handed    33314437 working-precision words and  8384 shell-pairs
 IPart= 14 NShTot=         399 NBatch=          40 AvBLen=        10.0
 IPart=  0 NShTot=         465 NBatch=          84 AvBLen=         5.5
 IPart= 19 NShTot=         394 NBatch=          38 AvBLen=        10.4
 IPart=  2 NShTot=         450 NBatch=          73 AvBLen=         6.2
 IPart=  8 NShTot=         417 NBatch=          50 AvBLen=         8.3
 IPart= 15 NShTot=         398 NBatch=          39 AvBLen=        10.2
 IPart=  4 NShTot=         439 NBatch=          64 AvBLen=         6.9
 IPart= 13 NShTot=         400 NBatch=          41 AvBLen=         9.8
 IPart=  9 NShTot=         417 NBatch=          50 AvBLen=         8.3
 IPart= 11 NShTot=         411 NBatch=          47 AvBLen=         8.7
 IPart=  1 NShTot=         457 NBatch=          78 AvBLen=         5.9
 IPart=  5 NShTot=         438 NBatch=          63 AvBLen=         7.0
 IPart= 12 NShTot=         403 NBatch=          42 AvBLen=         9.6
 IPart=  3 NShTot=         445 NBatch=          69 AvBLen=         6.4
 IPart= 10 NShTot=         414 NBatch=          49 AvBLen=         8.4
 IPart=  6 NShTot=         432 NBatch=          60 AvBLen=         7.2
 IPart= 18 NShTot=         394 NBatch=          38 AvBLen=        10.4
 IPart=  7 NShTot=         420 NBatch=          50 AvBLen=         8.4
 IPart= 17 NShTot=         395 NBatch=          38 AvBLen=        10.4
 PrSmSu:  NxtVal=             81.
 Entering OneElI...
 Calculate potential energy integrals
    NBasis = 395  MinDer = 2  MaxDer = 2
 Requested accuracy = 0.1000D-12
 PrmmSu-InSpLW:  IPartL=    0 NPrtUS=   20 NPrtUL=    1 DoSpLW=F IThBeg=    0 IThEnd=   19 NThAct=   20.
 PrsmSu:  NPrtUS=  20 ThrOK=T IAlg=1 NPAlg=1 LenDen=           0 ISkipM=0 DoSpLW=F IThBeg=    0 IThEnd=   19.
 Prism:   IPart=     0 DynPar=F LinDyn=F Incr=          64.
 PRISM was handed    33358218 working-precision words and  7604 shell-pairs
 PRISM was handed    33358218 working-precision words and  7604 shell-pairs
 PRISM was handed    33358218 working-precision words and  7604 shell-pairs
 PRISM was handed    33358218 working-precision words and  7604 shell-pairs
 PRISM was handed    33358218 working-precision words and  7604 shell-pairs
 PRISM was handed    33358218 working-precision words and  7604 shell-pairs
 PRISM was handed    33358218 working-precision words and  7604 shell-pairs
 PRISM was handed    33358218 working-precision words and  7604 shell-pairs
 PRISM was handed    33358218 working-precision words and  7604 shell-pairs
 PRISM was handed    33358218 working-precision words and  7604 shell-pairs
 PRISM was handed    33358218 working-precision words and  7604 shell-pairs
 PRISM was handed    33358218 working-precision words and  7604 shell-pairs
 PRISM was handed    33358218 working-precision words and  7604 shell-pairs
 PRISM was handed    33358218 working-precision words and  7604 shell-pairs
 PRISM was handed    33358218 working-precision words and  7604 shell-pairs
 PRISM was handed    33358218 working-precision words and  7604 shell-pairs
 PRISM was handed    33358218 working-precision words and  7604 shell-pairs
 PRISM was handed    33358218 working-precision words and  7604 shell-pairs
 PRISM was handed    33358218 working-precision words and  7604 shell-pairs
 PRISM was handed    33358218 working-precision words and  7604 shell-pairs
 IPart=  8 NShTot=        6460 NBatch=         380 AvBLen=        17.0
 IPart=  9 NShTot=        6392 NBatch=         376 AvBLen=        17.0
 IPart= 16 NShTot=        6154 NBatch=         362 AvBLen=        17.0
 IPart= 13 NShTot=        6205 NBatch=         365 AvBLen=        17.0
 IPart=  0 NShTot=        7123 NBatch=         419 AvBLen=        17.0
 IPart= 14 NShTot=        6205 NBatch=         365 AvBLen=        17.0
 IPart= 19 NShTot=        6001 NBatch=         353 AvBLen=        17.0
 IPart=  4 NShTot=        6766 NBatch=         398 AvBLen=        17.0
 IPart=  2 NShTot=        6936 NBatch=         408 AvBLen=        17.0
 IPart= 10 NShTot=        6375 NBatch=         375 AvBLen=        17.0
 IPart= 11 NShTot=        6290 NBatch=         370 AvBLen=        17.0
 IPart= 17 NShTot=        6086 NBatch=         358 AvBLen=        17.0
 IPart= 12 NShTot=        6239 NBatch=         367 AvBLen=        17.0
 IPart=  6 NShTot=        6698 NBatch=         394 AvBLen=        17.0
 IPart=  7 NShTot=        6545 NBatch=         385 AvBLen=        17.0
 IPart= 18 NShTot=        6069 NBatch=         357 AvBLen=        17.0
 IPart=  3 NShTot=        6817 NBatch=         401 AvBLen=        17.0
 IPart= 15 NShTot=        6171 NBatch=         363 AvBLen=        17.0
 IPart=  1 NShTot=        7021 NBatch=         413 AvBLen=        17.0
 IPart=  5 NShTot=        6715 NBatch=         395 AvBLen=        17.0
 PrSmSu:  NxtVal=           1281.
 Polarizability after L701:
                1             2             3 
      1  0.000000D+00
      2  0.000000D+00  0.000000D+00
      3  0.000000D+00  0.000000D+00  0.000000D+00
 Dipole Derivatives after L701:
                 1             2             3             4             5 
      1  -0.219061D+00 -0.777982D-02  0.204535D-02 -0.376575D+00  0.239358D+00
      2  -0.540767D-01 -0.226788D+00 -0.347950D-01  0.325870D-01 -0.398526D+00
      3   0.204434D+00 -0.294832D-01 -0.110663D+00 -0.256566D+00  0.873851D-01
                 6             7             8             9            10 
      1  -0.190026D+01  0.200652D+00 -0.100216D+00  0.207833D+00 -0.151157D+01
      2   0.800716D-01 -0.195558D-02  0.120985D+00  0.566269D-01  0.230135D+00
      3  -0.104728D+01 -0.212969D+00  0.744860D-01 -0.447784D+00  0.151904D+00
                11            12            13            14            15 
      1   0.764114D+00  0.116323D+00 -0.133106D+01 -0.702493D+00 -0.834401D-01
      2  -0.116682D+01 -0.633369D-01 -0.237218D+00 -0.125859D+01 -0.106272D-01
      3  -0.195044D+00 -0.953219D+00  0.823731D-01  0.134032D+00 -0.946924D+00
                16            17            18            19            20 
      1  -0.592742D+00  0.377231D-01 -0.243067D-01 -0.152201D+00 -0.902721D-01
      2   0.833515D-03  0.423954D-01  0.106235D+00 -0.207143D-01  0.242687D-01
      3   0.543815D-01  0.106014D+00 -0.714209D+00  0.234590D+00  0.775158D-01
                21            22            23            24            25 
      1   0.366611D+00  0.910033D-01  0.589701D-02 -0.131821D+00  0.363181D+00
      2   0.790735D-01 -0.281530D-01  0.167185D+00  0.186074D-02 -0.177940D+00
      3  -0.557665D+00  0.272190D+00 -0.198321D-01  0.415213D+00  0.771797D-01
                26            27            28            29            30 
      1  -0.446179D+00  0.742834D+00 -0.464454D-01 -0.400119D+00 -0.345736D+00
      2   0.405139D+00 -0.517311D+00  0.261485D+00  0.635567D+00  0.471325D+00
      3  -0.129243D+00  0.348515D+00  0.175867D+00  0.302719D+00  0.379057D+00
                31            32            33            34            35 
      1   0.109442D+01  0.352938D+00 -0.496966D+00  0.639087D+00  0.120690D+00
      2  -0.194705D+00  0.550008D-01  0.908839D-01  0.308453D+00  0.179190D+00
      3  -0.333418D+00 -0.117722D+00  0.248655D+00  0.218260D+00  0.353093D-01
                36            37            38            39            40 
      1   0.768636D+00 -0.748425D-01  0.269597D+00 -0.244698D-01  0.740408D+00
      2   0.430203D+00 -0.537708D+00  0.786188D+00 -0.355343D-01  0.368297D+00
      3   0.439022D+00  0.245073D-01 -0.167663D-01  0.119834D+00 -0.286812D+00
                41            42            43            44            45 
      1   0.130253D+00 -0.706286D+00  0.439595D+00  0.861614D-01 -0.584014D+00
      2   0.183943D+00 -0.399414D+00  0.514216D-01  0.106866D+00 -0.111980D+00
      3  -0.535123D-01  0.424637D+00 -0.335341D+00 -0.107215D+00  0.852053D+00
                46            47            48            49            50 
      1  -0.121263D+00 -0.442047D-01  0.431686D+00  0.857417D+00 -0.215467D+00
      2   0.223964D-01  0.548130D-01 -0.626835D-01 -0.231382D-01  0.289183D+00
      3  -0.267517D+00 -0.630167D-01  0.612578D+00  0.196934D+00 -0.856272D-01
                51 
      1   0.166133D+01
      2  -0.805985D-01
      3   0.938183D+00
 Hessian after L701:
                1             2             3             4             5 
      1  0.466175D+01
      2 -0.408740D+00  0.172160D+02
      3  0.308446D+01  0.109096D+01  0.130212D+02
      4  0.393916D+00 -0.427996D-01  0.219438D+00  0.393566D+01
      5 -0.429500D-01 -0.207984D+00 -0.151309D-01  0.461954D+00  0.143104D+02
      6  0.186848D+00 -0.128866D-01 -0.151881D+00 -0.245075D+01  0.638161D+00
      7 -0.518612D+01  0.797884D+00 -0.411531D+01  0.212628D+00  0.135635D-01
      8  0.755655D+00 -0.787686D+01 -0.101961D+01 -0.965337D-03 -0.925663D-01
      9 -0.388348D+01 -0.103351D+01 -0.364684D+01  0.207339D-01  0.475138D-02
     10  0.716229D-01 -0.286090D+00 -0.224381D+00  0.840070D-01 -0.301450D-01
     11 -0.278950D+00 -0.190349D+00  0.138215D+00 -0.141691D-01 -0.507628D-01
     12 -0.274528D+00  0.187880D+00 -0.732578D-01 -0.213630D-02 -0.281697D-03
     13 -0.917333D-01  0.400650D+00 -0.773440D-01  0.992049D-01  0.482099D-01
     14  0.400591D+00  0.151809D+00 -0.247510D+00  0.236705D-01 -0.578158D-01
     15 -0.114551D+00 -0.298278D+00 -0.259479D+00  0.282111D-02  0.205339D-02
     16  0.284085D+00 -0.447644D+00  0.863954D+00 -0.318897D+00 -0.341965D-02
     17 -0.381968D+00 -0.974505D+01 -0.575091D-01 -0.175350D-01  0.174437D+00
     18  0.627830D+00 -0.663801D-01 -0.960781D+01  0.178035D+00  0.162695D-01
     19 -0.100526D+00  0.665388D-02  0.267583D+00  0.811723D+00 -0.207296D+00
     20 -0.170049D-01  0.422591D+00  0.183271D-01 -0.194127D+00 -0.819146D+01
     21  0.304414D+00  0.254473D-01  0.366189D+00  0.301207D+00 -0.139777D-01
     22  0.201958D+00 -0.365793D-01  0.243843D+00  0.599528D-02 -0.648836D-02
     23 -0.252174D-01  0.135948D+00  0.111360D+00  0.189683D-02 -0.203639D-01
     24  0.182023D+00  0.134850D+00  0.414644D-01 -0.408904D-01  0.256580D-03
     25 -0.481857D-02 -0.576056D-01 -0.740782D-01  0.140699D-01 -0.554910D-02
     26 -0.682725D-01 -0.431088D-02  0.566689D-01 -0.111673D-01 -0.288672D-02
     27 -0.108794D-01  0.669406D-02 -0.418810D-01  0.125306D-01 -0.336115D-02
     28 -0.214048D-01 -0.274889D-01 -0.199665D-01  0.621372D-02 -0.580650D-02
     29 -0.441847D-01  0.303709D-01  0.717130D-01 -0.186929D-01 -0.334796D-03
     30 -0.402238D-01  0.706343D-01  0.261347D-01 -0.136708D-01  0.539407D-02
     31  0.100047D+00  0.182955D-02 -0.109952D+00  0.177977D-01 -0.161850D-02
     32  0.173279D-02 -0.507200D-01  0.180346D-03  0.118717D-02 -0.435622D-02
     33 -0.952354D-01 -0.124021D-02  0.229891D-01 -0.531233D-02  0.261828D-03
     34  0.202073D-02  0.644350D-01 -0.238970D-01  0.177930D-01  0.646147D-02
     35  0.381083D-01  0.123805D-01 -0.217007D-01  0.597729D-02 -0.414635D-02
     36  0.185468D-01  0.140208D-01 -0.362899D-01  0.133616D-01  0.380992D-02
     37 -0.298021D-01 -0.816945D-02  0.107809D-01  0.125274D-02  0.616164D-02
     38  0.290029D-01  0.811797D-01 -0.205448D-01  0.273421D-01  0.534313D-02
     39 -0.614170D-02 -0.175198D-01 -0.360723D-01 -0.680448D-03  0.214232D-03
     40  0.516510D-01  0.615797D-01 -0.110464D+00  0.178424D-01  0.690937D-02
     41  0.590183D-01 -0.192866D-01 -0.670356D-01  0.555912D-02 -0.384298D-02
     42 -0.994599D-01 -0.628648D-01  0.552897D-01 -0.100886D-01 -0.310718D-02
     43 -0.318148D+00 -0.841537D-02  0.267560D-01  0.319595D-01 -0.103315D-01
     44  0.258502D-02  0.968608D-01 -0.136963D-01 -0.214177D-01 -0.729969D-01
     45 -0.519134D-02 -0.863242D-02  0.221438D+00  0.141670D+00 -0.153195D-01
     46 -0.315945D-01 -0.737006D-02  0.252515D-01 -0.266472D+00  0.350187D-02
     47 -0.134959D-01 -0.460912D-01 -0.215886D-01 -0.594303D-02  0.177819D+00
     48  0.828309D-01 -0.254477D-01  0.839395D-01  0.155752D+00 -0.129528D-01
     49  0.170993D-01 -0.213025D-02  0.133211D-01 -0.506469D+01 -0.233157D+00
     50 -0.591067D-02 -0.648024D-02 -0.309833D-02 -0.200770D+00 -0.595852D+01
     51  0.427285D-01 -0.371950D-02  0.148541D-01  0.147798D+01 -0.607041D+00
                6             7             8             9            10 
      6  0.971072D+01
      7 -0.337293D-01  0.173659D+02
      8  0.395544D-02 -0.543460D+00  0.198875D+02
      9 -0.127146D+00  0.321117D+01  0.638173D+00  0.185432D+02
     10 -0.148233D-01 -0.402058D+01 -0.222583D+01 -0.562623D+00  0.130635D+02
     11 -0.418931D-02 -0.216172D+01 -0.349179D+01  0.660367D+00  0.171223D+01
     12 -0.579091D-01 -0.546400D+00  0.657427D+00 -0.584386D+01  0.823865D+00
     13 -0.543210D-02 -0.550886D+01  0.197521D+01  0.245192D-02 -0.777200D-01
     14  0.593480D-02  0.190949D+01 -0.281767D+01 -0.147224D-01 -0.184884D-01
     15 -0.649747D-01  0.168837D-01 -0.398295D-02 -0.653551D+01 -0.155566D-01
     16  0.132982D+00  0.485718D+00  0.604036D-01 -0.353042D+00  0.149923D+00
     17  0.159484D-01  0.447040D-01 -0.357054D+00 -0.118556D-01 -0.159240D+00
     18  0.511798D-01 -0.344073D+00 -0.244702D-01 -0.457120D-01 -0.108099D+00
     19  0.292730D+00  0.383642D+00 -0.532858D-01  0.131738D+00  0.129362D+00
     20 -0.113703D-01 -0.563688D-01 -0.320955D+00 -0.883690D-02 -0.952424D-01
     21 -0.823056D+01  0.251028D-01 -0.145757D-01 -0.216824D+00 -0.365908D-02
     22 -0.600530D-02 -0.395125D+01 -0.724509D-01  0.134326D+01 -0.234025D-01
     23 -0.846987D-03 -0.864357D-01 -0.493682D+01 -0.147479D+00  0.193435D+00
     24 -0.400442D-02  0.158508D+01 -0.152475D+00 -0.257041D+01 -0.936801D-01
     25  0.140441D-03  0.285159D-01  0.466863D-01 -0.362078D-01 -0.373772D+01
     26  0.884476D-03  0.357325D-01  0.144439D-01  0.420585D-01 -0.281078D+00
     27 -0.780571D-02  0.468103D-02 -0.970098D-02  0.918847D-01  0.538263D+00
     28 -0.216275D-02  0.537562D-01  0.739021D-01  0.312386D-01 -0.373250D+01
     29  0.816571D-02  0.257247D-01 -0.628628D-01  0.130967D-01  0.755004D+00
     30 -0.204795D-02  0.947921D-02  0.600271D-02  0.709332D-01  0.594723D+00
     31 -0.867272D-02 -0.433305D-01  0.355580D-01  0.758664D-01 -0.191111D+01
     32 -0.118321D-02  0.766958D-01  0.121988D+00 -0.538608D-01  0.549500D+00
     33 -0.213084D-02  0.839069D-01 -0.342814D-01  0.617035D-01 -0.949167D+00
     34  0.719670D-03  0.611681D-01 -0.141151D-01 -0.193758D-01 -0.113982D-01
     35  0.277200D-03 -0.378096D-01  0.475544D-03 -0.804095D-01 -0.220501D-02
     36 -0.689791D-02  0.155072D-01 -0.209196D-01  0.471727D-01  0.837125D-02
     37  0.196601D-02  0.641823D-01 -0.252797D-01  0.791547D-02 -0.311311D-01
     38 -0.448091D-02  0.533595D-01 -0.675904D-01 -0.663144D-01 -0.883903D-01
     39 -0.108606D-01  0.692567D-02 -0.410671D-01  0.198641D-01 -0.484207D-02
     40 -0.910330D-02 -0.449731D-01 -0.321671D-01  0.664089D-01 -0.188905D-03
     41 -0.212019D-02 -0.850566D-01  0.998313D-01  0.832887D-01  0.739702D-02
     42 -0.218567D-03  0.661511D-01  0.387265D-01  0.485343D-01 -0.120042D-01
     43  0.750868D-01  0.103652D+00  0.191903D-01 -0.108979D+00  0.117129D-01
     44 -0.162063D-01  0.225979D-01 -0.479256D-01 -0.137881D-01 -0.292580D-02
     45  0.400194D-01 -0.140825D+00 -0.141821D-01  0.404666D-01 -0.203870D-01
     46  0.993958D-01 -0.257927D-01  0.237440D-02  0.635494D-01  0.266222D-01
     47 -0.971679D-02 -0.500041D-02 -0.459444D-01 -0.900639D-02 -0.240818D-01
     48  0.213409D+00  0.124298D+00 -0.679626D-02  0.547480D-01  0.320070D-01
     49  0.174081D+01  0.217021D-01 -0.142648D-02  0.937061D-02  0.896618D-02
     50 -0.610326D+00 -0.389244D-02 -0.623494D-02 -0.194939D-02 -0.385514D-02
     51 -0.134889D+01  0.311527D-01 -0.222852D-02  0.781968D-02  0.119936D-01
               11            12            13            14            15 
     11  0.131379D+02
     12 -0.849206D+00  0.147224D+02
     13 -0.134479D+00 -0.233549D-01  0.142064D+02
     14  0.255189D+00  0.920700D-01 -0.146418D+01  0.124771D+02
     15  0.100552D+00 -0.865211D-01  0.321551D+00  0.387867D+00  0.155167D+02
     16 -0.129761D+00 -0.128962D+00  0.781458D-01  0.154194D+00 -0.933174D-01
     17 -0.582923D-01  0.688610D-01  0.188080D+00  0.907048D-02 -0.571036D-01
     18  0.511994D-01 -0.961900D-01 -0.563829D-01 -0.308952D-01 -0.116638D+00
     19 -0.633458D-01 -0.221674D-02  0.126998D+00  0.749250D-01  0.137614D-01
     20 -0.569769D-01  0.385214D-02  0.107989D+00 -0.544488D-01  0.130920D-01
     21  0.245674D-02 -0.102065D+00  0.217169D-01  0.120865D-01 -0.114156D+00
     22  0.191382D+00 -0.672259D-01  0.106908D-02 -0.206888D+00 -0.111078D+00
     23  0.853761D-02  0.781080D-01 -0.217861D+00  0.126925D-02 -0.142641D+00
     24  0.100481D+00  0.159757D+00 -0.148708D+00 -0.166476D+00  0.124316D+00
     25 -0.332564D+00  0.711265D+00 -0.171099D-01 -0.449755D-02  0.597750D-02
     26 -0.339088D+01 -0.108639D+01 -0.122621D-01  0.218482D-01 -0.233632D-01
     27 -0.941697D+00 -0.215834D+01  0.115969D-01 -0.286235D-01 -0.460449D-02
     28  0.595088D+00  0.473858D+00 -0.496725D-01  0.971096D-02  0.645147D-02
     29 -0.263035D+01  0.109632D+01  0.136043D-01  0.149543D+00  0.618817D-01
     30  0.107547D+01 -0.308434D+01  0.527355D-02  0.764199D-01 -0.242536D-01
     31  0.704736D+00 -0.948967D+00 -0.756339D-04 -0.461117D-01 -0.241430D-01
     32 -0.367644D+01 -0.274822D+00 -0.155685D-01  0.254998D-02  0.191050D-01
     33 -0.350122D+00 -0.332513D+01 -0.247366D-01  0.346037D-01 -0.222531D-01
     34 -0.847450D-03  0.313302D-02 -0.305084D+01  0.112688D+00  0.127664D+01
     35  0.576444D-02  0.710164D-02  0.191033D+00 -0.386705D+01  0.355988D+00
     36  0.228817D-01  0.712600D-03  0.114468D+01  0.204262D+00 -0.204358D+01
     37 -0.791242D-01 -0.728244D-02 -0.304368D+01 -0.119474D+01  0.694662D-02
     38  0.187716D+00  0.294099D-01 -0.143964D+01 -0.246245D+01 -0.162148D-03
     39  0.165581D-01 -0.518824D-01  0.336651D-01 -0.302841D-01 -0.401996D+01
     40  0.839821D-02 -0.755642D-02 -0.270688D+01  0.232165D+00 -0.128873D+01
     41 -0.192509D-01 -0.480139D-02  0.328707D+00 -0.377951D+01 -0.413339D+00
     42 -0.175829D-01  0.204643D-02 -0.123534D+01 -0.293565D+00 -0.234546D+01
     43 -0.105362D-02 -0.136085D-01  0.104965D-01  0.537780D-02 -0.145501D-01
     44 -0.974289D-02  0.154360D-02  0.101600D-01 -0.852928D-02 -0.733727D-02
     45 -0.166949D-02  0.622807D-02 -0.200083D-01 -0.370265D-02  0.677909D-02
     46 -0.158109D-01  0.736513D-02  0.135280D-01  0.120623D-01  0.776452D-02
     47 -0.162033D-01 -0.617049D-02  0.189711D-01 -0.170343D-01  0.540377D-02
     48 -0.616810D-02 -0.113531D-01  0.353303D-01  0.538890D-02 -0.912491D-02
     49 -0.521439D-05  0.275152D-02  0.106852D-01  0.354908D-04  0.313106D-02
     50 -0.407352D-02 -0.896684D-03  0.138442D-02 -0.386862D-02  0.264614D-03
     51  0.244903D-02 -0.321161D-03  0.150348D-01 -0.285441D-02 -0.123278D-02
               16            17            18            19            20 
     16  0.998698D+01
     17  0.883518D+00  0.283881D+02
     18 -0.352827D+01  0.186686D+01  0.162479D+02
     19 -0.736467D+01 -0.757854D+00  0.439792D+01  0.956334D+01
     20 -0.713232D+00 -0.142966D+02 -0.156660D+01  0.725664D+00  0.270881D+02
     21  0.418166D+01 -0.157601D+01 -0.369658D+01 -0.324741D+01  0.174481D+01
     22 -0.582855D-01  0.707256D-02  0.151234D+00 -0.404830D-01  0.814657D-01
     23  0.975858D-02  0.810584D-01 -0.122917D-01  0.799709D-01 -0.682263D-01
     24  0.119968D+00 -0.183092D-01 -0.439846D-01 -0.226671D+00 -0.359091D-01
     25  0.215989D-01 -0.171917D-01 -0.340417D-02  0.300017D-01 -0.150412D-01
     26 -0.242168D-01 -0.365032D-02  0.112892D-02 -0.235128D-01 -0.180577D-02
     27  0.120104D-01 -0.578113D-02 -0.156146D-01  0.206848D-01 -0.747164D-02
     28  0.144795D-01 -0.123761D-01 -0.191592D-01  0.185434D-01 -0.150219D-01
     29 -0.303902D-01 -0.299516D-02  0.193103D-01 -0.377653D-01  0.288985D-02
     30 -0.359168D-01  0.175650D-01  0.444974D-02 -0.223300D-01  0.112052D-01
     31  0.209684D-01 -0.258460D-02 -0.116786D-01  0.246735D-01 -0.552852D-02
     32 -0.454408D-03 -0.757127D-02 -0.127853D-02 -0.103650D-03 -0.570605D-02
     33 -0.134075D-01  0.892802D-03 -0.426028D-02 -0.836234D-02  0.133529D-02
     34  0.263626D-01  0.152979D-01 -0.105857D-02  0.367866D-01  0.124725D-01
     35  0.129758D-01 -0.911022D-02 -0.335197D-03  0.152466D-01 -0.594506D-02
     36  0.132132D-01  0.635695D-02 -0.126169D-01  0.239666D-01  0.578374D-02
     37  0.499990D-02  0.279684D-01 -0.189546D-01  0.136997D-01  0.190092D-01
     38  0.636646D-01  0.240089D-01 -0.285248D-01  0.569810D-01  0.829432D-02
     39 -0.245955D-01 -0.198354D-01 -0.222308D-01  0.423104D-02  0.348421D-02
     40  0.200406D-01  0.139947D-01 -0.152828D-01  0.190942D-01  0.106973D-01
     41  0.144573D-01 -0.465907D-02 -0.502748D-02  0.107939D-01 -0.279194D-02
     42 -0.188760D-01 -0.817478D-02 -0.259838D-03 -0.133087D-01 -0.364406D-02
     43 -0.374537D+01  0.174041D+00 -0.128058D+01  0.303842D+00  0.367317D-02
     44  0.169180D+00 -0.438385D+01 -0.307752D+00  0.414281D-02  0.254220D+00
     45 -0.125419D+01 -0.309642D+00 -0.221038D+01 -0.563852D-01  0.735579D-01
     46  0.308266D+00  0.156884D-01 -0.107656D+00 -0.396200D+01  0.132618D+00
     47  0.376054D-02  0.239049D+00  0.110912D+00  0.168599D+00 -0.485513D+01
     48 -0.276234D-01  0.111014D+00 -0.529699D+00 -0.154819D+01 -0.250660D+00
     49  0.856539D-01 -0.216167D-01  0.139573D+00  0.597635D-02  0.179776D-01
     50 -0.227948D-01 -0.469084D-01 -0.221295D-01  0.186091D-03  0.839199D-01
     51  0.154409D+00 -0.232802D-01  0.984783D-01 -0.277450D-01  0.904564D-02
               21            22            23            24            25 
     21  0.150126D+02
     22 -0.164039D+00  0.370853D+01
     23 -0.267155D-01  0.252254D-01  0.496874D+01
     24  0.523245D-01 -0.151994D+01  0.198360D+00  0.215856D+01
     25  0.736642D-02  0.383615D-01 -0.569790D-01  0.724252D-01  0.351034D+01
     26 -0.439962D-02 -0.658641D-01  0.151734D-01 -0.637255D-01  0.526646D+00
     27 -0.595959D-02  0.651056D-01 -0.492362D-01  0.242521D-01 -0.656347D+00
     28 -0.300871D-02 -0.719343D-03  0.731837D-01 -0.453243D-02  0.478325D-01
     29  0.541362D-02  0.665460D-01 -0.671994D-01  0.181233D-02 -0.221373D-01
     30 -0.137839D-01  0.680168D-03 -0.238058D-02  0.415584D-01 -0.137413D+00
     31 -0.408830D-02  0.479483D-01 -0.163851D-01  0.147152D-01  0.849117D-01
     32  0.338681D-03 -0.139658D-01 -0.846895D-02 -0.101257D-02 -0.561642D-01
     33 -0.668646D-02 -0.154459D-02  0.149809D-03 -0.153706D-01  0.107790D+00
     34  0.131349D-01  0.441113D-01  0.470614D-01  0.885601D-01 -0.107188D-01
     35  0.316377D-02  0.532678D-01 -0.647386D-02  0.605189D-01 -0.339277D-02
     36 -0.400539D-02  0.794885D-01  0.474984D-01  0.486180D-01 -0.182616D-02
     37  0.636348D-02  0.333123D-01 -0.390169D-01 -0.241583D-01  0.108641D-02
     38  0.832101D-02 -0.356212D-01 -0.870309D-01 -0.642492D-01 -0.255663D-05
     39 -0.253363D-01 -0.152616D-01 -0.546171D-01  0.166007D-01 -0.275295D-05
     40 -0.404925D-02  0.171312D-01  0.105414D-01  0.909074D-02 -0.587530D-02
     41 -0.159879D-02  0.140524D-01  0.173910D-03  0.453062D-02 -0.153041D-02
     42 -0.619901D-02 -0.603368D-02 -0.389327D-03 -0.109274D-01  0.137204D-02
     43 -0.334260D-01 -0.548826D-02  0.384850D-03 -0.223061D-02  0.105587D-02
     44  0.770252D-01 -0.109123D-02 -0.758547D-03 -0.977081D-03  0.405415D-03
     45 -0.445675D+00  0.754899D-02 -0.901798D-03  0.498599D-02 -0.367456D-02
     46 -0.122790D+01 -0.197014D-01  0.463514D-04 -0.735793D-02 -0.349851D-02
     47 -0.253023D+00  0.160220D-04 -0.137290D-01  0.146409D-02 -0.298568D-03
     48 -0.256065D+01  0.867538D-03  0.129071D-02 -0.202227D-01  0.322380D-02
     49 -0.173394D+00  0.910570D-03  0.391050D-03 -0.368764D-02  0.197206D-02
     50  0.112405D-01 -0.789269D-04 -0.183370D-02  0.859596D-03 -0.783905D-03
     51 -0.263935D-02 -0.893622D-03  0.732689D-03 -0.751775D-02  0.339304D-02
               26            27            28            29            30 
     26  0.316463D+01
     27  0.991067D+00  0.239992D+01
     28 -0.172619D-01 -0.105001D+00  0.376274D+01
     29  0.114368D+00 -0.505725D-01 -0.498829D+00  0.247383D+01
     30 -0.545346D-01 -0.158204D+00 -0.327722D+00 -0.120920D+01  0.300635D+01
     31 -0.678749D-01  0.108257D+00 -0.104503D+00 -0.207278D+00 -0.304021D-01
     32  0.294898D-01  0.120787D+00 -0.176463D+00 -0.242266D-01 -0.851152D-02
     33  0.147439D+00 -0.120572D+00 -0.313161D-01 -0.119243D-01  0.140371D+00
     34  0.691232D-02 -0.263931D-02  0.350584D-03  0.402310D-02  0.342802D-02
     35  0.292553D-01 -0.258709D-02  0.103617D-02  0.134235D-02  0.217348D-02
     36  0.122120D-01 -0.133591D-01  0.235143D-02  0.587243D-02  0.378626D-02
     37 -0.169734D-02  0.272615D-02 -0.328668D-03 -0.341741D-02 -0.224917D-02
     38 -0.165980D-02 -0.436272D-02  0.335964D-02 -0.621185D-03  0.298594D-02
     39 -0.566923D-03  0.476632D-03  0.287297D-03 -0.112208D-02 -0.289047D-03
     40  0.601429D-02 -0.506341D-02 -0.214023D-03  0.987684D-02  0.315789D-02
[...]
   zz         0.611223D+02      0.905739D+01      0.100777D+02

 ----------------------------------------------------------------------

 Test job not archived.
 1\1\GINC-C0147\Freq\RM062X\CC-pVTZ\C5H10O2\HARMS.N\29-Sep-2019\0\\#P G
 eom=AllCheck Guess=TCheck SCRF=Check Test GenChk RM062X/CC-pVTZ Freq\\
 Gaussian input prepared by ASE\\0,1\O,0.1233960008,-1.3428356387,2.427
 7958589\O,2.2700668936,0.0683390484,-0.1416907606\C,-0.9149187299,-0.3
 853644856,2.6237809758\C,-1.5257847121,-0.6974681946,3.974331249\C,-1.
 9398569855,-0.4712714848,1.503673436\C,1.0987502942,-1.0568225366,1.53
 48226328\C,1.2292176499,0.0173598618,0.7646971141\H,-0.4630239337,0.61
 16470247,2.6523411698\H,-1.9227485406,-1.7127193099,3.9712692484\H,-0.
 777391129,-0.6205470398,4.7607764743\H,-2.3393483263,-0.0060056712,4.1
 910467811\H,-2.4243634595,-1.447551102,1.5308679212\H,-1.4788647934,-0
 .3449169967,0.5261971691\H,-2.7024044275,0.2971648029,1.6302445303\H,1
 .8355863766,-1.8465362436,1.4732798008\H,0.5273497365,0.8405922712,0.7
 41695324\H,2.7207813677,0.9114687005,-0.0556166222\\Version=EM64L-G16R
 evA.03\State=1-A\HF=-346.9403526\RMSD=2.321e-09\RMSF=7.415e-07\ZeroPoi
 nt=0.1472441\Thermal=0.1557762\Dipole=-0.2965093,0.8256085,0.269009\Di
 poleDeriv=-1.2966213,-0.1394556,0.7268395,0.2218448,-0.4814166,0.01161
 56,0.5787987,0.2496982,-0.8606881,-0.8724268,-0.1875995,0.4724237,-0.0
 076095,-0.31987,0.1646479,0.4523571,0.3468735,-0.8244895,0.8148878,-0.
 0664061,-0.2094722,-0.3456327,0.2829423,0.2240266,-0.072641,0.0169738,
 0.4942321,0.0098452,-0.0120267,0.034022,-0.0023191,0.1019309,0.0269591
 ,0.0565761,0.0096888,-0.0667977,-0.0750365,-0.0100529,-0.0095642,0.021
 9135,0.0876893,-0.0538587,-0.0900628,0.0320469,-0.1166852,0.7006107,0.
 1810702,-0.6286013,0.0893635,0.2402526,-0.2227816,-0.6122119,-0.338615
 ,0.5079618,0.4777866,0.1625359,-0.5651923,-0.1770723,-0.0871316,-0.051
 6478,-0.4491408,-0.2965058,0.3118887,-0.0710541,-0.1021408,-0.0059349,
 -0.0098047,-0.1011502,-0.0356275,-0.0135715,0.0213051,-0.0077399,0.045
 3247,-0.0445525,0.0090248,-0.0776234,-0.0785892,0.0246958,-0.0060766,-
 0.0453054,0.0384894,-0.016039,-0.0118236,-0.104033,-0.0204946,0.065795
 9,0.0049387,-0.0577984,-0.0037344,-0.0568054,-0.0463247,0.0720701,0.05
 3902,0.0947888,-0.0109875,-0.0237531,0.0221493,0.0136102,0.0408738,0.0
 197999,-0.0346901,-0.0221576,-0.090811,-0.0728507,-0.0019539,0.0111382
 ,0.0332554,0.0562387,0.0605864,-0.0106609,0.0563485,-0.0144531,0.05752
 23,0.0187728,0.0415913,0.015431,-0.088591,-0.0501597,0.066296,0.012274
 ,0.1007466,-0.0247042,-0.0205359,0.0132921,-0.0442672,0.0736449,0.0011
 606,0.0626294,0.0721025,0.0725209,0.0504752,0.0165444,0.0724103,0.0186
 607,0.0953903,-0.0091523,0.0953773,0.0679252,0.1319644,0.0418415,-0.00
 37781,0.0789203,0.0660949,0.0684855,0.3068127,-0.0205702,0.0400932,0.0
 126779,0.2482501,-0.0782641,-0.0257303,-0.0952106,0.3345916\Polar=72.1
 421614,2.2303827,62.5215219,-11.7523222,-7.3183383,68.658119\Quadrupol
 e=1.293763,1.7257647,-3.0195277,2.0235343,-0.1215567,-1.3170922\PG=C01
  [X(C5H10O2)]\NImag=0\\0.42632566,-0.08249794,0.28439576,-0.20620072,-
 0.06543466,0.27130935,-0.00700705,-0.00110109,0.01069723,0.35568010,-0
 .00118001,-0.00210648,0.00917059,0.22028838,0.50252236,0.01882564,0.00
 695626,-0.00303808,-0.16417600,0.04069268,0.20837904,-0.13144805,0.052
 31430,0.01906811,0.00417577,0.00270077,-0.00537401,0.50357529,0.072852
 02,-0.15487692,-0.00158769,-0.00183066,-0.00312915,0.00600028,0.072019
 88,0.57850945,0.00746056,0.01068308,-0.07419348,-0.00066507,-0.0008587
 3,0.00102907,-0.01035222,-0.01257756,0.51626774,-0.02777446,0.00229121
 ,0.03398535,-0.00046557,-0.00036676,0.00065946,-0.09260472,-0.01483906
 ,0.03806817,0.57760034,0.02366316,0.00277116,-0.02941236,0.00017467,0.
 00089171,-0.00024442,-0.02230465,-0.08930553,0.03823578,-0.01433553,0.
 57980995,0.01137741,-0.00269926,-0.00851884,-0.00019921,0.00006839,0.0
 0015659,0.04503729,0.02676287,-0.18311022,0.03820465,0.01973696,0.5173
 2731,-0.03432008,0.01205316,-0.01698371,-0.00044568,-0.00043140,0.0007
 5072,-0.12658729,-0.01340736,-0.05606351,0.01216748,-0.00005276,0.0066
 2235,0.53346971,0.03326428,-0.00582467,0.01606256,0.00017854,0.0003037
 6,-0.00085527,-0.01988406,-0.08001937,-0.01538711,0.00331838,0.0014951
 1,0.00682513,-0.00840755,0.58209989,0.00450287,0.00237507,0.00557255,-
 0.00015951,-0.00006733,-0.00052492,-0.05781562,-0.00853432,-0.14972661
 ,-0.02184030,-0.00248545,-0.03219935,-0.05545835,-0.00496066,0.5398737
 8,-0.20276743,-0.00904064,0.12552543,-0.00504487,-0.03196465,0.0198140
 8,-0.03903480,0.00517607,0.02411418,-0.00079372,0.00055436,-0.00062997
 ,0.00095027,-0.00218356,-0.00185957,0.51759333,-0.03263483,-0.11000519
 ,0.06614814,-0.00323900,0.00479131,0.00034899,0.01755868,0.00687835,-0
 .01965016,0.00410054,-0.00454592,-0.00037104,0.00077652,-0.00074706,-0
 .00190798,-0.12912781,0.73694375,0.13664496,0.05139627,-0.16797353,0.0
 1123490,0.02449305,-0.01964946,0.01695409,-0.01273776,-0.01150344,0.00
 064858,0.00046569,0.00002544,-0.00418515,0.00466103,0.00384832,-0.2072
 8965,-0.28009279,0.45299691,0.00194832,-0.02455322,0.01895953,-0.19805
 381,-0.01511962,0.12321368,-0.00000532,-0.00551497,0.00136791,-0.00026
 312,0.00002828,0.00008118,-0.00029245,-0.00003316,-0.00119984,-0.10567
 503,-0.00657754,0.04116765,0.47601810,-0.01489193,0.00218014,0.0132627
 7,0.00898342,-0.09177948,-0.00397112,0.00040899,0.00203249,-0.00034989
 ,0.00024859,-0.00034615,-0.00026853,-0.00003703,0.00021938,0.00058065,
 0.00664908,-0.40510504,0.21002356,-0.11246302,0.72752087,0.00724343,0.
 02008521,-0.01579541,0.14213644,0.01963834,-0.15579553,-0.00052168,-0.
 00034372,-0.00151095,-0.00006304,0.00057289,0.00021380,-0.00056503,-0.
 00014297,-0.00048534,0.03899060,0.22514578,-0.21596906,-0.19263084,-0.
 28440882,0.43385065,0.00112215,0.03398455,0.00467640,-0.00064275,0.000
 27602,-0.00050475,-0.09874854,-0.10373773,-0.00322096,-0.00497157,-0.0
 1204183,0.00002108,-0.00964530,-0.02057217,-0.00087113,0.00472711,0.00
 315662,-0.00360490,0.00068092,-0.00294553,0.00183158,0.10919052,0.0078
 5165,-0.03381773,-0.00533413,-0.00003968,0.00079712,-0.00077085,-0.097
 12260,-0.24871823,-0.00646424,-0.00376284,-0.00411188,0.00117607,-0.00
 197553,-0.00008098,0.00012396,-0.00430373,-0.00015926,0.00433600,0.000
 32087,-0.00025319,0.00085437,0.10002625,0.28211362,0.00208013,-0.00663
 958,0.00025474,0.00011958,0.00035500,0.00028677,-0.00340774,-0.0036105
 3,-0.05141605,0.01361955,0.02829116,-0.00102338,-0.01260170,-0.0226951
 2,-0.00083761,-0.00169210,-0.00130020,0.00174582,0.00014041,0.00003568
 ,-0.00135142,0.00056660,0.00490978,0.05979138,0.00139008,-0.00002625,-
 0.00120755,0.00004692,0.00016186,-0.00007123,-0.00709681,-0.01456982,0
 .00109889,-0.08183178,-0.09031516,-0.00244383,0.00005312,0.00100369,-0
 .00091755,-0.00038250,0.00002707,0.00021125,0.00003510,0.00001298,0.00
 001857,-0.00031757,-0.00005205,0.00269752,0.08510699,0.00004672,0.0013
 6605,-0.00012505,-0.00012367,0.00002235,0.00005891,-0.00303657,-0.0092
 9131,0.00007281,-0.09127973,-0.28121132,-0.00270828,0.00026723,0.00048
 484,-0.00064471,0.00012837,0.00032032,-0.00012543,0.00029719,-0.000045
 91,-0.00007845,-0.00017883,0.00117788,0.00144238,0.10112355,0.30432360
 ,-0.00257574,-0.00043307,0.00212548,0.00005119,-0.00020208,0.00001422,
 0.01205234,0.03142130,-0.00170793,-0.00271570,-0.00520978,-0.04711367,
 0.00087585,0.00101765,0.00209161,0.00017462,0.00009191,-0.00020975,-0.
 00005314,0.00020426,-0.00019077,0.00243943,0.00064029,-0.00503325,0.00
 027953,0.00167052,0.05139126,0.00161252,-0.00059802,-0.00086612,0.0001
 0187,0.00004370,-0.00011336,0.00946719,0.00181610,0.01197008,-0.180205
 11,-0.01469199,-0.13805070,-0.00087254,-0.00008500,0.00212479,-0.00014
 989,-0.00019116,0.00023669,-0.00000157,0.00003660,0.00005508,0.0008080
 8,0.00032938,-0.00078155,-0.00785326,0.00021328,-0.00696781,0.19165625
 ,-0.00016288,-0.00014550,-0.00058004,-0.00004244,-0.00005326,0.0000233
 3,0.00651185,-0.00098090,0.00579408,-0.01526861,-0.04953393,-0.0148934
 1,-0.00108036,0.00001755,0.00131692,0.00016301,0.00004197,-0.00021676,
 0.00000599,-0.00007663,-0.00001721,0.00063325,0.00007631,-0.00017958,-
 0.02097589,-0.00080478,-0.02225308,0.01651052,0.04873711,-0.00092808,0
 .00033945,0.00308644,-0.00003875,-0.00010941,0.00013813,-0.02273649,-0
 .00275176,-0.02223614,-0.13450809,-0.01487479,-0.18664537,0.00439865,0
 .00136537,-0.00482407,0.00059895,0.00012657,-0.00019441,-0.00005043,0.
 00005660,0.00008647,0.00006900,0.00014872,0.00124347,0.00093893,-0.000
 15510,0.00007160,0.14785955,0.01434287,0.20436165,-0.00232051,-0.00093
 520,0.00401380,-0.00026400,-0.00019580,0.00025409,-0.00975163,0.008899
 05,-0.00123982,-0.19728219,0.12868269,0.04054133,0.00011790,0.00037978
 ,-0.00082764,0.00099495,0.00099047,-0.00041218,0.00003023,-0.00006109,
 -0.00005363,0.00000043,-0.00043974,-0.00024368,0.01037648,-0.00785235,
 -0.00310327,-0.01524798,0.01341219,0.00565757,0.21287935,-0.00102382,0
 .00099977,0.00177202,0.00004796,0.00000921,-0.00008742,-0.00588474,0.0
 0333988,0.00108416,0.12967279,-0.15735777,-0.03398170,0.00008230,-0.00
 004083,0.00007330,-0.00039348,0.00069208,0.00023640,0.00005996,0.00000
 269,-0.00004692,0.00011606,0.00016699,-0.00076613,0.02320666,-0.017018
 13,-0.00577498,-0.00332472,0.00160712,0.00144153,-0.14225545,0.1673215
 8,0.00574578,0.00121032,-0.00667094,0.00019318,0.00019471,-0.00028936,
 0.01799461,-0.02086340,-0.00163080,0.03817920,-0.03188708,-0.05877480,
 -0.00021814,-0.00031772,0.00099062,0.00002276,-0.00158125,0.00041953,-
 0.00002766,-0.00003428,0.00007691,-0.00024556,0.00048097,0.00099188,-0
 .00040268,0.00000451,-0.00130210,-0.01644762,0.01612157,0.00588845,-0.
 04474827,0.03609683,0.06109542,0.00269978,0.00011083,0.00075299,-0.000
 09444,0.00011440,-0.00007352,-0.01271452,-0.02260124,-0.00119525,0.000
 59555,0.00015803,0.00159279,-0.09782742,-0.10528638,0.00521541,-0.0008
 4241,-0.00013458,0.00091730,0.00005484,0.00006029,-0.00019738,-0.00235
 176,0.00025682,-0.00342753,0.00057752,0.00044292,-0.00048799,-0.000008
 20,0.00027235,0.00024440,0.00000774,0.00016471,-0.00007917,0.10474836,
 -0.00061635,0.00164080,0.00046351,-0.00012763,0.00005476,0.00007770,-0
 .00082794,-0.00397223,-0.00032993,0.00060844,0.00068321,0.00039932,-0.
 10640122,-0.26429953,0.00800416,0.00010616,0.00001347,-0.00034950,0.00
 022742,-0.00014760,-0.00005924,-0.00001751,0.00142416,-0.00020590,0.00
 013530,0.00024120,-0.00060405,0.00019052,0.00031727,0.00003569,-0.0001
 5159,-0.00006543,-0.00008310,0.11772533,0.28487425,0.00195288,0.000476
 09,0.00125556,0.00019211,-0.00001125,0.00000075,-0.01229822,-0.0252177
 9,-0.00167139,-0.00036380,-0.00139179,0.00162776,0.00531738,0.01028859
 ,-0.04709244,0.00052786,0.00031719,-0.00040427,0.00023671,-0.00003077,
 0.00018647,-0.00365668,0.00023166,-0.00349717,-0.00001663,0.00061645,-
 0.00038870,0.00021263,0.00026092,0.00023363,0.00010950,-0.00006539,-0.
 00003209,-0.00155926,-0.00857689,0.05079977,0.00146570,-0.00062013,0.0
 0246059,0.00007672,-0.00008531,-0.00030235,0.01255098,0.00333574,-0.02
 190432,-0.00356283,-0.00023004,-0.00292737,-0.09844014,-0.01426440,0.1
 0735905,-0.00050251,0.00044304,-0.00063954,-0.00209342,-0.00060213,0.0
 0042985,0.00070586,0.00004319,0.00096237,-0.00010728,0.00012159,-0.000
 02136,0.00058839,0.00034347,-0.00141795,0.00005245,-0.00025455,-0.0000
 3328,-0.00644673,-0.00047188,0.01137872,0.10635899,-0.00062004,-0.0001
 8796,0.00052583,0.00006861,-0.00021352,0.00010425,0.00264552,-0.001572
 32,-0.00214853,-0.00012761,0.00035240,0.00000782,-0.01487647,-0.051681
 85,0.02865769,0.00068678,-0.00003383,-0.00012634,-0.00049570,0.0001776
 8,-0.00017606,0.00042037,0.00004882,-0.00002287,0.00010082,0.00036928,
 -0.00040338,-0.00002987,0.00063145,-0.00002575,-0.00033099,0.00005535,
 0.00021668,-0.01240357,-0.00226185,0.02684526,0.01711435,0.05134429,0.
 00018329,0.00006929,0.00217166,0.00048903,-0.00009971,-0.00001694,0.01
 267706,0.00264956,-0.02155961,-0.00494483,-0.00087541,-0.00243326,0.10
 435428,0.02928306,-0.26628217,0.00072907,0.00052229,-0.00052646,0.0003
 7343,0.00034184,0.00059229,0.00004607,-0.00013857,0.00062993,-0.000011
 63,-0.00000883,0.00018530,0.00067891,0.00044678,-0.00134255,-0.0000179
 8,-0.00007518,0.00034051,-0.00041897,0.00013409,0.00037548,-0.11471195
 ,-0.03167114,0.28962116,-0.00599422,0.00055521,-0.00346830,-0.00030670
 ,-0.00016860,0.00040553,-0.01330822,0.01597550,0.00691391,0.00030465,0
 .00011634,0.00091019,-0.17771206,0.13264451,0.02139251,0.00169326,0.00
 072481,-0.00184304,0.00023153,-0.00035176,-0.00005617,0.00033775,-0.00
 074288,0.00049582,0.00002701,-0.00011183,-0.00005497,0.00005870,-0.000
 35146,0.00000278,0.00054838,-0.00011668,-0.00030231,0.01162578,-0.0104
 5033,-0.00194811,-0.00940330,0.00889300,0.00058937,0.19217178,-0.00030
 884,0.00194584,-0.00049131,0.00010458,0.00002202,-0.00016299,-0.002955
 39,0.00037772,0.00002072,0.00008641,-0.00022383,-0.00022505,0.13361860
 ,-0.18209397,-0.02302589,-0.00040942,-0.00009430,0.00025887,-0.0000830
 4,0.00004470,0.00004695,0.00029093,0.00028475,0.00056461,0.00013436,0.
 00004789,-0.00002718,-0.00020276,0.00013419,0.00015111,-0.00015561,0.0
 0035650,0.00030335,0.02096040,-0.01855050,-0.00348287,-0.00429093,0.00
 326796,-0.00000533,-0.14682220,0.19456174,-0.00719018,0.00139098,-0.00
 273653,-0.00010262,-0.00006175,0.00029819,-0.01297460,0.01793666,0.004
 59836,0.00054760,0.00015216,0.00056853,0.02307191,-0.02458316,-0.05093
 140,0.00103067,0.00080030,-0.00155451,0.00019346,-0.00020827,0.0003081
 2,0.00058588,-0.00050706,0.00099353,-0.00005463,0.00001555,-0.00007843
 ,0.00011671,-0.00021609,0.00024456,-0.00009551,0.00000717,-0.00083668,
 -0.00113154,0.00116693,-0.00122992,0.01934296,-0.02171524,-0.00174549,
 -0.02327976,0.02598321,0.05210941,-0.02477248,0.01718272,0.00868274,-0
 .00135172,-0.00166190,-0.00302335,0.00209871,-0.00306983,0.00268531,-0
 .00080022,0.00099248,-0.00006001,0.00014949,0.00009926,0.00023603,-0.1
 7420958,0.14451513,0.00949387,0.00614184,0.00068312,0.00240912,-0.0002
 6000,0.00037952,0.00008170,0.00000211,-0.00006440,-0.00003012,0.000040
 10,-0.00000153,-0.00000165,-0.00015286,-0.00012451,0.00038031,-0.00003
 016,-0.00002934,0.00001162,0.00005777,0.00000371,-0.00018132,-0.000032
 26,0.00000278,-0.00014853,0.19090402,-0.00676165,0.00972312,-0.0002988
 8,-0.00192065,0.00095991,-0.00378494,-0.00144386,0.00135443,0.00195211
 ,-0.00021300,0.00036701,0.00009390,0.00013495,-0.00005789,0.00009800,0
 .14821694,-0.21612116,-0.00153681,0.02107556,-0.01287749,-0.00156426,-
 0.00023257,0.00013701,0.00016914,-0.00000439,-0.00002486,-0.00002701,0
 .00000932,0.00000467,-0.00001322,-0.00004507,-0.00005159,0.00011346,-0
 .00000754,0.00000785,-0.00000749,-0.00001771,-0.00003111,-0.00010798,0
 .00003532,0.00000138,-0.00002744,-0.15926226,0.21810107,0.02311977,-0.
 01824464,-0.00469800,-0.00316083,-0.00262778,-0.00278388,0.00145747,0.
 00348149,-0.00046931,0.00066397,-0.00058256,0.00005248,0.00063744,-0.0
 0058297,-0.00004516,0.00757614,-0.00023215,-0.04592797,-0.00914636,0.0
 1485072,0.00707067,-0.00030509,-0.00003719,-0.00000160,0.00001569,0.00
 001768,0.00001802,-0.00003271,-0.00001186,-0.00004933,0.00013396,0.000
 05517,-0.00026105,-0.00003091,0.00000596,0.00005199,0.00016683,0.00009
 638,-0.00003510,0.00023631,0.00003720,0.00011244,-0.02484956,-0.000762
 28,0.04408503,-0.00038188,0.00053106,-0.00230589,-0.02150377,0.0156124
 6,0.00855806,-0.00102435,0.00003808,0.00112275,-0.00010826,-0.00060352
 ,-0.00010458,-0.00065210,-0.00022857,0.00016744,0.00612128,-0.00198009
 ,0.00096354,-0.16015524,0.14466248,-0.00212169,-0.00065091,-0.00097948
 ,0.00118893,-0.00006775,-0.00001237,0.00019440,0.00000805,0.00004055,-
 0.00004610,0.00003850,0.00003560,-0.00002981,-0.00002999,0.00005806,-0
 .00007773,-0.00119187,-0.00094938,0.00020619,-0.00021607,0.00004053,0.
 00009204,0.00258349,0.00065609,0.00411263,0.17662456,-0.00033921,0.001
 37222,-0.00237883,-0.00100883,0.00796873,-0.00085864,0.00013143,-0.001
 63438,-0.00037150,-0.00018337,0.00031493,0.00005238,-0.00038935,0.0004
 0315,0.00046660,0.01829831,-0.01265404,-0.00128165,0.13978429,-0.22301
 562,0.01999499,0.00082591,0.00103622,-0.00033154,0.00005531,0.00004072
 ,-0.00011512,-0.00000856,0.00001061,-0.00009479,0.00000613,-0.00000538
 ,0.00006147,0.00018749,0.00003756,-0.00025153,-0.00050034,-0.00031068,
 -0.00046289,0.00007442,-0.00005770,-0.00017331,0.00089150,-0.00120182,
 0.00515843,-0.15790402,0.22708470,0.00058504,-0.00208930,-0.00200807,0
 .02312564,-0.01648979,-0.00322596,-0.00027713,0.00047046,-0.00114009,-
 0.00011846,-0.00047225,-0.00013576,0.00017322,-0.00005799,0.00049959,-
 0.01396853,0.01179060,0.00727931,-0.00235853,0.02097336,-0.04541675,0.
 00209841,0.00028890,-0.00278168,-0.00012890,-0.00003306,0.00012461,-0.
 00000653,0.00005135,-0.00002307,0.00005409,0.00002364,-0.00002187,-0.0
 0012884,-0.00007162,-0.00018339,-0.00018195,-0.00011969,0.00004087,0.0
 0005475,0.00002988,-0.00009351,0.00405205,0.00526382,0.00251483,-0.012
 22876,-0.01868776,0.04397450,0.00022195,0.00034943,0.00221012,-0.12490
 101,-0.18802353,0.00115731,0.00045629,-0.00054178,-0.00016061,-0.00000
 447,0.00020547,0.00002740,-0.00011292,0.00005641,-0.00004860,-0.002677
 48,0.00159211,-0.00049836,-0.01860090,-0.03039307,0.00309482,0.0000155
 7,0.00021086,0.00020171,0.00004162,0.00001892,-0.00005725,-0.00000257,
 -0.00001002,-0.00004228,-0.00002723,-0.00000808,0.00001866,0.00003607,
 0.00004255,-0.00001898,-0.00010879,-0.00009955,-0.00004000,-0.00002601
 ,-0.00001039,-0.00000385,-0.00036826,-0.00021950,-0.00059474,0.0006063
 2,0.00007888,-0.00074556,0.14545184,0.00335966,0.00056959,-0.00176247,
 -0.22041250,-0.42106135,-0.04352676,-0.00083162,0.00100802,0.00029493,
 0.00005013,-0.00004916,0.00002443,0.00012625,-0.00017754,-0.00007002,-
 0.00255581,-0.00021547,0.00059616,0.00304071,0.00146916,0.00049912,-0.
 00000379,-0.00012161,-0.00001628,-0.00001805,0.00000217,0.00000381,-0.
 00001735,0.00001674,0.00001692,0.00005258,-0.00001205,-0.00003703,-0.0
 0002029,0.00000260,-0.00000040,-0.00006395,0.00004591,-0.00000185,0.00
 009664,-0.00002438,0.00003936,-0.00053647,-0.00029052,-0.00062159,0.00
 098252,0.00061078,-0.00087056,0.21675132,0.41822710,-0.00282701,0.0005
 5848,-0.00014289,-0.01973730,-0.07408494,-0.02497863,0.00051676,-0.000
 49808,-0.00001915,-0.00002231,-0.00001876,-0.00001726,-0.00012621,0.00
 007957,0.00007261,0.00633545,-0.00015620,-0.00240246,0.01973287,0.0289
 4225,-0.00587016,0.00007464,0.00006131,0.00000465,-0.00000574,-0.00001
 989,0.00000248,0.00001196,0.00001021,-0.00003946,-0.00002237,0.0000075
 2,0.00001638,0.00000749,-0.00000711,-0.00003203,0.00003970,-0.00004491
 ,-0.00001561,-0.00004850,0.00002471,-0.00002669,0.00026180,0.00043988,
 0.00036595,0.00030858,-0.00072629,0.00059645,-0.00449979,0.04543224,0.
 03248582\\-0.00000031,-0.00000054,-0.00000070,-0.00000071,0.00000105,-
 0.00000015,-0.00000002,0.00000003,0.00000002,0.00000066,-0.00000109,0.
 00000002,-0.00000043,0.00000042,0.00000047,-0.00000008,-0.00000003,-0.
 00000057,-0.00000035,0.00000074,-0.00000066,0.00000056,-0.00000060,0.0
 0000083,0.00000044,-0.00000130,-0.00000064,0.00000064,-0.00000202,-0.0
 0000018,0.00000079,-0.00000151,0.00000060,-0.00000007,0.00000091,-0.00
 000024,-0.00000024,0.00000126,0.00000043,0.00000017,0.00000043,0.00000
 105,-0.00000032,0.00000013,-0.00000162,-0.00000040,0.00000092,0.000000
 99,-0.00000033,0.00000121,0.00000036\\\@


 IT IS THE GODS' CUSTOM TO BRING LOW ALL THINGS OF SURPASSING GREATNESS.
     -- HERODOTUS
 IT IS THE LOFTY PINE THAT BY THE STORM IS OFTENER TOSSED;
 TOWERS FALL WITH HEAVIER CRASH WHICH HIGHER SOAR.
     -- HORACE
 THE BIGGER THEY COME, THE HARDER THEY FALL.
     -- BOB FITZSIMONS HEAVYWEIGHT CHAMPION, 1897-1899
 Job cpu time:       0 days  3 hours 36 minutes  3.8 seconds.
 Elapsed time:       0 days  1 hours 48 minutes  5.1 seconds.
 File lengths (MBytes):  RWF=   1392 Int=      0 D2E=      0 Chk=     32 Scr=     32
 Normal termination of Gaussian 16 at Sun Sep 29 10:20:30 2019.
