 Entering Gaussian System, Link 0=g16
 Input=tight/species/CC(C)OC=CO/conformers/CC(C)OC=CO_108.com
 Output=tight/species/CC(C)OC=CO/conformers/CC(C)OC=CO_108.log
 Initial command:
 /shared/centos7/gaussian/g16/l1.exe "/scratch/harms.n/gauss_scrdir/Gau-46791.inp" -scrdir="/scratch/harms.n/gauss_scrdir/"
 Entering Link 1 = /shared/centos7/gaussian/g16/l1.exe PID=     46792.
  
 Copyright (c) 1988,1990,1992,1993,1995,1998,2003,2009,2016,
            Gaussian, Inc.  All Rights Reserved.
  
 This is part of the Gaussian(R) 16 program.  It is based on
 the Gaussian(R) 09 system (copyright 2009, Gaussian, Inc.),
 the Gaussian(R) 03 system (copyright 2003, Gaussian, Inc.),
 the Gaussian(R) 98 system (copyright 1998, Gaussian, Inc.),
 the Gaussian(R) 94 system (copyright 1995, Gaussian, Inc.),
 the Gaussian 92(TM) system (copyright 1992, Gaussian, Inc.),
 the Gaussian 90(TM) system (copyright 1990, Gaussian, Inc.),
 the Gaussian 88(TM) system (copyright 1988, Gaussian, Inc.),
 the Gaussian 86(TM) system (copyright 1986, Carnegie Mellon
 University), and the Gaussian 82(TM) system (copyright 1983,
 Carnegie Mellon University). Gaussian is a federally registered
 trademark of Gaussian, Inc.
  
 This software contains proprietary and confidential information,
 including trade secrets, belonging to Gaussian, Inc.
  
 This software is provided under written license and may be
 used, copied, transmitted, or stored only in accord with that
 written license.
  
 The following legend is applicable only to US Government
 contracts under FAR:
  
                    RESTRICTED RIGHTS LEGEND
  
 Use, reproduction and disclosure by the US Government is
 subject to restrictions as set forth in subparagraphs (a)
 and (c) of the Commercial Computer Software - Restricted
 Rights clause in FAR 52.227-19.
  
 Gaussian, Inc.
 340 Quinnipiac St., Bldg. 40, Wallingford CT 06492
  
  
 ---------------------------------------------------------------
 Warning -- This program may not be used in any manner that
 competes with the business of Gaussian, Inc. or will provide
 assistance to any competitor of Gaussian, Inc.  The licensee
 of this program is prohibited from giving any competitor of
 Gaussian, Inc. access to this program.  By using this program,
 the user acknowledges that Gaussian, Inc. is engaged in the
 business of creating and licensing software in the field of
 computational chemistry and represents and warrants to the
 licensee that it is not a competitor of Gaussian, Inc. and that
 it will not use this program in any manner prohibited above.
 ---------------------------------------------------------------
  

 Cite this work as:
 Gaussian 16, Revision A.03,
 M. J. Frisch, G. W. Trucks, H. B. Schlegel, G. E. Scuseria, 
 M. A. Robb, J. R. Cheeseman, G. Scalmani, V. Barone, 
 G. A. Petersson, H. Nakatsuji, X. Li, M. Caricato, A. V. Marenich, 
 J. Bloino, B. G. Janesko, R. Gomperts, B. Mennucci, H. P. Hratchian, 
 J. V. Ortiz, A. F. Izmaylov, J. L. Sonnenberg, D. Williams-Young, 
 F. Ding, F. Lipparini, F. Egidi, J. Goings, B. Peng, A. Petrone, 
 T. Henderson, D. Ranasinghe, V. G. Zakrzewski, J. Gao, N. Rega, 
 G. Zheng, W. Liang, M. Hada, M. Ehara, K. Toyota, R. Fukuda, 
 J. Hasegawa, M. Ishida, T. Nakajima, Y. Honda, O. Kitao, H. Nakai, 
 T. Vreven, K. Throssell, J. A. Montgomery, Jr., J. E. Peralta, 
 F. Ogliaro, M. J. Bearpark, J. J. Heyd, E. N. Brothers, K. N. Kudin, 
 V. N. Staroverov, T. A. Keith, R. Kobayashi, J. Normand, 
 K. Raghavachari, A. P. Rendell, J. C. Burant, S. S. Iyengar, 
 J. Tomasi, M. Cossi, J. M. Millam, M. Klene, C. Adamo, R. Cammi, 
 J. W. Ochterski, R. L. Martin, K. Morokuma, O. Farkas, 
 J. B. Foresman, and D. J. Fox, Gaussian, Inc., Wallingford CT, 2016.
 
 ******************************************
 Gaussian 16:  EM64L-G16RevA.03 25-Dec-2016
                27-Sep-2019 
 ******************************************
 %nprocshared=20
 Will use up to   20 processors via shared memory.
 %mem=5GB
 ----------------------------------------------------------------------
 #p m062x/cc-pVTZ opt=(calcfc,maxcycles=900,Tight) freq IOP(7/33=1,2/16
 =3) scf=(maxcycle=900)
 ----------------------------------------------------------------------
 1/6=900,7=10,10=4,18=20,19=15,26=3,38=1/1,3;
 2/9=110,12=2,16=3,17=6,18=5,40=1/2;
 3/5=16,6=1,11=2,25=1,30=1,71=2,74=-55,140=1/1,2,3;
 4//1;
 5/5=2,7=900,38=5/2;
 8/6=4,10=90,11=11/1;
 11/6=1,8=1,9=11,15=111,16=1/1,2,10;
 10/6=1,13=1/2;
 6/7=2,8=2,9=2,10=2,28=1/1;
 7/10=1,18=20,25=1,33=1/1,2,3,16;
 1/6=900,7=10,10=4,18=20,19=15,26=3/3(2);
 2/9=110,16=3/2;
 99//99;
 2/9=110,16=3/2;
 3/5=16,6=1,11=2,25=1,30=1,71=1,74=-55/1,2,3;
 4/5=5,16=3,69=1/1;
 5/5=2,7=900,38=5/2;
 7/33=1/1,2,3,16;
 1/6=900,7=10,18=20,19=15,26=3/3(-5);
 2/9=110,16=3/2;
 6/7=2,8=2,9=2,10=2,19=2,28=1/1;
 99/9=1/99;
 Leave Link    1 at Fri Sep 27 01:56:15 2019, MaxMem=   671088640 cpu:               3.0 elap:               1.5
 (Enter /shared/centos7/gaussian/g16/l101.exe)
 ------------------------------
 Gaussian input prepared by ASE
 ------------------------------
 Symbolic Z-matrix:
 Charge =  0 Multiplicity = 1
 O                     4.23017   0.59994   2.04404 
 O                     1.73869  -0.09495   3.56195 
 C                     4.76755   0.14451   3.26784 
 C                     4.41681  -1.3046    3.60558 
 C                     4.51778   1.09741   4.39019 
 C                     3.06885   0.03748   1.56565 
 C                     1.97029  -0.24716   2.20299 
 H                     5.87856   0.17136   3.09096 
 H                     3.56879  -1.66211   2.98488 
 H                     5.27807  -1.97017   3.41392 
 H                     4.12901  -1.41643   4.686 
 H                     3.63281   0.82292   5.03685 
 H                     4.35427   2.12927   4.01524 
 H                     5.40777   1.12646   5.08058 
 H                     3.11112  -0.10001   0.47338 
 H                     1.11814  -0.67485   1.69571 
 H                     2.53949   0.37371   3.93727 
 
 ITRead=  0  0  0  0  0  0  0  0  0  0  0  0  0  0  0  0  0
 MicOpt= -1 -1 -1 -1 -1 -1 -1 -1 -1 -1 -1 -1 -1 -1 -1 -1 -1
 NAtoms=     17 NQM=       17 NQMF=       0 NMMI=      0 NMMIF=      0
                NMic=       0 NMicF=      0.
                    Isotopes and Nuclear Properties:
 (Nuclear quadrupole moments (NQMom) in fm**2, nuclear magnetic moments (NMagM)
  in nuclear magnetons)

  Atom         1           2           3           4           5           6           7           8           9          10
 IAtWgt=          16          16          12          12          12          12          12           1           1           1
 AtmWgt=  15.9949146  15.9949146  12.0000000  12.0000000  12.0000000  12.0000000  12.0000000   1.0078250   1.0078250   1.0078250
 NucSpn=           0           0           0           0           0           0           0           1           1           1
 AtZEff=  -0.0000000  -0.0000000  -0.0000000  -0.0000000  -0.0000000  -0.0000000  -0.0000000  -0.0000000  -0.0000000  -0.0000000
 NQMom=    0.0000000   0.0000000   0.0000000   0.0000000   0.0000000   0.0000000   0.0000000   0.0000000   0.0000000   0.0000000
 NMagM=    0.0000000   0.0000000   0.0000000   0.0000000   0.0000000   0.0000000   0.0000000   2.7928460   2.7928460   2.7928460
 AtZNuc=   8.0000000   8.0000000   6.0000000   6.0000000   6.0000000   6.0000000   6.0000000   1.0000000   1.0000000   1.0000000

  Atom        11          12          13          14          15          16          17
 IAtWgt=           1           1           1           1           1           1           1
 AtmWgt=   1.0078250   1.0078250   1.0078250   1.0078250   1.0078250   1.0078250   1.0078250
 NucSpn=           1           1           1           1           1           1           1
 AtZEff=  -0.0000000  -0.0000000  -0.0000000  -0.0000000  -0.0000000  -0.0000000  -0.0000000
 NQMom=    0.0000000   0.0000000   0.0000000   0.0000000   0.0000000   0.0000000   0.0000000
 NMagM=    2.7928460   2.7928460   2.7928460   2.7928460   2.7928460   2.7928460   2.7928460
 AtZNuc=   1.0000000   1.0000000   1.0000000   1.0000000   1.0000000   1.0000000   1.0000000
 Leave Link  101 at Fri Sep 27 01:56:17 2019, MaxMem=   671088640 cpu:               3.1 elap:               1.6
 (Enter /shared/centos7/gaussian/g16/l103.exe)

 GradGradGradGradGradGradGradGradGradGradGradGradGradGradGradGradGradGrad
 Berny optimization.
 Initialization pass.
                           ----------------------------
                           !    Initial Parameters    !
                           ! (Angstroms and Degrees)  !
 --------------------------                            --------------------------
 ! Name  Definition              Value          Derivative Info.                !
 --------------------------------------------------------------------------------
 ! R1    R(1,3)                  1.412          calculate D2E/DX2 analytically  !
 ! R2    R(1,6)                  1.3762         calculate D2E/DX2 analytically  !
 ! R3    R(2,7)                  1.3869         calculate D2E/DX2 analytically  !
 ! R4    R(2,17)                 1.0009         calculate D2E/DX2 analytically  !
 ! R5    R(3,4)                  1.5287         calculate D2E/DX2 analytically  !
 ! R6    R(3,5)                  1.4933         calculate D2E/DX2 analytically  !
 ! R7    R(3,8)                  1.1253         calculate D2E/DX2 analytically  !
 ! R8    R(4,9)                  1.1101         calculate D2E/DX2 analytically  !
 ! R9    R(4,10)                 1.1052         calculate D2E/DX2 analytically  !
 ! R10   R(4,11)                 1.1237         calculate D2E/DX2 analytically  !
 ! R11   R(5,12)                 1.1299         calculate D2E/DX2 analytically  !
 ! R12   R(5,13)                 1.11           calculate D2E/DX2 analytically  !
 ! R13   R(5,14)                 1.1267         calculate D2E/DX2 analytically  !
 ! R14   R(6,7)                  1.3016         calculate D2E/DX2 analytically  !
 ! R15   R(6,15)                 1.1017         calculate D2E/DX2 analytically  !
 ! R16   R(7,16)                 1.08           calculate D2E/DX2 analytically  !
 ! A1    A(3,1,6)              119.3803         calculate D2E/DX2 analytically  !
 ! A2    A(7,2,17)             106.5711         calculate D2E/DX2 analytically  !
 ! A3    A(1,3,4)              114.1982         calculate D2E/DX2 analytically  !
 ! A4    A(1,3,5)              112.4526         calculate D2E/DX2 analytically  !
 ! A5    A(1,3,8)              103.4028         calculate D2E/DX2 analytically  !
 ! A6    A(4,3,5)              113.6062         calculate D2E/DX2 analytically  !
 ! A7    A(4,3,8)              106.4908         calculate D2E/DX2 analytically  !
 ! A8    A(5,3,8)              105.5474         calculate D2E/DX2 analytically  !
 ! A9    A(3,4,9)              110.918          calculate D2E/DX2 analytically  !
 ! A10   A(3,4,10)             110.7162         calculate D2E/DX2 analytically  !
 ! A11   A(3,4,11)             111.4398         calculate D2E/DX2 analytically  !
 ! A12   A(9,4,10)             107.7225         calculate D2E/DX2 analytically  !
 ! A13   A(9,4,11)             108.0544         calculate D2E/DX2 analytically  !
 ! A14   A(10,4,11)            107.8426         calculate D2E/DX2 analytically  !
 ! A15   A(3,5,12)             113.9615         calculate D2E/DX2 analytically  !
 ! A16   A(3,5,13)             111.3429         calculate D2E/DX2 analytically  !
 ! A17   A(3,5,14)             110.1727         calculate D2E/DX2 analytically  !
 ! A18   A(12,5,13)            107.6844         calculate D2E/DX2 analytically  !
 ! A19   A(12,5,14)            105.9171         calculate D2E/DX2 analytically  !
 ! A20   A(13,5,14)            107.4193         calculate D2E/DX2 analytically  !
 ! A21   A(1,6,7)              129.1545         calculate D2E/DX2 analytically  !
 ! A22   A(1,6,15)             111.3016         calculate D2E/DX2 analytically  !
 ! A23   A(7,6,15)             119.3782         calculate D2E/DX2 analytically  !
 ! A24   A(2,7,6)              126.6369         calculate D2E/DX2 analytically  !
 ! A25   A(2,7,16)             111.8347         calculate D2E/DX2 analytically  !
 ! A26   A(6,7,16)             121.5045         calculate D2E/DX2 analytically  !
 ! D1    D(6,1,3,4)             27.4499         calculate D2E/DX2 analytically  !
 ! D2    D(6,1,3,5)           -103.9062         calculate D2E/DX2 analytically  !
 ! D3    D(6,1,3,8)            142.7273         calculate D2E/DX2 analytically  !
 ! D4    D(3,1,6,7)             44.3132         calculate D2E/DX2 analytically  !
 ! D5    D(3,1,6,15)          -140.4719         calculate D2E/DX2 analytically  !
 ! D6    D(17,2,7,6)             6.4272         calculate D2E/DX2 analytically  !
 ! D7    D(17,2,7,16)         -175.3412         calculate D2E/DX2 analytically  !
 ! D8    D(1,3,4,9)            -16.2887         calculate D2E/DX2 analytically  !
 ! D9    D(1,3,4,10)           103.247          calculate D2E/DX2 analytically  !
 ! D10   D(1,3,4,11)          -136.7231         calculate D2E/DX2 analytically  !
 ! D11   D(5,3,4,9)            114.5048         calculate D2E/DX2 analytically  !
 ! D12   D(5,3,4,10)          -125.9595         calculate D2E/DX2 analytically  !
 ! D13   D(5,3,4,11)            -5.9295         calculate D2E/DX2 analytically  !
 ! D14   D(8,3,4,9)           -129.7457         calculate D2E/DX2 analytically  !
 ! D15   D(8,3,4,10)           -10.21           calculate D2E/DX2 analytically  !
 ! D16   D(8,3,4,11)           109.8199         calculate D2E/DX2 analytically  !
 ! D17   D(1,3,5,12)            98.2503         calculate D2E/DX2 analytically  !
 ! D18   D(1,3,5,13)           -23.7927         calculate D2E/DX2 analytically  !
 ! D19   D(1,3,5,14)          -142.8684         calculate D2E/DX2 analytically  !
 ! D20   D(4,3,5,12)           -33.4024         calculate D2E/DX2 analytically  !
 ! D21   D(4,3,5,13)          -155.4454         calculate D2E/DX2 analytically  !
 ! D22   D(4,3,5,14)            85.479          calculate D2E/DX2 analytically  !
 ! D23   D(8,3,5,12)          -149.7065         calculate D2E/DX2 analytically  !
 ! D24   D(8,3,5,13)            88.2505         calculate D2E/DX2 analytically  !
 ! D25   D(8,3,5,14)           -30.8252         calculate D2E/DX2 analytically  !
 ! D26   D(1,6,7,2)             -3.0881         calculate D2E/DX2 analytically  !
 ! D27   D(1,6,7,16)           178.8373         calculate D2E/DX2 analytically  !
 ! D28   D(15,6,7,2)          -177.9712         calculate D2E/DX2 analytically  !
 ! D29   D(15,6,7,16)            3.9542         calculate D2E/DX2 analytically  !
 --------------------------------------------------------------------------------
 Trust Radius=3.00D-01 FncErr=1.00D-07 GrdErr=1.00D-06 EigMax=2.50D+02 EigMin=1.00D-04
 Number of steps in this run=    102 maximum allowed number of steps=    102.
 GradGradGradGradGradGradGradGradGradGradGradGradGradGradGradGradGradGrad

 Leave Link  103 at Fri Sep 27 01:56:18 2019, MaxMem=   671088640 cpu:               1.3 elap:               0.7
 (Enter /shared/centos7/gaussian/g16/l202.exe)
                          Input orientation:                          
 ---------------------------------------------------------------------
 Center     Atomic      Atomic             Coordinates (Angstroms)
 Number     Number       Type             X           Y           Z
 ---------------------------------------------------------------------
      1          8           0        4.230174    0.599937    2.044041
      2          8           0        1.738691   -0.094950    3.561951
      3          6           0        4.767550    0.144508    3.267842
      4          6           0        4.416810   -1.304604    3.605580
      5          6           0        4.517784    1.097405    4.390194
      6          6           0        3.068850    0.037476    1.565648
      7          6           0        1.970291   -0.247159    2.202988
      8          1           0        5.878557    0.171362    3.090956
      9          1           0        3.568792   -1.662112    2.984883
     10          1           0        5.278074   -1.970168    3.413917
     11          1           0        4.129010   -1.416432    4.685995
     12          1           0        3.632810    0.822925    5.036853
     13          1           0        4.354272    2.129273    4.015245
     14          1           0        5.407774    1.126457    5.080581
     15          1           0        3.111116   -0.100013    0.473381
     16          1           0        1.118135   -0.674849    1.695706
     17          1           0        2.539486    0.373715    3.937269
 ---------------------------------------------------------------------
                    Distance matrix (angstroms):
                    1          2          3          4          5
     1  O    0.000000
     2  O    2.999068   0.000000
     3  C    1.412047   3.052512   0.000000
     4  C    2.469922   2.938961   1.528729   0.000000
     5  C    2.415498   3.135451   1.493342   2.528925   0.000000
     6  C    1.376189   2.402517   2.407177   2.789175   3.346777
     7  C    2.418658   1.386935   3.018605   3.011795   3.616828
     8  H    1.999218   4.175075   1.125320   2.140098   2.096968
     9  H    2.537612   2.477554   2.186541   1.110050   3.238891
    10  H    3.095173   4.008190   2.180328   1.105209   3.307743
    11  H    3.325042   2.953543   2.203503   1.123668   2.560863
    12  H    3.059982   2.570120   2.208457   2.681339   1.129905
    13  H    2.497982   3.463222   2.160718   3.458793   1.109989
    14  H    3.299173   4.154545   2.158735   3.011262   1.126748
    15  H    2.051632   3.379770   3.257695   3.600909   4.330583
    16  H    3.381006   2.050425   4.057238   3.863349   4.686017
    17  H    2.548317   1.000891   2.337721   2.539905   2.154654
                    6          7          8          9         10
     6  C    0.000000
     7  C    1.301558   0.000000
     8  H    3.199835   4.029664   0.000000
     9  H    2.269971   2.273467   2.950914   0.000000
    10  H    3.511040   3.921292   2.247451   1.789026   0.000000
    11  H    3.601993   3.491789   2.850641   1.807757   1.801431
    12  H    3.603366   3.455408   3.042109   3.223366   3.625215
    13  H    3.468205   3.822966   2.647861   4.006647   4.245047
    14  H    4.360184   4.688673   2.256646   3.943339   3.519045
    15  H    1.101697   2.077179   3.818910   2.992869   4.103649
    16  H    2.080772   1.080011   5.032336   2.939793   4.683502
    17  H    2.453135   1.928004   3.450592   2.472064   3.642465
                   11         12         13         14         15
    11  H    0.000000
    12  H    2.320352   0.000000
    13  H    3.615615   1.808518   0.000000
    14  H    2.873538   1.801261   1.802900   0.000000
    15  H    4.529369   4.685003   4.365771   5.291991   0.000000
    16  H    4.307800   4.441866   4.869901   5.753528   2.407590
    17  H    2.508347   1.614383   2.526166   3.178186   3.542556
                   16         17
    16  H    0.000000
    17  H    2.853827   0.000000
 Stoichiometry    C5H10O2
 Framework group  C1[X(C5H10O2)]
 Deg. of freedom    45
 Full point group                 C1      NOp   1
 Largest Abelian subgroup         C1      NOp   1
 Largest concise Abelian subgroup C1      NOp   1
                         Standard orientation:                         
 ---------------------------------------------------------------------
 Center     Atomic      Atomic             Coordinates (Angstroms)
 Number     Number       Type             X           Y           Z
 ---------------------------------------------------------------------
      1          8           0        0.169407   -1.196913   -0.538587
      2          8           0       -1.294283    1.385898   -0.113021
      3          6           0        1.169323   -0.407142    0.069942
      4          6           0        0.811559    0.085779    1.472100
      5          6           0        1.672534    0.670913   -0.832635
      6          6           0       -1.147065   -1.011075   -0.183256
      7          6           0       -1.805063    0.099861   -0.019209
      8          1           0        2.028626   -1.123298    0.192686
      9          1           0       -0.277797   -0.013264    1.661063
     10          1           0        1.341518   -0.505009    2.241255
     11          1           0        1.092664    1.164638    1.612361
     12          1           0        1.202313    1.681426   -0.647051
     13          1           0        1.508522    0.413567   -1.899850
     14          1           0        2.780560    0.814182   -0.686641
     15          1           0       -1.682260   -1.971529   -0.113744
     16          1           0       -2.852015    0.101821    0.245952
     17          1           0       -0.350847    1.295573   -0.434816
 ---------------------------------------------------------------------
 Rotational constants (GHZ):           3.6059214           2.2472817           1.9771793
 Leave Link  202 at Fri Sep 27 01:56:20 2019, MaxMem=   671088640 cpu:               4.2 elap:               2.1
 (Enter /shared/centos7/gaussian/g16/l301.exe)
 Standard basis: CC-pVTZ (5D, 7F)
 Ernie: Thresh=  0.10000D-02 Tol=  0.10000D-05 Strict=F.
 Ernie:  21 primitive shells out of 262 were deleted.
 There are   395 symmetry adapted cartesian basis functions of A   symmetry.
 There are   350 symmetry adapted basis functions of A   symmetry.
   350 basis functions,   534 primitive gaussians,   395 cartesian basis functions
    28 alpha electrons       28 beta electrons
       nuclear repulsion energy       330.9628655342 Hartrees.
 IExCor= 4336 DFT=T Ex+Corr=M062X ExCW=0 ScaHFX=  0.540000
 ScaDFX=  1.000000  1.000000  1.000000  1.000000 ScalE2=  1.000000  1.000000
 IRadAn=      5 IRanWt=     -1 IRanGd=            0 ICorTp=0 IEmpDi=  4
 NAtoms=   17 NActive=   17 NUniq=   17 SFac= 1.00D+00 NAtFMM=   60 NAOKFM=F Big=F
 Integral buffers will be    131072 words long.
 Raffenetti 2 integral format.
 Two-electron integral symmetry is turned on.
 Leave Link  301 at Fri Sep 27 01:56:21 2019, MaxMem=   671088640 cpu:               3.5 elap:               1.7
 (Enter /shared/centos7/gaussian/g16/l302.exe)
 NPDir=0 NMtPBC=     1 NCelOv=     1 NCel=       1 NClECP=     1 NCelD=      1
         NCelK=      1 NCelE2=     1 NClLst=     1 CellRange=     0.0.
 One-electron integrals computed using PRISM.
 One-electron integral symmetry used in STVInt
 NBasis=   350 RedAO= T EigKep=  2.79D-04  NBF=   350
 NBsUse=   350 1.00D-06 EigRej= -1.00D+00 NBFU=   350
 Precomputing XC quadrature grid using
 IXCGrd= 4 IRadAn=           5 IRanWt=          -1 IRanGd=           0 AccXCQ= 0.00D+00.
 Generated NRdTot=       0 NPtTot=           0 NUsed=           0 NTot=          32
 NSgBfM=   395   395   395   395   395 MxSgAt=    17 MxSgA2=    17.
 Leave Link  302 at Fri Sep 27 01:57:33 2019, MaxMem=   671088640 cpu:             142.5 elap:              71.3
 (Enter /shared/centos7/gaussian/g16/l303.exe)
 DipDrv:  MaxL=1.
 Leave Link  303 at Fri Sep 27 01:57:38 2019, MaxMem=   671088640 cpu:              11.1 elap:               5.6
 (Enter /shared/centos7/gaussian/g16/l401.exe)
 ExpMin= 1.03D-01 ExpMax= 1.53D+04 ExpMxC= 5.22D+02 IAcc=3 IRadAn=         5 AccDes= 0.00D+00
 Harris functional with IExCor= 1009 and IRadAn=       5 diagonalized for initial guess.
 HarFok:  IExCor= 1009 AccDes= 0.00D+00 IRadAn=         5 IDoV= 1 UseB2=F ITyADJ=14
 ICtDFT=  3500011 ScaDFX=  1.000000  1.000000  1.000000  1.000000
 FoFCou: FMM=F IPFlag=           0 FMFlag=      100000 FMFlg1=           0
         NFxFlg=           0 DoJE=T BraDBF=F KetDBF=T FulRan=T
         wScrn=  0.000000 ICntrl=       500 IOpCl=  0 I1Cent=   200000004 NGrid=           0
         NMat0=    1 NMatS0=      1 NMatT0=    0 NMatD0=    1 NMtDS0=    0 NMtDT0=    0
 Petite list used in FoFCou.
 Harris En= -346.791586495110    
 JPrj=0 DoOrth=F DoCkMO=F.
 Leave Link  401 at Fri Sep 27 01:58:15 2019, MaxMem=   671088640 cpu:              73.5 elap:              36.9
 (Enter /shared/centos7/gaussian/g16/l502.exe)
 Integral symmetry usage will be decided dynamically.
 Closed shell SCF:
 Using DIIS extrapolation, IDIIS=  1040.
 NGot=   671088640 LenX=   670765141 LenY=   670608675
 Requested convergence on RMS density matrix=1.00D-08 within 900 cycles.
 Requested convergence on MAX density matrix=1.00D-06.
 Requested convergence on             energy=1.00D-06.
 No special actions if energy rises.
 Fock matrices will be formed incrementally for  20 cycles.
 Integral accuracy reduced to 1.0D-05 until final iterations.

 Cycle   1  Pass 0  IDiag  1:
 FoFJK:  IHMeth= 1 ICntrl=       0 DoSepK=F KAlg= 0 I1Cent=           0 FoldK=F
 IRaf= 980000000 NMat=       1 IRICut=       1 DoRegI=T DoRafI=F ISym2E= 0 IDoP0=0 IntGTp=1.
 FoFCou: FMM=F IPFlag=           0 FMFlag=      100000 FMFlg1=           0
         NFxFlg=           0 DoJE=F BraDBF=F KetDBF=F FulRan=T
         wScrn=  0.000000 ICntrl=         0 IOpCl=  0 I1Cent=           0 NGrid=           0
         NMat0=    1 NMatS0=      1 NMatT0=    0 NMatD0=    1 NMtDS0=    0 NMtDT0=    0
 Symmetry not used in FoFCou.
 E= -346.703810782690    
 DIIS: error= 2.04D-02 at cycle   1 NSaved=   1.
 NSaved= 1 IEnMin= 1 EnMin= -346.703810782690     IErMin= 1 ErrMin= 2.04D-02
 ErrMax= 2.04D-02  0.00D+00 EMaxC= 1.00D-01 BMatC= 2.73D-01 BMatP= 2.73D-01
 IDIUse=3 WtCom= 7.96D-01 WtEn= 2.04D-01
 Coeff-Com:  0.100D+01
 Coeff-En:   0.100D+01
 Coeff:      0.100D+01
 Gap=     0.360 Goal=   None    Shift=    0.000
 GapD=    0.360 DampG=1.000 DampE=0.500 DampFc=0.5000 IDamp=-1.
 Damping current iteration by 5.00D-01
 RMSDP=1.87D-03 MaxDP=9.27D-02              OVMax= 1.35D-01

 Cycle   2  Pass 0  IDiag  1:
 RMSU=  9.35D-04    CP:  1.00D+00
 E= -346.816404268961     Delta-E=       -0.112593486271 Rises=F Damp=T
 DIIS: error= 3.88D-03 at cycle   2 NSaved=   2.
 NSaved= 2 IEnMin= 2 EnMin= -346.816404268961     IErMin= 2 ErrMin= 3.88D-03
 ErrMax= 3.88D-03  0.00D+00 EMaxC= 1.00D-01 BMatC= 2.17D-02 BMatP= 2.73D-01
 IDIUse=3 WtCom= 9.61D-01 WtEn= 3.88D-02
 Coeff-Com: -0.159D+00 0.116D+01
 Coeff-En:   0.000D+00 0.100D+01
 Coeff:     -0.152D+00 0.115D+01
 Gap=     0.340 Goal=   None    Shift=    0.000
 RMSDP=4.38D-04 MaxDP=1.46D-02 DE=-1.13D-01 OVMax= 6.65D-02

 Cycle   3  Pass 0  IDiag  1:
 RMSU=  4.37D-04    CP:  1.00D+00  9.95D-01
 E= -346.915344953277     Delta-E=       -0.098940684316 Rises=F Damp=F
 DIIS: error= 1.91D-03 at cycle   3 NSaved=   3.
 NSaved= 3 IEnMin= 3 EnMin= -346.915344953277     IErMin= 3 ErrMin= 1.91D-03
 ErrMax= 1.91D-03  0.00D+00 EMaxC= 1.00D-01 BMatC= 3.34D-03 BMatP= 2.17D-02
 IDIUse=3 WtCom= 9.81D-01 WtEn= 1.91D-02
 Coeff-Com: -0.882D-01 0.317D+00 0.771D+00
 Coeff-En:   0.000D+00 0.000D+00 0.100D+01
 Coeff:     -0.866D-01 0.311D+00 0.775D+00
 Gap=     0.338 Goal=   None    Shift=    0.000
 RMSDP=1.44D-04 MaxDP=5.27D-03 DE=-9.89D-02 OVMax= 1.32D-02

 Cycle   4  Pass 0  IDiag  1:
 RMSU=  1.10D-04    CP:  1.00D+00  1.08D+00  8.79D-01
 E= -346.917319308003     Delta-E=       -0.001974354726 Rises=F Damp=F
 DIIS: error= 9.91D-04 at cycle   4 NSaved=   4.
 NSaved= 4 IEnMin= 4 EnMin= -346.917319308003     IErMin= 4 ErrMin= 9.91D-04
 ErrMax= 9.91D-04  0.00D+00 EMaxC= 1.00D-01 BMatC= 7.87D-04 BMatP= 3.34D-03
 IDIUse=3 WtCom= 9.90D-01 WtEn= 9.91D-03
 Coeff-Com: -0.277D-01 0.733D-01 0.371D+00 0.583D+00
 Coeff-En:   0.000D+00 0.000D+00 0.120D+00 0.880D+00
 Coeff:     -0.274D-01 0.726D-01 0.369D+00 0.586D+00
 Gap=     0.335 Goal=   None    Shift=    0.000
 RMSDP=5.17D-05 MaxDP=2.09D-03 DE=-1.97D-03 OVMax= 6.49D-03

 Cycle   5  Pass 0  IDiag  1:
 RMSU=  2.82D-05    CP:  1.00D+00  1.07D+00  9.21D-01  6.47D-01
 E= -346.917884633067     Delta-E=       -0.000565325064 Rises=F Damp=F
 DIIS: error= 2.61D-04 at cycle   5 NSaved=   5.
 NSaved= 5 IEnMin= 5 EnMin= -346.917884633067     IErMin= 5 ErrMin= 2.61D-04
 ErrMax= 2.61D-04  0.00D+00 EMaxC= 1.00D-01 BMatC= 4.48D-05 BMatP= 7.87D-04
 IDIUse=3 WtCom= 9.97D-01 WtEn= 2.61D-03
 Coeff-Com: -0.665D-02 0.132D-01 0.119D+00 0.271D+00 0.604D+00
 Coeff-En:   0.000D+00 0.000D+00 0.000D+00 0.000D+00 0.100D+01
 Coeff:     -0.663D-02 0.132D-01 0.118D+00 0.270D+00 0.605D+00
 Gap=     0.335 Goal=   None    Shift=    0.000
 RMSDP=1.37D-05 MaxDP=4.46D-04 DE=-5.65D-04 OVMax= 1.72D-03

 Cycle   6  Pass 0  IDiag  1:
 RMSU=  8.56D-06    CP:  1.00D+00  1.07D+00  9.29D-01  6.82D-01  6.95D-01
 E= -346.917917348723     Delta-E=       -0.000032715655 Rises=F Damp=F
 DIIS: error= 5.11D-05 at cycle   6 NSaved=   6.
 NSaved= 6 IEnMin= 6 EnMin= -346.917917348723     IErMin= 6 ErrMin= 5.11D-05
 ErrMax= 5.11D-05  0.00D+00 EMaxC= 1.00D-01 BMatC= 1.73D-06 BMatP= 4.48D-05
 IDIUse=1 WtCom= 1.00D+00 WtEn= 0.00D+00
 Coeff-Com: -0.384D-03-0.343D-03 0.187D-01 0.645D-01 0.208D+00 0.710D+00
 Coeff:     -0.384D-03-0.343D-03 0.187D-01 0.645D-01 0.208D+00 0.710D+00
 Gap=     0.335 Goal=   None    Shift=    0.000
 RMSDP=3.56D-06 MaxDP=1.30D-04 DE=-3.27D-05 OVMax= 5.52D-04

 Initial convergence to 1.0D-05 achieved.  Increase integral accuracy.
 Cycle   7  Pass 1  IDiag  1:
 E= -346.917913010949     Delta-E=        0.000004337773 Rises=F Damp=F
 DIIS: error= 5.82D-05 at cycle   1 NSaved=   1.
 NSaved= 1 IEnMin= 1 EnMin= -346.917913010949     IErMin= 1 ErrMin= 5.82D-05
 ErrMax= 5.82D-05  0.00D+00 EMaxC= 1.00D-01 BMatC= 7.84D-07 BMatP= 7.84D-07
 IDIUse=1 WtCom= 1.00D+00 WtEn= 0.00D+00
 Coeff-Com:  0.100D+01
 Coeff:      0.100D+01
 Gap=     0.335 Goal=   None    Shift=    0.000
 RMSDP=3.56D-06 MaxDP=1.30D-04 DE= 4.34D-06 OVMax= 4.06D-04

 Cycle   8  Pass 1  IDiag  1:
 RMSU=  7.73D-06    CP:  1.00D+00
 E= -346.917913081462     Delta-E=       -0.000000070513 Rises=F Damp=F
 DIIS: error= 2.36D-05 at cycle   2 NSaved=   2.
 NSaved= 2 IEnMin= 2 EnMin= -346.917913081462     IErMin= 2 ErrMin= 2.36D-05
 ErrMax= 2.36D-05  0.00D+00 EMaxC= 1.00D-01 BMatC= 4.76D-07 BMatP= 7.84D-07
 IDIUse=1 WtCom= 1.00D+00 WtEn= 0.00D+00
 Coeff-Com:  0.420D+00 0.580D+00
 Coeff:      0.420D+00 0.580D+00
 Gap=     0.335 Goal=   None    Shift=    0.000
 RMSDP=2.00D-06 MaxDP=8.64D-05 DE=-7.05D-08 OVMax= 3.56D-04

 Cycle   9  Pass 1  IDiag  1:
 RMSU=  1.95D-06    CP:  1.00D+00  9.44D-01
 E= -346.917913436583     Delta-E=       -0.000000355121 Rises=F Damp=F
 DIIS: error= 9.43D-06 at cycle   3 NSaved=   3.
 NSaved= 3 IEnMin= 3 EnMin= -346.917913436583     IErMin= 3 ErrMin= 9.43D-06
 ErrMax= 9.43D-06  0.00D+00 EMaxC= 1.00D-01 BMatC= 7.73D-08 BMatP= 4.76D-07
 IDIUse=1 WtCom= 1.00D+00 WtEn= 0.00D+00
 Coeff-Com:  0.502D-03 0.282D+00 0.717D+00
 Coeff:      0.502D-03 0.282D+00 0.717D+00
 Gap=     0.335 Goal=   None    Shift=    0.000
 RMSDP=6.24D-07 MaxDP=2.28D-05 DE=-3.55D-07 OVMax= 9.73D-05

 Cycle  10  Pass 1  IDiag  1:
 RMSU=  2.73D-07    CP:  1.00D+00  9.80D-01  7.50D-01
 E= -346.917913498198     Delta-E=       -0.000000061615 Rises=F Damp=F
 DIIS: error= 2.31D-06 at cycle   4 NSaved=   4.
 NSaved= 4 IEnMin= 4 EnMin= -346.917913498198     IErMin= 4 ErrMin= 2.31D-06
 ErrMax= 2.31D-06  0.00D+00 EMaxC= 1.00D-01 BMatC= 3.46D-09 BMatP= 7.73D-08
 IDIUse=1 WtCom= 1.00D+00 WtEn= 0.00D+00
 Coeff-Com: -0.132D-01 0.119D+00 0.341D+00 0.553D+00
 Coeff:     -0.132D-01 0.119D+00 0.341D+00 0.553D+00
 Gap=     0.335 Goal=   None    Shift=    0.000
 RMSDP=1.02D-07 MaxDP=5.91D-06 DE=-6.16D-08 OVMax= 9.50D-06

 Cycle  11  Pass 1  IDiag  1:
 RMSU=  9.47D-08    CP:  1.00D+00  9.82D-01  7.58D-01  8.99D-01
 E= -346.917913501009     Delta-E=       -0.000000002811 Rises=F Damp=F
 DIIS: error= 3.02D-07 at cycle   5 NSaved=   5.
 NSaved= 5 IEnMin= 5 EnMin= -346.917913501009     IErMin= 5 ErrMin= 3.02D-07
 ErrMax= 3.02D-07  0.00D+00 EMaxC= 1.00D-01 BMatC= 7.50D-11 BMatP= 3.46D-09
 IDIUse=1 WtCom= 1.00D+00 WtEn= 0.00D+00
 Coeff-Com: -0.132D-02-0.132D-01-0.326D-01 0.550D-01 0.992D+00
 Coeff:     -0.132D-02-0.132D-01-0.326D-01 0.550D-01 0.992D+00
 Gap=     0.335 Goal=   None    Shift=    0.000
 RMSDP=3.71D-08 MaxDP=1.25D-06 DE=-2.81D-09 OVMax= 3.84D-06

 Cycle  12  Pass 1  IDiag  1:
 RMSU=  2.53D-08    CP:  1.00D+00  9.83D-01  7.62D-01  9.85D-01  1.11D+00
 E= -346.917913501100     Delta-E=       -0.000000000090 Rises=F Damp=F
 DIIS: error= 1.52D-07 at cycle   6 NSaved=   6.
 NSaved= 6 IEnMin= 6 EnMin= -346.917913501100     IErMin= 6 ErrMin= 1.52D-07
 ErrMax= 1.52D-07  0.00D+00 EMaxC= 1.00D-01 BMatC= 1.92D-11 BMatP= 7.50D-11
 IDIUse=1 WtCom= 1.00D+00 WtEn= 0.00D+00
 Coeff-Com:  0.735D-03-0.162D-01-0.457D-01-0.290D-01 0.419D+00 0.671D+00
 Coeff:      0.735D-03-0.162D-01-0.457D-01-0.290D-01 0.419D+00 0.671D+00
 Gap=     0.335 Goal=   None    Shift=    0.000
 RMSDP=1.26D-08 MaxDP=4.25D-07 DE=-9.03D-11 OVMax= 1.08D-06

 Cycle  13  Pass 1  IDiag  1:
 RMSU=  1.04D-08    CP:  1.00D+00  9.83D-01  7.61D-01  1.00D+00  1.16D+00
                    CP:  9.50D-01
 E= -346.917913501135     Delta-E=       -0.000000000036 Rises=F Damp=F
 DIIS: error= 3.96D-08 at cycle   7 NSaved=   7.
 NSaved= 7 IEnMin= 7 EnMin= -346.917913501135     IErMin= 7 ErrMin= 3.96D-08
 ErrMax= 3.96D-08  0.00D+00 EMaxC= 1.00D-01 BMatC= 1.36D-12 BMatP= 1.92D-11
 IDIUse=1 WtCom= 1.00D+00 WtEn= 0.00D+00
 Coeff-Com:  0.399D-03-0.528D-02-0.158D-01-0.170D-01 0.824D-01 0.250D+00
 Coeff-Com:  0.705D+00
 Coeff:      0.399D-03-0.528D-02-0.158D-01-0.170D-01 0.824D-01 0.250D+00
 Coeff:      0.705D+00
 Gap=     0.335 Goal=   None    Shift=    0.000
 RMSDP=3.00D-09 MaxDP=1.12D-07 DE=-3.58D-11 OVMax= 2.71D-07

 SCF Done:  E(RM062X) =  -346.917913501     A.U. after   13 cycles
            NFock= 13  Conv=0.30D-08     -V/T= 2.0061
 KE= 3.448249642393D+02 PE=-1.471666467906D+03 EE= 4.489607246316D+02
 Leave Link  502 at Fri Sep 27 02:10:21 2019, MaxMem=   671088640 cpu:            1450.5 elap:             725.4
 (Enter /shared/centos7/gaussian/g16/l801.exe)
 DoSCS=F DFT=T ScalE2(SS,OS)=  1.000000  1.000000
 Range of M.O.s used for correlation:     1   350
 NBasis=   350 NAE=    28 NBE=    28 NFC=     0 NFV=     0
 NROrb=    350 NOA=    28 NOB=    28 NVA=   322 NVB=   322

 **** Warning!!: The largest alpha MO coefficient is  0.12030912D+02

 Leave Link  801 at Fri Sep 27 02:10:22 2019, MaxMem=   671088640 cpu:               2.2 elap:               1.1
 (Enter /shared/centos7/gaussian/g16/l1101.exe)
 Using compressed storage, NAtomX=    17.
 Will process     18 centers per pass.
 Leave Link 1101 at Fri Sep 27 02:10:50 2019, MaxMem=   671088640 cpu:              56.4 elap:              28.2
 (Enter /shared/centos7/gaussian/g16/l1102.exe)
 Symmetrizing basis deriv contribution to polar:
 IMax=3 JMax=2 DiffMx= 0.00D+00
 Leave Link 1102 at Fri Sep 27 02:10:52 2019, MaxMem=   671088640 cpu:               4.2 elap:               2.1
 (Enter /shared/centos7/gaussian/g16/l1110.exe)
 Forming Gx(P) for the SCF density, NAtomX=    17.
 Integral derivatives from FoFJK, PRISM(SPDF).
 Do as many integral derivatives as possible in FoFJK.
 G2DrvN: MDV=     671087280.
 G2DrvN: will do    18 centers at a time, making    1 passes.
 Calling FoFCou, ICntrl=  3107 FMM=F I1Cent=   0 AccDes= 0.00D+00.
 FoFJK:  IHMeth= 1 ICntrl=    3107 DoSepK=F KAlg= 0 I1Cent=           0 FoldK=F
 IRaf=         0 NMat=       1 IRICut=       1 DoRegI=T DoRafI=F ISym2E= 0 IDoP0=0 IntGTp=1.
 FoFCou: FMM=F IPFlag=           0 FMFlag=      100000 FMFlg1=           0
         NFxFlg=           0 DoJE=F BraDBF=F KetDBF=F FulRan=T
         wScrn=  0.000000 ICntrl=      3107 IOpCl=  0 I1Cent=           0 NGrid=           0
         NMat0=    1 NMatS0=      1 NMatT0=    0 NMatD0=    1 NMtDS0=    0 NMtDT0=    0
 Symmetry not used in FoFCou.
 End of G2Drv F.D. properties file   721 does not exist.
 End of G2Drv F.D. properties file   722 does not exist.
 End of G2Drv F.D. properties file   788 does not exist.
 Leave Link 1110 at Fri Sep 27 02:32:24 2019, MaxMem=   671088640 cpu:            2583.6 elap:            1291.9
 (Enter /shared/centos7/gaussian/g16/l1002.exe)
 Minotr:  Closed shell wavefunction.
          IDoAtm=11111111111111111
          Direct CPHF calculation.
          Differentiating once with respect to nuclear coordinates.
          Requested convergence is 1.0D-08 RMS, and 1.0D-07 maximum.
          Secondary convergence is 1.0D-12 RMS, and 1.0D-12 maximum.
          NewPWx=T KeepS1=F KeepF1=F KeepIn=T MapXYZ=F SortEE=F KeepMc=T.
         5074 words used for storage of precomputed grid.
 Two-electron integrals replicated using symmetry.
          MDV=     671088640 using IRadAn=       1.
          Solving linear equations simultaneously, MaxMat=     380.
 FoF2E skips out because all densities are zero.
 CalDSu exits because no D1Ps are significant.
 FoFJK:  IHMeth= 1 ICntrl=       0 DoSepK=F KAlg= 0 I1Cent=           0 FoldK=F
 IRaf= 970000000 NMat=      51 IRICut=     127 DoRegI=T DoRafI=T ISym2E= 2 IDoP0=3 IntGTp=3.
 FoFCou: FMM=F IPFlag=           0 FMFlag=      100000 FMFlg1=           0
         NFxFlg=           0 DoJE=F BraDBF=F KetDBF=F FulRan=T
         wScrn=  0.000000 ICntrl=         0 IOpCl=  0 I1Cent=           0 NGrid=           0
         NMat0=   51 NMatS0=     51 NMatT0=    0 NMatD0=   51 NMtDS0=    0 NMtDT0=    0
 Integrals replicated using symmetry in FoFCou.
 Raff kept on since  95.14% of shell-pairs survive, threshold=   0.20 IRatSp=95.
          There are    54 degrees of freedom in the 1st order CPHF.  IDoFFX=6 NUNeed=     0.
     48 vectors produced by pass  0 Test12= 1.67D-14 1.85D-09 XBig12= 8.07D-02 5.95D-02.
 AX will form    48 AO Fock derivatives at one time.
     48 vectors produced by pass  1 Test12= 1.67D-14 1.85D-09 XBig12= 6.50D-03 3.16D-02.
     48 vectors produced by pass  2 Test12= 1.67D-14 1.85D-09 XBig12= 1.93D-04 2.54D-03.
     48 vectors produced by pass  3 Test12= 1.67D-14 1.85D-09 XBig12= 2.11D-06 1.83D-04.
     48 vectors produced by pass  4 Test12= 1.67D-14 1.85D-09 XBig12= 1.31D-08 1.38D-05.
     48 vectors produced by pass  5 Test12= 1.67D-14 1.85D-09 XBig12= 7.46D-11 8.36D-07.
     28 vectors produced by pass  6 Test12= 1.67D-14 1.85D-09 XBig12= 3.04D-13 6.73D-08.
      6 vectors produced by pass  7 Test12= 1.67D-14 1.85D-09 XBig12= 1.20D-15 3.52D-09.
 InvSVY:  IOpt=1 It=  1 EMax= 4.16D-16
 Solved reduced A of dimension   322 with    54 vectors.
 End of Minotr F.D. properties file   721 does not exist.
 End of Minotr F.D. properties file   722 does not exist.
 End of Minotr F.D. properties file   788 does not exist.
 Leave Link 1002 at Fri Sep 27 03:09:32 2019, MaxMem=   671088640 cpu:            4456.7 elap:            2228.5
 (Enter /shared/centos7/gaussian/g16/l601.exe)
 Copying SCF densities to generalized density rwf, IOpCl= 0 IROHF=0.

 **********************************************************************

            Population analysis using the SCF density.

 **********************************************************************

 Orbital symmetries:
       Occupied  (A) (A) (A) (A) (A) (A) (A) (A) (A) (A) (A) (A)
                 (A) (A) (A) (A) (A) (A) (A) (A) (A) (A) (A) (A)
                 (A) (A) (A) (A)
       Virtual   (A) (A) (A) (A) (A) (A) (A) (A) (A) (A) (A) (A)
                 (A) (A) (A) (A) (A) (A) (A) (A) (A) (A) (A) (A)
                 (A) (A) (A) (A) (A) (A) (A) (A) (A) (A) (A) (A)
                 (A) (A) (A) (A) (A) (A) (A) (A) (A) (A) (A) (A)
                 (A) (A) (A) (A) (A) (A) (A) (A) (A) (A) (A) (A)
                 (A) (A) (A) (A) (A) (A) (A) (A) (A) (A) (A) (A)
                 (A) (A) (A) (A) (A) (A) (A) (A) (A) (A) (A) (A)
                 (A) (A) (A) (A) (A) (A) (A) (A) (A) (A) (A) (A)
                 (A) (A) (A) (A) (A) (A) (A) (A) (A) (A) (A) (A)
                 (A) (A) (A) (A) (A) (A) (A) (A) (A) (A) (A) (A)
                 (A) (A) (A) (A) (A) (A) (A) (A) (A) (A) (A) (A)
                 (A) (A) (A) (A) (A) (A) (A) (A) (A) (A) (A) (A)
                 (A) (A) (A) (A) (A) (A) (A) (A) (A) (A) (A) (A)
                 (A) (A) (A) (A) (A) (A) (A) (A) (A) (A) (A) (A)
                 (A) (A) (A) (A) (A) (A) (A) (A) (A) (A) (A) (A)
                 (A) (A) (A) (A) (A) (A) (A) (A) (A) (A) (A) (A)
                 (A) (A) (A) (A) (A) (A) (A) (A) (A) (A) (A) (A)
                 (A) (A) (A) (A) (A) (A) (A) (A) (A) (A) (A) (A)
                 (A) (A) (A) (A) (A) (A) (A) (A) (A) (A) (A) (A)
                 (A) (A) (A) (A) (A) (A) (A) (A) (A) (A) (A) (A)
                 (A) (A) (A) (A) (A) (A) (A) (A) (A) (A) (A) (A)
                 (A) (A) (A) (A) (A) (A) (A) (A) (A) (A) (A) (A)
                 (A) (A) (A) (A) (A) (A) (A) (A) (A) (A) (A) (A)
                 (A) (A) (A) (A) (A) (A) (A) (A) (A) (A) (A) (A)
                 (A) (A) (A) (A) (A) (A) (A) (A) (A) (A) (A) (A)
                 (A) (A) (A) (A) (A) (A) (A) (A) (A) (A) (A) (A)
                 (A) (A) (A) (A) (A) (A) (A) (A) (A) (A)
 The electronic state is 1-A.
 Alpha  occ. eigenvalues --  -19.64739 -19.64702 -10.60502 -10.58339 -10.57896
 Alpha  occ. eigenvalues --  -10.55068 -10.53514  -1.18989  -1.15803  -0.90411
 Alpha  occ. eigenvalues --   -0.84411  -0.79150  -0.72642  -0.64828  -0.61251
 Alpha  occ. eigenvalues --   -0.57462  -0.54040  -0.53679  -0.50530  -0.48474
 Alpha  occ. eigenvalues --   -0.47718  -0.45715  -0.44221  -0.42935  -0.41531
 Alpha  occ. eigenvalues --   -0.39750  -0.36556  -0.27824
 Alpha virt. eigenvalues --    0.05696   0.08255   0.08794   0.09027   0.10926
 Alpha virt. eigenvalues --    0.11713   0.13248   0.14022   0.14537   0.15196
 Alpha virt. eigenvalues --    0.16902   0.19053   0.20574   0.22764   0.26114
 Alpha virt. eigenvalues --    0.28393   0.29761   0.31742   0.32314   0.33873
 Alpha virt. eigenvalues --    0.34325   0.35204   0.36629   0.37654   0.39188
 Alpha virt. eigenvalues --    0.41062   0.42434   0.43115   0.44324   0.45190
 Alpha virt. eigenvalues --    0.47022   0.47325   0.48088   0.49483   0.49941
 Alpha virt. eigenvalues --    0.50468   0.51195   0.52437   0.54067   0.54113
 Alpha virt. eigenvalues --    0.55938   0.56848   0.59603   0.59892   0.62761
 Alpha virt. eigenvalues --    0.65371   0.66757   0.69130   0.70829   0.72830
 Alpha virt. eigenvalues --    0.77549   0.80046   0.81896   0.82788   0.83559
 Alpha virt. eigenvalues --    0.85643   0.88046   0.90043   0.92122   0.92545
 Alpha virt. eigenvalues --    0.95290   0.96647   0.97637   0.98297   1.01601
 Alpha virt. eigenvalues --    1.02292   1.03183   1.04826   1.06608   1.08381
 Alpha virt. eigenvalues --    1.08852   1.09374   1.10973   1.12456   1.13203
 Alpha virt. eigenvalues --    1.16399   1.17584   1.18137   1.19418   1.21969
 Alpha virt. eigenvalues --    1.22071   1.25387   1.26105   1.27798   1.28644
 Alpha virt. eigenvalues --    1.30062   1.31312   1.33897   1.35087   1.35603
 Alpha virt. eigenvalues --    1.36604   1.38306   1.39864   1.41069   1.41308
 Alpha virt. eigenvalues --    1.45239   1.46209   1.50052   1.51359   1.51981
 Alpha virt. eigenvalues --    1.53564   1.55532   1.57740   1.59693   1.62614
 Alpha virt. eigenvalues --    1.65163   1.66217   1.71909   1.84672   1.88013
 Alpha virt. eigenvalues --    1.94145   1.97551   1.99334   2.04139   2.06337
 Alpha virt. eigenvalues --    2.09567   2.12502   2.13361   2.19295   2.21018
 Alpha virt. eigenvalues --    2.25235   2.28850   2.29564   2.32831   2.35563
 Alpha virt. eigenvalues --    2.37452   2.38414   2.43024   2.46004   2.47015
 Alpha virt. eigenvalues --    2.49764   2.50534   2.55978   2.58236   2.59911
 Alpha virt. eigenvalues --    2.61002   2.63816   2.65409   2.66092   2.67233
 Alpha virt. eigenvalues --    2.69831   2.76976   2.77830   2.78721   2.79787
 Alpha virt. eigenvalues --    2.81254   2.82142   2.82873   2.84985   2.86243
 Alpha virt. eigenvalues --    2.89270   2.91020   2.92119   2.93531   2.95547
 Alpha virt. eigenvalues --    2.96846   2.99218   2.99576   3.00996   3.02174
 Alpha virt. eigenvalues --    3.03301   3.04468   3.05447   3.07238   3.07937
 Alpha virt. eigenvalues --    3.10019   3.10639   3.11381   3.12325   3.13557
 Alpha virt. eigenvalues --    3.15828   3.16662   3.17838   3.18699   3.22258
 Alpha virt. eigenvalues --    3.24062   3.25026   3.27347   3.28653   3.31184
 Alpha virt. eigenvalues --    3.32883   3.35523   3.36139   3.36838   3.38809
 Alpha virt. eigenvalues --    3.39468   3.41721   3.42010   3.44815   3.46816
 Alpha virt. eigenvalues --    3.47858   3.49275   3.50441   3.53453   3.55057
 Alpha virt. eigenvalues --    3.56120   3.57388   3.60127   3.61907   3.63198
 Alpha virt. eigenvalues --    3.63711   3.67312   3.68780   3.69727   3.70169
 Alpha virt. eigenvalues --    3.73128   3.75553   3.75933   3.77006   3.79990
 Alpha virt. eigenvalues --    3.80745   3.83839   3.85073   3.86355   3.88146
 Alpha virt. eigenvalues --    3.90073   3.91941   3.94999   3.95985   3.98374
 Alpha virt. eigenvalues --    3.99554   4.00068   4.02276   4.03963   4.04381
 Alpha virt. eigenvalues --    4.06167   4.07605   4.08247   4.10274   4.11555
 Alpha virt. eigenvalues --    4.13864   4.14499   4.16563   4.18120   4.19342
 Alpha virt. eigenvalues --    4.21427   4.24219   4.26023   4.28389   4.29269
 Alpha virt. eigenvalues --    4.32199   4.33229   4.36655   4.42608   4.43761
 Alpha virt. eigenvalues --    4.45068   4.49444   4.51775   4.53252   4.58860
 Alpha virt. eigenvalues --    4.61172   4.64578   4.66246   4.67143   4.70616
 Alpha virt. eigenvalues --    4.74216   4.75450   4.77831   4.79496   4.82748
 Alpha virt. eigenvalues --    4.84779   4.86822   4.90566   4.91882   4.92769
 Alpha virt. eigenvalues --    4.96154   4.98206   4.99608   5.01869   5.05735
 Alpha virt. eigenvalues --    5.06500   5.07634   5.09367   5.10812   5.15353
 Alpha virt. eigenvalues --    5.18785   5.22726   5.24711   5.27850   5.29339
 Alpha virt. eigenvalues --    5.29991   5.32293   5.35266   5.43124   5.45977
 Alpha virt. eigenvalues --    5.47392   5.52567   5.59573   5.69581   5.73388
 Alpha virt. eigenvalues --    5.76808   5.80090   5.81420   5.83764   5.86408
 Alpha virt. eigenvalues --    5.90786   6.07943   6.15389   6.25355   6.35952
 Alpha virt. eigenvalues --    6.41535   6.44553   6.61931   6.64985   6.71858
 Alpha virt. eigenvalues --    6.73156   6.79341   6.82634   6.86503   7.03411
 Alpha virt. eigenvalues --    7.10750   7.19684   7.24913   7.39044   7.40949
 Alpha virt. eigenvalues --   10.06364  10.87102  11.78923  12.36209  12.97900
 Alpha virt. eigenvalues --   13.45845  14.29681
          Condensed to atoms (all electrons):
               1          2          3          4          5          6
     1  O    7.843635   0.000969   0.304304  -0.040772  -0.054063   0.356302
     2  O    0.000969   7.794475   0.001171   0.014342  -0.006062  -0.071615
     3  C    0.304304   0.001171   4.925188   0.300979   0.284970  -0.065426
     4  C   -0.040772   0.014342   0.300979   5.097479  -0.056342  -0.051014
     5  C   -0.054063  -0.006062   0.284970  -0.056342   5.106048  -0.010978
     6  C    0.356302  -0.071615  -0.065426  -0.051014  -0.010978   5.070856
     7  C   -0.074978   0.324993   0.002284  -0.015711   0.008977   0.453493
     8  H   -0.038001  -0.000019   0.415233  -0.042781  -0.069736   0.009433
     9  H   -0.012540  -0.011138  -0.037042   0.398482  -0.000455   0.019334
    10  H    0.004709   0.001375  -0.032669   0.389140   0.008477  -0.003884
    11  H    0.004177   0.000399  -0.048375   0.398671  -0.003983   0.001254
    12  H    0.001072  -0.006570  -0.046799  -0.007313   0.395547   0.002140
    13  H    0.003773   0.000236  -0.037865   0.008732   0.390227   0.000510
    14  H    0.004535   0.000501  -0.030739   0.002450   0.383343   0.000141
    15  H   -0.043863   0.004409   0.001904   0.000353  -0.001004   0.428788
    16  H    0.003528  -0.036142  -0.000700   0.000241   0.000085  -0.063590
    17  H    0.004538   0.343316   0.000024  -0.004098   0.003516  -0.003030
               7          8          9         10         11         12
     1  O   -0.074978  -0.038001  -0.012540   0.004709   0.004177   0.001072
     2  O    0.324993  -0.000019  -0.011138   0.001375   0.000399  -0.006570
     3  C    0.002284   0.415233  -0.037042  -0.032669  -0.048375  -0.046799
     4  C   -0.015711  -0.042781   0.398482   0.389140   0.398671  -0.007313
     5  C    0.008977  -0.069736  -0.000455   0.008477  -0.003983   0.395547
     6  C    0.453493   0.009433   0.019334  -0.003884   0.001254   0.002140
     7  C    5.057750  -0.002271  -0.003413   0.000532  -0.001136  -0.000894
     8  H   -0.002271   0.611467   0.005063  -0.017933   0.005377   0.007295
     9  H   -0.003413   0.005063   0.553233  -0.034175  -0.032006   0.000823
    10  H    0.000532  -0.017933  -0.034175   0.598908  -0.030407   0.000338
    11  H   -0.001136   0.005377  -0.032006  -0.030407   0.585664   0.001797
    12  H   -0.000894   0.007295   0.000823   0.000338   0.001797   0.636879
    13  H   -0.000896   0.000252  -0.000093  -0.000640   0.000221  -0.034839
    14  H   -0.000369  -0.011181  -0.000115  -0.000245  -0.000875  -0.036902
    15  H   -0.083069   0.000486   0.000654  -0.000236  -0.000067  -0.000016
    16  H    0.414105   0.000046  -0.000607   0.000009   0.000064  -0.000092
    17  H   -0.042524   0.001304   0.000695  -0.000586  -0.000738   0.002746
              13         14         15         16         17
     1  O    0.003773   0.004535  -0.043863   0.003528   0.004538
     2  O    0.000236   0.000501   0.004409  -0.036142   0.343316
     3  C   -0.037865  -0.030739   0.001904  -0.000700   0.000024
     4  C    0.008732   0.002450   0.000353   0.000241  -0.004098
     5  C    0.390227   0.383343  -0.001004   0.000085   0.003516
     6  C    0.000510   0.000141   0.428788  -0.063590  -0.003030
     7  C   -0.000896  -0.000369  -0.083069   0.414105  -0.042524
     8  H    0.000252  -0.011181   0.000486   0.000046   0.001304
     9  H   -0.000093  -0.000115   0.000654  -0.000607   0.000695
    10  H   -0.000640  -0.000245  -0.000236   0.000009  -0.000586
    11  H    0.000221  -0.000875  -0.000067   0.000064  -0.000738
    12  H   -0.034839  -0.036902  -0.000016  -0.000092   0.002746
    13  H    0.541516  -0.018968   0.000085  -0.000036   0.000026
    14  H   -0.018968   0.579101   0.000076   0.000009   0.001405
    15  H    0.000085   0.000076   0.558252  -0.005219  -0.000002
    16  H   -0.000036   0.000009  -0.005219   0.517924   0.006220
    17  H    0.000026   0.001405  -0.000002   0.006220   0.427314
 Mulliken charges:
               1
     1  O   -0.267327
     2  O   -0.354639
     3  C    0.063559
     4  C   -0.392839
     5  C   -0.378568
     6  C   -0.072715
     7  C   -0.036875
     8  H    0.125968
     9  H    0.153301
    10  H    0.117287
    11  H    0.119964
    12  H    0.084789
    13  H    0.147760
    14  H    0.127834
    15  H    0.138470
    16  H    0.164156
    17  H    0.259874
 Sum of Mulliken charges =  -0.00000
 Mulliken charges with hydrogens summed into heavy atoms:
               1
     1  O   -0.267327
     2  O   -0.094765
     3  C    0.189527
     4  C   -0.002287
     5  C   -0.018186
     6  C    0.065756
     7  C    0.127282
 APT charges:
               1
     1  O   -0.186759
     2  O   -0.259319
     3  C   -0.261505
     4  C   -1.041493
     5  C   -1.103329
     6  C   -0.535753
     7  C   -0.404569
     8  H    0.446053
     9  H    0.242886
    10  H    0.437668
    11  H    0.330956
    12  H    0.242298
    13  H    0.347266
    14  H    0.490875
    15  H    0.507343
    16  H    0.571875
    17  H    0.175507
 Sum of APT charges =  -0.00000
 APT charges with hydrogens summed into heavy atoms:
               1
     1  O   -0.186759
     2  O   -0.083812
     3  C    0.184547
     4  C   -0.029982
     5  C   -0.022890
     6  C   -0.028410
     7  C    0.167306
 Electronic spatial extent (au):  <R**2>=            754.0787
 Charge=             -0.0000 electrons
 Dipole moment (field-independent basis, Debye):
    X=              1.3189    Y=             -0.1687    Z=              0.5591  Tot=              1.4425
 Quadrupole moment (field-independent basis, Debye-Ang):
   XX=            -40.2311   YY=            -46.7997   ZZ=            -45.3153
   XY=              3.6476   XZ=             -0.9119   YZ=             -1.7163
 Traceless Quadrupole moment (field-independent basis, Debye-Ang):
   XX=              3.8843   YY=             -2.6843   ZZ=             -1.1999
   XY=              3.6476   XZ=             -0.9119   YZ=             -1.7163
 Octapole moment (field-independent basis, Debye-Ang**2):
  XXX=             -6.6045  YYY=             -3.0073  ZZZ=             -3.0121  XYY=              1.9703
  XXY=             -5.7268  XXZ=              1.5496  XZZ=              1.6846  YZZ=              1.2140
  YYZ=              0.3853  XYZ=             -1.3921
 Hexadecapole moment (field-independent basis, Debye-Ang**3):
 XXXX=           -477.7165 YYYY=           -261.3110 ZZZZ=           -216.3270 XXXY=             -5.1976
 XXXZ=             -9.5069 YYYX=              8.7392 YYYZ=              0.0104 ZZZX=             -1.4221
 ZZZY=             -0.8035 XXYY=           -132.6602 XXZZ=           -127.6400 YYZZ=            -82.2938
 XXYZ=              0.4654 YYXZ=              2.0036 ZZXY=             -4.9049
 N-N= 3.309628655342D+02 E-N=-1.471666461654D+03  KE= 3.448249642393D+02
  Exact polarizability:   0.000   0.000   0.000   0.000   0.000   0.000
 Approx polarizability:  86.547  -5.709  86.783  -1.630   2.001  68.368
 No NMR shielding tensors so no spin-rotation constants.
 Leave Link  601 at Fri Sep 27 03:09:55 2019, MaxMem=   671088640 cpu:              45.1 elap:              22.6
 (Enter /shared/centos7/gaussian/g16/l701.exe)
 SCFChk:  SCF convergence  3.00D-09 required  1.00D-08
 ... and contract with generalized density number  0.
 Compute integral second derivatives.
 Entering OneElI...
 Calculate overlap and kinetic energy integrals
    NBasis = 395  MinDer = 2  MaxDer = 2
 Requested accuracy = 0.1000D-12
 PrmmSu-InSpLW:  IPartL=    0 NPrtUS=   20 NPrtUL=    1 DoSpLW=F IThBeg=    0 IThEnd=   19 NThAct=   20.
 PrsmSu:  NPrtUS=  20 ThrOK=T IAlg=1 NPAlg=1 LenDen=           0 ISkipM=0 DoSpLW=F IThBeg=    0 IThEnd=   19.
 Prism:   IPart=     0 DynPar=F LinDyn=F Incr=           4.
 PRISM was handed    33306877 working-precision words and  8507 shell-pairs
 PRISM was handed    33306877 working-precision words and  8507 shell-pairs
 PRISM was handed    33306877 working-precision words and  8507 shell-pairs
 PRISM was handed    33306877 working-precision words and  8507 shell-pairs
 PRISM was handed    33306877 working-precision words and  8507 shell-pairs
 PRISM was handed    33306877 working-precision words and  8507 shell-pairs
 PRISM was handed    33306877 working-precision words and  8507 shell-pairs
 PRISM was handed    33306877 working-precision words and  8507 shell-pairs
 PRISM was handed    33306877 working-precision words and  8507 shell-pairs
 PRISM was handed    33306877 working-precision words and  8507 shell-pairs
 PRISM was handed    33306877 working-precision words and  8507 shell-pairs
 PRISM was handed    33306877 working-precision words and  8507 shell-pairs
 PRISM was handed    33306877 working-precision words and  8507 shell-pairs
 PRISM was handed    33306877 working-precision words and  8507 shell-pairs
 PRISM was handed    33306877 working-precision words and  8507 shell-pairs
 IPart=  0 NShTot=         465 NBatch=          79 AvBLen=         5.9
 IPart=  2 NShTot=         456 NBatch=          71 AvBLen=         6.4
 PRISM was handed    33306877 working-precision words and  8507 shell-pairs
 PRISM was handed    33306877 working-precision words and  8507 shell-pairs
 IPart= 15 NShTot=         407 NBatch=          41 AvBLen=         9.9
 PRISM was handed    33306877 working-precision words and  8507 shell-pairs
 PRISM was handed    33306877 working-precision words and  8507 shell-pairs
 PRISM was handed    33306877 working-precision words and  8507 shell-pairs
 IPart=  8 NShTot=         425 NBatch=          51 AvBLen=         8.3
 IPart=  5 NShTot=         444 NBatch=          63 AvBLen=         7.0
 IPart=  9 NShTot=         419 NBatch=          49 AvBLen=         8.6
 IPart= 17 NShTot=         402 NBatch=          39 AvBLen=        10.3
 IPart=  1 NShTot=         463 NBatch=          78 AvBLen=         5.9
 IPart= 16 NShTot=         402 NBatch=          39 AvBLen=        10.3
 IPart= 11 NShTot=         417 NBatch=          47 AvBLen=         8.9
 IPart=  6 NShTot=         440 NBatch=          60 AvBLen=         7.3
 IPart= 19 NShTot=         396 NBatch=          38 AvBLen=        10.4
 IPart= 14 NShTot=         407 NBatch=          41 AvBLen=         9.9
 IPart=  4 NShTot=         446 NBatch=          64 AvBLen=         7.0
 IPart=  7 NShTot=         431 NBatch=          51 AvBLen=         8.5
 IPart= 12 NShTot=         412 NBatch=          44 AvBLen=         9.4
 IPart= 10 NShTot=         417 NBatch=          47 AvBLen=         8.9
 IPart= 18 NShTot=         398 NBatch=          38 AvBLen=        10.5
 IPart=  3 NShTot=         450 NBatch=          67 AvBLen=         6.7
 IPart= 13 NShTot=         410 NBatch=          43 AvBLen=         9.5
 PrSmSu:  NxtVal=             81.
 Entering OneElI...
 Calculate potential energy integrals
    NBasis = 395  MinDer = 2  MaxDer = 2
 Requested accuracy = 0.1000D-12
 PrmmSu-InSpLW:  IPartL=    0 NPrtUS=   20 NPrtUL=    1 DoSpLW=F IThBeg=    0 IThEnd=   19 NThAct=   20.
 PrsmSu:  NPrtUS=  20 ThrOK=T IAlg=1 NPAlg=1 LenDen=           0 ISkipM=0 DoSpLW=F IThBeg=    0 IThEnd=   19.
 Prism:   IPart=     0 DynPar=F LinDyn=F Incr=          68.
 PRISM was handed    33346897 working-precision words and  8061 shell-pairs
 PRISM was handed    33346897 working-precision words and  8061 shell-pairs
 PRISM was handed    33346897 working-precision words and  8061 shell-pairs
 PRISM was handed    33346897 working-precision words and  8061 shell-pairs
 PRISM was handed    33346897 working-precision words and  8061 shell-pairs
 PRISM was handed    33346897 working-precision words and  8061 shell-pairs
 PRISM was handed    33346897 working-precision words and  8061 shell-pairs
 PRISM was handed    33346897 working-precision words and  8061 shell-pairs
 PRISM was handed    33346897 working-precision words and  8061 shell-pairs
 PRISM was handed    33346897 working-precision words and  8061 shell-pairs
 PRISM was handed    33346897 working-precision words and  8061 shell-pairs
 PRISM was handed    33346897 working-precision words and  8061 shell-pairs
 PRISM was handed    33346897 working-precision words and  8061 shell-pairs
 PRISM was handed    33346897 working-precision words and  8061 shell-pairs
 PRISM was handed    33346897 working-precision words and  8061 shell-pairs
 PRISM was handed    33346897 working-precision words and  8061 shell-pairs
 PRISM was handed    33346897 working-precision words and  8061 shell-pairs
 PRISM was handed    33346897 working-precision words and  8061 shell-pairs
 PRISM was handed    33346897 working-precision words and  8061 shell-pairs
 PRISM was handed    33346897 working-precision words and  8061 shell-pairs
 IPart= 16 NShTot=        6545 NBatch=         385 AvBLen=        17.0
 IPart= 12 NShTot=        6630 NBatch=         390 AvBLen=        17.0
 IPart=  9 NShTot=        6749 NBatch=         397 AvBLen=        17.0
 IPart= 10 NShTot=        6732 NBatch=         396 AvBLen=        17.0
 IPart= 15 NShTot=        6545 NBatch=         385 AvBLen=        17.0
 IPart= 18 NShTot=        6460 NBatch=         380 AvBLen=        17.0
 IPart=  8 NShTot=        6800 NBatch=         400 AvBLen=        17.0
 IPart=  0 NShTot=        7531 NBatch=         443 AvBLen=        17.0
 IPart=  4 NShTot=        7174 NBatch=         422 AvBLen=        17.0
 IPart= 19 NShTot=        6443 NBatch=         379 AvBLen=        17.0
 IPart=  1 NShTot=        7446 NBatch=         438 AvBLen=        17.0
 IPart=  2 NShTot=        7344 NBatch=         432 AvBLen=        17.0
 IPart= 13 NShTot=        6630 NBatch=         390 AvBLen=        17.0
 IPart=  5 NShTot=        7072 NBatch=         416 AvBLen=        17.0
 IPart= 14 NShTot=        6596 NBatch=         388 AvBLen=        17.0
 IPart=  6 NShTot=        7021 NBatch=         413 AvBLen=        17.0
 IPart= 17 NShTot=        6511 NBatch=         383 AvBLen=        17.0
 IPart=  3 NShTot=        7242 NBatch=         426 AvBLen=        17.0
 IPart= 11 NShTot=        6681 NBatch=         393 AvBLen=        17.0
 IPart=  7 NShTot=        6885 NBatch=         405 AvBLen=        17.0
 PrSmSu:  NxtVal=           1361.
 Polarizability after L701:
                1             2             3 
      1  0.000000D+00
      2  0.000000D+00  0.000000D+00
      3  0.000000D+00  0.000000D+00  0.000000D+00
 Dipole Derivatives after L701:
                 1             2             3             4             5 
      1  -0.276691D+00  0.303427D-01 -0.498082D-01 -0.238060D+00 -0.298578D+00
      2  -0.175694D+00 -0.887351D-01  0.916214D-01 -0.616579D+00 -0.714336D-01
      3  -0.142079D+00  0.722221D-01 -0.194853D+00  0.254455D+00  0.509919D-02
                 6             7             8             9            10 
      1  -0.448106D-02 -0.677072D+00  0.718837D+00 -0.177277D+00 -0.707184D+00
      2   0.168460D+00  0.271261D+00 -0.295270D+00 -0.284524D-02  0.138545D-01
      3  -0.468462D+00 -0.235959D+00  0.347797D-01  0.187827D+00  0.596413D-01
                11            12            13            14            15 
      1  -0.180997D+00 -0.543726D+00 -0.121318D+01 -0.652521D+00  0.631014D+00
      2  -0.981460D+00  0.616174D-01 -0.483759D-01 -0.998966D+00  0.671430D-01
      3  -0.247154D+00 -0.143583D+01  0.127825D+00  0.160789D+00 -0.109784D+01
                16            17            18            19            20 
      1  -0.767180D+00 -0.167154D+00  0.349609D+00 -0.888035D+00 -0.208767D+00
      2  -0.297048D+00 -0.833324D+00  0.677992D-01  0.106846D+00 -0.398319D+00
      3   0.218924D+00  0.471507D-01 -0.675565D-02  0.130004D+00 -0.110204D+00
                21            22            23            24            25 
      1   0.559502D-01  0.744230D+00 -0.406039D+00  0.101274D+00  0.319915D+00
      2  -0.158696D+00 -0.299557D+00  0.427265D+00 -0.668210D-01  0.170198D-01
      3   0.726466D-01  0.487524D-01 -0.477206D-01  0.166663D+00 -0.594031D+00
                26            27            28            29            30 
      1   0.158579D-01 -0.183145D-02  0.366019D+00 -0.299600D+00  0.356297D+00
      2   0.143374D+00 -0.912535D-02 -0.132520D+00  0.243836D+00 -0.146388D+00
      3   0.101604D-03  0.265370D+00  0.386297D+00 -0.437721D+00  0.703149D+00
                31            32            33            34            35 
      1   0.185791D+00  0.424480D+00  0.585517D-01 -0.184514D-01  0.344391D+00
      2   0.132111D+00  0.593116D+00  0.551439D-01 -0.259036D+00  0.676534D+00
      3   0.116868D+00  0.552582D+00  0.213962D+00  0.608153D-01 -0.187091D+00
                36            37            38            39            40 
      1   0.242634D-01  0.264806D-01 -0.848018D-01 -0.566223D+00  0.121945D+01
      2   0.948411D-01 -0.300775D-01  0.105810D+00 -0.119484D+00  0.300022D+00
      3   0.688106D-01  0.117195D+00  0.141054D+00  0.909508D+00 -0.230814D+00
                41            42            43            44            45 
      1   0.111950D+00  0.128368D+00  0.536102D+00  0.598693D+00 -0.142930D-01
      2   0.170998D+00  0.196051D-01  0.406196D+00  0.912063D+00 -0.163724D-01
      3  -0.390708D-01  0.821732D-01  0.159331D-01  0.268915D-01  0.738635D-01
                46            47            48            49            50 
      1   0.138588D+01  0.141869D-01 -0.362048D+00  0.198252D-02  0.397193D-01
      2  -0.577100D-01  0.200365D+00  0.145042D-01  0.669288D+00  0.194146D+00
      3  -0.112526D+00 -0.250467D-02  0.129382D+00 -0.221302D+00  0.307973D-01
                51 
      1   0.143590D-01
      2  -0.121003D+00
      3   0.330391D+00
 Hessian after L701:
                1             2             3             4             5 
      1  0.513208D+01
      2 -0.172242D+01  0.141847D+02
      3 -0.229281D+00 -0.263850D+01  0.166460D+02
      4 -0.499168D-01 -0.564344D+00 -0.111054D+00  0.834879D+01
      5 -0.481276D+00  0.506104D+00  0.154395D+00 -0.120542D+01  0.782407D+01
      6 -0.113528D+00  0.190780D+00 -0.365753D+00  0.183111D+01  0.524630D+00
      7 -0.386870D+01  0.359308D+01  0.258950D+01  0.243285D+00 -0.396159D+00
      8  0.343885D+01 -0.634262D+01  0.204757D+01 -0.402296D+00  0.204759D-01
      9  0.248035D+01  0.200392D+01 -0.780162D+01  0.718550D-01 -0.455185D-01
     10 -0.279560D+00 -0.236257D-01  0.167312D-01  0.153122D+00 -0.368568D+00
     11 -0.300201D-01  0.803870D-01  0.367189D+00 -0.395115D+00 -0.131116D+00
     12 -0.418298D-01  0.341420D+00  0.343211D+00  0.307676D+00 -0.193196D+00
     13 -0.197886D+00  0.234684D+00 -0.304042D+00  0.356189D+00 -0.103261D+00
     14  0.211756D+00  0.390898D+00 -0.330744D+00 -0.229471D+00 -0.199050D+00
     15 -0.194243D+00 -0.220315D+00 -0.130835D-01 -0.109979D+00  0.197468D-01
     16 -0.207845D+00 -0.104622D+01 -0.231535D+01  0.375264D-01 -0.423592D+00
     17 -0.774695D+00 -0.999747D+01  0.487072D+00 -0.283069D+00  0.810573D-01
     18 -0.209944D+01  0.454417D+00 -0.922723D+01  0.160409D+00 -0.960888D-01
     19 -0.128740D+00 -0.336682D+00  0.317078D+00 -0.756460D+01  0.357266D+01
     20 -0.445810D+00  0.534584D+00 -0.787440D-01  0.318025D+01 -0.112106D+01
     21  0.185489D+00 -0.647293D-01  0.219715D+00 -0.423615D+00 -0.525317D+00
     22 -0.132611D+00 -0.308989D+00 -0.453006D-01  0.395219D-01 -0.351689D-01
     23 -0.308382D+00  0.130086D+00 -0.115351D+00 -0.364217D-01  0.126158D-01
     24 -0.721153D-01 -0.102102D+00  0.115705D+00  0.873749D-02 -0.549049D-02
     25  0.184348D-01 -0.166188D-01 -0.425324D-01 -0.435071D-01  0.568055D-01
     26  0.140998D-01 -0.339387D-01 -0.301982D-01  0.489583D-02 -0.403429D-01
     27  0.153343D-01 -0.460028D-01  0.243845D-01  0.182121D-01  0.164578D-01
     28 -0.150172D-01  0.232186D-01  0.913134D-01  0.252017D-01 -0.378660D-01
     29  0.705389D-02 -0.491279D-01  0.196878D-01 -0.395255D-01  0.889566D-02
     30  0.817962D-01  0.526226D-01  0.127910D+00  0.504906D-01 -0.365363D-01
     31 -0.328261D-01  0.516133D-01  0.387072D-01  0.403104D-01 -0.874168D-02
     32  0.510293D-01  0.822742D-01  0.989147D-01  0.447830D-01 -0.449856D-01
     33  0.351860D-01  0.883112D-01  0.202209D-01  0.578609D-01 -0.719000D-02
     34 -0.287075D-01  0.294403D-01 -0.616843D-02 -0.371782D-01 -0.714706D-02
     35  0.436553D-01  0.112751D+00 -0.110213D-01  0.728031D-01 -0.238667D-01
     36 -0.488666D-02 -0.661349D-02 -0.399196D-01 -0.227714D-01  0.120494D-02
     37 -0.464776D-01  0.620045D-01  0.927188D-02  0.312119D-01 -0.215271D-01
     38  0.562355D-01  0.342549D-01 -0.123957D-01 -0.279429D-01 -0.160354D-01
     39 -0.410270D-01 -0.840748D-01 -0.571898D-01 -0.719147D-01  0.271960D-01
     40  0.118231D+00  0.115988D+00  0.105018D-01  0.767102D-01 -0.144987D-01
     41  0.900656D-01  0.119780D-01  0.772873D-02 -0.556583D-03 -0.153048D-01
     42  0.379322D-02  0.231267D-02 -0.519117D-01 -0.575974D-02  0.921757D-03
     43 -0.327279D+00 -0.587606D-01  0.284732D-01 -0.470684D-01  0.586267D-01
     44 -0.582841D-01  0.249963D+00 -0.233324D-01  0.162985D-01  0.188615D+00
     45  0.458353D-01 -0.539213D-02  0.159444D+00  0.367497D-02 -0.621740D-02
     46  0.151497D+00 -0.776492D-01 -0.460435D-01  0.216589D-01 -0.206509D+00
     47 -0.513914D-01 -0.249759D-01  0.123665D-01 -0.229285D+00 -0.124899D+00
     48 -0.502716D-01  0.212161D-01 -0.223800D-01  0.154822D-01  0.446587D-01
     49 -0.104676D+00  0.452821D-01 -0.180360D-02 -0.163126D+01 -0.378365D+00
     50 -0.404657D-01  0.130110D+00  0.453639D-01  0.944117D-01 -0.692517D+01
     51 -0.116720D-02  0.127301D-01 -0.775337D-01 -0.178042D+01  0.126342D+00
                6             7             8             9            10 
      6  0.164182D+02
      7  0.392516D-01  0.170040D+02
      8 -0.204267D-01 -0.276175D+01  0.196738D+02
      9 -0.271237D+00 -0.133495D+01 -0.109158D+01  0.199745D+02
     10  0.326625D+00 -0.609600D+01 -0.270143D+00 -0.600000D+00  0.152019D+02
     11 -0.224697D+00 -0.300723D+00 -0.567073D+01  0.129034D+01  0.319071D+00
     12 -0.232795D+00 -0.693175D+00  0.131203D+01 -0.208857D+01 -0.167324D+00
     13 -0.163168D+00 -0.553586D+01  0.137045D+01 -0.113321D+01 -0.197936D-01
     14  0.656252D-01  0.128819D+01 -0.397059D+01 -0.189180D+01  0.742509D-02
     15 -0.194342D+00 -0.111783D+01 -0.191610D+01 -0.501017D+01 -0.104183D+00
     16  0.156570D+00  0.339499D+00  0.975822D-01  0.744374D-01  0.492952D-01
     17 -0.143788D+00 -0.298844D-01  0.372347D-02 -0.170379D-01  0.367413D-02
     18  0.347835D+00  0.206796D-01 -0.237676D-01  0.860972D-01  0.181528D+00
     19 -0.444199D+00  0.214584D+00  0.165165D-01  0.477721D-01  0.217902D+00
     20 -0.459412D+00 -0.532773D-01 -0.201017D+00 -0.196397D-01 -0.239139D-01
     21 -0.899577D+01  0.334831D-01 -0.304683D-01 -0.152783D+00  0.229353D+00
     22  0.268756D-02 -0.295851D+01 -0.132315D+01  0.286852D+00  0.908398D-01
     23 -0.240484D-02 -0.124235D+01 -0.364472D+01 -0.198884D+00  0.385568D-01
     24 -0.143520D-01  0.281218D+00 -0.206820D+00 -0.458960D+01  0.100097D+00
     25 -0.395405D-01  0.624204D-01  0.373790D-01  0.466593D-01 -0.174558D+01
     26  0.928588D-02  0.411517D-01  0.862022D-01 -0.251091D-01  0.168871D+00
     27  0.180954D-01  0.144502D+00 -0.378232D-01 -0.422387D-02 -0.898893D+00
     28  0.330670D-01  0.811038D-01 -0.231878D-01  0.182072D-01 -0.356575D+01
     29 -0.269111D-01 -0.242777D-01  0.906105D-01 -0.462808D-01 -0.503818D+00
     30  0.109574D-01  0.254421D-01 -0.287132D-01 -0.857576D-01  0.812461D+00
     31  0.483006D-01  0.145988D+00 -0.266551D-01 -0.448689D-01 -0.402737D+01
     32  0.223984D-01 -0.708391D-02  0.260154D-01 -0.165382D+00  0.566144D+00
     33 -0.100146D-01 -0.269430D-01 -0.216381D+00 -0.896604D-01  0.145275D+00
     34 -0.401705D-01  0.142212D+00 -0.104777D+00  0.166965D-01 -0.188670D-02
     35 -0.245993D-01 -0.432621D-01 -0.111966D+00  0.117587D+00  0.232339D-01
     36 -0.175060D-01 -0.644415D-02  0.143355D+00  0.836095D-01 -0.302657D-01
     37 -0.263857D-01  0.835253D-01 -0.105731D-01  0.508596D-01 -0.482068D-01
     38  0.158706D-01  0.897838D-02  0.702904D-01  0.100092D+00  0.669214D-03
     39  0.126835D-01 -0.205512D-01  0.761776D-01 -0.271143D-01 -0.291594D-01
     40 -0.113938D-01  0.454460D-01 -0.816558D-01 -0.514074D-02  0.390456D-01
     41 -0.649368D-03 -0.805312D-01 -0.459458D-01  0.644362D-02  0.241814D-01
     42 -0.164672D-01  0.298882D-01  0.235908D-01  0.676838D-01 -0.544178D-01
     43  0.222338D-02  0.767260D-01  0.731367D-01  0.982191D-02  0.344574D-01
     44 -0.128774D-01  0.830911D-01  0.289384D-01  0.303007D-02  0.504312D-01
     45 -0.389808D-01  0.116556D-02  0.863620D-03 -0.365004D-01  0.245871D-01
     46  0.311007D-01  0.223950D-01  0.630392D-02  0.121704D-03  0.513767D-01
     47  0.644532D-01  0.355576D-03 -0.985098D-02 -0.993244D-03  0.240694D-02
     48  0.913239D-01 -0.289131D-02 -0.209745D-02 -0.906290D-02  0.101035D-01
     49 -0.163255D+01 -0.214247D-02 -0.360260D-01  0.145379D-01 -0.538301D-01
     50  0.227214D-01 -0.755486D-01 -0.263837D-02 -0.191968D-01 -0.145956D-01
     51 -0.674187D+01  0.376621D-01 -0.294120D-01 -0.455543D-01  0.374823D-01
               11            12            13            14            15 
     11  0.157412D+02
     12 -0.744461D+00  0.129793D+02
     13  0.376898D-01 -0.551069D-01  0.140895D+02
     14 -0.424919D-01  0.359424D-01 -0.965167D+00  0.140672D+02
     15 -0.878126D-01  0.798633D-01  0.129546D+01  0.114305D+01  0.148269D+02
     16 -0.343255D-01  0.565237D-01 -0.180020D-01  0.140908D+00  0.164482D-01
     17 -0.101519D+00 -0.936082D-02  0.153540D+00  0.122101D-01 -0.287916D-01
     18  0.488333D-01  0.132329D+00 -0.129375D-01 -0.371395D-01 -0.104787D+00
     19 -0.339203D-01  0.154314D+00  0.386120D+00  0.413099D-01 -0.677273D-01
     20 -0.173384D+00 -0.276941D-02  0.594483D-01 -0.171712D+00 -0.118180D-01
     21 -0.189615D-01  0.986663D-02 -0.767322D-01 -0.819502D-02 -0.148983D+00
     22  0.475922D-01  0.113372D+00  0.274585D+00  0.477183D-01 -0.313302D-01
     23  0.543947D-01 -0.123154D+00 -0.155231D-01 -0.216409D+00  0.229100D+00
     24 -0.111906D+00 -0.356168D-01 -0.285735D-02  0.218737D+00  0.126577D+00
     25  0.180793D+00 -0.476724D+00  0.200835D-01  0.738884D-02 -0.347149D-01
     26 -0.455335D+01 -0.568754D-01  0.129788D-01 -0.179219D-01 -0.121797D-01
     27 -0.814535D-01 -0.448032D+01 -0.278873D-01 -0.122038D-01  0.419968D-04
     28 -0.533734D+00  0.792505D+00 -0.516979D-01 -0.683259D-03  0.237500D-02
     29 -0.345985D+01 -0.880156D+00  0.395326D-02 -0.254995D-01 -0.796737D-01
     30 -0.958612D+00 -0.274438D+01 -0.185512D-01 -0.744440D-01  0.153000D+00
     31  0.653240D+00  0.111150D+00 -0.323145D-01  0.430260D-02 -0.257206D-02
     32 -0.165057D+01  0.372198D+00 -0.509548D-02 -0.757285D-02  0.479822D-01
     33  0.591012D+00 -0.413148D+01 -0.875209D-02  0.161808D-01  0.376638D-01
     34 -0.782442D-03 -0.111412D-01 -0.388760D+01 -0.859707D+00 -0.835064D-01
     35  0.260220D-02  0.226974D-03 -0.114676D+01 -0.183784D+01  0.401709D+00
     36  0.927605D-02 -0.217502D-01 -0.613761D-01  0.254346D+00 -0.423335D+01
     37  0.854580D-03 -0.351221D-01 -0.408680D+01  0.242955D-01  0.244060D+00
     38 -0.533198D-01 -0.216223D-01  0.431647D-01 -0.408042D+01  0.429626D+00
     39 -0.222638D-01  0.180946D+00  0.457710D+00  0.564123D+00 -0.155850D+01
     40  0.419580D-01 -0.704596D-01 -0.140492D+01  0.319806D+00  0.245484D+00
     41 -0.259119D-01 -0.259525D-01  0.375257D+00 -0.378133D+01  0.651776D-01
     42 -0.292324D-01  0.186576D-01  0.166670D+00  0.501860D-01 -0.382994D+01
     43  0.332668D-01  0.204307D-01 -0.348472D-02  0.208121D-02  0.294167D-02
     44  0.111560D-01  0.145684D-01  0.114073D-01  0.886430D-03  0.319151D-02
     45  0.161480D-01 -0.112863D-01 -0.957893D-03 -0.135148D-02 -0.836275D-02
     46 -0.756158D-02  0.860862D-02  0.299455D-01 -0.511264D-02 -0.347521D-02
     47 -0.142526D-01  0.890212D-03  0.302992D-02 -0.864410D-02 -0.778050D-03
     48  0.419957D-03 -0.110585D-01 -0.114023D-01  0.702905D-03 -0.822877D-02
     49  0.217171D-01 -0.136982D-01  0.819353D-01 -0.350374D-01 -0.572047D-01
     50 -0.132183D-01 -0.197270D-01 -0.697926D-01 -0.111759D+00  0.178846D-01
     51 -0.438213D-01  0.130430D-01 -0.428612D-01  0.698240D-02 -0.114264D+00
               16            17            18            19            20 
     16  0.113371D+02
     17  0.347447D+01  0.154198D+02
     18  0.363454D+01 -0.166176D+01  0.269170D+02
     19 -0.779088D+01 -0.434273D+01 -0.191068D+01  0.160682D+02
     20 -0.381384D+01 -0.311735D+01  0.142141D+01  0.106974D+01  0.912759D+01
     21 -0.173829D+01  0.144508D+01 -0.138992D+02  0.252233D+01 -0.847213D+00
     22  0.247423D+00 -0.400939D-01  0.219850D-01 -0.223392D-01 -0.599063D-02
     23 -0.695729D-01 -0.536217D-01 -0.105353D-01 -0.326285D-02  0.115396D-02
     24  0.353781D-01 -0.509652D-02 -0.622685D-01 -0.811988D-02  0.666634D-03
     25 -0.135781D+00  0.272999D-01  0.378302D-01 -0.196070D-01 -0.978715D-02
     26  0.534687D-01 -0.958268D-01  0.115461D+00 -0.123802D-01 -0.572222D-01
     27  0.115033D+00  0.140539D+00  0.939124D-01  0.552789D-01 -0.206349D-01
     28 -0.338161D-02 -0.187697D-02  0.108966D-01  0.208141D-01 -0.109845D-01
     29 -0.157890D-02 -0.472404D-02 -0.433607D-02 -0.118619D-01 -0.113623D-01
     30  0.805460D-02 -0.168487D-02  0.678296D-02  0.355091D-01 -0.117448D-01
     31  0.178180D-01  0.416385D-01  0.286431D-01  0.137315D-01  0.667848D-02
     32  0.475346D-01  0.236298D-01  0.346972D-01  0.229776D-01 -0.837520D-02
     33  0.345846D-01  0.280614D-01 -0.169053D-03  0.173757D-01  0.343982D-02
     34  0.236429D-01  0.450796D-01 -0.261825D-02  0.706504D-02  0.229405D-02
     35  0.688359D-01  0.410303D-01 -0.569818D-02  0.281786D-01 -0.117431D-01
     36 -0.376229D-02 -0.203042D-02 -0.250784D-01 -0.815105D-03  0.674814D-03
     37  0.108296D-02  0.115312D-01 -0.250212D-01  0.392334D-02  0.264543D-02
     38  0.117843D-01 -0.148990D-01 -0.137182D-01  0.147302D-02 -0.121777D-01
     39 -0.419780D-01 -0.218650D-01  0.187176D-01 -0.351393D-01 -0.729671D-03
     40  0.271419D-01  0.133548D-01 -0.295612D-02  0.158075D-01  0.121760D-02
     41  0.137375D-01 -0.628145D-02 -0.216052D-02  0.268823D-02 -0.812897D-02
     42 -0.188538D-02 -0.670280D-03 -0.932471D-02 -0.136274D-02 -0.722097D-03
     43 -0.368870D+01  0.139841D+01 -0.107229D+00  0.341738D+00 -0.145715D-01
     44  0.130930D+01 -0.214419D+01 -0.134265D+00  0.636888D-01 -0.521908D+00
     45 -0.996693D-01 -0.126956D+00 -0.449529D+01 -0.170537D-01  0.257916D-01
     46 -0.194481D+00  0.333269D+00  0.706184D-01 -0.177091D+01 -0.132174D-02
     47  0.288275D+00  0.601712D-01 -0.554132D-01  0.354362D-01 -0.441710D+01
     48  0.661157D-01 -0.523254D-01  0.200966D+00 -0.703262D+00  0.140757D-02
     49 -0.415028D-01 -0.299106D-01 -0.625646D-02  0.722563D-02  0.572255D-01
     50 -0.116771D+00 -0.105741D+00 -0.299345D-01 -0.113827D+00  0.169227D+00
     51  0.324659D-02 -0.293825D-01  0.196926D-01  0.386965D-01  0.389762D-04
               21            22            23            24            25 
     21  0.268829D+02
     22 -0.107650D-01  0.235112D+01
     23  0.424953D-02  0.178435D+01  0.358684D+01
     24 -0.422935D-02 -0.378640D+00  0.202730D+00  0.457589D+01
     25 -0.407814D-04  0.581303D-01 -0.421630D-01 -0.383426D-01  0.209502D+01
     26 -0.132765D-01 -0.340946D-01 -0.596048D-02  0.158550D-01 -0.152716D+00
     27 -0.386349D-01 -0.525080D-01  0.258398D-01  0.166914D-02  0.734180D+00
     28  0.263506D-01  0.361882D-01  0.163102D-01  0.478307D-01 -0.210996D+00
     29 -0.870095D-02  0.196953D-01  0.385934D-01 -0.469103D-01  0.102340D+00
     30  0.117940D-01  0.629191D-01 -0.557422D-01 -0.111648D+00 -0.146204D+00
     31  0.161390D-01 -0.123665D-01 -0.244984D-01 -0.133496D-01 -0.988046D-01
     32  0.108849D-01 -0.443274D-01  0.588163D-01  0.404076D-01 -0.212072D+00
     33 -0.326173D-02 -0.249623D-01  0.488716D-01  0.206512D-02 -0.100801D-01
     34 -0.123809D-02 -0.131983D-01 -0.344742D-01  0.102118D-01 -0.854560D-03
     35 -0.660106D-02 -0.578923D-01  0.102684D+00 -0.361858D-01  0.167920D-01
     36 -0.160833D-01  0.152217D-01 -0.332978D-01 -0.202862D-01 -0.107347D-01
     37 -0.183526D-01 -0.347458D-02 -0.281425D-02  0.299570D-02 -0.486850D-03
     38 -0.128176D-02 -0.362822D-02  0.836443D-03 -0.894517D-02 -0.137730D-03
     39  0.173539D-01  0.150104D-01 -0.173117D-01  0.138975D-01 -0.968477D-02
     40 -0.496136D-02  0.156798D-01 -0.428189D-01  0.207764D-01  0.101917D-01
     41 -0.103857D-02 -0.392577D-01 -0.705659D-01  0.478883D-01  0.189314D-02
     42 -0.590551D-02  0.176709D-01  0.512971D-01  0.122550D-01 -0.273402D-02
     43 -0.606266D-02  0.181462D-01 -0.117551D-02  0.216955D-02 -0.595127D-02
     44  0.452926D-01  0.127124D-01 -0.554023D-02  0.152109D-02 -0.903728D-03
     45  0.287323D+00  0.156698D-02  0.117524D-03 -0.352883D-02  0.321383D-02
     46 -0.746113D+00  0.101874D-01 -0.517394D-02  0.853684D-03 -0.950581D-02
     47 -0.545693D-02 -0.748776D-03 -0.283386D-03  0.110686D-03  0.000000D+00
     48 -0.424860D+01 -0.133855D-02  0.122421D-02 -0.108541D-02 -0.115580D-02
     49  0.130214D-01  0.678423D-03 -0.105914D-01  0.315670D-02  0.678792D-02
     50  0.257375D-01 -0.187253D-01  0.110767D-01 -0.445944D-02  0.370646D-02
     51  0.844943D-01  0.755927D-02 -0.674857D-02 -0.544121D-02 -0.939547D-02
               26            27            28            29            30 
     26  0.464128D+01
     27 -0.379377D-01  0.412541D+01
     28  0.120574D+00 -0.121029D+00  0.356151D+01
     29  0.115719D+00  0.214752D-01  0.393223D+00  0.351382D+01
     30  0.345232D-01  0.110371D+00 -0.904523D+00  0.945078D+00  0.242926D+01
[...]
   yy         0.622625D+02      0.922635D+01      0.102657D+02
   zx        -0.478615D+01     -0.709235D+00     -0.789130D+00
   zy         0.105812D+02      0.156797D+01      0.174460D+01
   zz         0.769768D+02      0.114068D+02      0.126918D+02

 ----------------------------------------------------------------------

 Test job not archived.
 1\1\GINC-C2002\Freq\RM062X\CC-pVTZ\C5H10O2\HARMS.N\27-Sep-2019\0\\#P G
 eom=AllCheck Guess=TCheck SCRF=Check Test GenChk RM062X/CC-pVTZ Freq\\
 Gaussian input prepared by ASE\\0,1\O,3.4199362242,0.702175151,2.93761
 25149\O,0.8888410575,-0.3179921356,2.5821839154\C,4.6342417897,0.14921
 78606,3.4579831594\C,4.4059640296,-1.2765112293,3.9262716787\C,5.08115
 49622,1.0664095515,4.5751530911\C,3.0326040322,0.1887322945,1.72439728
 02\C,1.7979788692,-0.2714004638,1.5768475969\H,5.3781386489,0.15653118
 31,2.6525588939\H,3.6840521214,-1.2859753739,4.7444572167\H,4.01920454
 15,-1.8924860886,3.1150700263\H,5.337180894,-1.7167311873,4.2822076706
 \H,4.325279733,1.0862228257,5.3608816294\H,5.2216587078,2.0800723842,4
 .2046620758\H,6.0176987252,0.7132177197,5.0050547433\H,3.7499292862,0.
 2186621423,0.914322266\H,1.4216344732,-0.6270768289,0.6302982939\H,1.3
 12678632,0.0597055303,3.3630680984\\Version=EM64L-G16RevA.03\State=1-A
 \HF=-346.9495355\RMSD=4.852e-09\RMSF=8.628e-07\ZeroPoint=0.147555\Ther
 mal=0.1559412\Dipole=0.8361774,-0.1610359,0.1199536\DipoleDeriv=-1.031
 4494,-0.0316401,-0.4462053,-0.1748065,-0.4850307,-0.1322226,-0.7090432
 ,-0.1405455,-1.0060044,-0.9380281,-0.0839572,0.1868058,0.0055854,-0.31
 29409,-0.0214229,0.7446081,0.1213325,-0.6109319,0.8300138,-0.0079045,0
 .373032,-0.129325,0.4803585,-0.1301135,0.2561083,-0.0606853,0.5185443,
 0.0064265,-0.0783878,-0.0596061,0.022539,-0.1477767,0.0645542,-0.05189
 52,0.0111045,-0.0070725,0.0378259,-0.0232523,-0.0551563,-0.0311423,-0.
 0102804,-0.0618862,-0.066795,-0.0420895,-0.020035,0.0705837,0.149889,0
 .177498,0.3153706,-0.0612446,0.3451443,0.4765267,0.1986365,0.6576585,0
 .7829978,0.1648834,-0.2861752,0.1308908,-0.0396582,0.0276774,-0.698475
 5,-0.0223797,0.3727156,-0.0852942,-0.0076121,0.0246216,0.0070803,-0.01
 28601,0.0294596,0.1081882,0.0016731,-0.1266699,-0.0167333,-0.0126142,0
 .1012275,0.0249368,0.0370344,-0.0327632,0.077044,0.0186851,-0.0313269,
 0.0531177,-0.0620101,-0.023749,-0.059644,-0.0069149,-0.0592841,-0.0258
 281,-0.0770528,-0.0205494,-0.0788145,0.0759407,-0.0629249,0.0531808,0.
 0470265,0.0446974,-0.0555649,0.039514,0.0428655,-0.0269659,0.0035833,0
 .1146786,-0.0351914,0.051258,0.0053715,0.0538747,-0.0197386,-0.0249685
 ,0.0758447,-0.0174328,0.005971,-0.0422345,-0.106268,0.0165802,0.010450
 6,0.0584075,0.0302507,-0.0715246,0.0383981,-0.0775962,0.0695327,0.0344
 162,0.0205982,-0.0632468,-0.0026015,0.0232415,0.0160523,-0.029298,0.09
 39261,-0.0939509,0.1245639,-0.0621592,0.0117442,-0.0250206,-0.0378317,
 0.0556963,-0.030552,-0.027172,-0.0209752,0.1349513,-0.0410037,0.004294
 8,-0.0409779,-0.0217605,0.3202512,-0.0480335,-0.0391757,-0.0418466,0.2
 733657,-0.0132274,-0.0719909,-0.0182618,0.2618747\Polar=77.7689977,5.8
 243142,58.2673901,8.5763849,2.3216688,67.8775816\Quadrupole=-1.5820052
 ,-1.4976143,3.0796196,-0.3697092,-0.3353931,0.7038912\PG=C01 [X(C5H10O
 2)]\NImag=0\\0.34521732,-0.05745971,0.19394652,0.14715747,0.09841229,0
 .40250952,-0.00094847,0.00212434,-0.00587804,0.38278095,0.00206289,-0.
 00427932,0.00450445,0.12700524,0.12705276,-0.00066084,0.00669952,0.015
 71009,0.00457926,0.16140946,0.58850194,-0.16575010,0.04987464,-0.03228
 752,0.00384727,-0.00038489,-0.00476319,0.51213445,0.06282645,-0.093913
 44,0.01094329,-0.00110237,-0.00072099,-0.00029292,0.02236123,0.5008071
 0,-0.01444838,-0.00161920,-0.08652931,0.00185558,0.00186310,0.00038542
 ,-0.06625634,0.02779343,0.57753811,-0.01033616,0.03946578,-0.02245362,
 -0.00039731,-0.00003134,0.00124290,-0.08231281,-0.03533816,0.01347378,
 0.58403698,0.01055811,-0.01821969,0.01165684,0.00019110,0.00005775,-0.
 00039533,-0.02632712,-0.18331510,0.03193530,-0.01483645,0.49769937,-0.
 00771388,0.01693465,-0.00637762,-0.00053017,0.00019532,-0.00041884,0.0
 1098566,0.03344202,-0.09527593,0.01064672,0.03195493,0.57309681,-0.022
 67283,-0.01711560,-0.03922498,-0.00034138,0.00012890,0.00047062,-0.083
 37595,-0.01725657,-0.01275095,-0.00026759,-0.00750914,-0.00345179,0.58
 046332,0.00669838,0.00897791,0.01291418,0.00047994,0.00006148,-0.00057
 293,-0.02681171,-0.13313659,-0.06612425,-0.01176636,-0.02619723,-0.026
 00163,-0.01675568,0.56064945,-0.01396470,-0.00775795,-0.01775955,-0.00
 013846,-0.00010817,0.00007860,-0.02322866,-0.06025968,-0.15284306,0.00
 445982,0.00313261,0.00957963,-0.01336098,-0.04534563,0.53288902,-0.104
 82814,-0.00847820,-0.03601433,-0.04138030,-0.01490474,0.02238759,-0.02
 169391,-0.01448179,-0.03830367,0.00135266,0.00110062,0.00042627,-0.005
 28756,0.00300454,-0.00231156,0.85862221,-0.02235136,-0.09003488,-0.097
 32239,-0.00360625,0.01143043,-0.00261448,-0.00812810,0.00523285,0.0070
 2399,0.00476379,-0.00053939,0.00286785,0.00115096,-0.00061460,0.000290
 01,0.21146741,0.22306674,-0.05441063,-0.07865331,-0.24760530,0.0563162
 5,0.00772087,-0.02070408,-0.02515049,0.00047954,-0.02872835,0.00372489
 ,-0.00007958,0.00093283,0.00101231,0.00021090,-0.00015364,-0.05020781,
 0.10563690,0.59144491,-0.01352347,-0.01084449,-0.00699984,-0.21122374,
 -0.01748650,0.13965145,-0.00052582,-0.00120448,0.00200747,0.00081386,-
 0.00072354,-0.00009024,0.00055806,-0.00026134,-0.00001540,-0.49816096,
 -0.16378290,-0.06423615,0.81737592,-0.02545511,-0.00273934,-0.01954296
 ,-0.03244277,-0.05567024,-0.00184413,0.00509499,-0.00240259,0.00141345
 ,-0.00043021,-0.00015498,-0.00027731,-0.00053450,0.00035673,-0.0000043
 3,-0.15336097,-0.11444134,-0.02921225,0.23821725,0.24518146,-0.0504918
 4,-0.02725408,-0.03496956,0.09433760,-0.01780327,-0.22820650,0.0079486
 4,-0.00504154,-0.00200219,-0.00177083,0.00074656,0.00049645,-0.0024978
 2,0.00157345,-0.00049101,-0.03451127,-0.02236416,-0.10162397,0.0346683
 2,0.15312375,0.67931044,-0.04027356,0.00853358,0.01043378,0.00003566,-
 0.00015778,-0.00075551,-0.15326254,-0.00593825,0.11984792,-0.00173375,
 -0.00161128,0.00527676,0.00889827,-0.00029634,-0.00788519,0.00176273,0
 .00201891,0.00637131,-0.00062885,-0.00055196,-0.00056854,0.18233453,0.
 01797895,-0.00061999,-0.00740686,0.00020574,0.00023042,-0.00005367,-0.
 00606104,-0.05076865,0.00502809,-0.02183481,-0.00220072,0.02518157,0.0
 1299138,-0.00037643,-0.01673307,-0.00133729,-0.00041389,-0.00170386,0.
 00002156,0.00002383,0.00026229,-0.00039701,0.05841922,-0.01338349,0.00
 051595,0.00869924,-0.00026185,-0.00042335,0.00003721,0.12498223,0.0028
 1917,-0.19152538,0.00699065,0.00030896,-0.00736610,0.01580921,-0.00032
 436,-0.01878052,-0.00253959,0.00054200,0.00385184,0.00010896,0.0002326
 7,0.00005266,-0.13015245,-0.00390085,0.20493003,0.00219557,-0.00002091
 ,-0.00032352,-0.00019145,-0.00002309,0.00015106,-0.00626027,0.00058416
 ,0.00442000,-0.16347415,-0.00010238,0.13183054,0.00007982,0.00052873,0
 .00000119,-0.00032746,-0.00039154,-0.00024775,0.00016869,0.00000567,-0
 .00000930,0.00107423,-0.00123344,-0.00006379,0.17470725,0.00000420,0.0
 0266990,-0.00241780,-0.00010658,-0.00002483,0.00022597,-0.02390417,-0.
 00207720,0.02594153,0.00178663,-0.04618682,-0.00207534,-0.00017728,0.0
 0201282,0.00129127,-0.00003735,0.00004573,0.00023328,0.00018198,0.0000
 6645,-0.00025445,-0.00067346,-0.00590523,0.00194880,0.00116310,0.05061
 915,-0.00107762,-0.00110849,0.00091583,-0.00036230,-0.00035401,0.00111
 020,0.00858265,0.00079604,-0.00981304,0.13232976,-0.00126537,-0.197157
 89,-0.00099254,-0.00073927,0.00073402,-0.00046959,0.00012779,-0.000234
 41,0.00088043,0.00034990,-0.00097962,-0.00009050,0.00208537,0.00050110
 ,-0.14677384,-0.00084631,0.21184714,-0.00014022,0.00002571,0.00010709,
 0.00007761,-0.00037559,0.00037836,-0.00348101,-0.00232561,-0.00427839,
 -0.08113696,-0.05450258,-0.07069546,0.00022170,-0.00072814,0.00080169,
 0.00005402,0.00082338,-0.00022744,-0.00013361,0.00039459,-0.00048588,-
 0.00010740,0.00009249,-0.00020345,0.00870176,0.01320867,0.01642712,0.0
 8415036,-0.00007882,0.00276992,-0.00024404,-0.00055288,-0.00002311,0.0
 0055717,-0.01136290,-0.01808752,-0.02622685,-0.05299012,-0.13115692,-0
 .11265808,-0.00041023,-0.00552363,0.00405983,-0.00049847,-0.00030792,-
 0.00004162,0.00122771,0.00051110,-0.00009382,0.00025665,0.00121532,0.0
 0029023,0.00075306,-0.00032270,0.00086291,0.06005204,0.14391759,0.0003
 5474,-0.00150820,0.00005665,0.00062095,-0.00008124,-0.00049153,0.00484
 694,0.00639237,0.00967705,-0.07106142,-0.11473167,-0.20076442,-0.00023
 881,0.00191327,-0.00029155,-0.00061859,0.00109992,-0.00035076,-0.00072
 185,0.00033363,-0.00004069,-0.00000113,-0.00087769,0.00068189,-0.00933
 402,-0.01227848,-0.01675574,0.07834532,0.12367354,0.21516471,0.0020421
 9,-0.00151660,0.00020144,-0.00005022,0.00012111,-0.00026862,0.00367985
 ,-0.00256682,0.00201185,-0.24642424,0.09320351,-0.07557688,-0.00023667
 ,-0.00005380,-0.00014827,0.00007662,-0.00005311,0.00023279,-0.00004228
 ,0.00008081,0.00027622,0.00033719,0.00077389,-0.00015515,-0.01676573,0
 .00772391,-0.00784695,-0.00893896,0.00414319,-0.00222461,0.26546119,0.
 00198763,-0.00783763,0.00505856,0.00044585,-0.00002314,-0.00052716,0.0
 2768756,-0.00706631,0.00690497,0.09103587,-0.09014114,0.03558489,0.000
 38945,0.00109272,-0.00024935,-0.00110410,-0.00083395,-0.00226456,-0.00
 013669,0.00052309,0.00064516,-0.00063501,0.00115674,0.00021104,-0.0008
 4825,-0.00077620,-0.00064742,-0.01644197,0.00823310,-0.00476183,-0.101
 48979,0.09620248,-0.00106074,0.00282315,-0.00096873,-0.00015650,-0.000
 11128,0.00038744,-0.00893631,0.00107558,-0.00450925,-0.07487935,0.0362
 5461,-0.07453751,-0.00011565,-0.00039821,-0.00006543,-0.00010504,0.000
 69198,0.00100160,0.00053090,0.00007284,-0.00037473,0.00026437,-0.00038
 915,-0.00009596,0.02092420,-0.01078701,0.00924390,-0.01995093,0.011057
 33,-0.00740588,0.08332696,-0.04002126,0.07734390,0.00171627,-0.0000499
 0,0.00102859,0.00007063,0.00000247,-0.00005160,0.00582229,-0.00032966,
 -0.00774641,0.00055658,0.00059213,-0.00050390,-0.17811248,0.00225299,0
 .13542677,0.00012027,-0.00009248,-0.00056030,-0.00004294,0.00007177,0.
 00021613,0.00028698,-0.00114872,-0.00186707,0.00005062,0.00039801,0.00
 015341,0.00010659,0.00010458,-0.00013328,0.00001708,-0.00004375,0.0001
 1210,0.19011378,0.00017512,0.00044905,0.00174287,-0.00007647,-0.000093
 39,0.00011576,0.01629585,-0.00171497,-0.01621069,0.00144161,0.00129481
 ,-0.00051350,0.00082277,-0.04771352,-0.00118589,0.00004875,-0.00004776
 ,0.00002801,0.00003971,0.00004547,-0.00000545,-0.00168500,-0.00189115,
 -0.00304883,-0.00057312,-0.00031774,0.00021450,-0.00022026,0.00016952,
 0.00032586,0.00002032,-0.00009147,-0.00003010,-0.00129217,0.04916966,0
 .00032046,0.00065205,0.00230600,-0.00018174,0.00001297,0.00027764,0.01
 966790,-0.00141084,-0.02204368,0.00007025,0.00161870,0.00087538,0.1338
 6513,-0.00173521,-0.18321448,-0.00031316,0.00009706,-0.00003148,0.0001
 8590,0.00008759,-0.00009393,-0.00242183,-0.00320385,-0.00260052,-0.000
 34225,-0.00069721,0.00069250,-0.00031027,0.00019223,0.00023114,-0.0001
 2440,0.00003116,0.00004057,-0.14762729,0.00544211,0.20046899,0.0006637
 3,0.00034067,0.00092692,0.00007949,0.00007380,-0.00013936,-0.00307244,
 -0.00887107,0.00367933,-0.00036393,-0.00081746,-0.00178701,-0.05176169
 ,-0.03183585,0.01287780,-0.00003519,0.00001373,-0.00031984,-0.00006050
 ,0.00002309,0.00024460,0.00013272,0.00062708,-0.00014091,0.00022305,0.
 00035332,-0.00023682,0.00043794,-0.00065803,0.00000306,0.00022757,-0.0
 0029747,0.00011985,-0.00268200,-0.02174035,0.00693265,0.05100729,0.000
 80139,0.00208433,0.00085116,0.00000042,0.00005451,-0.00005246,-0.00177
 110,-0.02008577,0.00880466,-0.00131485,-0.00123369,-0.00469032,-0.0332
 7126,-0.28252263,0.08809900,-0.00011138,0.00024925,-0.00028466,0.00007
 737,0.00010207,0.00010824,0.00042827,0.00066990,-0.00011620,0.00006607
 ,0.00025941,-0.00001850,-0.00025230,-0.00122890,0.00055864,0.00009300,
 0.00032154,0.00002822,0.00020558,0.00189117,-0.00075811,0.03640342,0.3
 0741952,0.00166283,0.00101417,0.00153509,0.00010279,0.00002477,-0.0001
 1600,-0.00378352,-0.02593812,0.00937134,-0.00195587,-0.00214058,-0.003
 96639,0.01319504,0.09131060,-0.08169373,0.00015159,-0.00006721,-0.0001
 6217,-0.00003209,0.00001557,0.00022149,0.00053604,0.00062845,0.0012192
 8,-0.00032060,-0.00012970,0.00007217,-0.00042593,-0.00152560,0.0005749
 6,0.00014181,0.00009842,-0.00012542,0.00130481,0.02126667,-0.00781433,
 -0.01331624,-0.09503192,0.08595504,0.00015704,-0.00167074,-0.00287840,
 -0.00015889,-0.00004067,0.00015382,-0.00831712,0.00474564,-0.00027884,
 0.00002299,0.00059121,0.00040599,-0.24794806,0.07565080,-0.09224080,0.
 00005669,0.00033807,0.00063744,0.00008453,-0.00007900,-0.00038563,0.00
 037282,-0.00026209,-0.00029828,-0.00007316,-0.00002073,-0.00012682,0.0
 0028860,-0.00012439,0.00008045,0.00038806,-0.00055540,0.00000681,-0.01
 779958,0.00678322,-0.00963908,0.00517481,-0.00142008,0.00276019,0.2677
 5075,-0.00224848,-0.00169813,-0.00450919,-0.00012157,0.00004893,0.0001
 5046,-0.01711521,0.00696407,-0.00416393,0.00014006,0.00032327,0.000375
 77,0.07788933,-0.07715719,0.03474507,-0.00102809,0.00055898,-0.0001801
 6,0.00012914,-0.00006177,-0.00045842,0.00057374,0.00060788,0.00041491,
 -0.00005986,-0.00001790,0.00008653,0.00012524,0.00027171,0.00006069,-0
 .00019437,-0.00061972,-0.00030584,-0.00063647,-0.00124895,-0.00022433,
 0.02651161,-0.00777016,0.01051779,-0.08395839,0.07994813,-0.00277474,-
 0.00365070,-0.00574071,-0.00025179,0.00000511,0.00030552,-0.01953451,0
 .01188185,-0.00670422,0.00017022,0.00073044,0.00065805,-0.09086070,0.0
 3302939,-0.08831650,-0.00142897,0.00029403,0.00111091,0.00018621,-0.00
 015878,-0.00093241,0.00080038,0.00059323,0.00024458,0.00010907,-0.0001
 2491,-0.00001390,0.00030194,0.00009077,-0.00013899,0.00011640,-0.00043
 362,0.00030304,0.02019054,-0.00819981,0.01078352,-0.00898814,0.0024505
 8,-0.00508594,0.10194330,-0.03641793,0.09375758,0.00846643,0.00100096,
 -0.01014944,-0.00220763,-0.00440229,-0.00213277,0.00392764,-0.00079741
 ,-0.00157450,-0.00036817,0.00021421,0.00026309,0.00011116,-0.00018945,
 -0.00022153,-0.18788268,-0.01636203,0.14288422,-0.01112790,0.00184549,
 0.02445645,0.00012071,-0.00021928,0.00117359,-0.00004202,-0.00004325,0
 .00005436,-0.00000783,0.00002040,0.00005719,0.00000481,0.00003705,-0.0
 0001143,-0.00019047,-0.00001481,0.00002001,-0.00000355,0.00000240,-0.0
 0001431,-0.00004142,0.00001409,0.00007294,0.18940355,0.00791353,0.0010
 3931,-0.01568756,-0.00587749,0.00898301,-0.00124432,0.00126386,-0.0001
 9261,0.00074966,-0.00029242,0.00009634,0.00001774,-0.00002848,0.000021
 25,-0.00004237,-0.01748654,-0.03298646,0.00413067,-0.00396863,-0.00025
 027,0.00838573,-0.00029098,0.00021325,0.00029760,-0.00001105,-0.000108
 95,-0.00011060,-0.00014875,-0.00023410,0.00003420,-0.00002873,0.000081
 46,-0.00008711,0.00001082,-0.00001315,0.00004240,-0.00000790,-0.000075
 16,-0.00003110,-0.00004981,-0.00001828,-0.00001023,0.01790678,0.027992
 64,0.01116126,-0.00390240,-0.03190936,-0.00167773,-0.00306490,0.002008
 79,0.00587799,-0.00202386,0.00146233,-0.00067460,0.00015693,-0.0001533
 6,-0.00068865,0.00017381,0.00013384,0.14502194,0.00331411,-0.20304254,
 -0.00346959,0.00070063,0.00670966,-0.00147928,0.00030841,0.00039292,-0
 .00001015,-0.00014945,0.00016688,0.00010536,0.00020079,-0.00010903,-0.
 00003026,0.00026542,-0.00003008,0.00003945,0.00012033,0.00031154,0.000
 06994,0.00001610,0.00000880,-0.00016218,-0.00007764,-0.00010665,-0.153
 37076,0.00306373,0.22473270,-0.00425569,-0.00359088,-0.00048729,0.0093
 7332,0.00956252,0.02657480,0.00081826,-0.00156727,0.00055828,0.0000012
 1,0.00010006,0.00003950,-0.00044007,0.00022946,-0.00011096,0.00033821,
 -0.00658105,-0.02470647,-0.09809625,-0.04553435,-0.09878727,-0.0002138
 6,0.00007742,-0.00005753,0.00000813,0.00001470,-0.00000158,0.00000105,
 0.00002293,-0.00005062,0.00000028,0.00003610,-0.00004428,0.00003366,0.
 00000828,0.00002863,0.00003230,0.00004067,0.00003381,-0.00005497,-0.00
 004360,-0.00013730,-0.00057292,0.00142417,0.00014718,0.09585587,-0.004
 20127,0.01071097,0.00075680,0.00193778,0.00223840,0.00086981,-0.000481
 92,-0.00078828,-0.00176060,-0.00010024,-0.00024452,-0.00000818,-0.0003
 6385,0.00023844,-0.00011799,-0.00136553,-0.00162761,-0.00939693,-0.042
 52011,-0.07293662,-0.09014699,0.00001586,-0.00004770,0.00009811,0.0000
 2759,0.00001649,-0.00000725,0.00005775,0.00004108,0.00007501,0.0000040
 0,0.00000237,0.00000717,0.00000846,0.00000830,-0.00002285,-0.00002164,
 -0.00004145,-0.00000021,-0.00001551,-0.00013303,-0.00009061,0.00092811
 ,-0.00366467,0.00108040,0.04653545,0.06382523,0.00142633,-0.00164384,0
 .00169060,-0.00437086,-0.00855506,-0.02588113,0.00012353,-0.00007385,0
 .00054551,0.00007281,0.00006029,-0.00007281,0.00008693,-0.00002742,0.0
 0000637,0.00074413,0.00045046,0.00123382,-0.09362554,-0.08992844,-0.27
 443211,-0.00004521,0.00001298,-0.00002428,0.00000035,-0.00000929,0.000
 06551,-0.00002264,-0.00000737,-0.00005003,-0.00002121,-0.00000574,0.00
 001685,0.00000076,-0.00000012,0.00002113,0.00000617,0.00001087,0.00000
 598,0.00000554,0.00003102,0.00002461,-0.00077768,0.00081635,-0.0000460
 8,0.09270081,0.09808701,0.29819747,0.00227010,-0.00061866,-0.00315831,
 -0.13936554,-0.10115006,-0.18681798,-0.00217777,0.00126197,-0.00221673
 ,0.00003082,-0.00012100,0.00047481,0.00011195,-0.00014617,0.00005924,-
 0.00278721,0.00077256,0.00888766,0.01456526,0.01265521,0.02736045,0.00
 086412,-0.00027483,0.00005888,-0.00007488,0.00012828,-0.00044917,-0.00
 009364,0.00009527,0.00007566,0.00022327,-0.00006709,-0.00002497,-0.000
 06728,-0.00003344,-0.00013093,0.00000038,0.00002240,-0.00004035,0.0000
 9691,0.00002283,0.00008514,0.00041029,-0.00032840,-0.00085992,-0.00282
 851,-0.00044494,0.00369578,0.12882174,0.00078809,-0.00330548,0.0002903
 5,-0.08850403,-0.08932268,-0.16243075,-0.00022996,0.00126600,-0.001352
 68,0.00030121,0.00011867,-0.00033037,0.00004980,-0.00016897,0.00018662
 ,-0.00142687,0.00126382,0.00337676,0.00103395,0.00184695,-0.00142299,0
 .00041005,-0.00031279,0.00013416,0.00013524,0.00004762,0.00057417,0.00
 021531,-0.00024453,-0.00022803,-0.00026054,-0.00022393,0.00011908,-0.0
 0005368,0.00010411,-0.00012388,-0.00009693,-0.00009391,-0.00001201,0.0
 0008788,0.00000216,0.00001119,0.00005902,-0.00088362,-0.00018240,-0.00
 073460,0.00240260,0.00078214,0.08822606,0.08750400,-0.00209624,0.00004
 639,-0.00156288,-0.14400298,-0.14523477,-0.33298478,0.00092502,-0.0005
 8249,0.00099466,-0.00038611,0.00005637,0.00045173,-0.00025641,0.000143
 28,0.00018798,-0.00190794,-0.00006786,0.00306082,-0.00902896,-0.015361
 82,-0.04264396,-0.00013092,0.00016859,-0.00021799,-0.00001119,0.000129
 09,-0.00039465,0.00013349,-0.00018742,0.00001222,0.00008887,0.00011132
 ,-0.00022429,0.00001729,-0.00006172,-0.00021000,0.00006799,0.00002469,
 -0.00000016,0.00001650,-0.00004480,-0.00014848,-0.00072943,-0.00032480
 ,-0.00053036,0.00430028,0.00057729,-0.00130141,0.15300074,0.16060864,0
 .37551155\\-0.00000016,-0.00000022,0.00000019,0.,-0.00000168,0.0000001
 6,-0.00000023,0.00000063,0.00000005,0.00000051,0.00000072,0.00000009,-
 0.00000075,0.00000143,-0.00000079,0.00000032,-0.00000104,-0.00000020,-
 0.00000037,-0.00000208,0.00000034,-0.00000002,0.00000058,-0.00000012,0
 .00000044,0.00000064,0.00000060,0.00000093,0.00000003,0.00000088,0.000
 00102,0.00000143,0.00000082,-0.00000055,0.00000122,-0.00000045,-0.0000
 0110,0.00000117,-0.00000101,-0.00000029,0.00000185,-0.00000030,-0.0000
 0008,-0.00000102,-0.00000025,0.00000037,-0.00000239,0.00000032,-0.0000
 0006,-0.00000129,-0.00000033\\\@


 Ideas are like rabbits. You get a couple and learn
 how to handle them, and pretty soon you have a dozen.
                                    -- John Steinbeck
 Job cpu time:       0 days  3 hours 14 minutes 13.7 seconds.
 Elapsed time:       0 days  1 hours 37 minutes 25.9 seconds.
 File lengths (MBytes):  RWF=   1392 Int=      0 D2E=      0 Chk=     32 Scr=     32
 Normal termination of Gaussian 16 at Fri Sep 27 14:02:48 2019.
