 Entering Gaussian System, Link 0=g16
 Input=tight/species/CC(C)OC=CO/conformers/CC(C)OC=CO_52.com
 Output=tight/species/CC(C)OC=CO/conformers/CC(C)OC=CO_52.log
 Initial command:
 /shared/centos7/gaussian/g16/l1.exe "/scratch/harms.n/gauss_scrdir/Gau-18055.inp" -scrdir="/scratch/harms.n/gauss_scrdir/"
 Entering Link 1 = /shared/centos7/gaussian/g16/l1.exe PID=     18056.
  
 Copyright (c) 1988,1990,1992,1993,1995,1998,2003,2009,2016,
            Gaussian, Inc.  All Rights Reserved.
  
 This is part of the Gaussian(R) 16 program.  It is based on
 the Gaussian(R) 09 system (copyright 2009, Gaussian, Inc.),
 the Gaussian(R) 03 system (copyright 2003, Gaussian, Inc.),
 the Gaussian(R) 98 system (copyright 1998, Gaussian, Inc.),
 the Gaussian(R) 94 system (copyright 1995, Gaussian, Inc.),
 the Gaussian 92(TM) system (copyright 1992, Gaussian, Inc.),
 the Gaussian 90(TM) system (copyright 1990, Gaussian, Inc.),
 the Gaussian 88(TM) system (copyright 1988, Gaussian, Inc.),
 the Gaussian 86(TM) system (copyright 1986, Carnegie Mellon
 University), and the Gaussian 82(TM) system (copyright 1983,
 Carnegie Mellon University). Gaussian is a federally registered
 trademark of Gaussian, Inc.
  
 This software contains proprietary and confidential information,
 including trade secrets, belonging to Gaussian, Inc.
  
 This software is provided under written license and may be
 used, copied, transmitted, or stored only in accord with that
 written license.
  
 The following legend is applicable only to US Government
 contracts under FAR:
  
                    RESTRICTED RIGHTS LEGEND
  
 Use, reproduction and disclosure by the US Government is
 subject to restrictions as set forth in subparagraphs (a)
 and (c) of the Commercial Computer Software - Restricted
 Rights clause in FAR 52.227-19.
  
 Gaussian, Inc.
 340 Quinnipiac St., Bldg. 40, Wallingford CT 06492
  
  
 ---------------------------------------------------------------
 Warning -- This program may not be used in any manner that
 competes with the business of Gaussian, Inc. or will provide
 assistance to any competitor of Gaussian, Inc.  The licensee
 of this program is prohibited from giving any competitor of
 Gaussian, Inc. access to this program.  By using this program,
 the user acknowledges that Gaussian, Inc. is engaged in the
 business of creating and licensing software in the field of
 computational chemistry and represents and warrants to the
 licensee that it is not a competitor of Gaussian, Inc. and that
 it will not use this program in any manner prohibited above.
 ---------------------------------------------------------------
  

 Cite this work as:
 Gaussian 16, Revision A.03,
 M. J. Frisch, G. W. Trucks, H. B. Schlegel, G. E. Scuseria, 
 M. A. Robb, J. R. Cheeseman, G. Scalmani, V. Barone, 
 G. A. Petersson, H. Nakatsuji, X. Li, M. Caricato, A. V. Marenich, 
 J. Bloino, B. G. Janesko, R. Gomperts, B. Mennucci, H. P. Hratchian, 
 J. V. Ortiz, A. F. Izmaylov, J. L. Sonnenberg, D. Williams-Young, 
 F. Ding, F. Lipparini, F. Egidi, J. Goings, B. Peng, A. Petrone, 
 T. Henderson, D. Ranasinghe, V. G. Zakrzewski, J. Gao, N. Rega, 
 G. Zheng, W. Liang, M. Hada, M. Ehara, K. Toyota, R. Fukuda, 
 J. Hasegawa, M. Ishida, T. Nakajima, Y. Honda, O. Kitao, H. Nakai, 
 T. Vreven, K. Throssell, J. A. Montgomery, Jr., J. E. Peralta, 
 F. Ogliaro, M. J. Bearpark, J. J. Heyd, E. N. Brothers, K. N. Kudin, 
 V. N. Staroverov, T. A. Keith, R. Kobayashi, J. Normand, 
 K. Raghavachari, A. P. Rendell, J. C. Burant, S. S. Iyengar, 
 J. Tomasi, M. Cossi, J. M. Millam, M. Klene, C. Adamo, R. Cammi, 
 J. W. Ochterski, R. L. Martin, K. Morokuma, O. Farkas, 
 J. B. Foresman, and D. J. Fox, Gaussian, Inc., Wallingford CT, 2016.
 
 ******************************************
 Gaussian 16:  EM64L-G16RevA.03 25-Dec-2016
                29-Sep-2019 
 ******************************************
 %nprocshared=20
 Will use up to   20 processors via shared memory.
 %mem=5GB
 ----------------------------------------------------------------------
 #p m062x/cc-pVTZ opt=(calcfc,maxcycles=900,Tight) freq IOP(7/33=1,2/16
 =3) scf=(maxcycle=900)
 ----------------------------------------------------------------------
 1/6=900,7=10,10=4,18=20,19=15,26=3,38=1/1,3;
 2/9=110,12=2,16=3,17=6,18=5,40=1/2;
 3/5=16,6=1,11=2,25=1,30=1,71=2,74=-55,140=1/1,2,3;
 4//1;
 5/5=2,7=900,38=5/2;
 8/6=4,10=90,11=11/1;
 11/6=1,8=1,9=11,15=111,16=1/1,2,10;
 10/6=1,13=1/2;
 6/7=2,8=2,9=2,10=2,28=1/1;
 7/10=1,18=20,25=1,33=1/1,2,3,16;
 1/6=900,7=10,10=4,18=20,19=15,26=3/3(2);
 2/9=110,16=3/2;
 99//99;
 2/9=110,16=3/2;
 3/5=16,6=1,11=2,25=1,30=1,71=1,74=-55/1,2,3;
 4/5=5,16=3,69=1/1;
 5/5=2,7=900,38=5/2;
 7/33=1/1,2,3,16;
 1/6=900,7=10,18=20,19=15,26=3/3(-5);
 2/9=110,16=3/2;
 6/7=2,8=2,9=2,10=2,19=2,28=1/1;
 99/9=1/99;
 Leave Link    1 at Sun Sep 29 06:32:06 2019, MaxMem=   671088640 cpu:               4.1 elap:               2.0
 (Enter /shared/centos7/gaussian/g16/l101.exe)
 ------------------------------
 Gaussian input prepared by ASE
 ------------------------------
 Symbolic Z-matrix:
 Charge =  0 Multiplicity = 1
 O                     0.24271  -0.44982   3.03731 
 O                     0.16186  -0.88431   0.2083 
 C                     0.29013   0.21888   4.28008 
 C                    -0.20154   1.66062   4.15093 
 C                     1.63139   0.13056   4.93067 
 C                     1.20185  -0.00501   2.15636 
 C                     1.18654  -0.22844   0.87421 
 H                    -0.45602  -0.32487   4.92346 
 H                    -1.19738   1.68231   3.661 
 H                    -0.28936   2.13397   5.14577 
 H                     0.50985   2.27288   3.53311 
 H                     2.43771   0.44922   4.20609 
 H                     1.85185  -0.90912   5.2509 
 H                     1.70042   0.80092   5.83367 
 H                     2.05612   0.51672   2.61652 
 H                     1.99689   0.11363   0.24752 
 H                     0.43576  -0.94804  -0.75228 
 
 ITRead=  0  0  0  0  0  0  0  0  0  0  0  0  0  0  0  0  0
 MicOpt= -1 -1 -1 -1 -1 -1 -1 -1 -1 -1 -1 -1 -1 -1 -1 -1 -1
 NAtoms=     17 NQM=       17 NQMF=       0 NMMI=      0 NMMIF=      0
                NMic=       0 NMicF=      0.
                    Isotopes and Nuclear Properties:
 (Nuclear quadrupole moments (NQMom) in fm**2, nuclear magnetic moments (NMagM)
  in nuclear magnetons)

  Atom         1           2           3           4           5           6           7           8           9          10
 IAtWgt=          16          16          12          12          12          12          12           1           1           1
 AtmWgt=  15.9949146  15.9949146  12.0000000  12.0000000  12.0000000  12.0000000  12.0000000   1.0078250   1.0078250   1.0078250
 NucSpn=           0           0           0           0           0           0           0           1           1           1
 AtZEff=  -0.0000000  -0.0000000  -0.0000000  -0.0000000  -0.0000000  -0.0000000  -0.0000000  -0.0000000  -0.0000000  -0.0000000
 NQMom=    0.0000000   0.0000000   0.0000000   0.0000000   0.0000000   0.0000000   0.0000000   0.0000000   0.0000000   0.0000000
 NMagM=    0.0000000   0.0000000   0.0000000   0.0000000   0.0000000   0.0000000   0.0000000   2.7928460   2.7928460   2.7928460
 AtZNuc=   8.0000000   8.0000000   6.0000000   6.0000000   6.0000000   6.0000000   6.0000000   1.0000000   1.0000000   1.0000000

  Atom        11          12          13          14          15          16          17
 IAtWgt=           1           1           1           1           1           1           1
 AtmWgt=   1.0078250   1.0078250   1.0078250   1.0078250   1.0078250   1.0078250   1.0078250
 NucSpn=           1           1           1           1           1           1           1
 AtZEff=  -0.0000000  -0.0000000  -0.0000000  -0.0000000  -0.0000000  -0.0000000  -0.0000000
 NQMom=    0.0000000   0.0000000   0.0000000   0.0000000   0.0000000   0.0000000   0.0000000
 NMagM=    2.7928460   2.7928460   2.7928460   2.7928460   2.7928460   2.7928460   2.7928460
 AtZNuc=   1.0000000   1.0000000   1.0000000   1.0000000   1.0000000   1.0000000   1.0000000
 Leave Link  101 at Sun Sep 29 06:32:08 2019, MaxMem=   671088640 cpu:               2.7 elap:               1.3
 (Enter /shared/centos7/gaussian/g16/l103.exe)

 GradGradGradGradGradGradGradGradGradGradGradGradGradGradGradGradGradGrad
 Berny optimization.
 Initialization pass.
                           ----------------------------
                           !    Initial Parameters    !
                           ! (Angstroms and Degrees)  !
 --------------------------                            --------------------------
 ! Name  Definition              Value          Derivative Info.                !
 --------------------------------------------------------------------------------
 ! R1    R(1,3)                  1.412          calculate D2E/DX2 analytically  !
 ! R2    R(1,6)                  1.3762         calculate D2E/DX2 analytically  !
 ! R3    R(2,7)                  1.3869         calculate D2E/DX2 analytically  !
 ! R4    R(2,17)                 1.0009         calculate D2E/DX2 analytically  !
 ! R5    R(3,4)                  1.5287         calculate D2E/DX2 analytically  !
 ! R6    R(3,5)                  1.4933         calculate D2E/DX2 analytically  !
 ! R7    R(3,8)                  1.1253         calculate D2E/DX2 analytically  !
 ! R8    R(4,9)                  1.1101         calculate D2E/DX2 analytically  !
 ! R9    R(4,10)                 1.1052         calculate D2E/DX2 analytically  !
 ! R10   R(4,11)                 1.1237         calculate D2E/DX2 analytically  !
 ! R11   R(5,12)                 1.1299         calculate D2E/DX2 analytically  !
 ! R12   R(5,13)                 1.11           calculate D2E/DX2 analytically  !
 ! R13   R(5,14)                 1.1267         calculate D2E/DX2 analytically  !
 ! R14   R(6,7)                  1.3016         calculate D2E/DX2 analytically  !
 ! R15   R(6,15)                 1.1017         calculate D2E/DX2 analytically  !
 ! R16   R(7,16)                 1.08           calculate D2E/DX2 analytically  !
 ! A1    A(3,1,6)              112.7632         calculate D2E/DX2 analytically  !
 ! A2    A(7,2,17)             106.7815         calculate D2E/DX2 analytically  !
 ! A3    A(1,3,4)              111.1906         calculate D2E/DX2 analytically  !
 ! A4    A(1,3,5)              112.6798         calculate D2E/DX2 analytically  !
 ! A5    A(1,3,8)              104.6014         calculate D2E/DX2 analytically  !
 ! A6    A(4,3,5)              112.4237         calculate D2E/DX2 analytically  !
 ! A7    A(4,3,8)              106.903          calculate D2E/DX2 analytically  !
 ! A8    A(5,3,8)              108.5343         calculate D2E/DX2 analytically  !
 ! A9    A(3,4,9)              110.1357         calculate D2E/DX2 analytically  !
 ! A10   A(3,4,10)             110.6975         calculate D2E/DX2 analytically  !
 ! A11   A(3,4,11)             110.8977         calculate D2E/DX2 analytically  !
 ! A12   A(9,4,10)             108.5194         calculate D2E/DX2 analytically  !
 ! A13   A(9,4,11)             108.3396         calculate D2E/DX2 analytically  !
 ! A14   A(10,4,11)            108.1711         calculate D2E/DX2 analytically  !
 ! A15   A(3,5,12)             110.1746         calculate D2E/DX2 analytically  !
 ! A16   A(3,5,13)             111.068          calculate D2E/DX2 analytically  !
 ! A17   A(3,5,14)             111.6528         calculate D2E/DX2 analytically  !
 ! A18   A(12,5,13)            107.9046         calculate D2E/DX2 analytically  !
 ! A19   A(12,5,14)            107.6028         calculate D2E/DX2 analytically  !
 ! A20   A(13,5,14)            108.2938         calculate D2E/DX2 analytically  !
 ! A21   A(1,6,7)              124.5351         calculate D2E/DX2 analytically  !
 ! A22   A(1,6,15)             115.2215         calculate D2E/DX2 analytically  !
 ! A23   A(7,6,15)             120.124          calculate D2E/DX2 analytically  !
 ! A24   A(2,7,6)              124.2526         calculate D2E/DX2 analytically  !
 ! A25   A(2,7,16)             115.1831         calculate D2E/DX2 analytically  !
 ! A26   A(6,7,16)             120.5585         calculate D2E/DX2 analytically  !
 ! D1    D(6,1,3,4)             71.3725         calculate D2E/DX2 analytically  !
 ! D2    D(6,1,3,5)            -55.8862         calculate D2E/DX2 analytically  !
 ! D3    D(6,1,3,8)           -173.5882         calculate D2E/DX2 analytically  !
 ! D4    D(3,1,6,7)           -163.7657         calculate D2E/DX2 analytically  !
 ! D5    D(3,1,6,15)            20.2197         calculate D2E/DX2 analytically  !
 ! D6    D(17,2,7,6)          -177.4996         calculate D2E/DX2 analytically  !
 ! D7    D(17,2,7,16)            3.374          calculate D2E/DX2 analytically  !
 ! D8    D(1,3,4,9)             52.4302         calculate D2E/DX2 analytically  !
 ! D9    D(1,3,4,10)           172.4416         calculate D2E/DX2 analytically  !
 ! D10   D(1,3,4,11)           -67.4854         calculate D2E/DX2 analytically  !
 ! D11   D(5,3,4,9)            179.8284         calculate D2E/DX2 analytically  !
 ! D12   D(5,3,4,10)           -60.1602         calculate D2E/DX2 analytically  !
 ! D13   D(5,3,4,11)            59.9128         calculate D2E/DX2 analytically  !
 ! D14   D(8,3,4,9)            -61.1725         calculate D2E/DX2 analytically  !
 ! D15   D(8,3,4,10)            58.8389         calculate D2E/DX2 analytically  !
 ! D16   D(8,3,4,11)           178.9119         calculate D2E/DX2 analytically  !
 ! D17   D(1,3,5,12)            51.44           calculate D2E/DX2 analytically  !
 ! D18   D(1,3,5,13)           -68.0672         calculate D2E/DX2 analytically  !
 ! D19   D(1,3,5,14)           170.9457         calculate D2E/DX2 analytically  !
 ! D20   D(4,3,5,12)           -75.1622         calculate D2E/DX2 analytically  !
 ! D21   D(4,3,5,13)           165.3306         calculate D2E/DX2 analytically  !
 ! D22   D(4,3,5,14)            44.3435         calculate D2E/DX2 analytically  !
 ! D23   D(8,3,5,12)           166.7978         calculate D2E/DX2 analytically  !
 ! D24   D(8,3,5,13)            47.2907         calculate D2E/DX2 analytically  !
 ! D25   D(8,3,5,14)           -73.6965         calculate D2E/DX2 analytically  !
 ! D26   D(1,6,7,2)              3.6899         calculate D2E/DX2 analytically  !
 ! D27   D(1,6,7,16)          -177.2282         calculate D2E/DX2 analytically  !
 ! D28   D(15,6,7,2)           179.5212         calculate D2E/DX2 analytically  !
 ! D29   D(15,6,7,16)           -1.397          calculate D2E/DX2 analytically  !
 --------------------------------------------------------------------------------
 Trust Radius=3.00D-01 FncErr=1.00D-07 GrdErr=1.00D-06 EigMax=2.50D+02 EigMin=1.00D-04
 Number of steps in this run=    102 maximum allowed number of steps=    102.
 GradGradGradGradGradGradGradGradGradGradGradGradGradGradGradGradGradGrad

 Leave Link  103 at Sun Sep 29 06:32:08 2019, MaxMem=   671088640 cpu:               1.7 elap:               0.9
 (Enter /shared/centos7/gaussian/g16/l202.exe)
                          Input orientation:                          
 ---------------------------------------------------------------------
 Center     Atomic      Atomic             Coordinates (Angstroms)
 Number     Number       Type             X           Y           Z
 ---------------------------------------------------------------------
      1          8           0        0.242709   -0.449823    3.037312
      2          8           0        0.161857   -0.884313    0.208296
      3          6           0        0.290127    0.218884    4.280075
      4          6           0       -0.201539    1.660618    4.150927
      5          6           0        1.631394    0.130555    4.930666
      6          6           0        1.201848   -0.005005    2.156356
      7          6           0        1.186541   -0.228441    0.874211
      8          1           0       -0.456023   -0.324870    4.923456
      9          1           0       -1.197384    1.682310    3.660996
     10          1           0       -0.289365    2.133971    5.145769
     11          1           0        0.509853    2.272876    3.533114
     12          1           0        2.437705    0.449216    4.206094
     13          1           0        1.851850   -0.909120    5.250897
     14          1           0        1.700423    0.800920    5.833665
     15          1           0        2.056121    0.516724    2.616521
     16          1           0        1.996890    0.113625    0.247516
     17          1           0        0.435759   -0.948044   -0.752276
 ---------------------------------------------------------------------
                    Distance matrix (angstroms):
                    1          2          3          4          5
     1  O    0.000000
     2  O    2.863329   0.000000
     3  C    1.412047   4.220531   0.000000
     4  C    2.427233   4.706705   1.528729   0.000000
     5  C    2.418693   5.048789   1.493342   2.511718   0.000000
     6  C    1.376189   2.376910   2.321970   2.953322   2.810637
     7  C    2.370408   1.386935   3.550150   4.028918   4.096535
     8  H    2.015286   4.788266   1.125320   2.145629   2.136533
     9  H    2.647422   4.511787   2.176595   1.110050   3.467275
    10  H    3.377083   5.804505   2.180091   1.105209   2.783749
    11  H    2.780337   4.598191   2.196614   1.123668   2.792945
    12  H    2.644301   4.789590   2.161162   2.904505   1.129905
    13  H    2.774932   5.318319   2.157283   3.468414   1.109989
    14  H    3.392474   6.070582   2.177463   2.681072   1.126748
    15  H    2.097557   3.369078   2.444352   2.959718   2.384279
    16  H    3.343290   2.089202   4.380143   4.739504   4.697421
    17  H    3.827071   1.000891   5.167929   5.590409   5.906670
                    6          7          8          9         10
     6  C    0.000000
     7  C    1.301558   0.000000
     8  H    3.241557   4.370778   0.000000
     9  H    3.296557   4.135243   2.484390   0.000000
    10  H    3.966803   5.099558   2.474489   1.798068   0.000000
    11  H    2.750102   3.712715   3.100685   1.811016   1.805186
    12  H    2.436203   3.622992   3.080175   3.877052   3.340404
    13  H    3.288786   4.478988   2.403091   4.305941   3.722400
    14  H    3.797459   5.091153   2.597333   3.727550   2.491883
    15  H    1.101697   2.084966   3.512990   3.610377   3.809710
    16  H    2.071192   1.080011   5.298441   4.931126   5.770758
    17  H    3.152198   1.930534   5.779062   5.391001   6.694143
                   11         12         13         14         15
    11  H    0.000000
    12  H    2.737746   0.000000
    13  H    3.857050   1.811054   0.000000
    14  H    2.979370   1.821063   1.812950   0.000000
    15  H    2.512998   1.636125   3.002448   3.249201   0.000000
    16  H    4.203427   3.997158   5.108900   5.636074   2.403785
    17  H    5.361379   5.526803   6.168056   6.930575   4.014961
                   16         17
    16  H    0.000000
    17  H    2.136318   0.000000
 Stoichiometry    C5H10O2
 Framework group  C1[X(C5H10O2)]
 Deg. of freedom    45
 Full point group                 C1      NOp   1
 Largest Abelian subgroup         C1      NOp   1
 Largest concise Abelian subgroup C1      NOp   1
                         Standard orientation:                         
 ---------------------------------------------------------------------
 Center     Atomic      Atomic             Coordinates (Angstroms)
 Number     Number       Type             X           Y           Z
 ---------------------------------------------------------------------
      1          8           0       -0.021619    0.044969   -0.718538
      2          8           0        2.807437    0.335595   -0.385929
      3          6           0       -1.408047    0.147751   -0.471293
      4          6           0       -1.716580    1.311549    0.470722
      5          6           0       -2.006341   -1.137962   -0.003261
      6          6           0        0.681824   -0.409019    0.373688
      7          6           0        1.971888   -0.308788    0.514191
      8          1           0       -1.855853    0.407922   -1.470356
      9          1           0       -1.252605    2.245125    0.089442
     10          1           0       -2.807402    1.469538    0.552172
     11          1           0       -1.313636    1.111423    1.500390
     12          1           0       -1.413644   -1.549938    0.866033
     13          1           0       -2.000015   -1.898617   -0.811616
     14          1           0       -3.069283   -0.999791    0.344050
     15          1           0        0.083377   -0.944059    1.128227
     16          1           0        2.464187   -0.727658    1.379415
     17          1           0        3.741866    0.220348   -0.046305
 ---------------------------------------------------------------------
 Rotational constants (GHZ):           5.6897487           1.3809929           1.2813990
 Leave Link  202 at Sun Sep 29 06:32:10 2019, MaxMem=   671088640 cpu:               3.7 elap:               1.9
 (Enter /shared/centos7/gaussian/g16/l301.exe)
 Standard basis: CC-pVTZ (5D, 7F)
 Ernie: Thresh=  0.10000D-02 Tol=  0.10000D-05 Strict=F.
 Ernie:  21 primitive shells out of 262 were deleted.
 There are   395 symmetry adapted cartesian basis functions of A   symmetry.
 There are   350 symmetry adapted basis functions of A   symmetry.
   350 basis functions,   534 primitive gaussians,   395 cartesian basis functions
    28 alpha electrons       28 beta electrons
       nuclear repulsion energy       314.4684827292 Hartrees.
 IExCor= 4336 DFT=T Ex+Corr=M062X ExCW=0 ScaHFX=  0.540000
 ScaDFX=  1.000000  1.000000  1.000000  1.000000 ScalE2=  1.000000  1.000000
 IRadAn=      5 IRanWt=     -1 IRanGd=            0 ICorTp=0 IEmpDi=  4
 NAtoms=   17 NActive=   17 NUniq=   17 SFac= 1.00D+00 NAtFMM=   60 NAOKFM=F Big=F
 Integral buffers will be    131072 words long.
 Raffenetti 2 integral format.
 Two-electron integral symmetry is turned on.
 Leave Link  301 at Sun Sep 29 06:32:11 2019, MaxMem=   671088640 cpu:               1.8 elap:               0.9
 (Enter /shared/centos7/gaussian/g16/l302.exe)
 NPDir=0 NMtPBC=     1 NCelOv=     1 NCel=       1 NClECP=     1 NCelD=      1
         NCelK=      1 NCelE2=     1 NClLst=     1 CellRange=     0.0.
 One-electron integrals computed using PRISM.
 One-electron integral symmetry used in STVInt
 NBasis=   350 RedAO= T EigKep=  1.98D-04  NBF=   350
 NBsUse=   350 1.00D-06 EigRej= -1.00D+00 NBFU=   350
 Precomputing XC quadrature grid using
 IXCGrd= 4 IRadAn=           5 IRanWt=          -1 IRanGd=           0 AccXCQ= 0.00D+00.
 Generated NRdTot=       0 NPtTot=           0 NUsed=           0 NTot=          32
 NSgBfM=   395   395   395   395   395 MxSgAt=    17 MxSgA2=    17.
 Leave Link  302 at Sun Sep 29 06:33:33 2019, MaxMem=   671088640 cpu:             163.0 elap:              81.6
 (Enter /shared/centos7/gaussian/g16/l303.exe)
 DipDrv:  MaxL=1.
 Leave Link  303 at Sun Sep 29 06:33:37 2019, MaxMem=   671088640 cpu:               8.6 elap:               4.4
 (Enter /shared/centos7/gaussian/g16/l401.exe)
 ExpMin= 1.03D-01 ExpMax= 1.53D+04 ExpMxC= 5.22D+02 IAcc=3 IRadAn=         5 AccDes= 0.00D+00
 Harris functional with IExCor= 1009 and IRadAn=       5 diagonalized for initial guess.
 HarFok:  IExCor= 1009 AccDes= 0.00D+00 IRadAn=         5 IDoV= 1 UseB2=F ITyADJ=14
 ICtDFT=  3500011 ScaDFX=  1.000000  1.000000  1.000000  1.000000
 FoFCou: FMM=F IPFlag=           0 FMFlag=      100000 FMFlg1=           0
         NFxFlg=           0 DoJE=T BraDBF=F KetDBF=T FulRan=T
         wScrn=  0.000000 ICntrl=       500 IOpCl=  0 I1Cent=   200000004 NGrid=           0
         NMat0=    1 NMatS0=      1 NMatT0=    0 NMatD0=    1 NMtDS0=    0 NMtDT0=    0
 Petite list used in FoFCou.
 Harris En= -346.810009957159    
 JPrj=0 DoOrth=F DoCkMO=F.
 Leave Link  401 at Sun Sep 29 06:34:13 2019, MaxMem=   671088640 cpu:              71.0 elap:              35.5
 (Enter /shared/centos7/gaussian/g16/l502.exe)
 Integral symmetry usage will be decided dynamically.
 Closed shell SCF:
 Using DIIS extrapolation, IDIIS=  1040.
 NGot=   671088640 LenX=   670765141 LenY=   670608675
 Requested convergence on RMS density matrix=1.00D-08 within 900 cycles.
 Requested convergence on MAX density matrix=1.00D-06.
 Requested convergence on             energy=1.00D-06.
 No special actions if energy rises.
 Fock matrices will be formed incrementally for  20 cycles.
 Integral accuracy reduced to 1.0D-05 until final iterations.

 Cycle   1  Pass 0  IDiag  1:
 FoFJK:  IHMeth= 1 ICntrl=       0 DoSepK=F KAlg= 0 I1Cent=           0 FoldK=F
 IRaf= 940000000 NMat=       1 IRICut=       1 DoRegI=T DoRafI=F ISym2E= 0 IDoP0=0 IntGTp=1.
 FoFCou: FMM=F IPFlag=           0 FMFlag=      100000 FMFlg1=           0
         NFxFlg=           0 DoJE=F BraDBF=F KetDBF=F FulRan=T
         wScrn=  0.000000 ICntrl=         0 IOpCl=  0 I1Cent=           0 NGrid=           0
         NMat0=    1 NMatS0=      1 NMatT0=    0 NMatD0=    1 NMtDS0=    0 NMtDT0=    0
 Symmetry not used in FoFCou.
 E= -346.692341959778    
 DIIS: error= 2.61D-02 at cycle   1 NSaved=   1.
 NSaved= 1 IEnMin= 1 EnMin= -346.692341959778     IErMin= 1 ErrMin= 2.61D-02
 ErrMax= 2.61D-02  0.00D+00 EMaxC= 1.00D-01 BMatC= 2.88D-01 BMatP= 2.88D-01
 IDIUse=3 WtCom= 7.39D-01 WtEn= 2.61D-01
 Coeff-Com:  0.100D+01
 Coeff-En:   0.100D+01
 Coeff:      0.100D+01
 Gap=     0.349 Goal=   None    Shift=    0.000
 GapD=    0.349 DampG=1.000 DampE=0.500 DampFc=0.5000 IDamp=-1.
 Damping current iteration by 5.00D-01
 RMSDP=2.42D-03 MaxDP=1.64D-01              OVMax= 1.34D-01

 Cycle   2  Pass 0  IDiag  1:
 RMSU=  1.21D-03    CP:  1.00D+00
 E= -346.812450873427     Delta-E=       -0.120108913649 Rises=F Damp=T
 DIIS: error= 3.26D-03 at cycle   2 NSaved=   2.
 NSaved= 2 IEnMin= 2 EnMin= -346.812450873427     IErMin= 2 ErrMin= 3.26D-03
 ErrMax= 3.26D-03  0.00D+00 EMaxC= 1.00D-01 BMatC= 2.13D-02 BMatP= 2.88D-01
 IDIUse=3 WtCom= 9.67D-01 WtEn= 3.26D-02
 Coeff-Com: -0.124D+00 0.112D+01
 Coeff-En:   0.000D+00 0.100D+01
 Coeff:     -0.120D+00 0.112D+01
 Gap=     0.320 Goal=   None    Shift=    0.000
 RMSDP=4.85D-04 MaxDP=2.56D-02 DE=-1.20D-01 OVMax= 6.88D-02

 Cycle   3  Pass 0  IDiag  1:
 RMSU=  4.57D-04    CP:  1.00D+00  8.70D-01
 E= -346.921296148832     Delta-E=       -0.108845275405 Rises=F Damp=F
 DIIS: error= 2.86D-03 at cycle   3 NSaved=   3.
 NSaved= 3 IEnMin= 3 EnMin= -346.921296148832     IErMin= 3 ErrMin= 2.86D-03
 ErrMax= 2.86D-03  0.00D+00 EMaxC= 1.00D-01 BMatC= 3.94D-03 BMatP= 2.13D-02
 IDIUse=3 WtCom= 9.71D-01 WtEn= 2.86D-02
 Coeff-Com: -0.827D-01 0.319D+00 0.763D+00
 Coeff-En:   0.000D+00 0.000D+00 0.100D+01
 Coeff:     -0.803D-01 0.310D+00 0.770D+00
 Gap=     0.317 Goal=   None    Shift=    0.000
 RMSDP=2.08D-04 MaxDP=1.56D-02 DE=-1.09D-01 OVMax= 1.21D-02

 Cycle   4  Pass 0  IDiag  1:
 RMSU=  1.31D-04    CP:  1.00D+00  9.93D-01  8.70D-01
 E= -346.923359998182     Delta-E=       -0.002063849350 Rises=F Damp=F
 DIIS: error= 1.47D-03 at cycle   4 NSaved=   4.
 NSaved= 4 IEnMin= 4 EnMin= -346.923359998182     IErMin= 4 ErrMin= 1.47D-03
 ErrMax= 1.47D-03  0.00D+00 EMaxC= 1.00D-01 BMatC= 1.08D-03 BMatP= 3.94D-03
 IDIUse=3 WtCom= 9.85D-01 WtEn= 1.47D-02
 Coeff-Com: -0.283D-01 0.754D-01 0.386D+00 0.566D+00
 Coeff-En:   0.000D+00 0.000D+00 0.167D+00 0.833D+00
 Coeff:     -0.278D-01 0.743D-01 0.383D+00 0.570D+00
 Gap=     0.315 Goal=   None    Shift=    0.000
 RMSDP=7.77D-05 MaxDP=5.82D-03 DE=-2.06D-03 OVMax= 5.71D-03

 Cycle   5  Pass 0  IDiag  1:
 RMSU=  2.76D-05    CP:  1.00D+00  9.60D-01  9.29D-01  5.91D-01
 E= -346.924115270592     Delta-E=       -0.000755272409 Rises=F Damp=F
 DIIS: error= 2.44D-04 at cycle   5 NSaved=   5.
 NSaved= 5 IEnMin= 5 EnMin= -346.924115270592     IErMin= 5 ErrMin= 2.44D-04
 ErrMax= 2.44D-04  0.00D+00 EMaxC= 1.00D-01 BMatC= 2.80D-05 BMatP= 1.08D-03
 IDIUse=3 WtCom= 9.98D-01 WtEn= 2.44D-03
 Coeff-Com: -0.482D-02 0.859D-02 0.948D-01 0.210D+00 0.692D+00
 Coeff-En:   0.000D+00 0.000D+00 0.000D+00 0.000D+00 0.100D+01
 Coeff:     -0.480D-02 0.857D-02 0.945D-01 0.209D+00 0.692D+00
 Gap=     0.315 Goal=   None    Shift=    0.000
 RMSDP=1.03D-05 MaxDP=2.59D-04 DE=-7.55D-04 OVMax= 7.97D-04

 Cycle   6  Pass 0  IDiag  1:
 RMSU=  7.57D-06    CP:  1.00D+00  9.59D-01  9.34D-01  6.29D-01  8.52D-01
 E= -346.924134716119     Delta-E=       -0.000019445528 Rises=F Damp=F
 DIIS: error= 4.32D-05 at cycle   6 NSaved=   6.
 NSaved= 6 IEnMin= 6 EnMin= -346.924134716119     IErMin= 6 ErrMin= 4.32D-05
 ErrMax= 4.32D-05  0.00D+00 EMaxC= 1.00D-01 BMatC= 1.54D-06 BMatP= 2.80D-05
 IDIUse=1 WtCom= 1.00D+00 WtEn= 0.00D+00
 Coeff-Com: -0.999D-04-0.936D-03 0.135D-01 0.492D-01 0.234D+00 0.705D+00
 Coeff:     -0.999D-04-0.936D-03 0.135D-01 0.492D-01 0.234D+00 0.705D+00
 Gap=     0.315 Goal=   None    Shift=    0.000
 RMSDP=3.26D-06 MaxDP=1.03D-04 DE=-1.94D-05 OVMax= 2.94D-04

 Initial convergence to 1.0D-05 achieved.  Increase integral accuracy.
 Cycle   7  Pass 1  IDiag  1:
 E= -346.924149579494     Delta-E=       -0.000014863374 Rises=F Damp=F
 DIIS: error= 2.41D-05 at cycle   1 NSaved=   1.
 NSaved= 1 IEnMin= 1 EnMin= -346.924149579494     IErMin= 1 ErrMin= 2.41D-05
 ErrMax= 2.41D-05  0.00D+00 EMaxC= 1.00D-01 BMatC= 6.94D-07 BMatP= 6.94D-07
 IDIUse=1 WtCom= 1.00D+00 WtEn= 0.00D+00
 Coeff-Com:  0.100D+01
 Coeff:      0.100D+01
 Gap=     0.315 Goal=   None    Shift=    0.000
 RMSDP=3.26D-06 MaxDP=1.03D-04 DE=-1.49D-05 OVMax= 1.55D-04

 Cycle   8  Pass 1  IDiag  1:
 RMSU=  7.51D-06    CP:  1.00D+00
 E= -346.924149722242     Delta-E=       -0.000000142748 Rises=F Damp=F
 DIIS: error= 2.11D-05 at cycle   2 NSaved=   2.
 NSaved= 2 IEnMin= 2 EnMin= -346.924149722242     IErMin= 2 ErrMin= 2.11D-05
 ErrMax= 2.11D-05  0.00D+00 EMaxC= 1.00D-01 BMatC= 4.21D-07 BMatP= 6.94D-07
 IDIUse=1 WtCom= 1.00D+00 WtEn= 0.00D+00
 Coeff-Com:  0.423D+00 0.577D+00
 Coeff:      0.423D+00 0.577D+00
 Gap=     0.315 Goal=   None    Shift=    0.000
 RMSDP=1.23D-06 MaxDP=5.57D-05 DE=-1.43D-07 OVMax= 1.13D-04

 Cycle   9  Pass 1  IDiag  1:
 RMSU=  1.22D-06    CP:  1.00D+00  9.83D-01
 E= -346.924149983752     Delta-E=       -0.000000261510 Rises=F Damp=F
 DIIS: error= 7.25D-06 at cycle   3 NSaved=   3.
 NSaved= 3 IEnMin= 3 EnMin= -346.924149983752     IErMin= 3 ErrMin= 7.25D-06
 ErrMax= 7.25D-06  0.00D+00 EMaxC= 1.00D-01 BMatC= 4.34D-08 BMatP= 4.21D-07
 IDIUse=1 WtCom= 1.00D+00 WtEn= 0.00D+00
 Coeff-Com: -0.150D-01 0.233D+00 0.782D+00
 Coeff:     -0.150D-01 0.233D+00 0.782D+00
 Gap=     0.315 Goal=   None    Shift=    0.000
 RMSDP=4.04D-07 MaxDP=1.63D-05 DE=-2.62D-07 OVMax= 2.77D-05

 Cycle  10  Pass 1  IDiag  1:
 RMSU=  2.32D-07    CP:  1.00D+00  1.02D+00  8.32D-01
 E= -346.924150011674     Delta-E=       -0.000000027923 Rises=F Damp=F
 DIIS: error= 1.59D-06 at cycle   4 NSaved=   4.
 NSaved= 4 IEnMin= 4 EnMin= -346.924150011674     IErMin= 4 ErrMin= 1.59D-06
 ErrMax= 1.59D-06  0.00D+00 EMaxC= 1.00D-01 BMatC= 1.37D-09 BMatP= 4.34D-08
 IDIUse=1 WtCom= 1.00D+00 WtEn= 0.00D+00
 Coeff-Com: -0.139D-01 0.906D-01 0.332D+00 0.591D+00
 Coeff:     -0.139D-01 0.906D-01 0.332D+00 0.591D+00
 Gap=     0.315 Goal=   None    Shift=    0.000
 RMSDP=8.07D-08 MaxDP=3.71D-06 DE=-2.79D-08 OVMax= 1.20D-05

 Cycle  11  Pass 1  IDiag  1:
 RMSU=  7.87D-08    CP:  1.00D+00  1.02D+00  8.44D-01  9.85D-01
 E= -346.924150012813     Delta-E=       -0.000000001139 Rises=F Damp=F
 DIIS: error= 4.38D-07 at cycle   5 NSaved=   5.
 NSaved= 5 IEnMin= 5 EnMin= -346.924150012813     IErMin= 5 ErrMin= 4.38D-07
 ErrMax= 4.38D-07  0.00D+00 EMaxC= 1.00D-01 BMatC= 1.29D-10 BMatP= 1.37D-09
 IDIUse=1 WtCom= 1.00D+00 WtEn= 0.00D+00
 Coeff-Com: -0.151D-02-0.113D-01-0.378D-01 0.189D+00 0.862D+00
 Coeff:     -0.151D-02-0.113D-01-0.378D-01 0.189D+00 0.862D+00
 Gap=     0.315 Goal=   None    Shift=    0.000
 RMSDP=3.86D-08 MaxDP=2.01D-06 DE=-1.14D-09 OVMax= 4.39D-06

 Cycle  12  Pass 1  IDiag  1:
 RMSU=  2.29D-08    CP:  1.00D+00  1.02D+00  8.42D-01  1.11D+00  9.31D-01
 E= -346.924150012935     Delta-E=       -0.000000000122 Rises=F Damp=F
 DIIS: error= 1.82D-07 at cycle   6 NSaved=   6.
 NSaved= 6 IEnMin= 6 EnMin= -346.924150012935     IErMin= 6 ErrMin= 1.82D-07
 ErrMax= 1.82D-07  0.00D+00 EMaxC= 1.00D-01 BMatC= 1.35D-11 BMatP= 1.29D-10
 IDIUse=1 WtCom= 1.00D+00 WtEn= 0.00D+00
 Coeff-Com:  0.690D-03-0.131D-01-0.470D-01 0.263D-01 0.354D+00 0.679D+00
 Coeff:      0.690D-03-0.131D-01-0.470D-01 0.263D-01 0.354D+00 0.679D+00
 Gap=     0.315 Goal=   None    Shift=    0.000
 RMSDP=1.10D-08 MaxDP=4.22D-07 DE=-1.22D-10 OVMax= 1.41D-06

 Cycle  13  Pass 1  IDiag  1:
 RMSU=  7.96D-09    CP:  1.00D+00  1.02D+00  8.43D-01  1.13D+00  9.98D-01
                    CP:  9.79D-01
 E= -346.924150012936     Delta-E=       -0.000000000001 Rises=F Damp=F
 DIIS: error= 5.96D-08 at cycle   7 NSaved=   7.
 NSaved= 7 IEnMin= 7 EnMin= -346.924150012936     IErMin= 7 ErrMin= 5.96D-08
 ErrMax= 5.96D-08  0.00D+00 EMaxC= 1.00D-01 BMatC= 1.04D-12 BMatP= 1.35D-11
 IDIUse=1 WtCom= 1.00D+00 WtEn= 0.00D+00
 Coeff-Com:  0.376D-03-0.415D-02-0.153D-01-0.389D-02 0.723D-01 0.267D+00
 Coeff-Com:  0.683D+00
 Coeff:      0.376D-03-0.415D-02-0.153D-01-0.389D-02 0.723D-01 0.267D+00
 Coeff:      0.683D+00
 Gap=     0.315 Goal=   None    Shift=    0.000
 RMSDP=2.71D-09 MaxDP=1.24D-07 DE=-7.96D-13 OVMax= 4.78D-07

 SCF Done:  E(RM062X) =  -346.924150013     A.U. after   13 cycles
            NFock= 13  Conv=0.27D-08     -V/T= 2.0063
 KE= 3.447523988401D+02 PE=-1.439119139205D+03 EE= 4.329741076231D+02
 Leave Link  502 at Sun Sep 29 06:46:58 2019, MaxMem=   671088640 cpu:            1529.6 elap:             765.1
 (Enter /shared/centos7/gaussian/g16/l801.exe)
 DoSCS=F DFT=T ScalE2(SS,OS)=  1.000000  1.000000
 Range of M.O.s used for correlation:     1   350
 NBasis=   350 NAE=    28 NBE=    28 NFC=     0 NFV=     0
 NROrb=    350 NOA=    28 NOB=    28 NVA=   322 NVB=   322

 **** Warning!!: The largest alpha MO coefficient is  0.11226237D+02

 Leave Link  801 at Sun Sep 29 06:46:59 2019, MaxMem=   671088640 cpu:               1.5 elap:               0.7
 (Enter /shared/centos7/gaussian/g16/l1101.exe)
 Using compressed storage, NAtomX=    17.
 Will process     18 centers per pass.
 Leave Link 1101 at Sun Sep 29 06:47:32 2019, MaxMem=   671088640 cpu:              65.9 elap:              33.0
 (Enter /shared/centos7/gaussian/g16/l1102.exe)
 Symmetrizing basis deriv contribution to polar:
 IMax=3 JMax=2 DiffMx= 0.00D+00
 Leave Link 1102 at Sun Sep 29 06:47:34 2019, MaxMem=   671088640 cpu:               5.4 elap:               2.7
 (Enter /shared/centos7/gaussian/g16/l1110.exe)
 Forming Gx(P) for the SCF density, NAtomX=    17.
 Integral derivatives from FoFJK, PRISM(SPDF).
 Do as many integral derivatives as possible in FoFJK.
 G2DrvN: MDV=     671087280.
 G2DrvN: will do    18 centers at a time, making    1 passes.
 Calling FoFCou, ICntrl=  3107 FMM=F I1Cent=   0 AccDes= 0.00D+00.
 FoFJK:  IHMeth= 1 ICntrl=    3107 DoSepK=F KAlg= 0 I1Cent=           0 FoldK=F
 IRaf=         0 NMat=       1 IRICut=       1 DoRegI=T DoRafI=F ISym2E= 0 IDoP0=0 IntGTp=1.
 FoFCou: FMM=F IPFlag=           0 FMFlag=      100000 FMFlg1=           0
         NFxFlg=           0 DoJE=F BraDBF=F KetDBF=F FulRan=T
         wScrn=  0.000000 ICntrl=      3107 IOpCl=  0 I1Cent=           0 NGrid=           0
         NMat0=    1 NMatS0=      1 NMatT0=    0 NMatD0=    1 NMtDS0=    0 NMtDT0=    0
 Symmetry not used in FoFCou.
 End of G2Drv F.D. properties file   721 does not exist.
 End of G2Drv F.D. properties file   722 does not exist.
 End of G2Drv F.D. properties file   788 does not exist.
 Leave Link 1110 at Sun Sep 29 07:12:01 2019, MaxMem=   671088640 cpu:            2931.6 elap:            1466.1
 (Enter /shared/centos7/gaussian/g16/l1002.exe)
 Minotr:  Closed shell wavefunction.
          IDoAtm=11111111111111111
          Direct CPHF calculation.
          Differentiating once with respect to nuclear coordinates.
          Requested convergence is 1.0D-08 RMS, and 1.0D-07 maximum.
          Secondary convergence is 1.0D-12 RMS, and 1.0D-12 maximum.
          NewPWx=T KeepS1=F KeepF1=F KeepIn=T MapXYZ=F SortEE=F KeepMc=T.
         5123 words used for storage of precomputed grid.
 Two-electron integrals replicated using symmetry.
          MDV=     671088640 using IRadAn=       1.
          Solving linear equations simultaneously, MaxMat=     380.
 FoF2E skips out because all densities are zero.
 CalDSu exits because no D1Ps are significant.
 FoFJK:  IHMeth= 1 ICntrl=       0 DoSepK=F KAlg= 0 I1Cent=           0 FoldK=F
 IRaf= 930000000 NMat=      51 IRICut=     127 DoRegI=T DoRafI=T ISym2E= 2 IDoP0=3 IntGTp=3.
 FoFCou: FMM=F IPFlag=           0 FMFlag=      100000 FMFlg1=           0
         NFxFlg=           0 DoJE=F BraDBF=F KetDBF=F FulRan=T
         wScrn=  0.000000 ICntrl=         0 IOpCl=  0 I1Cent=           0 NGrid=           0
         NMat0=   51 NMatS0=     51 NMatT0=    0 NMatD0=   51 NMtDS0=    0 NMtDT0=    0
 Integrals replicated using symmetry in FoFCou.
 Raff kept on since  89.76% of shell-pairs survive, threshold=   0.20 IRatSp=90.
          There are    54 degrees of freedom in the 1st order CPHF.  IDoFFX=6 NUNeed=     0.
     48 vectors produced by pass  0 Test12= 1.67D-14 1.85D-09 XBig12= 7.03D-02 5.79D-02.
 AX will form    48 AO Fock derivatives at one time.
     48 vectors produced by pass  1 Test12= 1.67D-14 1.85D-09 XBig12= 7.38D-03 1.37D-02.
     48 vectors produced by pass  2 Test12= 1.67D-14 1.85D-09 XBig12= 1.29D-04 2.26D-03.
     48 vectors produced by pass  3 Test12= 1.67D-14 1.85D-09 XBig12= 1.29D-06 1.70D-04.
     48 vectors produced by pass  4 Test12= 1.67D-14 1.85D-09 XBig12= 8.09D-09 1.15D-05.
     48 vectors produced by pass  5 Test12= 1.67D-14 1.85D-09 XBig12= 3.70D-11 7.25D-07.
     27 vectors produced by pass  6 Test12= 1.67D-14 1.85D-09 XBig12= 1.57D-13 5.25D-08.
      6 vectors produced by pass  7 Test12= 1.67D-14 1.85D-09 XBig12= 6.76D-16 3.42D-09.
 InvSVY:  IOpt=1 It=  1 EMax= 4.16D-16
 Solved reduced A of dimension   321 with    54 vectors.
 End of Minotr F.D. properties file   721 does not exist.
 End of Minotr F.D. properties file   722 does not exist.
 End of Minotr F.D. properties file   788 does not exist.
 Leave Link 1002 at Sun Sep 29 07:54:35 2019, MaxMem=   671088640 cpu:            5107.3 elap:            2554.1
 (Enter /shared/centos7/gaussian/g16/l601.exe)
 Copying SCF densities to generalized density rwf, IOpCl= 0 IROHF=0.

 **********************************************************************

            Population analysis using the SCF density.

 **********************************************************************

 Orbital symmetries:
       Occupied  (A) (A) (A) (A) (A) (A) (A) (A) (A) (A) (A) (A)
                 (A) (A) (A) (A) (A) (A) (A) (A) (A) (A) (A) (A)
                 (A) (A) (A) (A)
       Virtual   (A) (A) (A) (A) (A) (A) (A) (A) (A) (A) (A) (A)
                 (A) (A) (A) (A) (A) (A) (A) (A) (A) (A) (A) (A)
                 (A) (A) (A) (A) (A) (A) (A) (A) (A) (A) (A) (A)
                 (A) (A) (A) (A) (A) (A) (A) (A) (A) (A) (A) (A)
                 (A) (A) (A) (A) (A) (A) (A) (A) (A) (A) (A) (A)
                 (A) (A) (A) (A) (A) (A) (A) (A) (A) (A) (A) (A)
                 (A) (A) (A) (A) (A) (A) (A) (A) (A) (A) (A) (A)
                 (A) (A) (A) (A) (A) (A) (A) (A) (A) (A) (A) (A)
                 (A) (A) (A) (A) (A) (A) (A) (A) (A) (A) (A) (A)
                 (A) (A) (A) (A) (A) (A) (A) (A) (A) (A) (A) (A)
                 (A) (A) (A) (A) (A) (A) (A) (A) (A) (A) (A) (A)
                 (A) (A) (A) (A) (A) (A) (A) (A) (A) (A) (A) (A)
                 (A) (A) (A) (A) (A) (A) (A) (A) (A) (A) (A) (A)
                 (A) (A) (A) (A) (A) (A) (A) (A) (A) (A) (A) (A)
                 (A) (A) (A) (A) (A) (A) (A) (A) (A) (A) (A) (A)
                 (A) (A) (A) (A) (A) (A) (A) (A) (A) (A) (A) (A)
                 (A) (A) (A) (A) (A) (A) (A) (A) (A) (A) (A) (A)
                 (A) (A) (A) (A) (A) (A) (A) (A) (A) (A) (A) (A)
                 (A) (A) (A) (A) (A) (A) (A) (A) (A) (A) (A) (A)
                 (A) (A) (A) (A) (A) (A) (A) (A) (A) (A) (A) (A)
                 (A) (A) (A) (A) (A) (A) (A) (A) (A) (A) (A) (A)
                 (A) (A) (A) (A) (A) (A) (A) (A) (A) (A) (A) (A)
                 (A) (A) (A) (A) (A) (A) (A) (A) (A) (A) (A) (A)
                 (A) (A) (A) (A) (A) (A) (A) (A) (A) (A) (A) (A)
                 (A) (A) (A) (A) (A) (A) (A) (A) (A) (A) (A) (A)
                 (A) (A) (A) (A) (A) (A) (A) (A) (A) (A) (A) (A)
                 (A) (A) (A) (A) (A) (A) (A) (A) (A) (A)
 The electronic state is 1-A.
 Alpha  occ. eigenvalues --  -19.64198 -19.63796 -10.59402 -10.57669 -10.57160
 Alpha  occ. eigenvalues --  -10.53670 -10.53118  -1.17944  -1.15217  -0.88991
 Alpha  occ. eigenvalues --   -0.83958  -0.78114  -0.69998  -0.64066  -0.59951
 Alpha  occ. eigenvalues --   -0.57433  -0.54532  -0.52334  -0.49213  -0.47686
 Alpha  occ. eigenvalues --   -0.46165  -0.44452  -0.43222  -0.42845  -0.42109
 Alpha  occ. eigenvalues --   -0.37960  -0.36922  -0.26334
 Alpha virt. eigenvalues --    0.05166   0.07211   0.08807   0.09186   0.11144
 Alpha virt. eigenvalues --    0.12081   0.12832   0.14489   0.16016   0.16777
 Alpha virt. eigenvalues --    0.17749   0.20414   0.21404   0.23318   0.25238
 Alpha virt. eigenvalues --    0.28004   0.29116   0.30341   0.33158   0.33964
 Alpha virt. eigenvalues --    0.34545   0.35960   0.36940   0.38633   0.40467
 Alpha virt. eigenvalues --    0.40642   0.42934   0.43662   0.45833   0.47117
 Alpha virt. eigenvalues --    0.47253   0.48537   0.49582   0.50167   0.50356
 Alpha virt. eigenvalues --    0.51564   0.51863   0.52332   0.53499   0.54371
 Alpha virt. eigenvalues --    0.57212   0.58365   0.59628   0.61573   0.63274
 Alpha virt. eigenvalues --    0.64690   0.68044   0.69738   0.70282   0.71390
 Alpha virt. eigenvalues --    0.73827   0.76736   0.79669   0.81447   0.82443
 Alpha virt. eigenvalues --    0.83526   0.84871   0.86702   0.88566   0.90476
 Alpha virt. eigenvalues --    0.91577   0.92361   0.93588   0.95957   0.98434
 Alpha virt. eigenvalues --    0.99947   1.02208   1.03957   1.05114   1.06416
 Alpha virt. eigenvalues --    1.07135   1.07916   1.10201   1.12650   1.14805
 Alpha virt. eigenvalues --    1.15716   1.17344   1.18065   1.21298   1.22083
 Alpha virt. eigenvalues --    1.23358   1.24178   1.25470   1.27187   1.28036
 Alpha virt. eigenvalues --    1.30348   1.30960   1.31972   1.34879   1.35885
 Alpha virt. eigenvalues --    1.36985   1.38407   1.40965   1.41250   1.42932
 Alpha virt. eigenvalues --    1.45221   1.46898   1.47565   1.50477   1.51430
 Alpha virt. eigenvalues --    1.53756   1.56539   1.58341   1.60828   1.62363
 Alpha virt. eigenvalues --    1.65516   1.70795   1.70923   1.79368   1.84083
 Alpha virt. eigenvalues --    1.87043   1.93649   1.98225   2.00567   2.05514
 Alpha virt. eigenvalues --    2.09313   2.11066   2.14619   2.18718   2.20441
 Alpha virt. eigenvalues --    2.22551   2.26806   2.30136   2.34054   2.35644
 Alpha virt. eigenvalues --    2.37902   2.38652   2.41330   2.43440   2.47152
 Alpha virt. eigenvalues --    2.52367   2.53881   2.54699   2.55472   2.58068
 Alpha virt. eigenvalues --    2.60789   2.62586   2.63656   2.64928   2.67828
 Alpha virt. eigenvalues --    2.69202   2.73765   2.75744   2.78354   2.80354
 Alpha virt. eigenvalues --    2.81764   2.82736   2.84909   2.86754   2.87904
 Alpha virt. eigenvalues --    2.90211   2.91037   2.91830   2.92714   2.94491
 Alpha virt. eigenvalues --    2.96737   2.97946   2.98517   3.01596   3.02594
 Alpha virt. eigenvalues --    3.04262   3.05061   3.05828   3.07029   3.08336
 Alpha virt. eigenvalues --    3.08628   3.10667   3.10969   3.12188   3.13252
 Alpha virt. eigenvalues --    3.15871   3.17588   3.19733   3.21398   3.22444
 Alpha virt. eigenvalues --    3.22762   3.23859   3.26365   3.28139   3.28775
 Alpha virt. eigenvalues --    3.29104   3.32763   3.34764   3.35183   3.36315
 Alpha virt. eigenvalues --    3.37863   3.39704   3.40747   3.41610   3.44042
 Alpha virt. eigenvalues --    3.44868   3.46860   3.48258   3.50783   3.52029
 Alpha virt. eigenvalues --    3.52888   3.55116   3.57446   3.59958   3.62080
 Alpha virt. eigenvalues --    3.63057   3.65381   3.70516   3.71336   3.72404
 Alpha virt. eigenvalues --    3.74823   3.75563   3.75922   3.77358   3.79741
 Alpha virt. eigenvalues --    3.82449   3.82951   3.84591   3.85506   3.88052
 Alpha virt. eigenvalues --    3.89627   3.90129   3.91879   3.92270   3.92932
 Alpha virt. eigenvalues --    3.94506   3.95726   3.98417   4.00242   4.01218
 Alpha virt. eigenvalues --    4.02216   4.05046   4.06894   4.08123   4.08883
 Alpha virt. eigenvalues --    4.09935   4.12754   4.14452   4.16017   4.18200
 Alpha virt. eigenvalues --    4.20019   4.23668   4.25512   4.27488   4.28020
 Alpha virt. eigenvalues --    4.30768   4.32039   4.33315   4.38269   4.41798
 Alpha virt. eigenvalues --    4.43293   4.48399   4.50007   4.54336   4.55946
 Alpha virt. eigenvalues --    4.57043   4.60663   4.63342   4.66383   4.70007
 Alpha virt. eigenvalues --    4.71158   4.73053   4.75467   4.76178   4.78768
 Alpha virt. eigenvalues --    4.83612   4.86051   4.91149   4.93419   4.96228
 Alpha virt. eigenvalues --    4.98152   5.00382   5.02448   5.03632   5.06793
 Alpha virt. eigenvalues --    5.08200   5.09666   5.11353   5.12777   5.20456
 Alpha virt. eigenvalues --    5.22244   5.22847   5.23896   5.27214   5.30642
 Alpha virt. eigenvalues --    5.33103   5.33640   5.36522   5.43138   5.50226
 Alpha virt. eigenvalues --    5.56260   5.58991   5.62667   5.65828   5.74574
 Alpha virt. eigenvalues --    5.79100   5.79750   5.81034   5.82117   5.86058
 Alpha virt. eigenvalues --    5.97026   6.01345   6.04215   6.10043   6.28109
 Alpha virt. eigenvalues --    6.33587   6.48597   6.56575   6.57922   6.71626
 Alpha virt. eigenvalues --    6.72902   6.75526   6.79514   6.84505   6.98200
 Alpha virt. eigenvalues --    7.05567   7.21629   7.28025   7.33511   7.44935
 Alpha virt. eigenvalues --   10.41716  11.18576  11.58160  11.91510  13.14042
 Alpha virt. eigenvalues --   13.31258  14.59110
          Condensed to atoms (all electrons):
               1          2          3          4          5          6
     1  O    7.828146   0.003411   0.318164  -0.056665  -0.043821   0.315331
     2  O    0.003411   7.771702   0.000393   0.000047  -0.000049  -0.084932
     3  C    0.318164   0.000393   4.831113   0.336301   0.325329  -0.059314
     4  C   -0.056665   0.000047   0.336301   5.045880  -0.085362  -0.007647
     5  C   -0.043821  -0.000049   0.325329  -0.085362   5.064668  -0.037457
     6  C    0.315331  -0.084932  -0.059314  -0.007647  -0.037457   5.124976
     7  C   -0.051041   0.365343  -0.000035   0.004087  -0.001219   0.471321
     8  H   -0.030639  -0.000006   0.413227  -0.052141  -0.051155   0.007344
     9  H    0.003953   0.000106  -0.033762   0.395547   0.009384  -0.002091
    10  H    0.004940   0.000004  -0.028118   0.389712   0.000442  -0.000796
    11  H   -0.004926  -0.000118  -0.036207   0.390999  -0.006285   0.009804
    12  H   -0.001339  -0.000057  -0.039218  -0.007519   0.403605  -0.012403
    13  H    0.002503   0.000008  -0.037073   0.009906   0.396938   0.001060
    14  H    0.004336   0.000000  -0.032184  -0.000916   0.388752   0.001624
    15  H   -0.053486   0.003139   0.004631  -0.002600  -0.006382   0.399086
    16  H    0.003680  -0.051558  -0.000352   0.000138  -0.000027  -0.119997
    17  H   -0.000116   0.326602  -0.000005   0.000003   0.000009   0.019696
               7          8          9         10         11         12
     1  O   -0.051041  -0.030639   0.003953   0.004940  -0.004926  -0.001339
     2  O    0.365343  -0.000006   0.000106   0.000004  -0.000118  -0.000057
     3  C   -0.000035   0.413227  -0.033762  -0.028118  -0.036207  -0.039218
     4  C    0.004087  -0.052141   0.395547   0.389712   0.390999  -0.007519
     5  C   -0.001219  -0.051155   0.009384   0.000442  -0.006285   0.403605
     6  C    0.471321   0.007344  -0.002091  -0.000796   0.009804  -0.012403
     7  C    4.893550   0.000513  -0.001023  -0.000252   0.004046   0.001236
     8  H    0.000513   0.589435  -0.006491  -0.005962   0.007809   0.007802
     9  H   -0.001023  -0.006491   0.554620  -0.024070  -0.030821  -0.000273
    10  H   -0.000252  -0.005962  -0.024070   0.586540  -0.038235   0.000842
    11  H    0.004046   0.007809  -0.030821  -0.038235   0.593456   0.002279
    12  H    0.001236   0.007802  -0.000273   0.000842   0.002279   0.616071
    13  H   -0.000090  -0.009309  -0.000498  -0.000404   0.000073  -0.032771
    14  H    0.000046  -0.002921   0.000062  -0.001016  -0.000006  -0.035832
    15  H   -0.062613  -0.001279   0.001076   0.000239  -0.004646  -0.011784
    16  H    0.471737   0.000046   0.000005  -0.000002   0.000106   0.000123
    17  H   -0.045582  -0.000001  -0.000005  -0.000000   0.000008   0.000011
              13         14         15         16         17
     1  O    0.002503   0.004336  -0.053486   0.003680  -0.000116
     2  O    0.000008   0.000000   0.003139  -0.051558   0.326602
     3  C   -0.037073  -0.032184   0.004631  -0.000352  -0.000005
     4  C    0.009906  -0.000916  -0.002600   0.000138   0.000003
     5  C    0.396938   0.388752  -0.006382  -0.000027   0.000009
     6  C    0.001060   0.001624   0.399086  -0.119997   0.019696
     7  C   -0.000090   0.000046  -0.062613   0.471737  -0.045582
     8  H   -0.009309  -0.002921  -0.001279   0.000046  -0.000001
     9  H   -0.000498   0.000062   0.001076   0.000005  -0.000005
    10  H   -0.000404  -0.001016   0.000239  -0.000002  -0.000000
    11  H    0.000073  -0.000006  -0.004646   0.000106   0.000008
    12  H   -0.032771  -0.035832  -0.011784   0.000123   0.000011
    13  H    0.560801  -0.024945   0.000983  -0.000014  -0.000000
    14  H   -0.024945   0.591250  -0.000703  -0.000010  -0.000000
    15  H    0.000983  -0.000703   0.613474  -0.002190  -0.000585
    16  H   -0.000014  -0.000010  -0.002190   0.616924  -0.014361
    17  H   -0.000000  -0.000000  -0.000585  -0.014361   0.452928
 Mulliken charges:
               1
     1  O   -0.242431
     2  O   -0.334037
     3  C    0.037112
     4  C   -0.359769
     5  C   -0.357371
     6  C   -0.025604
     7  C   -0.050025
     8  H    0.133727
     9  H    0.134282
    10  H    0.116137
    11  H    0.112666
    12  H    0.109228
    13  H    0.132833
    14  H    0.112463
    15  H    0.123640
    16  H    0.095751
    17  H    0.261398
 Sum of Mulliken charges =  -0.00000
 Mulliken charges with hydrogens summed into heavy atoms:
               1
     1  O   -0.242431
     2  O   -0.072639
     3  C    0.170839
     4  C    0.003316
     5  C   -0.002846
     6  C    0.098036
     7  C    0.045727
 APT charges:
               1
     1  O   -0.177921
     2  O   -0.886309
     3  C   -0.292918
     4  C   -1.078609
     5  C   -1.105990
     6  C   -0.348693
     7  C   -0.341883
     8  H    0.446305
     9  H    0.326118
    10  H    0.512919
    11  H    0.237661
    12  H    0.181431
    13  H    0.392188
    14  H    0.491316
    15  H    0.292983
    16  H    0.441525
    17  H    0.909879
 Sum of APT charges =  -0.00000
 APT charges with hydrogens summed into heavy atoms:
               1
     1  O   -0.177921
     2  O    0.023570
     3  C    0.153387
     4  C   -0.001911
     5  C   -0.041055
     6  C   -0.055710
     7  C    0.099641
 Electronic spatial extent (au):  <R**2>=            985.9032
 Charge=             -0.0000 electrons
 Dipole moment (field-independent basis, Debye):
    X=             -0.1268    Y=             -0.7995    Z=              1.9996  Tot=              2.1573
 Quadrupole moment (field-independent basis, Debye-Ang):
   XX=            -32.3741   YY=            -44.9837   ZZ=            -44.7617
   XY=             -1.5230   XZ=              4.6876   YZ=             -0.9199
 Traceless Quadrupole moment (field-independent basis, Debye-Ang):
   XX=              8.3324   YY=             -4.2772   ZZ=             -4.0552
   XY=             -1.5230   XZ=              4.6876   YZ=             -0.9199
 Octapole moment (field-independent basis, Debye-Ang**2):
  XXX=             57.4436  YYY=              3.3753  ZZZ=             -3.7966  XYY=              1.7308
  XXY=             -1.0877  XXZ=              7.2996  XZZ=              2.6380  YZZ=             -1.7451
  YYZ=             -2.1679  XYZ=             -0.6202
 Hexadecapole moment (field-independent basis, Debye-Ang**3):
 XXXX=           -677.5687 YYYY=           -235.5137 ZZZZ=           -134.1312 XXXY=             -0.7542
 XXXZ=             26.6084 YYYX=              5.0991 YYYZ=             -1.8370 ZZZX=              4.1795
 ZZZY=             -4.2359 XXYY=           -200.9162 XXZZ=           -178.0857 YYZZ=            -60.4188
 XXYZ=             -1.6035 YYXZ=              2.2593 ZZXY=             -0.6134
 N-N= 3.144684827292D+02 E-N=-1.439119135767D+03  KE= 3.447523988401D+02
  Exact polarizability:   0.000   0.000   0.000   0.000   0.000   0.000
 Approx polarizability:  98.167   1.210  68.570   3.265  -3.778  73.999
 No NMR shielding tensors so no spin-rotation constants.
 Leave Link  601 at Sun Sep 29 07:54:59 2019, MaxMem=   671088640 cpu:              49.3 elap:              24.7
 (Enter /shared/centos7/gaussian/g16/l701.exe)
 SCFChk:  SCF convergence  2.71D-09 required  1.00D-08
 ... and contract with generalized density number  0.
 Compute integral second derivatives.
 Entering OneElI...
 Calculate overlap and kinetic energy integrals
    NBasis = 395  MinDer = 2  MaxDer = 2
 Requested accuracy = 0.1000D-12
 PrmmSu-InSpLW:  IPartL=    0 NPrtUS=   20 NPrtUL=    1 DoSpLW=F IThBeg=    0 IThEnd=   19 NThAct=   20.
 PrsmSu:  NPrtUS=  20 ThrOK=T IAlg=1 NPAlg=1 LenDen=           0 ISkipM=0 DoSpLW=F IThBeg=    0 IThEnd=   19.
 Prism:   IPart=     0 DynPar=F LinDyn=F Incr=           4.
 PRISM was handed    33314585 working-precision words and  8401 shell-pairs
 PRISM was handed    33314585 working-precision words and  8401 shell-pairs
 PRISM was handed    33314585 working-precision words and  8401 shell-pairs
 PRISM was handed    33314585 working-precision words and  8401 shell-pairs
 PRISM was handed    33314585 working-precision words and  8401 shell-pairs
 PRISM was handed    33314585 working-precision words and  8401 shell-pairs
 PRISM was handed    33314585 working-precision words and  8401 shell-pairs
 PRISM was handed    33314585 working-precision words and  8401 shell-pairs
 PRISM was handed    33314585 working-precision words and  8401 shell-pairs
 PRISM was handed    33314585 working-precision words and  8401 shell-pairs
 PRISM was handed    33314585 working-precision words and  8401 shell-pairs
 PRISM was handed    33314585 working-precision words and  8401 shell-pairs
 PRISM was handed    33314585 working-precision words and  8401 shell-pairs
 PRISM was handed    33314585 working-precision words and  8401 shell-pairs
 PRISM was handed    33314585 working-precision words and  8401 shell-pairs
 PRISM was handed    33314585 working-precision words and  8401 shell-pairs
 PRISM was handed    33314585 working-precision words and  8401 shell-pairs
 PRISM was handed    33314585 working-precision words and  8401 shell-pairs
 PRISM was handed    33314585 working-precision words and  8401 shell-pairs
 PRISM was handed    33314585 working-precision words and  8401 shell-pairs
 IPart= 18 NShTot=         392 NBatch=          36 AvBLen=        10.9
 IPart=  3 NShTot=         447 NBatch=          71 AvBLen=         6.3
 IPart= 17 NShTot=         394 NBatch=          37 AvBLen=        10.6
 IPart=  5 NShTot=         437 NBatch=          62 AvBLen=         7.0
 IPart=  8 NShTot=         420 NBatch=          52 AvBLen=         8.1
 IPart=  7 NShTot=         423 NBatch=          53 AvBLen=         8.0
 IPart= 10 NShTot=         415 NBatch=          48 AvBLen=         8.6
 IPart=  4 NShTot=         439 NBatch=          64 AvBLen=         6.9
 IPart=  0 NShTot=         464 NBatch=          84 AvBLen=         5.5
 IPart=  9 NShTot=         417 NBatch=          50 AvBLen=         8.3
 IPart= 12 NShTot=         404 NBatch=          41 AvBLen=         9.9
 IPart= 19 NShTot=         391 NBatch=          36 AvBLen=        10.9
 IPart= 16 NShTot=         396 NBatch=          37 AvBLen=        10.7
 IPart=  6 NShTot=         432 NBatch=          60 AvBLen=         7.2
 IPart= 13 NShTot=         403 NBatch=          40 AvBLen=        10.1
 IPart= 15 NShTot=         399 NBatch=          38 AvBLen=        10.5
 IPart= 14 NShTot=         403 NBatch=          40 AvBLen=        10.1
 IPart=  1 NShTot=         460 NBatch=          81 AvBLen=         5.7
 IPart=  2 NShTot=         450 NBatch=          74 AvBLen=         6.1
 IPart= 11 NShTot=         415 NBatch=          48 AvBLen=         8.6
 PrSmSu:  NxtVal=             81.
 Entering OneElI...
 Calculate potential energy integrals
    NBasis = 395  MinDer = 2  MaxDer = 2
 Requested accuracy = 0.1000D-12
 PrmmSu-InSpLW:  IPartL=    0 NPrtUS=   20 NPrtUL=    1 DoSpLW=F IThBeg=    0 IThEnd=   19 NThAct=   20.
 PrsmSu:  NPrtUS=  20 ThrOK=T IAlg=1 NPAlg=1 LenDen=           0 ISkipM=0 DoSpLW=F IThBeg=    0 IThEnd=   19.
 Prism:   IPart=     0 DynPar=F LinDyn=F Incr=          64.
 PRISM was handed    33358201 working-precision words and  7564 shell-pairs
 PRISM was handed    33358201 working-precision words and  7564 shell-pairs
 PRISM was handed    33358201 working-precision words and  7564 shell-pairs
 PRISM was handed    33358201 working-precision words and  7564 shell-pairs
 PRISM was handed    33358201 working-precision words and  7564 shell-pairs
 PRISM was handed    33358201 working-precision words and  7564 shell-pairs
 PRISM was handed    33358201 working-precision words and  7564 shell-pairs
 PRISM was handed    33358201 working-precision words and  7564 shell-pairs
 PRISM was handed    33358201 working-precision words and  7564 shell-pairs
 PRISM was handed    33358201 working-precision words and  7564 shell-pairs
 PRISM was handed    33358201 working-precision words and  7564 shell-pairs
 PRISM was handed    33358201 working-precision words and  7564 shell-pairs
 PRISM was handed    33358201 working-precision words and  7564 shell-pairs
 PRISM was handed    33358201 working-precision words and  7564 shell-pairs
 PRISM was handed    33358201 working-precision words and  7564 shell-pairs
 PRISM was handed    33358201 working-precision words and  7564 shell-pairs
 PRISM was handed    33358201 working-precision words and  7564 shell-pairs
 PRISM was handed    33358201 working-precision words and  7564 shell-pairs
 PRISM was handed    33358201 working-precision words and  7564 shell-pairs
 PRISM was handed    33358201 working-precision words and  7564 shell-pairs
 IPart= 11 NShTot=        6273 NBatch=         369 AvBLen=        17.0
 IPart= 12 NShTot=        6239 NBatch=         367 AvBLen=        17.0
 IPart= 14 NShTot=        6205 NBatch=         365 AvBLen=        17.0
 IPart= 13 NShTot=        6222 NBatch=         366 AvBLen=        17.0
 IPart= 10 NShTot=        6307 NBatch=         371 AvBLen=        17.0
 IPart=  0 NShTot=        7140 NBatch=         420 AvBLen=        17.0
 IPart= 16 NShTot=        6103 NBatch=         359 AvBLen=        17.0
 IPart=  4 NShTot=        6732 NBatch=         396 AvBLen=        17.0
 IPart=  1 NShTot=        7038 NBatch=         414 AvBLen=        17.0
 IPart=  9 NShTot=        6324 NBatch=         372 AvBLen=        17.0
 IPart= 15 NShTot=        6137 NBatch=         361 AvBLen=        17.0
 IPart=  5 NShTot=        6664 NBatch=         392 AvBLen=        17.0
 IPart=  2 NShTot=        6868 NBatch=         404 AvBLen=        17.0
 IPart=  7 NShTot=        6460 NBatch=         380 AvBLen=        17.0
 IPart= 18 NShTot=        6018 NBatch=         354 AvBLen=        17.0
 IPart=  8 NShTot=        6375 NBatch=         375 AvBLen=        17.0
 IPart=  6 NShTot=        6630 NBatch=         390 AvBLen=        17.0
 IPart= 17 NShTot=        6052 NBatch=         356 AvBLen=        17.0
 IPart= 19 NShTot=        6018 NBatch=         354 AvBLen=        17.0
 IPart=  3 NShTot=        6783 NBatch=         399 AvBLen=        17.0
 PrSmSu:  NxtVal=           1281.
 Polarizability after L701:
                1             2             3 
      1  0.000000D+00
      2  0.000000D+00  0.000000D+00
      3  0.000000D+00  0.000000D+00  0.000000D+00
 Dipole Derivatives after L701:
                 1             2             3             4             5 
      1  -0.247627D+00  0.206769D-01 -0.642816D-01 -0.209472D+01  0.415234D+00
      2   0.155515D-01 -0.240329D+00  0.277475D-02 -0.555402D-01 -0.308321D+00
      3  -0.622337D-01 -0.483936D-01 -0.458063D-01 -0.508649D-01 -0.887180D-01
                 6             7             8             9            10 
      1  -0.932141D+00 -0.398105D+00  0.320700D+00 -0.667086D+00 -0.109037D+01
      2  -0.118642D+00  0.768828D-01  0.788960D-01  0.155333D+00  0.995739D-01
      3  -0.255887D+00 -0.110875D+00  0.171922D+00 -0.559544D+00  0.195089D-01
                11            12            13            14            15 
      1   0.702574D+00  0.470278D+00 -0.127789D+01 -0.950913D+00  0.263186D+00
      2  -0.123831D+01 -0.161874D+00 -0.144743D+00 -0.114889D+01  0.329828D-01
      3   0.106992D-01 -0.907146D+00 -0.224707D-01 -0.119080D+00 -0.891191D+00
                16            17            18            19            20 
      1  -0.628694D+00  0.626919D-01 -0.102832D+00 -0.341843D-01  0.443447D-01
      2   0.546495D-01 -0.853813D-01  0.226753D+00 -0.132967D+00 -0.198114D+00
      3  -0.187129D+00  0.227334D+00 -0.332004D+00  0.736559D-01  0.404031D+00
                21            22            23            24            25 
      1  -0.341325D+00  0.487338D+00 -0.165304D+00  0.583356D+00 -0.544252D-01
      2   0.446403D+00 -0.634428D-01  0.208759D+00 -0.126355D+00  0.363161D+00
      3  -0.793351D+00  0.219574D+00 -0.126234D+00  0.642817D+00  0.173796D-02
                26            27            28            29            30 
      1  -0.376109D+00  0.145195D+00  0.121365D+01 -0.187280D+00 -0.107603D+00
      2   0.904485D+00 -0.311635D+00 -0.525160D+00  0.195028D+00  0.606768D-01
      3   0.323319D-03  0.128293D+00 -0.188109D+00  0.375747D-01  0.130082D+00
                31            32            33            34            35 
      1  -0.274211D-01  0.392287D-01 -0.399381D+00 -0.155847D+00  0.185760D+00
      2   0.996140D-01  0.671359D-01  0.344928D+00 -0.350240D+00  0.304287D+00
      3   0.202381D+00 -0.961466D-01  0.673269D+00  0.252131D+00 -0.123117D+00
                36            37            38            39            40 
      1  -0.350462D+00  0.125964D+00  0.514153D+00  0.547556D+00  0.124091D+01
      2  -0.454042D+00  0.171257D-01  0.645861D+00  0.555113D+00  0.312330D+00
      3   0.395852D+00  0.621985D-02  0.241476D+00  0.404738D+00 -0.133329D+00
                41            42            43            44            45 
      1  -0.106515D+00 -0.425903D+00  0.175254D+00  0.110820D-01  0.224261D-01
      2   0.862438D-01 -0.125559D+00  0.245751D+00  0.281119D+00 -0.275530D+00
      3   0.155885D-01  0.146793D+00 -0.265326D+00 -0.247005D+00  0.422575D+00
                46            47            48            49            50 
      1   0.608186D+00 -0.377374D+00  0.815929D+00  0.215799D+01 -0.152948D+00
      2  -0.120826D+00  0.172592D+00 -0.267943D+00  0.108280D+00  0.274934D+00
      3   0.264283D+00 -0.247884D+00  0.543796D+00 -0.191545D-01 -0.123710D-01
                51 
      1   0.543087D+00
      2   0.166167D-01
      3   0.296714D+00
 Hessian after L701:
                1             2             3             4             5 
      1  0.523829D+01
      2  0.220825D+01  0.174719D+02
      3 -0.251683D+01  0.209329D+01  0.129876D+02
      4  0.878771D+00  0.170397D+00  0.163632D+00  0.438520D+01
      5  0.200081D+00 -0.454292D+00 -0.528803D-02 -0.239566D+01  0.130451D+02
      6  0.121583D+00 -0.126829D-01 -0.419879D+00  0.226114D+01  0.264729D+01
      7 -0.126454D+00 -0.776295D+00 -0.127313D+01  0.201669D+00  0.261300D-01
      8 -0.802409D+00 -0.917993D+01 -0.441126D-01  0.234063D-01 -0.968820D-01
      9 -0.109810D+01 -0.560855D-01 -0.861023D+01 -0.176678D-01 -0.314263D-02
     10 -0.182510D+00 -0.274127D+00 -0.297093D+00  0.120588D+00 -0.412911D-01
     11 -0.180810D+00  0.253246D+00  0.306656D+00 -0.245619D-01 -0.732191D-01
     12 -0.269067D+00  0.330265D+00  0.187825D+00 -0.307017D-01  0.865144D-02
     13  0.631954D-01  0.559535D+00 -0.191546D+00  0.842863D-01  0.533800D-01
     14  0.457144D+00  0.248082D+00 -0.167597D+00  0.302376D-01 -0.533360D-01
     15 -0.211463D+00 -0.197144D+00 -0.977076D-01 -0.846853D-02 -0.270867D-02
     16 -0.636735D+01 -0.202311D+01  0.418995D+01  0.199478D+00 -0.188261D+00
     17 -0.199418D+01 -0.873305D+01 -0.252577D+01 -0.315451D+00  0.699078D-01
     18  0.409396D+01 -0.248294D+01 -0.389898D+01  0.578875D+00  0.454413D+00
     19  0.123746D+00  0.249839D-01  0.783036D-01 -0.508926D+01  0.271016D+01
     20  0.370051D-01  0.440172D-01  0.224921D+00  0.281151D+01 -0.663384D+01
     21 -0.263643D-01  0.246010D+00 -0.147234D+00 -0.418931D+01 -0.293384D+01
     22 -0.264893D+00  0.148199D-01  0.109025D+00  0.235400D-01  0.841050D-03
     23  0.139765D-03  0.834892D-01 -0.539616D-01 -0.414851D-02 -0.983751D-02
     24  0.154755D+00 -0.574853D-01  0.271531D+00  0.208463D-01  0.133870D-02
     25 -0.182955D-01 -0.483310D-01 -0.364886D-01  0.126404D-01 -0.992492D-02
     26 -0.102531D+00  0.540493D-01  0.747764D-01 -0.296925D-01  0.153607D-02
     27 -0.306854D-01  0.276284D-01 -0.472457D-01  0.127763D-02 -0.157529D-02
     28  0.132473D+00 -0.633008D-01 -0.734342D-01  0.167503D-01 -0.336975D-02
     29 -0.687705D-01 -0.276955D-01  0.267618D-01 -0.456898D-02 -0.479731D-02
     30 -0.639313D-01  0.199093D-01 -0.221312D-01 -0.402760D-02  0.451095D-03
     31 -0.294966D-01 -0.224698D-01  0.184859D-02  0.795638D-02 -0.436860D-02
     32 -0.160062D-01  0.979405D-02  0.308394D-01 -0.278618D-02 -0.992774D-02
     33 -0.253802D-01  0.614432D-01  0.451840D-01 -0.258244D-01  0.335740D-02
     34 -0.294536D-01  0.408624D-01  0.211018D-01  0.841254D-03  0.462352D-02
     35  0.702806D-01  0.576732D-01 -0.397621D-01  0.143870D-01 -0.165175D-02
     36 -0.399362D-01 -0.731593D-01 -0.326136D-01 -0.179805D-01 -0.110783D-01
     37  0.384090D-01  0.756102D-01 -0.183060D-01  0.106031D-01  0.955445D-02
     38  0.102299D+00  0.295365D-01 -0.154962D-01  0.160348D-01  0.308588D-02
     39  0.198794D-01  0.219927D-01 -0.554235D-01  0.912221D-02  0.693716D-02
     40  0.138270D+00  0.419905D-01 -0.726609D-01  0.145597D-01  0.610373D-02
     41  0.379056D-01 -0.400130D-01 -0.153600D-01  0.287184D-02 -0.413624D-02
     42 -0.682073D-01 -0.145940D-01 -0.193847D-01 -0.509309D-02 -0.173291D-02
     43  0.281444D+00  0.111496D+00 -0.205099D+00  0.679663D-01  0.612333D-01
     44  0.977092D-01  0.223157D+00  0.147716D+00  0.629579D-01 -0.210891D-02
     45 -0.164286D+00  0.130775D+00 -0.186171D+00 -0.811514D-01 -0.403188D-01
     46  0.543110D-01 -0.399666D-01  0.969010D-01  0.166209D+00 -0.838295D-01
     47 -0.467466D-01 -0.241058D-01 -0.372442D-01 -0.107801D+00  0.777820D-01
     48  0.106583D+00 -0.363969D-01  0.547371D-01  0.184824D+00  0.137188D+00
     49  0.695398D-01 -0.344898D-03  0.238280D-01 -0.110180D+01 -0.345397D+00
     50  0.637860D-03 -0.158356D-01 -0.367639D-03 -0.247133D+00 -0.585337D+01
     51  0.174907D-01 -0.821426D-03 -0.987726D-02  0.116051D+01 -0.259944D+00
                6             7             8             9            10 
      6  0.110464D+02
      7 -0.115048D-01  0.144835D+02
      8 -0.304979D-02  0.429471D+00  0.201641D+02
      9 -0.985704D-01  0.112454D+01 -0.271967D+00  0.214055D+02
     10 -0.524690D-01 -0.586540D+01 -0.101327D+01 -0.795055D+00  0.143350D+02
     11  0.461917D-02 -0.951501D+00 -0.326847D+01  0.218220D+01  0.113497D+01
     12 -0.756237D-01 -0.726276D+00  0.215594D+01 -0.444749D+01  0.622615D+00
     13 -0.198361D-01 -0.544998D+01  0.190850D+01 -0.681882D+00  0.462777D-01
     14 -0.407782D-03  0.183542D+01 -0.314575D+01 -0.118750D+01  0.905739D-01
     15 -0.643292D-01 -0.616960D+00 -0.116470D+01 -0.594952D+01  0.705876D-02
     16  0.407301D+00  0.229195D+00 -0.687133D-01  0.127206D+00  0.274035D-01
     17  0.465537D+00 -0.900102D-01  0.473455D-01 -0.467176D-02 -0.196248D+00
     18 -0.420693D+00  0.248986D+00 -0.142061D-01 -0.232854D-02  0.855751D-03
     19 -0.406483D+01  0.247211D+00 -0.380485D-01  0.104023D+00  0.225142D+00
     20 -0.295321D+01 -0.446471D-01 -0.102397D+00  0.467148D-02 -0.122451D+00
     21 -0.455524D+01  0.120029D+00  0.480708D-02 -0.109527D+00  0.143835D-01
     22  0.481429D-02 -0.397277D+01 -0.304998D+00  0.111191D+01  0.159386D+00
     23 -0.429303D-03 -0.278719D+00 -0.436313D+01 -0.567256D+00 -0.588345D-02
     24 -0.713128D-02  0.101494D+01 -0.568749D+00 -0.243243D+01  0.317062D-01
     25 -0.306916D-02  0.603206D-01  0.118088D-01 -0.175935D-01 -0.361862D+01
     26  0.746719D-02 -0.532836D-01 -0.150927D-01 -0.362388D-01  0.993738D+00
     27 -0.133716D-01 -0.310610D-01 -0.654295D-01  0.657125D-01 -0.308182D+00
     28 -0.725436D-02 -0.894755D-02  0.267616D-01  0.339741D-01 -0.150710D+01
     29  0.135975D-02  0.729981D-01  0.151406D-01 -0.999279D-02 -0.499106D+00
     30 -0.438858D-02  0.522499D-01 -0.169349D-02  0.198464D-01 -0.252097D+00
     31 -0.988656D-02  0.759395D-01 -0.140116D-02  0.259679D-01 -0.372848D+01
     32  0.678539D-03 -0.301460D-01  0.444260D-01 -0.115579D+00 -0.824671D-01
     33  0.749473D-02 -0.215232D-01 -0.508602D-01 -0.260500D-01  0.991494D+00
     34 -0.870836D-03  0.100040D+00 -0.362236D-01  0.511977D-01  0.136853D-02
     35 -0.609636D-02  0.314936D-01 -0.334345D-01  0.942864D-01  0.284294D-02
     36 -0.900456D-05  0.436148D-02  0.527777D-01  0.548912D-01  0.101839D-02
     37  0.302593D-03  0.690441D-01 -0.491389D-01 -0.140717D-01 -0.545672D-01
     38 -0.710448D-03  0.191032D-04 -0.753885D-01  0.121488D-02  0.104884D-01
     39 -0.778974D-02  0.400605D-02  0.249686D-01  0.114258D+00  0.852631D-02
     40 -0.596682D-02 -0.439972D-01 -0.630353D-01  0.307288D-01  0.177799D-01
     41 -0.444031D-03 -0.980736D-01  0.354527D-01  0.228722D-01  0.508078D-01
     42 -0.304227D-02  0.197999D-01  0.177283D-02  0.381860D-01 -0.973354D-02
     43 -0.771362D-01 -0.355532D-01 -0.225132D-01  0.137030D-01 -0.151489D-01
     44 -0.390020D-01 -0.623387D-01 -0.153840D-01 -0.501966D-01 -0.282716D-01
     45  0.140791D-01  0.677025D-01 -0.542102D-01 -0.122414D-01  0.197488D-01
     46  0.143438D+00  0.127092D-01 -0.305729D-02  0.488837D-02  0.175208D-01
     47  0.134643D+00 -0.937458D-02 -0.582482D-02 -0.288048D-02 -0.169153D-01
     48 -0.121868D-01  0.184588D-01 -0.179921D-02 -0.419569D-02  0.147087D-01
     49  0.131424D+01  0.235032D-01  0.286939D-02 -0.377131D-02  0.213847D-01
     50 -0.245558D+00 -0.114540D-02 -0.476657D-02  0.273571D-03 -0.338902D-02
     51 -0.538571D+01  0.538353D-02  0.516741D-03 -0.578712D-02  0.251501D-02
               11            12            13            14            15 
     11  0.128213D+02
     12 -0.130541D+01  0.140736D+02
     13 -0.298797D-01 -0.188222D-01  0.137423D+02
     14  0.625232D-01 -0.157527D-01 -0.159183D+01  0.132337D+02
     15  0.573837D-01  0.584669D-01  0.293946D+00  0.660647D+00  0.149743D+02
     16 -0.177380D+00  0.421464D-01  0.136868D+00 -0.493947D-01  0.365017D-01
     17 -0.227709D-01  0.502973D-02  0.454561D-01 -0.706950D-01  0.653218D-02
     18  0.287992D-01 -0.194804D+00 -0.667718D-01 -0.389454D-01 -0.118737D+00
     19 -0.122867D+00  0.374550D-01  0.145193D+00  0.134189D-01  0.217893D-01
     20 -0.612797D-01 -0.437637D-02  0.403637D-01 -0.754254D-01  0.670131D-02
     21  0.391325D-03 -0.110936D+00  0.365384D-03  0.337244D-02 -0.945892D-01
     22 -0.138104D-01  0.146841D-01  0.160038D+00 -0.217278D-01  0.404534D-01
     23  0.706368D-01 -0.159236D+00 -0.379416D-01 -0.819924D-01  0.174804D+00
     24 -0.171787D+00 -0.102440D+00  0.528968D-01  0.195675D+00  0.337480D-01
     25  0.795801D+00 -0.288472D+00 -0.403022D-01  0.500180D-01  0.347790D-02
     26 -0.209511D+01 -0.787352D+00  0.632516D-01  0.172865D+00  0.498831D-02
     27 -0.671494D+00 -0.376375D+01  0.359495D-02  0.145078D-02 -0.527970D-01
     28 -0.381285D+00 -0.193224D+00 -0.594996D-03 -0.703523D-01 -0.260531D-01
     29 -0.380968D+01  0.740795D-04 -0.520883D-01  0.538085D-01  0.393422D-01
     30  0.217126D-02 -0.385774D+01 -0.150180D-01  0.334744D-01 -0.282302D-01
     31 -0.128999D+00  0.781033D+00 -0.558659D-02  0.189831D-01  0.122171D-01
     32 -0.404071D+01 -0.291051D+00  0.502168D-02  0.386928D-02 -0.135018D-01
     33 -0.502595D+00 -0.170366D+01  0.117189D-02 -0.189560D-02 -0.134661D-01
     34 -0.230405D-01  0.931617D-02 -0.343210D+01 -0.516580D+00  0.101971D+01
     35 -0.200752D-01  0.627342D-02 -0.728374D+00 -0.377107D+01 -0.915672D+00
     36  0.386804D-02  0.244662D-02  0.124784D+01 -0.777156D+00 -0.246401D+01
     37  0.257563D-01  0.116700D-01 -0.396230D+01  0.648131D-01  0.102903D+00
     38  0.158396D+00  0.883980D-01 -0.472300D-01 -0.269743D+01  0.132217D+01
     39  0.939138D-01 -0.150779D-01 -0.938509D-02  0.123153D+01 -0.271406D+01
     40  0.793145D-01 -0.758681D-02 -0.154806D+01 -0.260599D+00 -0.762797D+00
     41  0.409200D-01 -0.331600D-02 -0.126727D+00 -0.382033D+01  0.569678D-01
     42 -0.115446D-01 -0.395573D-01 -0.735000D+00  0.100975D+00 -0.350994D+01
     43  0.536344D-02  0.298863D-02  0.268121D-01 -0.436232D-01  0.745001D-01
     44 -0.757533D-02 -0.211987D-01 -0.606916D-01 -0.490354D-01 -0.336107D-01
     45 -0.149429D-01 -0.601557D-02  0.118573D+00 -0.313865D-01  0.442748D-01
     46 -0.888664D-02  0.961654D-02  0.171518D-01 -0.329307D-02  0.108988D-01
     47 -0.393189D-02 -0.676191D-02 -0.238804D-02 -0.681502D-02 -0.197032D-02
     48 -0.317483D-02 -0.199917D-02  0.170687D-01 -0.530130D-02 -0.428634D-03
     49  0.181277D-02  0.262439D-02  0.168206D-01 -0.321496D-02  0.228664D-02
     50 -0.421417D-02 -0.168743D-03  0.164231D-02 -0.294272D-02 -0.228885D-03
     51  0.955540D-03 -0.327702D-02  0.280600D-02 -0.118404D-02 -0.299548D-02
               16            17            18            19            20 
     16  0.974170D+01
     17  0.425531D+00  0.253687D+02
     18 -0.442070D+01  0.485361D+01  0.183877D+02
     19 -0.265323D+00  0.130562D+01  0.978179D+00  0.898710D+01
     20  0.110204D+01 -0.129389D+02 -0.172099D+01 -0.308157D+01  0.236706D+02
     21  0.128505D+01 -0.172113D+01 -0.107008D+02  0.161747D+01  0.541997D+01
     22  0.739716D-01 -0.491810D-01  0.117432D+00  0.350808D-01 -0.617992D-02
     23 -0.481419D-01 -0.354102D-01 -0.413069D-01 -0.125558D-01 -0.907913D-02
     24  0.126587D+00 -0.445462D-01  0.549953D-01  0.380028D-01 -0.566001D-02
     25 -0.436374D-02 -0.122269D-01  0.311128D-02 -0.429291D-02 -0.308958D-02
     26 -0.271480D-01  0.298849D-01 -0.577043D-02 -0.270531D-01  0.847670D-02
     27  0.672667D-02 -0.118823D-01 -0.147633D-01  0.805181D-02 -0.440829D-02
     28  0.241931D-01 -0.141106D-01 -0.265258D-02  0.188714D-01 -0.623553D-02
     29 -0.143638D-01 -0.439331D-02  0.338520D-03 -0.738181D-02 -0.338194D-02
     30 -0.427427D-02  0.273307D-02 -0.124963D-01 -0.145609D-02  0.992626D-03
     31 -0.130203D-01 -0.443428D-01 -0.355966D-01  0.650561D-01 -0.330146D-01
     32 -0.523826D-01 -0.358305D-01  0.323964D-01 -0.384686D-01 -0.158255D-01
     33 -0.753845D-01  0.592219D-01 -0.261315D-01 -0.597748D-01  0.207663D-01
     34 -0.664917D-01 -0.343742D-01 -0.388268D-01  0.340223D-01  0.115224D-01
     35 -0.121583D-01 -0.366432D-02 -0.320754D-01  0.333142D-01 -0.127513D-01
     36 -0.637258D-01 -0.364022D-01  0.245300D-01 -0.381737D-01 -0.107206D-01
     37  0.210928D-01  0.324016D-01  0.293967D-01  0.141888D-01  0.931628D-02
     38  0.427802D-01  0.480181D-02  0.264184D-01  0.235004D-01  0.987654D-04
     39  0.403049D-01  0.303353D-01 -0.410365D-02  0.220242D-01  0.843526D-02
     40  0.692552D-01  0.110978D-01 -0.779679D-03  0.292917D-01  0.390077D-02
     41  0.121311D-01 -0.188697D-01  0.357493D-02  0.242276D-02 -0.547486D-02
     42 -0.710219D-02 -0.443171D-03 -0.213235D-01 -0.451081D-02 -0.461836D-03
     43 -0.397758D+01  0.690407D+00 -0.969438D+00 -0.286865D+00 -0.213899D+00
     44  0.830389D+00 -0.395921D+01 -0.113532D+01 -0.239776D+00  0.133868D+00
     45 -0.117726D+01 -0.113805D+01 -0.308568D+01  0.184462D+00  0.547423D-01
     46 -0.222641D+00  0.146632D+00 -0.458163D+00 -0.396194D+01 -0.501151D+00
     47  0.169922D+00  0.377383D+00  0.810170D-01 -0.469742D+00 -0.409774D+01
     48 -0.477688D+00  0.665296D-01  0.121380D+00  0.100145D+01 -0.102693D+01
     49  0.393611D+00  0.929785D-01 -0.578632D-01 -0.317225D+00 -0.342636D-02
     50  0.782624D-01 -0.752527D-01 -0.901530D-02 -0.759567D-01  0.990686D-01
     51 -0.356414D-01 -0.662995D-02 -0.878470D-01  0.775336D-01 -0.144431D-01
               21            22            23            24            25 
     21  0.179637D+02
     22  0.166366D-01  0.379335D+01
     23 -0.436681D-02  0.403074D+00  0.441631D+01
     24  0.422681D-02 -0.150119D+01  0.718631D+00  0.200732D+01
     25 -0.174656D-03  0.145177D-01 -0.880281D-02 -0.434277D-02  0.361244D+01
     26 -0.783749D-03 -0.696742D-02 -0.171318D-01 -0.220407D-01 -0.661499D+00
     27 -0.880379D-02 -0.113963D-01 -0.265569D-01 -0.937190D-02  0.267424D+00
     28 -0.204622D-02  0.289935D-02  0.144041D-01  0.169096D-01 -0.132688D+00
     29  0.122938D-02  0.125296D-01  0.168450D-02 -0.254765D-01 -0.124579D+00
     30 -0.501358D-02  0.221195D-01 -0.244539D-01 -0.296090D-01  0.753418D-01
     31 -0.219254D-01 -0.227968D-01  0.486583D-02  0.256168D-01  0.116883D+00
     32  0.944216D-02  0.981921D-02 -0.258899D-01  0.325827D-01  0.125303D-01
     33 -0.131935D-01  0.386362D-01  0.217953D-01  0.123525D+00  0.428078D-04
     34 -0.756497D-02 -0.246451D-01 -0.155168D-01  0.204373D-01 -0.209664D-02
     35 -0.531159D-02 -0.246507D-01  0.284587D-01 -0.815515D-01  0.134895D-02
     36 -0.156739D-01  0.278773D-01 -0.707162D-01  0.704867D-01 -0.159088D-02
     37  0.749001D-02  0.236902D-01 -0.854826D-02  0.324777D-02  0.589845D-03
     38  0.650310D-02 -0.584975D-02 -0.557390D-01  0.219923D-01  0.160050D-02
     39 -0.329874D-02 -0.230422D-02  0.251240D-01  0.134145D-01  0.137999D-02
     40 -0.113673D-02 -0.333865D-02 -0.431031D-02  0.171259D-03  0.426069D-02
     41  0.195769D-03 -0.660784D-02 -0.213141D-02  0.961199D-02  0.459036D-02
     42 -0.582450D-02  0.928122D-02  0.752822D-02 -0.267406D-02 -0.210984D-02
     43  0.136485D+00 -0.682072D-02  0.527067D-02 -0.119729D-01 -0.170123D-02
     44  0.362379D-01  0.159527D-02  0.219616D-03  0.647460D-03 -0.789960D-02
     45  0.209509D+00 -0.437801D-02  0.271136D-02 -0.176427D-02  0.272291D-02
     46  0.107993D+01  0.320948D-02 -0.154468D-02  0.508377D-02  0.191678D-03
     47 -0.103734D+01 -0.238076D-02 -0.737232D-04 -0.277592D-02 -0.945309D-03
     48 -0.251633D+01  0.488078D-02 -0.186247D-02  0.495398D-02  0.346199D-03
     49 -0.293194D-01  0.558367D-02 -0.164045D-02  0.630971D-02  0.518167D-03
     50 -0.253880D-01 -0.325272D-03 -0.379622D-03 -0.407089D-03 -0.399623D-03
     51  0.108968D+00  0.151896D-02 -0.448000D-03  0.121821D-02 -0.487537D-05
               26            27            28            29            30 
     26  0.179197D+01
     27  0.582928D+00  0.386832D+01
     28 -0.126880D+00  0.616940D-01  0.158409D+01
     29  0.463900D-01  0.262121D-01  0.617611D+00  0.358471D+01
     30  0.332182D-01  0.693593D-01  0.374036D+00 -0.103290D+00  0.384760D+01
     31 -0.114577D-01  0.292870D-01 -0.136602D+00  0.784059D-01 -0.184731D+00
[...]
 Cartesian Forces:  Max     0.000019316 RMS     0.000004623
 ***** Axes restored to original set *****
 Rotating derivatives, DoTrsp=F IDiff=-1 LEDeriv=   2500 LFDPrp=       0 LDFDPr=       0.
 -------------------------------------------------------------------
 Center     Atomic                   Forces (Hartrees/Bohr)
 Number     Number              X              Y              Z
 -------------------------------------------------------------------
      1        8          -0.000000815    0.000004090   -0.000001705
      2        8           0.000005851   -0.000015971   -0.000012225
      3        6          -0.000004342    0.000001386    0.000000560
      4        6           0.000000679    0.000002333   -0.000001990
      5        6           0.000002517   -0.000006887    0.000012570
      6        6           0.000001347   -0.000000478    0.000006079
      7        6          -0.000001775    0.000011305   -0.000002242
      8        1           0.000002654    0.000003179   -0.000005117
      9        1           0.000002293   -0.000000127   -0.000000110
     10        1           0.000001664   -0.000001083   -0.000000910
     11        1          -0.000002701   -0.000002855    0.000000400
     12        1          -0.000000006    0.000001766    0.000005926
     13        1          -0.000002427    0.000005606    0.000001437
     14        1          -0.000002834    0.000000377   -0.000004424
     15        1          -0.000001431   -0.000003700    0.000000013
     16        1           0.000002729    0.000000383   -0.000000125
     17        1          -0.000003403    0.000000677    0.000001861
 -------------------------------------------------------------------
 Cartesian Forces:  Max     0.000015971 RMS     0.000004623
 Final forces over variables, Energy=-3.46939185D+02:
 -4.94347148D-05-4.24094720D-05-6.02811218D-05-5.98078374D-05
 -3.71131057D-05 1.18063154D-05-6.83800935D-06 1.01443107D-05
  2.55565324D-06 7.69955401D-06-3.68067915D-05 1.71387501D-05
 -7.24049332D-06-2.87973992D-05 7.52983880D-06-9.00232867D-06
 -1.75688307D-04-8.69259436D-06-7.72735394D-06-3.62851235D-05
  2.26387675D-05 2.60006348D-05-6.53276902D-06 1.79589033D-06
 -3.48595589D-07-8.59614815D-06-2.41457110D-05 1.02081363D-05
  8.42053066D-06 1.57130870D-05-5.27479632D-06-2.38861839D-05
  2.83194365D-05-5.69592538D-07-4.93199813D-07 1.83161871D-06
 -1.14592493D-04 5.33718117D-05 6.12952121D-05-4.84274127D-05
  3.50247860D-05 1.34377279D-05-4.32799850D-06-4.79688245D-06
 -2.74188808D-06-3.21824430D-05-2.82598456D-05 1.68448258D-05
  9.71213567D-07 1.84192580D-05 2.53621622D-05 2.41694194D-05
 -1.57755333D-05-8.83262914D-06-1.00253720D-05-8.86876691D-07
  6.05602748D-06 4.86328464D-06-1.85924944D-05 6.06898177D-07
 -4.55537073D-06 1.40368971D-07 1.93397616D-05 1.41774926D-05
 -1.01178964D-05 9.08149622D-06 3.91922732D-06-1.64950115D-05
 -2.27481310D-07-2.00484760D-05-3.78094585D-06
 Leave Link  716 at Sun Sep 29 14:56:02 2019, MaxMem=   671088640 cpu:               1.5 elap:               0.7
 (Enter /shared/centos7/gaussian/g16/l103.exe)

 GradGradGradGradGradGradGradGradGradGradGradGradGradGradGradGradGradGrad
 Berny optimization.
 Using GEDIIS/GDIIS optimizer.
 FormGI is forming the generalized inverse of G from B-inverse, IUseBI=4.
 Internal  Forces:  Max     0.000027294 RMS     0.000007785
 Search for a local minimum.
 Step number  24 out of a maximum of  102
 All quantities printed in internal units (Hartrees-Bohrs-Radians)
 RMS Force = .77851D-05 SwitMx=.10000D-02 MixMth= 2
 Mixed Optimization -- En-DIIS/RFO-DIIS
 Swapping is turned off.
 Update second derivatives using D2CorX and points   15   14   16   17   18
                                                     19   20   21   22   23
                                                     24
 DE= -2.85D-07 DEPred=-3.80D-07 R= 7.51D-01
 Trust test= 7.51D-01 RLast= 1.17D-02 DXMaxT set to 3.66D-01
 ITU=  0  1  1  1  1  1  0  0 -1 -1  1  1  1  1  1  1  1  1  1  1
 ITU= -1  0  1  0
     Eigenvalues ---    0.00180   0.00218   0.00270   0.00610   0.00743
     Eigenvalues ---    0.02407   0.04005   0.04113   0.04276   0.04350
     Eigenvalues ---    0.04437   0.04550   0.04612   0.06263   0.06873
     Eigenvalues ---    0.11001   0.11950   0.12246   0.12533   0.12734
     Eigenvalues ---    0.13909   0.14499   0.14802   0.16712   0.18382
     Eigenvalues ---    0.19545   0.20857   0.22219   0.25666   0.27303
     Eigenvalues ---    0.27709   0.28709   0.29797   0.30101   0.30818
     Eigenvalues ---    0.31180   0.31928   0.32365   0.34725   0.36678
     Eigenvalues ---    0.39388   0.42392   0.48962   0.55292   0.71225
 En-DIIS/RFO-DIIS/Sim-DIIS IScMMF=       -3 using points:    24   23   22   21   20   19   18   17   16
 RFO step:  Lambda=-8.28839419D-08.
 NNeg= 0 NGDIIS= 9 SimSw=  2.50D-01 Rises=F DC= -2.85D-07 SmlDif=  1.00D-05
 NRisDI= 0 DoIntr=F SqrtH=F CThrHd= 10.0 CDAdj=  3.0
 RMS Error=  0.4042011487D-03 NUsed= 9 OKEnD=F EnDIS=F
 InvSVX:  RCond= 2.01D-08 Info=           0 Equed=N FErr=  3.19D-12 BErr=  4.33D-17
 DIIS inversion failure, remove point   9.
 InvSVX:  RCond= 1.08D-07 Info=           0 Equed=N FErr=  7.73D-13 BErr=  4.63D-17
 RFO-DIIS uses    8 points instead of    9
 DidBck=F Rises=F RFO-DIIS coefs:    1.16225   -0.31396    0.18502   -0.04842   -0.00311
                  RFO-DIIS coefs:    0.06869   -0.03732   -0.01315    0.00000
 Iteration  1 RMS(Cart)=  0.00221964 RMS(Int)=  0.00000133
 Iteration  2 RMS(Cart)=  0.00000230 RMS(Int)=  0.00000035
 Iteration  3 RMS(Cart)=  0.00000000 RMS(Int)=  0.00000035
 ITry= 1 IFail=0 DXMaxC= 8.33D-03 DCOld= 1.00D+10 DXMaxT= 3.66D-01 DXLimC= 3.00D+00 Rises=F
 Variable       Old X    -DE/DX   Delta X   Delta X   Delta X     New X
                                 (Linear)    (Quad)   (Total)
    R1        2.71100   0.00001  -0.00001  -0.00003  -0.00004   2.71096
    R2        2.57935   0.00000  -0.00005  -0.00002  -0.00006   2.57929
    R3        2.57434   0.00001  -0.00004   0.00007   0.00003   2.57438
    R4        1.81041  -0.00000  -0.00001  -0.00000  -0.00001   1.81040
    R5        2.87220  -0.00000  -0.00001   0.00001   0.00000   2.87221
    R6        2.86944   0.00000  -0.00001   0.00002   0.00001   2.86945
    R7        2.06013  -0.00001   0.00000  -0.00003  -0.00003   2.06010
    R8        2.05923  -0.00000  -0.00000  -0.00001  -0.00001   2.05922
    R9        2.05920  -0.00000  -0.00001   0.00000  -0.00001   2.05920
   R10        2.06148  -0.00000  -0.00001  -0.00001  -0.00003   2.06146
   R11        2.06182  -0.00000   0.00002  -0.00001   0.00000   2.06183
   R12        2.05650  -0.00001   0.00001  -0.00002  -0.00001   2.05648
   R13        2.06036  -0.00000  -0.00000  -0.00002  -0.00002   2.06034
   R14        2.50515   0.00001   0.00003  -0.00002   0.00001   2.50516
   R15        2.04816  -0.00000  -0.00002   0.00000  -0.00002   2.04814
   R16        2.04551   0.00000  -0.00002   0.00002   0.00000   2.04551
    A1        2.02705   0.00002   0.00017  -0.00015   0.00002   2.02706
    A2        1.91226  -0.00000  -0.00000  -0.00003  -0.00003   1.91223
    A3        1.95081  -0.00001   0.00019  -0.00007   0.00012   1.95093
    A4        1.93030   0.00002  -0.00003  -0.00002  -0.00005   1.93025
    A5        1.79866  -0.00000  -0.00009   0.00006  -0.00003   1.79863
    A6        1.96257  -0.00001  -0.00002  -0.00000  -0.00003   1.96254
    A7        1.90412   0.00001  -0.00008   0.00005  -0.00004   1.90408
    A8        1.90992  -0.00000   0.00002  -0.00000   0.00002   1.90994
    A9        1.93073   0.00000   0.00001   0.00001   0.00001   1.93075
   A10        1.91807  -0.00000  -0.00011   0.00003  -0.00008   1.91799
   A11        1.93703  -0.00000   0.00013  -0.00006   0.00007   1.93710
   A12        1.89481   0.00000   0.00001   0.00000   0.00001   1.89483
   A13        1.89970   0.00000   0.00001   0.00001   0.00002   1.89972
   A14        1.88232   0.00000  -0.00006   0.00001  -0.00005   1.88227
   A15        1.92467   0.00000  -0.00010   0.00006  -0.00004   1.92464
   A16        1.92423  -0.00000   0.00002  -0.00005  -0.00003   1.92420
   A17        1.92493  -0.00000   0.00003   0.00001   0.00004   1.92497
   A18        1.89017   0.00000   0.00008   0.00000   0.00008   1.89025
   A19        1.89193  -0.00000  -0.00004   0.00001  -0.00003   1.89190
   A20        1.90721   0.00000   0.00001  -0.00003  -0.00003   1.90719
   A21        2.13931   0.00003  -0.00013   0.00011  -0.00002   2.13929
   A22        2.05490  -0.00001   0.00009  -0.00002   0.00006   2.05496
   A23        2.08720  -0.00001   0.00004  -0.00009  -0.00005   2.08715
   A24        2.13618   0.00002  -0.00002   0.00010   0.00007   2.13625
   A25        2.05275  -0.00001   0.00007  -0.00007  -0.00001   2.05274
   A26        2.09425  -0.00001  -0.00005  -0.00002  -0.00007   2.09418
    D1        1.01208  -0.00000  -0.00027  -0.00013  -0.00039   1.01168
    D2       -1.18898  -0.00000  -0.00036  -0.00005  -0.00041  -1.18940
    D3        3.05444  -0.00000  -0.00033  -0.00007  -0.00040   3.05405
    D4        1.85038   0.00002   0.00344   0.00004   0.00348   1.85386
    D5       -1.35556   0.00001   0.00336  -0.00000   0.00336  -1.35220
    D6        3.08600  -0.00000   0.00030  -0.00002   0.00028   3.08629
    D7       -0.05313   0.00000   0.00042   0.00005   0.00046  -0.05266
    D8        0.88365  -0.00001  -0.00022   0.00002  -0.00020   0.88345
    D9        2.97572  -0.00001  -0.00027   0.00005  -0.00022   2.97550
   D10       -1.22694  -0.00001  -0.00033   0.00004  -0.00029  -1.22723
   D11        3.06694   0.00001  -0.00013  -0.00007  -0.00019   3.06675
   D12       -1.12418   0.00001  -0.00018  -0.00004  -0.00021  -1.12439
   D13        0.95634   0.00001  -0.00023  -0.00004  -0.00028   0.95607
   D14       -1.09398   0.00000  -0.00017  -0.00004  -0.00021  -1.09419
   D15        0.99808   0.00000  -0.00022  -0.00001  -0.00023   0.99785
   D16        3.07860   0.00000  -0.00028  -0.00002  -0.00030   3.07831
   D17        1.14820   0.00000   0.00007  -0.00006   0.00001   1.14822
   D18       -0.93819  -0.00000   0.00002  -0.00007  -0.00005  -0.93824
   D19       -3.04596  -0.00000  -0.00002  -0.00000  -0.00003  -3.04598
   D20       -1.04626   0.00000  -0.00015   0.00006  -0.00009  -1.04635
   D21       -3.13266   0.00000  -0.00020   0.00005  -0.00015  -3.13280
   D22        1.04276   0.00000  -0.00024   0.00011  -0.00013   1.04264
   D23        3.11797   0.00000  -0.00004   0.00000  -0.00004   3.11794
   D24        1.03158   0.00000  -0.00009  -0.00001  -0.00010   1.03148
   D25       -1.07619   0.00000  -0.00013   0.00006  -0.00008  -1.07626
   D26       -0.07847   0.00000   0.00005  -0.00001   0.00005  -0.07842
   D27        3.06061  -0.00000  -0.00007  -0.00007  -0.00014   3.06046
   D28        3.12862   0.00001   0.00013   0.00004   0.00017   3.12879
   D29       -0.01549   0.00001   0.00001  -0.00003  -0.00002  -0.01551
         Item               Value     Threshold  Converged?
 Maximum Force            0.000027     0.000015     NO 
 RMS     Force            0.000008     0.000010     YES
 Maximum Displacement     0.008329     0.000060     NO 
 RMS     Displacement     0.002219     0.000040     NO 
 Predicted change in Energy=-2.995515D-08
 Lowest energy point so far.  Saving SCF results.
 GradGradGradGradGradGradGradGradGradGradGradGradGradGradGradGradGradGrad

 Leave Link  103 at Sun Sep 29 14:57:24 2019, MaxMem=   671088640 cpu:             163.8 elap:              82.0
 (Enter /shared/centos7/gaussian/g16/l202.exe)
                          Input orientation:                          
 ---------------------------------------------------------------------
 Center     Atomic      Atomic             Coordinates (Angstroms)
 Number     Number       Type             X           Y           Z
 ---------------------------------------------------------------------
      1          8           0       -0.345190    0.087608    2.829077
      2          8           0        1.405287   -1.446971    1.287846
      3          6           0        0.106148    0.360682    4.163148
      4          6           0        0.188185    1.853601    4.436238
      5          6           0        1.418029   -0.352211    4.439622
      6          6           0        0.405136    0.618250    1.819930
      7          6           0        1.204125   -0.118814    1.061138
      8          1           0       -0.679537   -0.072511    4.782410
      9          1           0       -0.742730    2.346548    4.157257
     10          1           0        0.368381    2.027176    5.496807
     11          1           0        1.008414    2.308244    3.878979
     12          1           0        2.209782    0.054930    3.808908
     13          1           0        1.321983   -1.414637    4.224446
     14          1           0        1.707208   -0.220967    5.482633
     15          1           0        0.287555    1.674100    1.605370
     16          1           0        1.722854    0.331582    0.224637
     17          1           0        1.973136   -1.806525    0.605149
 ---------------------------------------------------------------------
                    Distance matrix (angstroms):
                    1          2          3          4          5
     1  O    0.000000
     2  O    2.791862   0.000000
     3  C    1.434580   3.636307   0.000000
     4  C    2.446668   4.720962   1.519906   0.000000
     5  C    2.428217   3.336519   1.518449   2.525496   0.000000
     6  C    1.364899   2.355537   2.376217   2.901419   2.971622
     7  C    2.359787   1.362301   3.325347   4.039041   3.393285
     8  H    1.988199   4.295068   1.090157   2.140720   2.143716
     9  H    2.650454   5.219031   2.159697   1.089693   3.468704
    10  H    3.374594   5.555198   2.150492   1.089681   2.807291
    11  H    2.804596   4.579642   2.165140   1.090877   2.749568
    12  H    2.736607   3.042807   2.155051   2.777699   1.091072
    13  H    2.642585   2.937959   2.152619   3.465795   1.088244
    14  H    3.368815   4.380694   2.154704   2.776005   1.090285
    15  H    2.101138   3.330350   2.881007   2.838293   3.662908
    16  H    3.334582   2.096310   4.257517   4.733850   4.280957
    17  H    3.729374   0.958022   4.565280   5.591048   4.138401
                    6          7          8          9         10
     6  C    0.000000
     7  C    1.325674   0.000000
     8  H    3.229544   4.171114   0.000000
     9  H    3.125333   4.410692   2.499330   0.000000
    10  H    3.937747   4.997889   2.452994   1.769451   0.000000
    11  H    2.731247   3.724130   3.055054   1.773530   1.762387
    12  H    2.744105   2.931173   3.051576   3.753689   3.182689
    13  H    3.279472   3.420462   2.473602   4.291161   3.791350
    14  H    3.976817   4.451196   2.491767   3.788264   2.616640
    15  H    1.083827   2.085865   3.752266   2.832984   3.908257
    16  H    2.088903   1.082438   5.167985   5.060108   5.701351
    17  H    3.132707   1.909888   5.243376   6.102574   6.418786
                   11         12         13         14         15
    11  H    0.000000
    12  H    2.554529   0.000000
    13  H    3.752002   1.766491   0.000000
    14  H    3.075212   1.769196   1.776593   0.000000
    15  H    2.468010   3.342492   4.179701   4.543111   0.000000
    16  H    4.215665   3.627759   4.382745   5.286973   2.401846
    17  H    5.346025   3.712828   3.698228   5.135617   3.994544
                   16         17
    16  H    0.000000
    17  H    2.186078   0.000000
 Stoichiometry    C5H10O2
 Framework group  C1[X(C5H10O2)]
 Deg. of freedom    45
 Full point group                 C1      NOp   1
 RotChk:  IX=1 Diff= 1.30D-03
 Largest Abelian subgroup         C1      NOp   1
 Largest concise Abelian subgroup C1      NOp   1
                         Standard orientation:                         
 ---------------------------------------------------------------------
 Center     Atomic      Atomic             Coordinates (Angstroms)
 Number     Number       Type             X           Y           Z
 ---------------------------------------------------------------------
      1          8           0       -0.152558    0.460097   -0.898970
      2          8           0        2.303858   -0.623210   -0.132836
      3          6           0       -1.301971   -0.257101   -0.427275
      4          6           0       -2.216661    0.627486    0.403967
      5          6           0       -0.880483   -1.513685    0.313690
      6          6           0        0.636021    1.029106    0.058799
      7          6           0        1.821365    0.537728    0.391842
      8          1           0       -1.814568   -0.534103   -1.348664
      9          1           0       -2.439477    1.553713   -0.125076
     10          1           0       -3.153509    0.108068    0.603779
     11          1           0       -1.758300    0.871196    1.363406
     12          1           0       -0.344427   -1.252020    1.227262
     13          1           0       -0.221079   -2.114921   -0.309187
     14          1           0       -1.755919   -2.103993    0.585479
     15          1           0        0.291884    1.950780    0.513516
     16          1           0        2.444883    1.064214    1.102974
     17          1           0        3.190487   -0.779223    0.194817
 ---------------------------------------------------------------------
 Rotational constants (GHZ):           4.7556315           1.7538482           1.4916518
 Leave Link  202 at Sun Sep 29 14:57:26 2019, MaxMem=   671088640 cpu:               4.3 elap:               2.2
 (Enter /shared/centos7/gaussian/g16/l301.exe)
 Standard basis: CC-pVTZ (5D, 7F)
 Ernie: Thresh=  0.10000D-02 Tol=  0.10000D-05 Strict=F.
 Ernie:  21 primitive shells out of 262 were deleted.
 There are   395 symmetry adapted cartesian basis functions of A   symmetry.
 There are   350 symmetry adapted basis functions of A   symmetry.
   350 basis functions,   534 primitive gaussians,   395 cartesian basis functions
    28 alpha electrons       28 beta electrons
       nuclear repulsion energy       321.4996845088 Hartrees.
 IExCor= 4336 DFT=T Ex+Corr=M062X ExCW=0 ScaHFX=  0.540000
 ScaDFX=  1.000000  1.000000  1.000000  1.000000 ScalE2=  1.000000  1.000000
 IRadAn=      5 IRanWt=     -1 IRanGd=            0 ICorTp=0 IEmpDi=  4
 NAtoms=   17 NActive=   17 NUniq=   17 SFac= 1.00D+00 NAtFMM=   60 NAOKFM=F Big=F
 Integral buffers will be    131072 words long.
 Raffenetti 2 integral format.
 Two-electron integral symmetry is turned on.
 Leave Link  301 at Sun Sep 29 14:57:27 2019, MaxMem=   671088640 cpu:               1.6 elap:               0.8
 (Enter /shared/centos7/gaussian/g16/l302.exe)
 NPDir=0 NMtPBC=     1 NCelOv=     1 NCel=       1 NClECP=     1 NCelD=      1
         NCelK=      1 NCelE2=     1 NClLst=     1 CellRange=     0.0.
 One-electron integrals computed using PRISM.
 One-electron integral symmetry used in STVInt
 NBasis=   350 RedAO= T EigKep=  3.01D-04  NBF=   350
 NBsUse=   350 1.00D-06 EigRej= -1.00D+00 NBFU=   350
 Precomputing XC quadrature grid using
 IXCGrd= 4 IRadAn=           5 IRanWt=          -1 IRanGd=           0 AccXCQ= 0.00D+00.
 Generated NRdTot=       0 NPtTot=           0 NUsed=           0 NTot=          32
 NSgBfM=   395   395   395   395   395 MxSgAt=    17 MxSgA2=    17.
 Leave Link  302 at Sun Sep 29 14:58:26 2019, MaxMem=   671088640 cpu:             117.5 elap:              58.8
 (Enter /shared/centos7/gaussian/g16/l303.exe)
 DipDrv:  MaxL=1.
 Leave Link  303 at Sun Sep 29 14:58:30 2019, MaxMem=   671088640 cpu:               8.5 elap:               4.3
 (Enter /shared/centos7/gaussian/g16/l401.exe)
 Initial guess from the checkpoint file:  "/scratch/harms.n/gauss_scrdir/Gau-18056.chk"
 B after Tr=     0.000000    0.000000    0.000000
         Rot=    1.000000    0.000321    0.000116    0.000195 Ang=   0.05 deg.
 Guess basis will be translated and rotated to current coordinates.
