 Entering Gaussian System, Link 0=g16
 Input=tight/species/CC(C)OC=CO/conformers/CC(C)OC=CO_114.com
 Output=tight/species/CC(C)OC=CO/conformers/CC(C)OC=CO_114.log
 Initial command:
 /shared/centos7/gaussian/g16/l1.exe "/scratch/harms.n/gauss_scrdir/Gau-10021.inp" -scrdir="/scratch/harms.n/gauss_scrdir/"
 Entering Link 1 = /shared/centos7/gaussian/g16/l1.exe PID=     10022.
  
 Copyright (c) 1988,1990,1992,1993,1995,1998,2003,2009,2016,
            Gaussian, Inc.  All Rights Reserved.
  
 This is part of the Gaussian(R) 16 program.  It is based on
 the Gaussian(R) 09 system (copyright 2009, Gaussian, Inc.),
 the Gaussian(R) 03 system (copyright 2003, Gaussian, Inc.),
 the Gaussian(R) 98 system (copyright 1998, Gaussian, Inc.),
 the Gaussian(R) 94 system (copyright 1995, Gaussian, Inc.),
 the Gaussian 92(TM) system (copyright 1992, Gaussian, Inc.),
 the Gaussian 90(TM) system (copyright 1990, Gaussian, Inc.),
 the Gaussian 88(TM) system (copyright 1988, Gaussian, Inc.),
 the Gaussian 86(TM) system (copyright 1986, Carnegie Mellon
 University), and the Gaussian 82(TM) system (copyright 1983,
 Carnegie Mellon University). Gaussian is a federally registered
 trademark of Gaussian, Inc.
  
 This software contains proprietary and confidential information,
 including trade secrets, belonging to Gaussian, Inc.
  
 This software is provided under written license and may be
 used, copied, transmitted, or stored only in accord with that
 written license.
  
 The following legend is applicable only to US Government
 contracts under FAR:
  
                    RESTRICTED RIGHTS LEGEND
  
 Use, reproduction and disclosure by the US Government is
 subject to restrictions as set forth in subparagraphs (a)
 and (c) of the Commercial Computer Software - Restricted
 Rights clause in FAR 52.227-19.
  
 Gaussian, Inc.
 340 Quinnipiac St., Bldg. 40, Wallingford CT 06492
  
  
 ---------------------------------------------------------------
 Warning -- This program may not be used in any manner that
 competes with the business of Gaussian, Inc. or will provide
 assistance to any competitor of Gaussian, Inc.  The licensee
 of this program is prohibited from giving any competitor of
 Gaussian, Inc. access to this program.  By using this program,
 the user acknowledges that Gaussian, Inc. is engaged in the
 business of creating and licensing software in the field of
 computational chemistry and represents and warrants to the
 licensee that it is not a competitor of Gaussian, Inc. and that
 it will not use this program in any manner prohibited above.
 ---------------------------------------------------------------
  

 Cite this work as:
 Gaussian 16, Revision A.03,
 M. J. Frisch, G. W. Trucks, H. B. Schlegel, G. E. Scuseria, 
 M. A. Robb, J. R. Cheeseman, G. Scalmani, V. Barone, 
 G. A. Petersson, H. Nakatsuji, X. Li, M. Caricato, A. V. Marenich, 
 J. Bloino, B. G. Janesko, R. Gomperts, B. Mennucci, H. P. Hratchian, 
 J. V. Ortiz, A. F. Izmaylov, J. L. Sonnenberg, D. Williams-Young, 
 F. Ding, F. Lipparini, F. Egidi, J. Goings, B. Peng, A. Petrone, 
 T. Henderson, D. Ranasinghe, V. G. Zakrzewski, J. Gao, N. Rega, 
 G. Zheng, W. Liang, M. Hada, M. Ehara, K. Toyota, R. Fukuda, 
 J. Hasegawa, M. Ishida, T. Nakajima, Y. Honda, O. Kitao, H. Nakai, 
 T. Vreven, K. Throssell, J. A. Montgomery, Jr., J. E. Peralta, 
 F. Ogliaro, M. J. Bearpark, J. J. Heyd, E. N. Brothers, K. N. Kudin, 
 V. N. Staroverov, T. A. Keith, R. Kobayashi, J. Normand, 
 K. Raghavachari, A. P. Rendell, J. C. Burant, S. S. Iyengar, 
 J. Tomasi, M. Cossi, J. M. Millam, M. Klene, C. Adamo, R. Cammi, 
 J. W. Ochterski, R. L. Martin, K. Morokuma, O. Farkas, 
 J. B. Foresman, and D. J. Fox, Gaussian, Inc., Wallingford CT, 2016.
 
 ******************************************
 Gaussian 16:  EM64L-G16RevA.03 25-Dec-2016
                27-Sep-2019 
 ******************************************
 %nprocshared=20
 Will use up to   20 processors via shared memory.
 %mem=5GB
 ----------------------------------------------------------------------
 #p m062x/cc-pVTZ opt=(calcfc,maxcycles=900,Tight) freq IOP(7/33=1,2/16
 =3) scf=(maxcycle=900)
 ----------------------------------------------------------------------
 1/6=900,7=10,10=4,18=20,19=15,26=3,38=1/1,3;
 2/9=110,12=2,16=3,17=6,18=5,40=1/2;
 3/5=16,6=1,11=2,25=1,30=1,71=2,74=-55,140=1/1,2,3;
 4//1;
 5/5=2,7=900,38=5/2;
 8/6=4,10=90,11=11/1;
 11/6=1,8=1,9=11,15=111,16=1/1,2,10;
 10/6=1,13=1/2;
 6/7=2,8=2,9=2,10=2,28=1/1;
 7/10=1,18=20,25=1,33=1/1,2,3,16;
 1/6=900,7=10,10=4,18=20,19=15,26=3/3(2);
 2/9=110,16=3/2;
 99//99;
 2/9=110,16=3/2;
 3/5=16,6=1,11=2,25=1,30=1,71=1,74=-55/1,2,3;
 4/5=5,16=3,69=1/1;
 5/5=2,7=900,38=5/2;
 7/33=1/1,2,3,16;
 1/6=900,7=10,18=20,19=15,26=3/3(-5);
 2/9=110,16=3/2;
 6/7=2,8=2,9=2,10=2,19=2,28=1/1;
 99/9=1/99;
 Leave Link    1 at Fri Sep 27 01:05:10 2019, MaxMem=   671088640 cpu:               3.1 elap:               2.1
 (Enter /shared/centos7/gaussian/g16/l101.exe)
 ------------------------------
 Gaussian input prepared by ASE
 ------------------------------
 Symbolic Z-matrix:
 Charge =  0 Multiplicity = 1
 O                     0.20147   0.74196   1.94776 
 O                     0.67063  -0.29832  -0.6608 
 C                     0.15034   2.12657   2.22001 
 C                    -0.75801   2.82235   1.20621 
 C                     1.49184   2.77662   2.30865 
 C                     1.42432   0.2862    1.51093 
 C                     1.63474  -0.22757   0.33372 
 H                    -0.34638   2.23061   3.2244 
 H                    -1.78763   2.41069   1.2575 
 H                    -0.80966   3.90829   1.4051 
 H                    -0.3747    2.67252   0.16062 
 H                     2.11757   2.55888   1.39336 
 H                     2.05705   2.42106   3.19532 
 H                     1.385     3.89502   2.39429 
 H                     2.23367   0.30415   2.25817 
 H                     2.59635  -0.63628   0.06045 
 H                     1.11621  -0.68232  -1.47061 
 
 ITRead=  0  0  0  0  0  0  0  0  0  0  0  0  0  0  0  0  0
 MicOpt= -1 -1 -1 -1 -1 -1 -1 -1 -1 -1 -1 -1 -1 -1 -1 -1 -1
 NAtoms=     17 NQM=       17 NQMF=       0 NMMI=      0 NMMIF=      0
                NMic=       0 NMicF=      0.
                    Isotopes and Nuclear Properties:
 (Nuclear quadrupole moments (NQMom) in fm**2, nuclear magnetic moments (NMagM)
  in nuclear magnetons)

  Atom         1           2           3           4           5           6           7           8           9          10
 IAtWgt=          16          16          12          12          12          12          12           1           1           1
 AtmWgt=  15.9949146  15.9949146  12.0000000  12.0000000  12.0000000  12.0000000  12.0000000   1.0078250   1.0078250   1.0078250
 NucSpn=           0           0           0           0           0           0           0           1           1           1
 AtZEff=  -0.0000000  -0.0000000  -0.0000000  -0.0000000  -0.0000000  -0.0000000  -0.0000000  -0.0000000  -0.0000000  -0.0000000
 NQMom=    0.0000000   0.0000000   0.0000000   0.0000000   0.0000000   0.0000000   0.0000000   0.0000000   0.0000000   0.0000000
 NMagM=    0.0000000   0.0000000   0.0000000   0.0000000   0.0000000   0.0000000   0.0000000   2.7928460   2.7928460   2.7928460
 AtZNuc=   8.0000000   8.0000000   6.0000000   6.0000000   6.0000000   6.0000000   6.0000000   1.0000000   1.0000000   1.0000000

  Atom        11          12          13          14          15          16          17
 IAtWgt=           1           1           1           1           1           1           1
 AtmWgt=   1.0078250   1.0078250   1.0078250   1.0078250   1.0078250   1.0078250   1.0078250
 NucSpn=           1           1           1           1           1           1           1
 AtZEff=  -0.0000000  -0.0000000  -0.0000000  -0.0000000  -0.0000000  -0.0000000  -0.0000000
 NQMom=    0.0000000   0.0000000   0.0000000   0.0000000   0.0000000   0.0000000   0.0000000
 NMagM=    2.7928460   2.7928460   2.7928460   2.7928460   2.7928460   2.7928460   2.7928460
 AtZNuc=   1.0000000   1.0000000   1.0000000   1.0000000   1.0000000   1.0000000   1.0000000
 Leave Link  101 at Fri Sep 27 01:05:12 2019, MaxMem=   671088640 cpu:               3.1 elap:               1.6
 (Enter /shared/centos7/gaussian/g16/l103.exe)

 GradGradGradGradGradGradGradGradGradGradGradGradGradGradGradGradGradGrad
 Berny optimization.
 Initialization pass.
                           ----------------------------
                           !    Initial Parameters    !
                           ! (Angstroms and Degrees)  !
 --------------------------                            --------------------------
 ! Name  Definition              Value          Derivative Info.                !
 --------------------------------------------------------------------------------
 ! R1    R(1,3)                  1.412          calculate D2E/DX2 analytically  !
 ! R2    R(1,6)                  1.3762         calculate D2E/DX2 analytically  !
 ! R3    R(2,7)                  1.3869         calculate D2E/DX2 analytically  !
 ! R4    R(2,17)                 1.0009         calculate D2E/DX2 analytically  !
 ! R5    R(3,4)                  1.5287         calculate D2E/DX2 analytically  !
 ! R6    R(3,5)                  1.4933         calculate D2E/DX2 analytically  !
 ! R7    R(3,8)                  1.1253         calculate D2E/DX2 analytically  !
 ! R8    R(4,9)                  1.1101         calculate D2E/DX2 analytically  !
 ! R9    R(4,10)                 1.1052         calculate D2E/DX2 analytically  !
 ! R10   R(4,11)                 1.1237         calculate D2E/DX2 analytically  !
 ! R11   R(5,12)                 1.1299         calculate D2E/DX2 analytically  !
 ! R12   R(5,13)                 1.11           calculate D2E/DX2 analytically  !
 ! R13   R(5,14)                 1.1267         calculate D2E/DX2 analytically  !
 ! R14   R(6,7)                  1.3016         calculate D2E/DX2 analytically  !
 ! R15   R(6,15)                 1.1017         calculate D2E/DX2 analytically  !
 ! R16   R(7,16)                 1.08           calculate D2E/DX2 analytically  !
 ! A1    A(3,1,6)              114.7161         calculate D2E/DX2 analytically  !
 ! A2    A(7,2,17)             106.8747         calculate D2E/DX2 analytically  !
 ! A3    A(1,3,4)              109.8738         calculate D2E/DX2 analytically  !
 ! A4    A(1,3,5)              113.9385         calculate D2E/DX2 analytically  !
 ! A5    A(1,3,8)              106.1847         calculate D2E/DX2 analytically  !
 ! A6    A(4,3,5)              112.0248         calculate D2E/DX2 analytically  !
 ! A7    A(4,3,8)              106.711          calculate D2E/DX2 analytically  !
 ! A8    A(5,3,8)              107.656          calculate D2E/DX2 analytically  !
 ! A9    A(3,4,9)              110.5917         calculate D2E/DX2 analytically  !
 ! A10   A(3,4,10)             110.8319         calculate D2E/DX2 analytically  !
 ! A11   A(3,4,11)             110.7142         calculate D2E/DX2 analytically  !
 ! A12   A(9,4,10)             108.2232         calculate D2E/DX2 analytically  !
 ! A13   A(9,4,11)             108.0564         calculate D2E/DX2 analytically  !
 ! A14   A(10,4,11)            108.3253         calculate D2E/DX2 analytically  !
 ! A15   A(3,5,12)             111.439          calculate D2E/DX2 analytically  !
 ! A16   A(3,5,13)             111.4321         calculate D2E/DX2 analytically  !
 ! A17   A(3,5,14)             110.5732         calculate D2E/DX2 analytically  !
 ! A18   A(12,5,13)            107.6595         calculate D2E/DX2 analytically  !
 ! A19   A(12,5,14)            107.7803         calculate D2E/DX2 analytically  !
 ! A20   A(13,5,14)            107.7899         calculate D2E/DX2 analytically  !
 ! A21   A(1,6,7)              124.1578         calculate D2E/DX2 analytically  !
 ! A22   A(1,6,15)             115.6001         calculate D2E/DX2 analytically  !
 ! A23   A(7,6,15)             120.0749         calculate D2E/DX2 analytically  !
 ! A24   A(2,7,6)              123.8012         calculate D2E/DX2 analytically  !
 ! A25   A(2,7,16)             114.7204         calculate D2E/DX2 analytically  !
 ! A26   A(6,7,16)             121.4783         calculate D2E/DX2 analytically  !
 ! D1    D(6,1,3,4)            112.4378         calculate D2E/DX2 analytically  !
 ! D2    D(6,1,3,5)            -14.2004         calculate D2E/DX2 analytically  !
 ! D3    D(6,1,3,8)           -132.52           calculate D2E/DX2 analytically  !
 ! D4    D(3,1,6,7)           -116.2567         calculate D2E/DX2 analytically  !
 ! D5    D(3,1,6,15)            68.4572         calculate D2E/DX2 analytically  !
 ! D6    D(17,2,7,6)           176.5065         calculate D2E/DX2 analytically  !
 ! D7    D(17,2,7,16)           -3.4434         calculate D2E/DX2 analytically  !
 ! D8    D(1,3,4,9)             59.9608         calculate D2E/DX2 analytically  !
 ! D9    D(1,3,4,10)           179.9864         calculate D2E/DX2 analytically  !
 ! D10   D(1,3,4,11)           -59.7792         calculate D2E/DX2 analytically  !
 ! D11   D(5,3,4,9)           -172.3306         calculate D2E/DX2 analytically  !
 ! D12   D(5,3,4,10)           -52.305          calculate D2E/DX2 analytically  !
 ! D13   D(5,3,4,11)            67.9294         calculate D2E/DX2 analytically  !
 ! D14   D(8,3,4,9)            -54.7463         calculate D2E/DX2 analytically  !
 ! D15   D(8,3,4,10)            65.2793         calculate D2E/DX2 analytically  !
 ! D16   D(8,3,4,11)          -174.4863         calculate D2E/DX2 analytically  !
 ! D17   D(1,3,5,12)            52.8711         calculate D2E/DX2 analytically  !
 ! D18   D(1,3,5,13)           -67.4114         calculate D2E/DX2 analytically  !
 ! D19   D(1,3,5,14)           172.7262         calculate D2E/DX2 analytically  !
 ! D20   D(4,3,5,12)           -72.6366         calculate D2E/DX2 analytically  !
 ! D21   D(4,3,5,13)           167.0809         calculate D2E/DX2 analytically  !
 ! D22   D(4,3,5,14)            47.2184         calculate D2E/DX2 analytically  !
 ! D23   D(8,3,5,12)           170.3453         calculate D2E/DX2 analytically  !
 ! D24   D(8,3,5,13)            50.0627         calculate D2E/DX2 analytically  !
 ! D25   D(8,3,5,14)           -69.7997         calculate D2E/DX2 analytically  !
 ! D26   D(1,6,7,2)              4.4726         calculate D2E/DX2 analytically  !
 ! D27   D(1,6,7,16)          -175.5807         calculate D2E/DX2 analytically  !
 ! D28   D(15,6,7,2)           179.5596         calculate D2E/DX2 analytically  !
 ! D29   D(15,6,7,16)           -0.4937         calculate D2E/DX2 analytically  !
 --------------------------------------------------------------------------------
 Trust Radius=3.00D-01 FncErr=1.00D-07 GrdErr=1.00D-06 EigMax=2.50D+02 EigMin=1.00D-04
 Number of steps in this run=    102 maximum allowed number of steps=    102.
 GradGradGradGradGradGradGradGradGradGradGradGradGradGradGradGradGradGrad

 Leave Link  103 at Fri Sep 27 01:05:13 2019, MaxMem=   671088640 cpu:               1.6 elap:               0.8
 (Enter /shared/centos7/gaussian/g16/l202.exe)
                          Input orientation:                          
 ---------------------------------------------------------------------
 Center     Atomic      Atomic             Coordinates (Angstroms)
 Number     Number       Type             X           Y           Z
 ---------------------------------------------------------------------
      1          8           0        0.201473    0.741957    1.947758
      2          8           0        0.670633   -0.298319   -0.660805
      3          6           0        0.150336    2.126565    2.220013
      4          6           0       -0.758011    2.822351    1.206208
      5          6           0        1.491842    2.776622    2.308648
      6          6           0        1.424321    0.286197    1.510927
      7          6           0        1.634740   -0.227572    0.333720
      8          1           0       -0.346384    2.230610    3.224399
      9          1           0       -1.787633    2.410695    1.257497
     10          1           0       -0.809657    3.908289    1.405101
     11          1           0       -0.374701    2.672520    0.160621
     12          1           0        2.117566    2.558877    1.393365
     13          1           0        2.057050    2.421055    3.195319
     14          1           0        1.384997    3.895019    2.394293
     15          1           0        2.233666    0.304147    2.258172
     16          1           0        2.596354   -0.636282    0.060449
     17          1           0        1.116208   -0.682323   -1.470611
 ---------------------------------------------------------------------
                    Distance matrix (angstroms):
                    1          2          3          4          5
     1  O    0.000000
     2  O    2.847259   0.000000
     3  C    1.412047   3.801300   0.000000
     4  C    2.408017   3.907089   1.528729   0.000000
     5  C    2.436217   4.352849   1.493342   2.505854   0.000000
     6  C    1.376189   2.371946   2.347935   3.359689   2.615938
     7  C    2.366296   1.386935   3.362071   3.973478   3.598047
     8  H    2.036184   4.746009   1.125320   2.143056   2.125042
     9  H    2.686576   4.130582   2.182405   1.110050   3.463203
    10  H    3.367865   4.914750   2.181790   1.105209   2.719184
    11  H    2.693122   3.254741   2.194271   1.123668   2.847602
    12  H    2.698140   3.804838   2.177208   2.893681   1.129905
    13  H    2.796238   4.918012   2.161829   3.470183   1.109989
    14  H    3.397340   5.237176   2.163837   2.674817   1.126748
    15  H    2.101866   3.365482   2.768200   4.049459   2.581856
    16  H    3.346182   2.083946   4.275517   4.952442   4.233469
    17  H    3.814519   1.000891   4.737453   4.791743   5.136944
                    6          7          8          9         10
     6  C    0.000000
     7  C    1.301558   0.000000
     8  H    3.138809   4.280600   0.000000
     9  H    3.859322   4.418875   2.445063   0.000000
    10  H    4.256925   4.922223   2.517752   1.794718   0.000000
    11  H    3.279382   3.532471   3.095613   1.807780   1.806943
    12  H    2.378967   3.019978   3.087311   3.910370   3.223303
    13  H    2.791978   3.922030   2.411143   4.305444   3.692527
    14  H    3.715572   4.615635   2.541065   3.682540   2.407318
    15  H    1.101697   2.084456   3.361772   4.648628   4.793682
    16  H    2.080509   1.080011   5.185494   5.471411   5.836277
    17  H    3.150006   1.931653   5.715546   5.043969   5.749121
                   11         12         13         14         15
    11  H    0.000000
    12  H    2.782798   0.000000
    13  H    3.896927   1.808230   0.000000
    14  H    3.095211   1.823126   1.807171   0.000000
    15  H    4.100304   2.417680   2.321796   3.692306   0.000000
    16  H    4.448075   3.494989   4.411981   5.238979   2.417838
    17  H    4.017299   4.439645   5.682169   5.996814   4.015677
                   16         17
    16  H    0.000000
    17  H    2.130046   0.000000
 Stoichiometry    C5H10O2
 Framework group  C1[X(C5H10O2)]
 Deg. of freedom    45
 Full point group                 C1      NOp   1
 Largest Abelian subgroup         C1      NOp   1
 Largest concise Abelian subgroup C1      NOp   1
                         Standard orientation:                         
 ---------------------------------------------------------------------
 Center     Atomic      Atomic             Coordinates (Angstroms)
 Number     Number       Type             X           Y           Z
 ---------------------------------------------------------------------
      1          8           0        0.121084   -0.069504    0.981931
      2          8           0       -2.269829    0.883869   -0.235238
      3          6           0        1.382842    0.011140    0.353169
      4          6           0        1.600021    1.420679   -0.197325
      5          6           0        1.610148   -1.037062   -0.685904
      6          6           0       -0.790220   -0.877943    0.341738
      7          6           0       -1.904005   -0.452834   -0.180581
      8          1           0        2.147823   -0.140853    1.164371
      9          1           0        1.560992    2.169710    0.620991
     10          1           0        2.584385    1.501594   -0.693277
     11          1           0        0.804378    1.681687   -0.946630
     12          1           0        0.772055   -1.056206   -1.443479
     13          1           0        1.678395   -2.048429   -0.233628
     14          1           0        2.571252   -0.842574   -1.240895
     15          1           0       -0.564626   -1.956159    0.358893
     16          1           0       -2.621523   -1.135442   -0.611436
     17          1           0       -3.135885    0.927869   -0.735031
 ---------------------------------------------------------------------
 Rotational constants (GHZ):           4.3266910           1.7227805           1.4723636
 Leave Link  202 at Fri Sep 27 01:05:15 2019, MaxMem=   671088640 cpu:               4.0 elap:               2.0
 (Enter /shared/centos7/gaussian/g16/l301.exe)
 Standard basis: CC-pVTZ (5D, 7F)
 Ernie: Thresh=  0.10000D-02 Tol=  0.10000D-05 Strict=F.
 Ernie:  21 primitive shells out of 262 were deleted.
 There are   395 symmetry adapted cartesian basis functions of A   symmetry.
 There are   350 symmetry adapted basis functions of A   symmetry.
   350 basis functions,   534 primitive gaussians,   395 cartesian basis functions
    28 alpha electrons       28 beta electrons
       nuclear repulsion energy       318.7229058489 Hartrees.
 IExCor= 4336 DFT=T Ex+Corr=M062X ExCW=0 ScaHFX=  0.540000
 ScaDFX=  1.000000  1.000000  1.000000  1.000000 ScalE2=  1.000000  1.000000
 IRadAn=      5 IRanWt=     -1 IRanGd=            0 ICorTp=0 IEmpDi=  4
 NAtoms=   17 NActive=   17 NUniq=   17 SFac= 1.00D+00 NAtFMM=   60 NAOKFM=F Big=F
 Integral buffers will be    131072 words long.
 Raffenetti 2 integral format.
 Two-electron integral symmetry is turned on.
 Leave Link  301 at Fri Sep 27 01:05:16 2019, MaxMem=   671088640 cpu:               1.9 elap:               1.3
 (Enter /shared/centos7/gaussian/g16/l302.exe)
 NPDir=0 NMtPBC=     1 NCelOv=     1 NCel=       1 NClECP=     1 NCelD=      1
         NCelK=      1 NCelE2=     1 NClLst=     1 CellRange=     0.0.
 One-electron integrals computed using PRISM.
 One-electron integral symmetry used in STVInt
 NBasis=   350 RedAO= T EigKep=  2.70D-04  NBF=   350
 NBsUse=   350 1.00D-06 EigRej= -1.00D+00 NBFU=   350
 Precomputing XC quadrature grid using
 IXCGrd= 4 IRadAn=           5 IRanWt=          -1 IRanGd=           0 AccXCQ= 0.00D+00.
 Generated NRdTot=       0 NPtTot=           0 NUsed=           0 NTot=          32
 NSgBfM=   395   395   395   395   395 MxSgAt=    17 MxSgA2=    17.
 Leave Link  302 at Fri Sep 27 01:06:19 2019, MaxMem=   671088640 cpu:             126.7 elap:              63.4
 (Enter /shared/centos7/gaussian/g16/l303.exe)
 DipDrv:  MaxL=1.
 Leave Link  303 at Fri Sep 27 01:06:24 2019, MaxMem=   671088640 cpu:               9.5 elap:               4.8
 (Enter /shared/centos7/gaussian/g16/l401.exe)
 ExpMin= 1.03D-01 ExpMax= 1.53D+04 ExpMxC= 5.22D+02 IAcc=3 IRadAn=         5 AccDes= 0.00D+00
 Harris functional with IExCor= 1009 and IRadAn=       5 diagonalized for initial guess.
 HarFok:  IExCor= 1009 AccDes= 0.00D+00 IRadAn=         5 IDoV= 1 UseB2=F ITyADJ=14
 ICtDFT=  3500011 ScaDFX=  1.000000  1.000000  1.000000  1.000000
 FoFCou: FMM=F IPFlag=           0 FMFlag=      100000 FMFlg1=           0
         NFxFlg=           0 DoJE=T BraDBF=F KetDBF=T FulRan=T
         wScrn=  0.000000 ICntrl=       500 IOpCl=  0 I1Cent=   200000004 NGrid=           0
         NMat0=    1 NMatS0=      1 NMatT0=    0 NMatD0=    1 NMtDS0=    0 NMtDT0=    0
 Petite list used in FoFCou.
 Harris En= -346.810081590151    
 JPrj=0 DoOrth=F DoCkMO=F.
 Leave Link  401 at Fri Sep 27 01:06:58 2019, MaxMem=   671088640 cpu:              67.5 elap:              33.8
 (Enter /shared/centos7/gaussian/g16/l502.exe)
 Integral symmetry usage will be decided dynamically.
 Closed shell SCF:
 Using DIIS extrapolation, IDIIS=  1040.
 NGot=   671088640 LenX=   670765141 LenY=   670608675
 Requested convergence on RMS density matrix=1.00D-08 within 900 cycles.
 Requested convergence on MAX density matrix=1.00D-06.
 Requested convergence on             energy=1.00D-06.
 No special actions if energy rises.
 Fock matrices will be formed incrementally for  20 cycles.
 Integral accuracy reduced to 1.0D-05 until final iterations.

 Cycle   1  Pass 0  IDiag  1:
 FoFJK:  IHMeth= 1 ICntrl=       0 DoSepK=F KAlg= 0 I1Cent=           0 FoldK=F
 IRaf= 960000000 NMat=       1 IRICut=       1 DoRegI=T DoRafI=F ISym2E= 0 IDoP0=0 IntGTp=1.
 FoFCou: FMM=F IPFlag=           0 FMFlag=      100000 FMFlg1=           0
         NFxFlg=           0 DoJE=F BraDBF=F KetDBF=F FulRan=T
         wScrn=  0.000000 ICntrl=         0 IOpCl=  0 I1Cent=           0 NGrid=           0
         NMat0=    1 NMatS0=      1 NMatT0=    0 NMatD0=    1 NMtDS0=    0 NMtDT0=    0
 Symmetry not used in FoFCou.
 E= -346.690027451525    
 DIIS: error= 2.09D-02 at cycle   1 NSaved=   1.
 NSaved= 1 IEnMin= 1 EnMin= -346.690027451525     IErMin= 1 ErrMin= 2.09D-02
 ErrMax= 2.09D-02  0.00D+00 EMaxC= 1.00D-01 BMatC= 2.90D-01 BMatP= 2.90D-01
 IDIUse=3 WtCom= 7.91D-01 WtEn= 2.09D-01
 Coeff-Com:  0.100D+01
 Coeff-En:   0.100D+01
 Coeff:      0.100D+01
 Gap=     0.357 Goal=   None    Shift=    0.000
 GapD=    0.357 DampG=1.000 DampE=0.500 DampFc=0.5000 IDamp=-1.
 Damping current iteration by 5.00D-01
 RMSDP=2.41D-03 MaxDP=1.45D-01              OVMax= 1.43D-01

 Cycle   2  Pass 0  IDiag  1:
 RMSU=  1.20D-03    CP:  1.00D+00
 E= -346.810299414302     Delta-E=       -0.120271962777 Rises=F Damp=T
 DIIS: error= 3.97D-03 at cycle   2 NSaved=   2.
 NSaved= 2 IEnMin= 2 EnMin= -346.810299414302     IErMin= 2 ErrMin= 3.97D-03
 ErrMax= 3.97D-03  0.00D+00 EMaxC= 1.00D-01 BMatC= 2.14D-02 BMatP= 2.90D-01
 IDIUse=3 WtCom= 9.60D-01 WtEn= 3.97D-02
 Coeff-Com: -0.114D+00 0.111D+01
 Coeff-En:   0.000D+00 0.100D+01
 Coeff:     -0.109D+00 0.111D+01
 Gap=     0.331 Goal=   None    Shift=    0.000
 RMSDP=4.72D-04 MaxDP=1.39D-02 DE=-1.20D-01 OVMax= 7.55D-02

 Cycle   3  Pass 0  IDiag  1:
 RMSU=  4.50D-04    CP:  1.00D+00  8.83D-01
 E= -346.920917101692     Delta-E=       -0.110617687389 Rises=F Damp=F
 DIIS: error= 2.55D-03 at cycle   3 NSaved=   3.
 NSaved= 3 IEnMin= 3 EnMin= -346.920917101692     IErMin= 3 ErrMin= 2.55D-03
 ErrMax= 2.55D-03  0.00D+00 EMaxC= 1.00D-01 BMatC= 4.31D-03 BMatP= 2.14D-02
 IDIUse=3 WtCom= 9.74D-01 WtEn= 2.55D-02
 Coeff-Com: -0.828D-01 0.326D+00 0.756D+00
 Coeff-En:   0.000D+00 0.000D+00 0.100D+01
 Coeff:     -0.806D-01 0.318D+00 0.763D+00
 Gap=     0.327 Goal=   None    Shift=    0.000
 RMSDP=2.00D-04 MaxDP=1.23D-02 DE=-1.11D-01 OVMax= 1.34D-02

 Cycle   4  Pass 0  IDiag  1:
 RMSU=  1.28D-04    CP:  1.01D+00  1.00D+00  8.64D-01
 E= -346.923407544635     Delta-E=       -0.002490442943 Rises=F Damp=F
 DIIS: error= 1.28D-03 at cycle   4 NSaved=   4.
 NSaved= 4 IEnMin= 4 EnMin= -346.923407544635     IErMin= 4 ErrMin= 1.28D-03
 ErrMax= 1.28D-03  0.00D+00 EMaxC= 1.00D-01 BMatC= 1.04D-03 BMatP= 4.31D-03
 IDIUse=3 WtCom= 9.87D-01 WtEn= 1.28D-02
 Coeff-Com: -0.281D-01 0.759D-01 0.374D+00 0.579D+00
 Coeff-En:   0.000D+00 0.000D+00 0.133D+00 0.867D+00
 Coeff:     -0.278D-01 0.749D-01 0.371D+00 0.582D+00
 Gap=     0.325 Goal=   None    Shift=    0.000
 RMSDP=6.91D-05 MaxDP=4.40D-03 DE=-2.49D-03 OVMax= 5.56D-03

 Cycle   5  Pass 0  IDiag  1:
 RMSU=  2.93D-05    CP:  1.00D+00  9.72D-01  9.21D-01  6.41D-01
 E= -346.924161935826     Delta-E=       -0.000754391192 Rises=F Damp=F
 DIIS: error= 2.37D-04 at cycle   5 NSaved=   5.
 NSaved= 5 IEnMin= 5 EnMin= -346.924161935826     IErMin= 5 ErrMin= 2.37D-04
 ErrMax= 2.37D-04  0.00D+00 EMaxC= 1.00D-01 BMatC= 3.43D-05 BMatP= 1.04D-03
 IDIUse=3 WtCom= 9.98D-01 WtEn= 2.37D-03
 Coeff-Com: -0.551D-02 0.101D-01 0.997D-01 0.228D+00 0.668D+00
 Coeff-En:   0.000D+00 0.000D+00 0.000D+00 0.000D+00 0.100D+01
 Coeff:     -0.550D-02 0.101D-01 0.995D-01 0.228D+00 0.668D+00
 Gap=     0.325 Goal=   None    Shift=    0.000
 RMSDP=1.13D-05 MaxDP=3.82D-04 DE=-7.54D-04 OVMax= 8.38D-04

 Cycle   6  Pass 0  IDiag  1:
 RMSU=  8.31D-06    CP:  1.00D+00  9.72D-01  9.26D-01  6.72D-01  7.95D-01
 E= -346.924186366278     Delta-E=       -0.000024430452 Rises=F Damp=F
 DIIS: error= 4.51D-05 at cycle   6 NSaved=   6.
 NSaved= 6 IEnMin= 6 EnMin= -346.924186366278     IErMin= 6 ErrMin= 4.51D-05
 ErrMax= 4.51D-05  0.00D+00 EMaxC= 1.00D-01 BMatC= 1.50D-06 BMatP= 3.43D-05
 IDIUse=1 WtCom= 1.00D+00 WtEn= 0.00D+00
 Coeff-Com: -0.113D-03-0.938D-03 0.123D-01 0.474D-01 0.210D+00 0.731D+00
 Coeff:     -0.113D-03-0.938D-03 0.123D-01 0.474D-01 0.210D+00 0.731D+00
 Gap=     0.325 Goal=   None    Shift=    0.000
 RMSDP=3.70D-06 MaxDP=1.69D-04 DE=-2.44D-05 OVMax= 3.02D-04

 Initial convergence to 1.0D-05 achieved.  Increase integral accuracy.
 Cycle   7  Pass 1  IDiag  1:
 E= -346.924148764970     Delta-E=        0.000037601309 Rises=F Damp=F
 DIIS: error= 2.08D-05 at cycle   1 NSaved=   1.
 NSaved= 1 IEnMin= 1 EnMin= -346.924148764970     IErMin= 1 ErrMin= 2.08D-05
 ErrMax= 2.08D-05  0.00D+00 EMaxC= 1.00D-01 BMatC= 7.45D-07 BMatP= 7.45D-07
 IDIUse=1 WtCom= 1.00D+00 WtEn= 0.00D+00
 Coeff-Com:  0.100D+01
 Coeff:      0.100D+01
 Gap=     0.325 Goal=   None    Shift=    0.000
 RMSDP=3.70D-06 MaxDP=1.69D-04 DE= 3.76D-05 OVMax= 1.57D-04

 Cycle   8  Pass 1  IDiag  1:
 RMSU=  6.32D-06    CP:  1.00D+00
 E= -346.924148933759     Delta-E=       -0.000000168789 Rises=F Damp=F
 DIIS: error= 1.74D-05 at cycle   2 NSaved=   2.
 NSaved= 2 IEnMin= 2 EnMin= -346.924148933759     IErMin= 2 ErrMin= 1.74D-05
 ErrMax= 1.74D-05  0.00D+00 EMaxC= 1.00D-01 BMatC= 4.00D-07 BMatP= 7.45D-07
 IDIUse=1 WtCom= 1.00D+00 WtEn= 0.00D+00
 Coeff-Com:  0.403D+00 0.597D+00
 Coeff:      0.403D+00 0.597D+00
 Gap=     0.325 Goal=   None    Shift=    0.000
 RMSDP=1.45D-06 MaxDP=8.17D-05 DE=-1.69D-07 OVMax= 1.19D-04

 Cycle   9  Pass 1  IDiag  1:
 RMSU=  1.44D-06    CP:  1.00D+00  9.92D-01
 E= -346.924149180376     Delta-E=       -0.000000246618 Rises=F Damp=F
 DIIS: error= 6.33D-06 at cycle   3 NSaved=   3.
 NSaved= 3 IEnMin= 3 EnMin= -346.924149180376     IErMin= 3 ErrMin= 6.33D-06
 ErrMax= 6.33D-06  0.00D+00 EMaxC= 1.00D-01 BMatC= 4.72D-08 BMatP= 4.00D-07
 IDIUse=1 WtCom= 1.00D+00 WtEn= 0.00D+00
 Coeff-Com: -0.133D-01 0.247D+00 0.767D+00
 Coeff:     -0.133D-01 0.247D+00 0.767D+00
 Gap=     0.325 Goal=   None    Shift=    0.000
 RMSDP=3.78D-07 MaxDP=1.61D-05 DE=-2.47D-07 OVMax= 3.13D-05

 Cycle  10  Pass 1  IDiag  1:
 RMSU=  2.21D-07    CP:  1.00D+00  1.02D+00  8.24D-01
 E= -346.924149211090     Delta-E=       -0.000000030713 Rises=F Damp=F
 DIIS: error= 1.44D-06 at cycle   4 NSaved=   4.
 NSaved= 4 IEnMin= 4 EnMin= -346.924149211090     IErMin= 4 ErrMin= 1.44D-06
 ErrMax= 1.44D-06  0.00D+00 EMaxC= 1.00D-01 BMatC= 1.38D-09 BMatP= 4.72D-08
 IDIUse=1 WtCom= 1.00D+00 WtEn= 0.00D+00
 Coeff-Com: -0.126D-01 0.971D-01 0.328D+00 0.587D+00
 Coeff:     -0.126D-01 0.971D-01 0.328D+00 0.587D+00
 Gap=     0.325 Goal=   None    Shift=    0.000
 RMSDP=9.26D-08 MaxDP=3.38D-06 DE=-3.07D-08 OVMax= 7.80D-06

 Cycle  11  Pass 1  IDiag  1:
 RMSU=  8.23D-08    CP:  1.00D+00  1.02D+00  8.52D-01  9.49D-01
 E= -346.924149212246     Delta-E=       -0.000000001156 Rises=F Damp=F
 DIIS: error= 3.17D-07 at cycle   5 NSaved=   5.
 NSaved= 5 IEnMin= 5 EnMin= -346.924149212246     IErMin= 5 ErrMin= 3.17D-07
 ErrMax= 3.17D-07  0.00D+00 EMaxC= 1.00D-01 BMatC= 9.76D-11 BMatP= 1.38D-09
 IDIUse=1 WtCom= 1.00D+00 WtEn= 0.00D+00
 Coeff-Com: -0.113D-02-0.122D-01-0.379D-01 0.151D+00 0.900D+00
 Coeff:     -0.113D-02-0.122D-01-0.379D-01 0.151D+00 0.900D+00
 Gap=     0.325 Goal=   None    Shift=    0.000
 RMSDP=3.82D-08 MaxDP=1.40D-06 DE=-1.16D-09 OVMax= 5.66D-06

 Cycle  12  Pass 1  IDiag  1:
 RMSU=  2.70D-08    CP:  1.00D+00  1.02D+00  8.54D-01  1.07D+00  1.04D+00
 E= -346.924149212363     Delta-E=       -0.000000000116 Rises=F Damp=F
 DIIS: error= 2.42D-07 at cycle   6 NSaved=   6.
 NSaved= 6 IEnMin= 6 EnMin= -346.924149212363     IErMin= 6 ErrMin= 2.42D-07
 ErrMax= 2.42D-07  0.00D+00 EMaxC= 1.00D-01 BMatC= 1.73D-11 BMatP= 9.76D-11
 IDIUse=1 WtCom= 1.00D+00 WtEn= 0.00D+00
 Coeff-Com:  0.832D-03-0.152D-01-0.509D-01 0.359D-02 0.394D+00 0.668D+00
 Coeff:      0.832D-03-0.152D-01-0.509D-01 0.359D-02 0.394D+00 0.668D+00
 Gap=     0.325 Goal=   None    Shift=    0.000
 RMSDP=1.32D-08 MaxDP=4.22D-07 DE=-1.16D-10 OVMax= 1.28D-06

 Cycle  13  Pass 1  IDiag  1:
 RMSU=  7.40D-09    CP:  1.00D+00  1.02D+00  8.58D-01  1.09D+00  1.13D+00
                    CP:  9.38D-01
 E= -346.924149212372     Delta-E=       -0.000000000010 Rises=F Damp=F
 DIIS: error= 4.14D-08 at cycle   7 NSaved=   7.
 NSaved= 7 IEnMin= 7 EnMin= -346.924149212372     IErMin= 7 ErrMin= 4.14D-08
 ErrMax= 4.14D-08  0.00D+00 EMaxC= 1.00D-01 BMatC= 9.65D-13 BMatP= 1.73D-11
 IDIUse=1 WtCom= 1.00D+00 WtEn= 0.00D+00
 Coeff-Com:  0.376D-03-0.403D-02-0.141D-01-0.116D-01 0.637D-01 0.224D+00
 Coeff-Com:  0.742D+00
 Coeff:      0.376D-03-0.403D-02-0.141D-01-0.116D-01 0.637D-01 0.224D+00
 Coeff:      0.742D+00
 Gap=     0.325 Goal=   None    Shift=    0.000
 RMSDP=3.36D-09 MaxDP=1.49D-07 DE=-9.55D-12 OVMax= 6.43D-07

 SCF Done:  E(RM062X) =  -346.924149212     A.U. after   13 cycles
            NFock= 13  Conv=0.34D-08     -V/T= 2.0063
 KE= 3.447508602750D+02 PE=-1.447731103681D+03 EE= 4.373331883446D+02
 Leave Link  502 at Fri Sep 27 01:20:43 2019, MaxMem=   671088640 cpu:            1647.7 elap:             824.6
 (Enter /shared/centos7/gaussian/g16/l801.exe)
 DoSCS=F DFT=T ScalE2(SS,OS)=  1.000000  1.000000
 Range of M.O.s used for correlation:     1   350
 NBasis=   350 NAE=    28 NBE=    28 NFC=     0 NFV=     0
 NROrb=    350 NOA=    28 NOB=    28 NVA=   322 NVB=   322

 **** Warning!!: The largest alpha MO coefficient is  0.11113778D+02

 Leave Link  801 at Fri Sep 27 01:20:43 2019, MaxMem=   671088640 cpu:               1.6 elap:               0.8
 (Enter /shared/centos7/gaussian/g16/l1101.exe)
 Using compressed storage, NAtomX=    17.
 Will process     18 centers per pass.
 Leave Link 1101 at Fri Sep 27 01:21:14 2019, MaxMem=   671088640 cpu:              61.3 elap:              30.7
 (Enter /shared/centos7/gaussian/g16/l1102.exe)
 Symmetrizing basis deriv contribution to polar:
 IMax=3 JMax=2 DiffMx= 0.00D+00
 Leave Link 1102 at Fri Sep 27 01:21:18 2019, MaxMem=   671088640 cpu:               8.6 elap:               4.4
 (Enter /shared/centos7/gaussian/g16/l1110.exe)
 Forming Gx(P) for the SCF density, NAtomX=    17.
 Integral derivatives from FoFJK, PRISM(SPDF).
 Do as many integral derivatives as possible in FoFJK.
 G2DrvN: MDV=     671087280.
 G2DrvN: will do    18 centers at a time, making    1 passes.
 Calling FoFCou, ICntrl=  3107 FMM=F I1Cent=   0 AccDes= 0.00D+00.
 FoFJK:  IHMeth= 1 ICntrl=    3107 DoSepK=F KAlg= 0 I1Cent=           0 FoldK=F
 IRaf=         0 NMat=       1 IRICut=       1 DoRegI=T DoRafI=F ISym2E= 0 IDoP0=0 IntGTp=1.
 FoFCou: FMM=F IPFlag=           0 FMFlag=      100000 FMFlg1=           0
         NFxFlg=           0 DoJE=F BraDBF=F KetDBF=F FulRan=T
         wScrn=  0.000000 ICntrl=      3107 IOpCl=  0 I1Cent=           0 NGrid=           0
         NMat0=    1 NMatS0=      1 NMatT0=    0 NMatD0=    1 NMtDS0=    0 NMtDT0=    0
 Symmetry not used in FoFCou.
 End of G2Drv F.D. properties file   721 does not exist.
 End of G2Drv F.D. properties file   722 does not exist.
 End of G2Drv F.D. properties file   788 does not exist.
 Leave Link 1110 at Fri Sep 27 01:46:32 2019, MaxMem=   671088640 cpu:            3025.9 elap:            1513.3
 (Enter /shared/centos7/gaussian/g16/l1002.exe)
 Minotr:  Closed shell wavefunction.
          IDoAtm=11111111111111111
          Direct CPHF calculation.
          Differentiating once with respect to nuclear coordinates.
          Requested convergence is 1.0D-08 RMS, and 1.0D-07 maximum.
          Secondary convergence is 1.0D-12 RMS, and 1.0D-12 maximum.
          NewPWx=T KeepS1=F KeepF1=F KeepIn=T MapXYZ=F SortEE=F KeepMc=T.
         5116 words used for storage of precomputed grid.
 Two-electron integrals replicated using symmetry.
          MDV=     671088640 using IRadAn=       1.
          Solving linear equations simultaneously, MaxMat=     380.
 FoF2E skips out because all densities are zero.
 CalDSu exits because no D1Ps are significant.
 FoFJK:  IHMeth= 1 ICntrl=       0 DoSepK=F KAlg= 0 I1Cent=           0 FoldK=F
 IRaf= 940000000 NMat=      51 IRICut=     127 DoRegI=T DoRafI=T ISym2E= 2 IDoP0=3 IntGTp=3.
 FoFCou: FMM=F IPFlag=           0 FMFlag=      100000 FMFlg1=           0
         NFxFlg=           0 DoJE=F BraDBF=F KetDBF=F FulRan=T
         wScrn=  0.000000 ICntrl=         0 IOpCl=  0 I1Cent=           0 NGrid=           0
         NMat0=   51 NMatS0=     51 NMatT0=    0 NMatD0=   51 NMtDS0=    0 NMtDT0=    0
 Integrals replicated using symmetry in FoFCou.
 Raff kept on since  91.33% of shell-pairs survive, threshold=   0.20 IRatSp=91.
          There are    54 degrees of freedom in the 1st order CPHF.  IDoFFX=6 NUNeed=     0.
     48 vectors produced by pass  0 Test12= 1.67D-14 1.85D-09 XBig12= 7.31D-02 5.49D-02.
 AX will form    48 AO Fock derivatives at one time.
     48 vectors produced by pass  1 Test12= 1.67D-14 1.85D-09 XBig12= 6.22D-03 1.82D-02.
     48 vectors produced by pass  2 Test12= 1.67D-14 1.85D-09 XBig12= 1.57D-04 2.15D-03.
     48 vectors produced by pass  3 Test12= 1.67D-14 1.85D-09 XBig12= 1.18D-06 1.67D-04.
     48 vectors produced by pass  4 Test12= 1.67D-14 1.85D-09 XBig12= 8.63D-09 1.17D-05.
     48 vectors produced by pass  5 Test12= 1.67D-14 1.85D-09 XBig12= 4.16D-11 7.54D-07.
     24 vectors produced by pass  6 Test12= 1.67D-14 1.85D-09 XBig12= 1.72D-13 3.78D-08.
      5 vectors produced by pass  7 Test12= 1.67D-14 1.85D-09 XBig12= 6.59D-16 3.12D-09.
 InvSVY:  IOpt=1 It=  1 EMax= 1.94D-16
 Solved reduced A of dimension   317 with    54 vectors.
 End of Minotr F.D. properties file   721 does not exist.
 End of Minotr F.D. properties file   722 does not exist.
 End of Minotr F.D. properties file   788 does not exist.
 Leave Link 1002 at Fri Sep 27 02:27:33 2019, MaxMem=   671088640 cpu:            4920.6 elap:            2460.8
 (Enter /shared/centos7/gaussian/g16/l601.exe)
 Copying SCF densities to generalized density rwf, IOpCl= 0 IROHF=0.

 **********************************************************************

            Population analysis using the SCF density.

 **********************************************************************

 Orbital symmetries:
       Occupied  (A) (A) (A) (A) (A) (A) (A) (A) (A) (A) (A) (A)
                 (A) (A) (A) (A) (A) (A) (A) (A) (A) (A) (A) (A)
                 (A) (A) (A) (A)
       Virtual   (A) (A) (A) (A) (A) (A) (A) (A) (A) (A) (A) (A)
                 (A) (A) (A) (A) (A) (A) (A) (A) (A) (A) (A) (A)
                 (A) (A) (A) (A) (A) (A) (A) (A) (A) (A) (A) (A)
                 (A) (A) (A) (A) (A) (A) (A) (A) (A) (A) (A) (A)
                 (A) (A) (A) (A) (A) (A) (A) (A) (A) (A) (A) (A)
                 (A) (A) (A) (A) (A) (A) (A) (A) (A) (A) (A) (A)
                 (A) (A) (A) (A) (A) (A) (A) (A) (A) (A) (A) (A)
                 (A) (A) (A) (A) (A) (A) (A) (A) (A) (A) (A) (A)
                 (A) (A) (A) (A) (A) (A) (A) (A) (A) (A) (A) (A)
                 (A) (A) (A) (A) (A) (A) (A) (A) (A) (A) (A) (A)
                 (A) (A) (A) (A) (A) (A) (A) (A) (A) (A) (A) (A)
                 (A) (A) (A) (A) (A) (A) (A) (A) (A) (A) (A) (A)
                 (A) (A) (A) (A) (A) (A) (A) (A) (A) (A) (A) (A)
                 (A) (A) (A) (A) (A) (A) (A) (A) (A) (A) (A) (A)
                 (A) (A) (A) (A) (A) (A) (A) (A) (A) (A) (A) (A)
                 (A) (A) (A) (A) (A) (A) (A) (A) (A) (A) (A) (A)
                 (A) (A) (A) (A) (A) (A) (A) (A) (A) (A) (A) (A)
                 (A) (A) (A) (A) (A) (A) (A) (A) (A) (A) (A) (A)
                 (A) (A) (A) (A) (A) (A) (A) (A) (A) (A) (A) (A)
                 (A) (A) (A) (A) (A) (A) (A) (A) (A) (A) (A) (A)
                 (A) (A) (A) (A) (A) (A) (A) (A) (A) (A) (A) (A)
                 (A) (A) (A) (A) (A) (A) (A) (A) (A) (A) (A) (A)
                 (A) (A) (A) (A) (A) (A) (A) (A) (A) (A) (A) (A)
                 (A) (A) (A) (A) (A) (A) (A) (A) (A) (A) (A) (A)
                 (A) (A) (A) (A) (A) (A) (A) (A) (A) (A) (A) (A)
                 (A) (A) (A) (A) (A) (A) (A) (A) (A) (A) (A) (A)
                 (A) (A) (A) (A) (A) (A) (A) (A) (A) (A)
 The electronic state is 1-A.
 Alpha  occ. eigenvalues --  -19.64854 -19.62991 -10.58928 -10.58359 -10.57288
 Alpha  occ. eigenvalues --  -10.53365 -10.52331  -1.17592  -1.15581  -0.88669
 Alpha  occ. eigenvalues --   -0.84053  -0.77576  -0.69431  -0.63749  -0.60302
 Alpha  occ. eigenvalues --   -0.56439  -0.54938  -0.54062  -0.48205  -0.46618
 Alpha  occ. eigenvalues --   -0.46164  -0.44225  -0.43222  -0.42721  -0.41607
 Alpha  occ. eigenvalues --   -0.38247  -0.33988  -0.27793
 Alpha virt. eigenvalues --    0.04720   0.07536   0.08201   0.09782   0.11210
 Alpha virt. eigenvalues --    0.12289   0.12553   0.13776   0.16093   0.16795
 Alpha virt. eigenvalues --    0.17770   0.18682   0.21665   0.23960   0.25758
 Alpha virt. eigenvalues --    0.28687   0.29525   0.30858   0.32570   0.33613
 Alpha virt. eigenvalues --    0.34208   0.35472   0.36048   0.39384   0.40271
 Alpha virt. eigenvalues --    0.40825   0.42736   0.44257   0.45575   0.46890
 Alpha virt. eigenvalues --    0.47180   0.48373   0.49599   0.49762   0.50276
 Alpha virt. eigenvalues --    0.51700   0.52077   0.52426   0.53753   0.55100
 Alpha virt. eigenvalues --    0.57669   0.58147   0.59733   0.61460   0.64868
 Alpha virt. eigenvalues --    0.66852   0.67419   0.69485   0.70186   0.71738
 Alpha virt. eigenvalues --    0.73312   0.76413   0.76980   0.80618   0.81291
 Alpha virt. eigenvalues --    0.85088   0.85676   0.87518   0.89741   0.90316
 Alpha virt. eigenvalues --    0.91918   0.94024   0.94570   0.95628   0.98354
 Alpha virt. eigenvalues --    0.99789   1.01500   1.04212   1.04845   1.05856
 Alpha virt. eigenvalues --    1.08402   1.10352   1.11264   1.12895   1.14266
 Alpha virt. eigenvalues --    1.15050   1.17959   1.19090   1.20576   1.21673
 Alpha virt. eigenvalues --    1.23268   1.24602   1.25453   1.27770   1.28704
 Alpha virt. eigenvalues --    1.29298   1.29467   1.33102   1.33741   1.35792
 Alpha virt. eigenvalues --    1.37190   1.37932   1.39390   1.40456   1.41696
 Alpha virt. eigenvalues --    1.44501   1.45671   1.47855   1.48806   1.52156
 Alpha virt. eigenvalues --    1.53227   1.53375   1.54884   1.56374   1.59498
 Alpha virt. eigenvalues --    1.62472   1.65080   1.69020   1.74001   1.86712
 Alpha virt. eigenvalues --    1.87902   1.96623   2.00797   2.03064   2.08394
 Alpha virt. eigenvalues --    2.09937   2.13076   2.16386   2.19179   2.21290
 Alpha virt. eigenvalues --    2.25021   2.25975   2.28921   2.33267   2.34783
 Alpha virt. eigenvalues --    2.37799   2.40608   2.41776   2.43314   2.46123
 Alpha virt. eigenvalues --    2.50769   2.51446   2.53628   2.54508   2.58536
 Alpha virt. eigenvalues --    2.60811   2.61849   2.64588   2.65181   2.66843
 Alpha virt. eigenvalues --    2.69665   2.72604   2.76757   2.78799   2.80397
 Alpha virt. eigenvalues --    2.81850   2.82693   2.83533   2.86372   2.87672
 Alpha virt. eigenvalues --    2.89007   2.90435   2.92086   2.92673   2.95375
 Alpha virt. eigenvalues --    2.96407   2.96890   2.99294   3.00082   3.02777
 Alpha virt. eigenvalues --    3.03180   3.04531   3.04643   3.07177   3.08629
 Alpha virt. eigenvalues --    3.09039   3.09283   3.10859   3.11979   3.12829
 Alpha virt. eigenvalues --    3.14631   3.17157   3.18744   3.20464   3.22056
 Alpha virt. eigenvalues --    3.24519   3.25857   3.27435   3.28785   3.29422
 Alpha virt. eigenvalues --    3.30737   3.32092   3.33162   3.34856   3.36928
 Alpha virt. eigenvalues --    3.38981   3.40933   3.41639   3.41993   3.43964
 Alpha virt. eigenvalues --    3.44497   3.45998   3.49163   3.50287   3.53118
 Alpha virt. eigenvalues --    3.54307   3.56427   3.58510   3.58705   3.60589
 Alpha virt. eigenvalues --    3.62017   3.67493   3.68521   3.69609   3.70438
 Alpha virt. eigenvalues --    3.74044   3.75769   3.76869   3.77988   3.78739
 Alpha virt. eigenvalues --    3.80900   3.81960   3.82572   3.86784   3.87257
 Alpha virt. eigenvalues --    3.87388   3.89867   3.91944   3.93573   3.95142
 Alpha virt. eigenvalues --    3.95951   3.97948   3.98125   3.99491   4.00218
 Alpha virt. eigenvalues --    4.03226   4.04495   4.05984   4.06806   4.08846
 Alpha virt. eigenvalues --    4.09502   4.10266   4.12983   4.16561   4.19841
 Alpha virt. eigenvalues --    4.21162   4.23045   4.24163   4.25633   4.28180
 Alpha virt. eigenvalues --    4.28705   4.30713   4.33492   4.35806   4.41248
 Alpha virt. eigenvalues --    4.45414   4.46970   4.48714   4.51556   4.52543
 Alpha virt. eigenvalues --    4.55871   4.59572   4.63870   4.66063   4.67010
 Alpha virt. eigenvalues --    4.70197   4.70899   4.73071   4.75908   4.78678
 Alpha virt. eigenvalues --    4.79796   4.84882   4.87720   4.92067   4.94663
 Alpha virt. eigenvalues --    4.96635   4.98703   5.02096   5.03514   5.06550
 Alpha virt. eigenvalues --    5.07018   5.07558   5.11920   5.12546   5.18198
 Alpha virt. eigenvalues --    5.21191   5.22758   5.25072   5.27666   5.29076
 Alpha virt. eigenvalues --    5.31364   5.34786   5.38139   5.41164   5.45398
 Alpha virt. eigenvalues --    5.50486   5.57687   5.63992   5.64245   5.75977
 Alpha virt. eigenvalues --    5.79089   5.80024   5.80881   5.81405   5.85715
 Alpha virt. eigenvalues --    5.94337   6.02750   6.04705   6.20285   6.32333
 Alpha virt. eigenvalues --    6.32835   6.49878   6.55697   6.57578   6.67592
 Alpha virt. eigenvalues --    6.72681   6.76645   6.78642   6.83114   7.03745
 Alpha virt. eigenvalues --    7.14305   7.20358   7.27224   7.28867   7.40338
 Alpha virt. eigenvalues --   10.18478  11.21584  11.54340  11.88447  13.14345
 Alpha virt. eigenvalues --   13.28127  14.37746
          Condensed to atoms (all electrons):
               1          2          3          4          5          6
     1  O    7.855719   0.004532   0.306991  -0.043708  -0.055351   0.331732
     2  O    0.004532   7.767484   0.002031  -0.001058   0.000419  -0.090150
     3  C    0.306991   0.002031   4.841581   0.339401   0.328653  -0.080842
     4  C   -0.043708  -0.001058   0.339401   4.983586  -0.067676   0.004559
     5  C   -0.055351   0.000419   0.328653  -0.067676   5.100377  -0.043437
     6  C    0.331732  -0.090150  -0.080842   0.004559  -0.043437   5.123418
     7  C   -0.066749   0.364966   0.007567   0.003840  -0.010274   0.451168
     8  H   -0.035533   0.000021   0.414989  -0.059861  -0.051695   0.001021
     9  H   -0.000101  -0.000169  -0.031974   0.401487   0.008677   0.000278
    10  H    0.005306   0.000093  -0.036242   0.388288  -0.003230  -0.000696
    11  H    0.000549   0.004714  -0.026854   0.382361  -0.004246  -0.004536
    12  H   -0.005232  -0.000510  -0.039198  -0.003345   0.395528   0.010334
    13  H    0.003946  -0.000026  -0.044194   0.009839   0.402912  -0.004764
    14  H    0.003558  -0.000002  -0.028185  -0.004821   0.385643   0.003650
    15  H   -0.044682   0.003063  -0.005578  -0.001065   0.008765   0.443693
    16  H    0.004806  -0.050601  -0.000198   0.000037  -0.000102  -0.086721
    17  H   -0.000190   0.325589  -0.000042  -0.000041   0.000025   0.015585
               7          8          9         10         11         12
     1  O   -0.066749  -0.035533  -0.000101   0.005306   0.000549  -0.005232
     2  O    0.364966   0.000021  -0.000169   0.000093   0.004714  -0.000510
     3  C    0.007567   0.414989  -0.031974  -0.036242  -0.026854  -0.039198
     4  C    0.003840  -0.059861   0.401487   0.388288   0.382361  -0.003345
     5  C   -0.010274  -0.051695   0.008677  -0.003230  -0.004246   0.395528
     6  C    0.451168   0.001021   0.000278  -0.000696  -0.004536   0.010334
     7  C    4.959500  -0.002071  -0.000008  -0.000357  -0.001345  -0.002237
     8  H   -0.002071   0.613111  -0.008649  -0.000753   0.008657   0.007773
     9  H   -0.000008  -0.008649   0.571286  -0.033319  -0.028225  -0.000175
    10  H   -0.000357  -0.000753  -0.033319   0.613650  -0.033149   0.000220
    11  H   -0.001345   0.008657  -0.028225  -0.033149   0.581695   0.002031
    12  H   -0.002237   0.007773  -0.000175   0.000220   0.002031   0.577747
    13  H    0.002260  -0.011855  -0.000466  -0.000432  -0.000303  -0.036847
    14  H    0.000098  -0.002790   0.000172  -0.000992   0.000353  -0.028825
    15  H   -0.103214   0.001542   0.000028   0.000218   0.000096  -0.003317
    16  H    0.434238   0.000066  -0.000011   0.000009   0.000251   0.000319
    17  H   -0.041501  -0.000001   0.000003  -0.000005  -0.000097   0.000000
              13         14         15         16         17
     1  O    0.003946   0.003558  -0.044682   0.004806  -0.000190
     2  O   -0.000026  -0.000002   0.003063  -0.050601   0.325589
     3  C   -0.044194  -0.028185  -0.005578  -0.000198  -0.000042
     4  C    0.009839  -0.004821  -0.001065   0.000037  -0.000041
     5  C    0.402912   0.385643   0.008765  -0.000102   0.000025
     6  C   -0.004764   0.003650   0.443693  -0.086721   0.015585
     7  C    0.002260   0.000098  -0.103214   0.434238  -0.041501
     8  H   -0.011855  -0.002790   0.001542   0.000066  -0.000001
     9  H   -0.000466   0.000172   0.000028  -0.000011   0.000003
    10  H   -0.000432  -0.000992   0.000218   0.000009  -0.000005
    11  H   -0.000303   0.000353   0.000096   0.000251  -0.000097
    12  H   -0.036847  -0.028825  -0.003317   0.000319   0.000000
    13  H    0.578682  -0.023711  -0.006528  -0.000074   0.000005
    14  H   -0.023711   0.578721   0.000035  -0.000013  -0.000001
    15  H   -0.006528   0.000035   0.579092  -0.002751  -0.000423
    16  H   -0.000074  -0.000013  -0.002751   0.608427  -0.014112
    17  H    0.000005  -0.000001  -0.000423  -0.014112   0.452819
 Mulliken charges:
               1
     1  O   -0.265593
     2  O   -0.330397
     3  C    0.052095
     4  C   -0.331824
     5  C   -0.394988
     6  C   -0.074293
     7  C    0.004119
     8  H    0.126028
     9  H    0.121166
    10  H    0.101392
    11  H    0.118049
    12  H    0.125735
    13  H    0.131556
    14  H    0.117111
    15  H    0.131026
    16  H    0.106431
    17  H    0.262387
 Sum of Mulliken charges =  -0.00000
 Mulliken charges with hydrogens summed into heavy atoms:
               1
     1  O   -0.265593
     2  O   -0.068010
     3  C    0.178122
     4  C    0.008783
     5  C   -0.020585
     6  C    0.056733
     7  C    0.110550
 APT charges:
               1
     1  O   -0.207284
     2  O   -0.864408
     3  C   -0.317412
     4  C   -1.060695
     5  C   -1.089923
     6  C   -0.429673
     7  C   -0.296969
     8  H    0.458117
     9  H    0.397141
    10  H    0.456637
    11  H    0.205832
    12  H    0.204330
    13  H    0.376936
    14  H    0.465342
    15  H    0.379303
    16  H    0.473118
    17  H    0.849609
 Sum of APT charges =  -0.00000
 APT charges with hydrogens summed into heavy atoms:
               1
     1  O   -0.207284
     2  O   -0.014799
     3  C    0.140705
     4  C   -0.001085
     5  C   -0.043316
     6  C   -0.050370
     7  C    0.176149
 Electronic spatial extent (au):  <R**2>=            890.7103
 Charge=             -0.0000 electrons
 Dipole moment (field-independent basis, Debye):
    X=             -0.7197    Y=             -1.2437    Z=             -1.9963  Tot=              2.4597
 Quadrupole moment (field-independent basis, Debye-Ang):
   XX=            -33.5617   YY=            -43.4127   ZZ=            -45.8195
   XY=              0.5975   XZ=              4.5773   YZ=             -0.6150
 Traceless Quadrupole moment (field-independent basis, Debye-Ang):
   XX=              7.3696   YY=             -2.4814   ZZ=             -4.8882
   XY=              0.5975   XZ=              4.5773   YZ=             -0.6150
 Octapole moment (field-independent basis, Debye-Ang**2):
  XXX=            -42.7822  YYY=             -0.3858  ZZZ=              0.2190  XYY=             -4.3063
  XXY=              4.7383  XXZ=            -13.4536  XZZ=             -4.5720  YZZ=              3.0357
  YYZ=              1.5613  XYZ=              1.7335
 Hexadecapole moment (field-independent basis, Debye-Ang**3):
 XXXX=           -597.9862 YYYY=           -293.8866 ZZZZ=           -143.5173 XXXY=            -30.3929
 XXXZ=             50.2499 YYYX=             -9.8345 YYYZ=             -1.9533 ZZZX=             10.7181
 ZZZY=             -1.2151 XXYY=           -168.8048 XXZZ=           -136.0740 YYZZ=            -73.4656
 XXYZ=             -7.7706 YYXZ=              9.4627 ZZXY=             -5.7530
 N-N= 3.187229058489D+02 E-N=-1.447731097287D+03  KE= 3.447508602750D+02
  Exact polarizability:   0.000   0.000   0.000   0.000   0.000   0.000
 Approx polarizability:  91.381  -4.108  77.340   8.688  -1.631  72.069
 No NMR shielding tensors so no spin-rotation constants.
 Leave Link  601 at Fri Sep 27 02:28:11 2019, MaxMem=   671088640 cpu:              77.5 elap:              38.8
 (Enter /shared/centos7/gaussian/g16/l701.exe)
 SCFChk:  SCF convergence  3.36D-09 required  1.00D-08
 ... and contract with generalized density number  0.
 Compute integral second derivatives.
 Entering OneElI...
 Calculate overlap and kinetic energy integrals
    NBasis = 395  MinDer = 2  MaxDer = 2
 Requested accuracy = 0.1000D-12
 PrmmSu-InSpLW:  IPartL=    0 NPrtUS=   20 NPrtUL=    1 DoSpLW=F IThBeg=    0 IThEnd=   19 NThAct=   20.
 PrsmSu:  NPrtUS=  20 ThrOK=T IAlg=1 NPAlg=1 LenDen=           0 ISkipM=0 DoSpLW=F IThBeg=    0 IThEnd=   19.
 Prism:   IPart=     0 DynPar=F LinDyn=F Incr=           4.
 PRISM was handed    33311824 working-precision words and  8464 shell-pairs
 PRISM was handed    33311824 working-precision words and  8464 shell-pairs
 PRISM was handed    33311824 working-precision words and  8464 shell-pairs
 PRISM was handed    33311824 working-precision words and  8464 shell-pairs
 PRISM was handed    33311824 working-precision words and  8464 shell-pairs
 PRISM was handed    33311824 working-precision words and  8464 shell-pairs
 PRISM was handed    33311824 working-precision words and  8464 shell-pairs
 PRISM was handed    33311824 working-precision words and  8464 shell-pairs
 PRISM was handed    33311824 working-precision words and  8464 shell-pairs
 PRISM was handed    33311824 working-precision words and  8464 shell-pairs
 IPart= 19 NShTot=         394 NBatch=          37 AvBLen=        10.6
 PRISM was handed    33311824 working-precision words and  8464 shell-pairs
 PRISM was handed    33311824 working-precision words and  8464 shell-pairs
 PRISM was handed    33311824 working-precision words and  8464 shell-pairs
 PRISM was handed    33311824 working-precision words and  8464 shell-pairs
 IPart= 16 NShTot=         401 NBatch=          40 AvBLen=        10.0
 PRISM was handed    33311824 working-precision words and  8464 shell-pairs
 IPart=  0 NShTot=         469 NBatch=          85 AvBLen=         5.5
 IPart=  1 NShTot=         463 NBatch=          80 AvBLen=         5.8
 PRISM was handed    33311824 working-precision words and  8464 shell-pairs
 PRISM was handed    33311824 working-precision words and  8464 shell-pairs
 PRISM was handed    33311824 working-precision words and  8464 shell-pairs
 IPart=  5 NShTot=         439 NBatch=          64 AvBLen=         6.9
 PRISM was handed    33311824 working-precision words and  8464 shell-pairs
 PRISM was handed    33311824 working-precision words and  8464 shell-pairs
 IPart=  6 NShTot=         437 NBatch=          62 AvBLen=         7.0
 IPart= 10 NShTot=         414 NBatch=          48 AvBLen=         8.6
 IPart= 14 NShTot=         405 NBatch=          41 AvBLen=         9.9
 IPart=  7 NShTot=         427 NBatch=          53 AvBLen=         8.1
 IPart= 13 NShTot=         407 NBatch=          43 AvBLen=         9.5
 IPart= 12 NShTot=         410 NBatch=          45 AvBLen=         9.1
 IPart= 11 NShTot=         413 NBatch=          48 AvBLen=         8.6
 IPart= 17 NShTot=         399 NBatch=          39 AvBLen=        10.2
 IPart=  8 NShTot=         419 NBatch=          50 AvBLen=         8.4
 IPart=  2 NShTot=         456 NBatch=          75 AvBLen=         6.1
 IPart= 18 NShTot=         395 NBatch=          37 AvBLen=        10.7
 IPart=  9 NShTot=         417 NBatch=          49 AvBLen=         8.5
 IPart=  4 NShTot=         445 NBatch=          68 AvBLen=         6.5
 IPart= 15 NShTot=         404 NBatch=          41 AvBLen=         9.9
 IPart=  3 NShTot=         450 NBatch=          71 AvBLen=         6.3
 PrSmSu:  NxtVal=             81.
 Entering OneElI...
 Calculate potential energy integrals
    NBasis = 395  MinDer = 2  MaxDer = 2
 Requested accuracy = 0.1000D-12
 PrmmSu-InSpLW:  IPartL=    0 NPrtUS=   20 NPrtUL=    1 DoSpLW=F IThBeg=    0 IThEnd=   19 NThAct=   20.
 PrsmSu:  NPrtUS=  20 ThrOK=T IAlg=1 NPAlg=1 LenDen=           0 ISkipM=0 DoSpLW=F IThBeg=    0 IThEnd=   19.
 Prism:   IPart=     0 DynPar=F LinDyn=F Incr=          65.
 PRISM was handed    33355537 working-precision words and  7728 shell-pairs
 PRISM was handed    33355537 working-precision words and  7728 shell-pairs
 PRISM was handed    33355537 working-precision words and  7728 shell-pairs
 PRISM was handed    33355537 working-precision words and  7728 shell-pairs
 PRISM was handed    33355537 working-precision words and  7728 shell-pairs
 PRISM was handed    33355537 working-precision words and  7728 shell-pairs
 PRISM was handed    33355537 working-precision words and  7728 shell-pairs
 PRISM was handed    33355537 working-precision words and  7728 shell-pairs
 PRISM was handed    33355537 working-precision words and  7728 shell-pairs
 PRISM was handed    33355537 working-precision words and  7728 shell-pairs
 PRISM was handed    33355537 working-precision words and  7728 shell-pairs
 PRISM was handed    33355537 working-precision words and  7728 shell-pairs
 PRISM was handed    33355537 working-precision words and  7728 shell-pairs
 PRISM was handed    33355537 working-precision words and  7728 shell-pairs
 PRISM was handed    33355537 working-precision words and  7728 shell-pairs
 PRISM was handed    33355537 working-precision words and  7728 shell-pairs
 PRISM was handed    33355537 working-precision words and  7728 shell-pairs
 PRISM was handed    33355537 working-precision words and  7728 shell-pairs
 PRISM was handed    33355537 working-precision words and  7728 shell-pairs
 PRISM was handed    33355537 working-precision words and  7728 shell-pairs
 IPart= 19 NShTot=        6171 NBatch=         363 AvBLen=        17.0
 IPart=  1 NShTot=        7089 NBatch=         417 AvBLen=        17.0
 IPart=  7 NShTot=        6596 NBatch=         388 AvBLen=        17.0
 IPart= 14 NShTot=        6307 NBatch=         371 AvBLen=        17.0
 IPart= 13 NShTot=        6358 NBatch=         374 AvBLen=        17.0
 IPart=  5 NShTot=        6783 NBatch=         399 AvBLen=        17.0
 IPart= 10 NShTot=        6477 NBatch=         381 AvBLen=        17.0
 IPart=  6 NShTot=        6749 NBatch=         397 AvBLen=        17.0
 IPart=  3 NShTot=        6868 NBatch=         404 AvBLen=        17.0
 IPart= 18 NShTot=        6256 NBatch=         368 AvBLen=        17.0
 IPart=  2 NShTot=        7004 NBatch=         412 AvBLen=        17.0
 IPart= 16 NShTot=        6273 NBatch=         369 AvBLen=        17.0
 IPart=  4 NShTot=        6817 NBatch=         401 AvBLen=        17.0
 IPart=  8 NShTot=        6545 NBatch=         385 AvBLen=        17.0
 IPart= 17 NShTot=        6256 NBatch=         368 AvBLen=        17.0
 IPart=  0 NShTot=        7191 NBatch=         423 AvBLen=        17.0
 IPart= 12 NShTot=        6409 NBatch=         377 AvBLen=        17.0
 IPart=  9 NShTot=        6477 NBatch=         381 AvBLen=        17.0
 IPart= 15 NShTot=        6307 NBatch=         371 AvBLen=        17.0
 IPart= 11 NShTot=        6443 NBatch=         379 AvBLen=        17.0
 PrSmSu:  NxtVal=           1301.
 Polarizability after L701:
                1             2             3 
      1  0.000000D+00
      2  0.000000D+00  0.000000D+00
      3  0.000000D+00  0.000000D+00  0.000000D+00
 Dipole Derivatives after L701:
                 1             2             3             4             5 
      1  -0.289381D+00 -0.604976D-02  0.214749D-01 -0.180925D+01 -0.159182D+00
      2  -0.155312D-01 -0.247848D+00  0.233439D-01  0.406553D+00 -0.205946D+00
      3   0.104080D+00  0.116524D+00 -0.846223D-01 -0.346470D+00  0.563817D-01
                 6             7             8             9            10 
      1  -0.813698D+00 -0.738964D+00  0.497177D-03 -0.624203D+00 -0.102498D+01
      2   0.251378D+00  0.624024D-01  0.165797D+00  0.112495D+00 -0.802081D-01
      3  -0.578033D+00 -0.204290D+00  0.991847D-01 -0.379069D+00  0.148723D-01
                11            12            13            14            15 
      1  -0.802190D+00  0.252109D+00 -0.102809D+01  0.715509D+00  0.580141D+00
      2  -0.123265D+01  0.899317D-01  0.114924D+00 -0.122281D+01 -0.193691D+00
      3  -0.268688D-01 -0.924450D+00  0.337071D-01 -0.729809D-01 -0.101887D+01
                16            17            18            19            20 
      1  -0.524431D+00 -0.431307D-01 -0.413395D+00 -0.101231D+00 -0.481111D+00
      2  -0.155624D+00 -0.707082D+00 -0.171679D+00 -0.515165D-01 -0.690364D+00
      3  -0.282923D+00 -0.381210D-01 -0.575064D-01 -0.295586D+00 -0.127345D+00
                21            22            23            24            25 
      1  -0.213931D+00  0.720691D+00 -0.788032D-01  0.532097D+00  0.127911D+00
      2  -0.755618D-01 -0.234665D-01  0.180242D+00 -0.415822D-01  0.112892D-01
      3  -0.993121D-01  0.283439D+00 -0.556962D-01  0.473418D+00 -0.189083D-02
                26            27            28            29            30 
      1   0.406779D+00  0.412209D+00  0.984841D+00  0.117849D+00 -0.481016D+00
      2   0.718396D+00  0.622404D+00  0.448718D+00  0.163232D+00 -0.243066D+00
      3   0.202321D+00  0.345115D+00 -0.257373D+00 -0.242970D-01  0.221838D+00
                31            32            33            34            35 
      1  -0.365601D-01  0.815651D-01 -0.159334D+00 -0.422833D-01 -0.536002D-01
      2  -0.402558D+00  0.280929D+00 -0.436642D+00  0.271259D+00  0.165652D+00
      3   0.275591D+00 -0.999085D-01  0.373128D+00  0.432486D+00  0.466816D-01
                36            37            38            39            40 
      1  -0.137184D+00  0.145550D+00 -0.553035D+00  0.256782D+00  0.965184D+00
      2   0.222469D+00 -0.168973D-01  0.859888D+00 -0.335667D+00 -0.233583D+00
      3   0.489620D+00  0.137793D-01  0.371380D-01  0.125368D+00 -0.408758D+00
                41            42            43            44            45 
      1   0.169173D+00 -0.557134D+00  0.103967D+00  0.217303D+00  0.728541D-01
      2   0.665483D-01  0.168520D+00 -0.207701D+00  0.926318D+00  0.455634D-01
      3  -0.739919D-01  0.364292D+00  0.877098D-01 -0.158693D+00  0.107624D+00
                46            47            48            49            50 
      1   0.830400D+00  0.664039D+00  0.477977D+00  0.171662D+01 -0.195612D+00
      2   0.284029D+00  0.416398D+00  0.182945D+00 -0.412090D+00  0.363302D+00
      3   0.209736D+00  0.154899D+00  0.172555D+00  0.341890D+00 -0.352283D-01
                51 
      1   0.794251D+00
      2  -0.221162D+00
      3   0.468904D+00
 Hessian after L701:
                1             2             3             4             5 
      1  0.579899D+01
      2 -0.401794D+01  0.152833D+02
      3  0.409862D+00 -0.181663D+01  0.146216D+02
      4  0.443946D+00 -0.402552D+00  0.533187D+00  0.852238D+01
      5 -0.443353D+00 -0.250388D+00 -0.238216D+00  0.381800D+01  0.686457D+01
      6  0.539741D+00 -0.217649D+00 -0.204503D+00 -0.289163D+01  0.104844D+01
      7 -0.168450D+01  0.842156D+00 -0.335594D+01  0.245065D+00 -0.129909D+00
      8  0.844947D+00 -0.879599D+01 -0.253886D+00 -0.114169D+00 -0.101036D+00
      9 -0.320930D+01 -0.197776D+00 -0.742285D+01  0.527131D-01 -0.107472D-01
     10 -0.312886D+00  0.249600D+00 -0.144707D+00  0.222251D+00  0.440267D-01
     11  0.181048D+00  0.216686D+00 -0.299814D+00  0.172917D-01 -0.129400D+00
     12 -0.124489D+00 -0.329714D+00  0.817654D-01  0.183727D-01  0.195256D-02
     13 -0.444230D-01 -0.233987D+00 -0.245466D+00  0.121230D+00 -0.122576D+00
     14 -0.173093D+00  0.124554D+00  0.265728D+00 -0.969877D-01 -0.462902D-01
     15 -0.234613D+00  0.315523D+00  0.296142D+00 -0.656525D-02 -0.217091D-02
     16 -0.466682D+01  0.437506D+01  0.273832D+01  0.397500D+00  0.843697D-01
     17  0.435813D+01 -0.653635D+01  0.286451D+01  0.296846D+00 -0.803073D+00
     18  0.250308D+01  0.270335D+01 -0.793919D+01 -0.787432D-01 -0.637406D-02
     19  0.352377D+00 -0.483696D+00  0.709130D-01 -0.823863D+01 -0.263728D+01
     20 -0.501616D+00 -0.317958D+00 -0.315062D+00 -0.283784D+01  0.299631D+00
     21  0.902659D-01 -0.285036D+00  0.262114D+00  0.175549D+00 -0.509138D+00
     22 -0.152870D+00 -0.142759D+00  0.266335D+00  0.271989D-01 -0.114855D-01
     23 -0.123210D+00  0.106969D+00 -0.228102D-01 -0.812380D-02 -0.681633D-02
     24  0.281059D+00 -0.354182D-01  0.181837D+00  0.187193D-01 -0.714311D-02
     25 -0.170832D-01  0.478528D-01 -0.245526D-01  0.212392D-01  0.112406D-01
     26  0.667613D-01  0.587981D-01 -0.396825D-01  0.274568D-01 -0.648417D-02
     27  0.295379D-02  0.990362D-02 -0.432115D-01  0.214970D-01  0.779503D-02
     28  0.107052D+00  0.648642D-01 -0.981335D-01  0.281508D-01  0.195514D-02
     29  0.713308D-01 -0.272351D-01 -0.428516D-01  0.577971D-02 -0.861907D-02
     30 -0.938507D-01 -0.369715D-01  0.842098D-02 -0.854957D-02 -0.439872D-03
     31 -0.498263D-01 -0.144393D-02  0.179448D-01  0.765201D-01  0.202943D-01
     32  0.262107D-01  0.212288D-01 -0.523014D-01  0.448517D-01 -0.413744D-01
     33 -0.221701D-01 -0.730609D-01  0.896014D-03 -0.534471D-01 -0.946614D-02
     34 -0.230891D-01  0.455087D-02  0.166980D-01 -0.330599D-02 -0.595395D-02
     35 -0.108027D-01 -0.971768D-02  0.313021D-01 -0.203792D-01 -0.366262D-02
     36 -0.255813D-01  0.424099D-01  0.719199D-01 -0.267017D-01  0.213636D-01
     37  0.724953D-03 -0.717554D-01 -0.600982D-01  0.661649D-02 -0.133996D-01
     38 -0.961111D-01  0.519919D-01  0.889534D-01 -0.206854D-01  0.130325D-01
     39 -0.419924D-01  0.426574D-01 -0.225032D-01  0.323727D-02 -0.488082D-02
     40  0.679386D-01 -0.279618D-01 -0.102246D+00  0.187983D-01 -0.111597D-01
     41 -0.189410D-01 -0.397296D-01  0.167310D-01 -0.542653D-02 -0.523963D-02
     42 -0.946811D-01  0.220159D-01  0.438312D-01 -0.998182D-02  0.524135D-02
     43  0.178789D-01 -0.262891D+00 -0.146843D+00 -0.516675D-02 -0.739013D-01
     44 -0.236126D+00  0.137492D+00 -0.227066D+00 -0.806343D-01  0.115327D+00
     45 -0.106807D+00 -0.179705D+00  0.492356D-01  0.723978D-02 -0.188737D-01
     46  0.108619D+00  0.749817D-01  0.866494D-01  0.244937D+00  0.227314D-01
     47  0.911691D-01 -0.127538D-01  0.500615D-01  0.701576D-01 -0.220411D+00
     48  0.885601D-01  0.427498D-01  0.101244D-01  0.405812D-01 -0.147535D-01
     49  0.539644D-01 -0.140845D-01  0.380768D-01 -0.212873D+01 -0.553603D+00
     50 -0.184124D-01 -0.109448D-01 -0.897148D-02 -0.693588D+00 -0.566977D+01
     51  0.379579D-01 -0.665032D-02  0.432523D-02  0.220453D+01 -0.262591D+00
                6             7             8             9            10 
      6  0.139751D+02
      7  0.769750D-01  0.157976D+02
      8 -0.171692D-01 -0.994851D+00  0.199809D+02
      9 -0.134810D+00  0.293514D+01 -0.950316D-01  0.204625D+02
     10 -0.150874D-01 -0.602899D+01  0.973862D+00 -0.369868D+00  0.145620D+02
     11  0.119390D-02  0.902197D+00 -0.224464D+01 -0.156143D+01 -0.127955D+01
     12 -0.141490D+00 -0.319499D+00 -0.154246D+01 -0.555884D+01  0.326962D+00
     13 -0.380201D-01 -0.632623D+01 -0.716235D+00 -0.802753D+00 -0.537237D-01
     14  0.128180D-01 -0.673947D+00 -0.433964D+01  0.227351D+01 -0.510150D-01
     15 -0.105846D+00 -0.730106D+00  0.225525D+01 -0.418383D+01 -0.154106D-01
     16 -0.121591D+00  0.299352D+00  0.124212D+00 -0.188738D+00  0.526337D-02
     17  0.652754D-01  0.145695D+00  0.770371D-01 -0.523910D-01  0.238055D+00
     18  0.311937D+00 -0.914164D-01 -0.475290D-02  0.373668D-01 -0.876462D-01
     19  0.179068D+00  0.320085D+00  0.959403D-01 -0.248173D-01  0.194590D+00
     20 -0.515147D+00  0.777834D-01 -0.154311D+00  0.722009D-03  0.150300D+00
     21 -0.889347D+01  0.275352D-01  0.165516D-01 -0.175888D+00  0.189320D-01
     22  0.103303D-01 -0.297551D+01 -0.247221D+00  0.147737D+01  0.187893D+00
     23 -0.273260D-02 -0.240736D+00 -0.449852D+01 -0.216287D+00  0.556511D-01
     24 -0.417258D-02  0.141316D+01 -0.214199D+00 -0.315355D+01 -0.256568D-01
     25  0.651890D-02  0.426084D-01  0.109654D-01 -0.701104D-02 -0.402686D+01
     26  0.523663D-02  0.519439D-01 -0.154795D-01 -0.169533D-01 -0.961927D-01
     27 -0.107652D-01  0.852162D-02  0.364328D-01  0.805597D-01 -0.598607D-01
     28 -0.768383D-02 -0.376878D-02 -0.505305D-01  0.576729D-01 -0.193177D+01
     29 -0.866264D-03 -0.926366D-01  0.664201D-01  0.477948D-01  0.337311D+00
     30 -0.726711D-02  0.483953D-01  0.134763D-01  0.120347D-01 -0.101058D+01
     31 -0.135986D-01  0.360876D-01  0.936782D-02  0.983657D-02 -0.278991D+01
     32 -0.740321D-02  0.802613D-01 -0.432575D-02  0.544580D-01 -0.640047D+00
     33 -0.369059D-01 -0.275841D-01  0.886265D-02  0.323114D-01  0.137501D+01
     34 -0.661778D-02  0.119321D+00 -0.628168D-02  0.183009D-01 -0.607511D-02
     35  0.109913D-01 -0.558412D-01  0.432603D-01 -0.107812D+00  0.803260D-02
     36 -0.278949D-02 -0.525657D-01 -0.931987D-01 -0.577456D-01  0.727414D-02
     37 -0.368093D-03  0.105454D+00  0.279807D-01  0.528307D-02 -0.548687D-01
     38  0.164488D-02 -0.314354D-01 -0.771668D-01 -0.737493D-01  0.419654D-02
     39 -0.926754D-02 -0.175388D-02 -0.106396D+00  0.106696D+00  0.358555D-02
     40 -0.980176D-02  0.100433D-01  0.294108D-01  0.413819D-01  0.225716D-03
     41  0.868404D-03  0.639015D-01  0.390131D-01 -0.361329D-01 -0.245779D-01
     42 -0.390755D-02  0.480116D-01 -0.322282D-02 -0.105075D-01 -0.203284D-01
     43  0.126135D-01  0.350145D-02  0.108130D-01  0.238241D-02 -0.136147D-01
     44 -0.331562D-01  0.454645D-01  0.334579D-01 -0.870344D-02  0.124063D-01
     45 -0.310928D-01  0.400868D-02  0.196862D-03 -0.160059D-01 -0.206816D-03
     46  0.347790D-01  0.195150D-01  0.810786D-02  0.314864D-03  0.164760D-01
     47 -0.337813D-02  0.143747D-01 -0.464114D-02  0.931654D-03  0.189246D-01
     48  0.191906D+00  0.692888D-02  0.196509D-02 -0.118374D-01  0.623340D-02
     49  0.224438D+01  0.203887D-01 -0.631812D-02  0.207870D-02  0.300478D-01
     50 -0.348969D+00 -0.442182D-02 -0.438616D-02 -0.403587D-03 -0.986911D-03
     51 -0.489262D+01  0.101824D-01 -0.242139D-02 -0.556616D-02  0.113591D-01
               11            12            13            14            15 
     11  0.123705D+02
     12  0.942707D+00  0.149153D+02
     13  0.168673D-01  0.888140D-03  0.145696D+02
     14  0.166983D+00  0.759484D-01  0.640186D+00  0.139613D+02
     15 -0.208567D-01 -0.282969D-01  0.822007D+00 -0.146059D+01  0.142346D+02
     16  0.198516D+00 -0.951331D-01  0.234283D+00  0.920761D-01 -0.634953D-01
     17  0.855110D-01 -0.875489D-01 -0.278359D-01 -0.146883D+00  0.179671D-01
     18 -0.818828D-01 -0.158353D+00 -0.140758D+00 -0.232339D-01 -0.896751D-01
     19  0.137094D+00  0.201427D-01  0.114346D+00  0.606242D-02  0.855848D-02
     20 -0.504732D-01  0.131634D-01 -0.483765D-01 -0.964289D-01  0.109267D-02
     21  0.145024D-01 -0.110694D+00 -0.273666D-01  0.550204D-02 -0.825025D-01
     22  0.782745D-01 -0.440471D-01  0.165497D+00 -0.464976D-01 -0.560262D-01
     23 -0.642826D-01  0.201653D+00 -0.345206D-01  0.813460D-01 -0.139286D+00
     24  0.218045D+00  0.104138D-01 -0.355625D-01 -0.149306D+00 -0.115826D+00
     25  0.997236D-02  0.424643D-01 -0.506698D-01  0.213898D-02  0.218783D-02
     26 -0.273958D+01  0.139597D+01 -0.119011D-01  0.142130D+00  0.845719D-01
     27  0.124660D+01 -0.275352D+01 -0.215153D-02  0.855432D-01 -0.148329D-01
     28  0.204901D+00 -0.102936D+01  0.549089D-02  0.586918D-01 -0.130400D-01
     29 -0.391758D+01 -0.152393D+00  0.417756D-01  0.373399D-01 -0.112179D-01
     30 -0.801999D-01 -0.335789D+01 -0.113418D-01 -0.165322D-01 -0.269636D-01
     31 -0.433764D+00  0.119368D+01 -0.646616D-02 -0.245582D-01  0.766179D-02
     32 -0.392769D+01 -0.543921D+00 -0.618138D-02  0.148019D-01  0.538760D-02
     33 -0.411576D+00 -0.280653D+01  0.249553D-02 -0.459940D-03 -0.102530D-01
     34  0.244328D-01  0.195958D-01 -0.271032D+01  0.934848D-01  0.127622D+01
     35  0.502824D-02  0.918611D-02  0.221740D+00 -0.420792D+01  0.125888D+00
     36  0.915390D-02 -0.824037D-02  0.156783D+01  0.331595D-01 -0.287020D+01
     37 -0.126615D-01  0.236325D-02 -0.405723D+01 -0.232965D+00  0.113639D+00
     38  0.204674D+00 -0.658388D-02 -0.922473D-01 -0.185401D+01 -0.963922D+00
     39 -0.464574D-02 -0.557882D-01  0.498976D-01 -0.833980D+00 -0.376140D+01
     40 -0.443019D-01 -0.272900D-01 -0.211136D+01  0.319259D+00 -0.108452D+01
     41  0.208045D-01  0.196629D-01  0.212308D+00 -0.381907D+01 -0.168118D+00
     42  0.310835D-01 -0.900466D-02 -0.109723D+01 -0.241699D+00 -0.315118D+01
     43 -0.404254D-02  0.161595D-02  0.947059D-01  0.847135D-01 -0.419127D-01
     44  0.100636D-01 -0.174107D-02  0.156720D+00 -0.820211D-02 -0.424176D-01
     45 -0.171147D-02 -0.883624D-02 -0.545100D-01 -0.295212D-01 -0.776212D-01
     46  0.853410D-02  0.587635D-02  0.318713D-01  0.687713D-02  0.743680D-02
     47 -0.918718D-03  0.429254D-02  0.125350D-01 -0.668499D-02  0.436672D-02
     48  0.146060D-02 -0.627146D-02  0.421874D-02  0.298069D-02 -0.101808D-01
     49 -0.481414D-02  0.786271D-02  0.233716D-01 -0.442693D-02  0.798053D-02
     50 -0.564204D-02 -0.176564D-03 -0.826975D-02 -0.338347D-02 -0.146759D-02
     51 -0.262948D-02 -0.373915D-02  0.782326D-02  0.139374D-03 -0.209991D-02
               16            17            18            19            20 
     16  0.120237D+02
     17 -0.103936D+01  0.175049D+02
     18 -0.715689D+01 -0.166084D+01  0.238908D+02
     19 -0.376139D+01 -0.314411D+01  0.537004D+01  0.143309D+02
     20 -0.272538D+01 -0.887940D+01 -0.936154D+00  0.420990D+01  0.123391D+02
     21  0.522964D+01 -0.108293D+01 -0.113942D+02 -0.601979D+01  0.736778D+00
     22  0.140820D+00  0.284244D-01  0.577109D-01 -0.115027D-01 -0.929243D-02
     23  0.981389D-02 -0.360147D-01  0.475964D-02 -0.573565D-02 -0.414771D-02
     24  0.743850D-01  0.829437D-02 -0.582932D-02  0.350116D-02 -0.250325D-02
     25  0.109223D-02  0.214248D-01  0.392589D-02  0.928950D-02  0.136725D-01
     26  0.275474D-01  0.248218D-01  0.676209D-02  0.250075D-01  0.637404D-02
     27  0.105662D-01  0.164297D-01 -0.120996D-01  0.151220D-01  0.101337D-01
     28  0.133012D-01  0.117997D-01 -0.673785D-02  0.134228D-01  0.438939D-02
     29  0.921054D-02 -0.259333D-02 -0.321012D-03  0.547390D-02 -0.574603D-02
     30 -0.827254D-02 -0.372122D-02 -0.668717D-02 -0.709965D-02 -0.811570D-03
     31 -0.352099D-02 -0.336332D-02 -0.703888D-02 -0.109049D-01  0.218660D-02
     32  0.126206D-01 -0.308304D-03 -0.212689D-01  0.158892D-01 -0.577240D-02
     33 -0.231846D-01 -0.304078D-01  0.145374D-01 -0.233031D-01 -0.142201D-01
     34 -0.199157D-01 -0.356752D-01 -0.493317D-01 -0.175304D-01 -0.520912D-02
     35 -0.446021D-01 -0.849454D-01  0.429208D-01 -0.123882D-01 -0.158233D-01
     36 -0.116511D+00  0.542917D-01  0.421418D-02 -0.199732D-01  0.822650D-02
     37 -0.288004D-01 -0.235350D-01 -0.139898D-01  0.526123D-01 -0.304287D-01
     38 -0.350133D-01  0.170032D-01  0.162680D-01 -0.543809D-01  0.585188D-02
     39 -0.258642D-03  0.126312D-02 -0.131193D-01  0.445453D-02 -0.470452D-02
     40  0.868268D-01  0.728917D-02 -0.517822D-01  0.322407D-01 -0.618784D-02
     41  0.196163D-02 -0.317442D-01 -0.328701D-02 -0.677719D-03 -0.857286D-02
     42 -0.611872D-01 -0.455479D-02 -0.267377D-02 -0.152056D-01  0.212966D-02
     43 -0.457579D+01 -0.508328D+00 -0.257841D-01  0.850000D-01  0.372481D+00
     44 -0.757672D+00 -0.154351D+01  0.136009D+00  0.472185D+00 -0.116515D+00
     45 -0.840427D-02  0.562366D-01 -0.472362D+01 -0.189929D+00  0.222769D+00
     46 -0.326649D+00 -0.142231D+00 -0.352325D+00 -0.330927D+01  0.125004D+01
     47 -0.168496D+00  0.320110D+00 -0.895022D-01  0.117461D+01 -0.304237D+01
     48 -0.334384D+00 -0.713514D-01  0.102367D+00  0.719156D+00  0.763943D+00
     49  0.180731D+00 -0.183228D+00  0.127689D+00 -0.155631D+00  0.835823D-01
     50 -0.164874D+00  0.354861D-01 -0.824512D-01  0.196111D+00  0.465243D-01
     51  0.125148D+00 -0.905261D-01 -0.157776D-01 -0.908332D-01  0.296443D-01
               21            22            23            24            25 
     21  0.241784D+02
     22 -0.422652D-02  0.253236D+01
     23 -0.220928D-02  0.350243D+00  0.451632D+01
     24  0.177027D-03 -0.184246D+01  0.245454D+00  0.296403D+01
     25  0.592011D-02  0.177264D-01  0.166101D-01 -0.389601D-02  0.394240D+01
     26  0.876837D-02  0.174556D-01 -0.533661D-01  0.166258D-01 -0.180797D+00
     27 -0.357872D-02 -0.966455D-02  0.182520D-01  0.158866D-01 -0.728329D-01
     28 -0.171800D-02 -0.584994D-02 -0.247811D-04 -0.576254D-02  0.515650D-02
     29 -0.372133D-03 -0.479207D-02 -0.476201D-02  0.178127D-02  0.874669D-01
     30 -0.531934D-02  0.670313D-02  0.387958D-02 -0.303526D-04  0.168841D+00
     31 -0.488212D-02  0.602574D-02 -0.391246D-01  0.516737D-01  0.514807D-01
     32 -0.542142D-02 -0.527003D-01  0.181161D-01 -0.691252D-01 -0.448888D-01
     33 -0.767155D-02  0.609694D-01 -0.602447D-01  0.520059D-01 -0.123451D+00
     34  0.142031D-01  0.787923D-02  0.171103D-01  0.613947D-01 -0.369490D-03
     35 -0.549412D-03  0.262502D-01 -0.194244D-01  0.383912D-01  0.962422D-03
     36 -0.197826D-01  0.724600D-01  0.299280D-01  0.847155D-01  0.120422D-02
     37  0.169358D-02  0.292034D-01 -0.138330D-01 -0.967907D-02  0.457060D-03
     38 -0.373267D-02 -0.186577D-01 -0.414482D-01 -0.554813D-01  0.305320D-04
     39 -0.187107D-01 -0.190554D-01 -0.535220D-01 -0.969112D-02 -0.187538D-03
     40 -0.570577D-02  0.657186D-03  0.293086D-02 -0.276573D-03 -0.101047D-02
     41  0.458639D-03  0.127376D-02  0.307478D-02 -0.114656D-01 -0.196094D-02
     42 -0.584035D-02  0.943977D-02 -0.984170D-02 -0.188486D-01 -0.227556D-02
     43 -0.159307D+00  0.169788D-01  0.137215D-01  0.907190D-02 -0.582367D-03
     44  0.246507D+00  0.281902D-01  0.417688D-02  0.139563D-01  0.323650D-02
     45  0.264580D+00  0.722217D-02  0.357340D-02 -0.466600D-02  0.374078D-03
     46  0.763706D+00  0.679768D-02  0.439421D-03  0.527145D-02  0.137960D-02
     47  0.765308D+00  0.464603D-02 -0.943970D-03  0.294820D-02  0.192937D-02
     48 -0.401696D+01  0.344269D-02  0.170512D-04  0.153218D-02  0.912246D-03
     49 -0.104442D+00  0.669901D-02 -0.121163D-02  0.505614D-02  0.375274D-02
     50  0.950141D-01 -0.135125D-02 -0.271609D-03 -0.855217D-03  0.143239D-03
     51  0.293747D-01  0.348925D-02 -0.583351D-03  0.201113D-02  0.185786D-02
               26            27            28            29            30 
     26  0.239757D+01
     27 -0.130043D+01  0.294195D+01
     28  0.102763D+00  0.167968D+00  0.201845D+01
     29  0.809982D-01 -0.909318D-01 -0.501190D+00  0.363663D+01
     30 -0.110264D+00 -0.860548D-01  0.984230D+00  0.240639D+00  0.334712D+01
[...]
   yx        -0.589081D+01     -0.872928D+00     -0.971263D+00
   yy         0.738979D+02      0.109505D+02      0.121841D+02
   zx        -0.333870D+01     -0.494745D+00     -0.550478D+00
   zy         0.127999D+02      0.189674D+01      0.211041D+01
   zz         0.614748D+02      0.910962D+01      0.101358D+02

 ----------------------------------------------------------------------

 Test job not archived.
 1\1\GINC-C0235\Freq\RM062X\CC-pVTZ\C5H10O2\HARMS.N\27-Sep-2019\0\\#P G
 eom=AllCheck Guess=TCheck SCRF=Check Test GenChk RM062X/CC-pVTZ Freq\\
 Gaussian input prepared by ASE\\0,1\O,0.544337871,0.7335485689,2.17908
 12019\O,0.1552481324,-0.4259944438,-0.3306114312\C,0.2150245475,2.1277
 088449,2.2558755971\C,-0.3665890887,2.6124905792,0.9396691893\C,1.4011
 356492,2.9631639857,2.7089343582\C,1.5790933192,0.404713126,1.35196008
 69\C,1.3954606809,-0.1845390193,0.1787331832\H,-0.5563337147,2.1564934
 912,3.025703712\H,-1.20559455,1.9852361052,0.6448745462\H,-0.704416996
 3,3.6449107502,1.0330035809\H,0.3882297463,2.5669160849,0.1531518709\H
 ,2.166665718,3.0078142879,1.9330507078\H,1.841323981,2.5456345763,3.61
 41062667\H,1.0782007445,3.9825705368,2.9185360827\H,2.5866494596,0.585
 3862058,1.70816753\H,2.2489075223,-0.4948441566,-0.4103435263\H,0.2354
 578695,-0.9008016326,-1.1588208213\\Version=EM64L-G16RevA.03\State=1-A
 \HF=-346.9391847\RMSD=4.069e-09\RMSF=7.431e-07\ZeroPoint=0.1471512\The
 rmal=0.1557551\Dipole=0.4497708,0.1693488,-0.719196\DipoleDeriv=-0.713
 0779,0.4644073,0.3514657,0.2175903,-0.9067529,-0.2942507,0.1595133,-0.
 3874762,-0.7736512,-0.818116,-0.487878,-0.7494116,-0.1441634,-0.454561
 8,-0.1551246,-0.2561038,-0.2237434,-0.6553306,0.4312404,-0.1191603,0.0
 719576,-0.1791676,0.9576186,0.2389613,0.08906,0.0791345,0.4332125,-0.0
 183284,0.026345,-0.0826864,0.0153085,-0.0312518,-0.0239224,-0.0832731,
 0.0848169,-0.0975573,-0.0616954,-0.1019784,-0.0585704,-0.032698,-0.083
 5777,-0.0593725,-0.0650418,-0.0453502,0.031449,0.4758476,-0.4189644,-0
 .4055943,-0.1178164,-0.0902916,0.182599,-0.3151543,0.3790849,0.3369604
 ,0.6620606,0.461992,0.6599505,0.1601484,0.0397882,0.2434193,0.3021679,
 0.296651,0.4335384,-0.0708353,0.0175559,0.0856305,-0.0049479,-0.014716
 6,-0.0137268,0.0764064,-0.0172252,-0.0802826,-0.0259122,-0.0585482,-0.
 0518966,-0.0940661,0.0300062,-0.0216015,-0.0474928,-0.0041543,0.017133
 ,0.0529081,0.0596778,0.0004777,0.0782018,-0.1271077,-0.0124833,0.00450
 72,-0.0315453,0.068976,-0.0407826,-0.006945,0.0923027,0.0022948,0.0853
 549,-0.0093916,0.0428165,0.0003934,-0.037184,-0.0317326,-0.0157731,0.0
 551988,0.0076083,0.0782085,-0.0018651,0.0996684,0.0059017,-0.0488666,0
 .0008906,0.0013308,-0.0720921,0.0267495,0.0421071,0.078627,-0.0802047,
 0.041112,-0.0614139,0.0460343,0.0695055,0.0117196,0.0382883,-0.1108912
 ,-0.0555834,0.0000224,-0.0323609,0.060838,-0.0999523,0.0406557,0.00723
 42,-0.0335285,0.1427626,-0.0219357,-0.0208034,-0.0712482,0.0240404,-0.
 0594528,0.0135419,0.019195,0.0278027,0.110573,-0.062501,0.0432455,-0.0
 769464,0.0284778,0.2709038,0.0542355,0.0651191,0.0323955,0.332732,-0.0
 11848,0.0506661,0.0029556,0.3196606\Polar=63.4414695,-2.886292,67.9277
 789,3.1173328,14.5637704,71.9555626\Quadrupole=-1.4985088,-0.5093786,2
 .0078874,-1.7107186,-0.7674055,5.4729432\PG=C01 [X(C5H10O2)]\NImag=0\\
 0.32073804,-0.09923326,0.36391797,-0.16724466,0.05537286,0.23286302,0.
 01373927,-0.00548905,-0.00803743,0.38665700,0.00160461,-0.00715186,0.0
 0355292,0.02490636,0.18169710,0.00318814,0.00341158,-0.00013595,0.0668
 7593,0.29116525,0.53613223,-0.07595690,0.01015905,0.01444506,-0.001544
 38,0.00080023,-0.00140212,0.57038496,0.02270312,-0.18920213,-0.0014772
 3,0.00637282,0.00125414,0.00328434,0.01032758,0.44053901,0.00995107,0.
 01217378,-0.06531953,0.00055857,-0.00019093,0.00087603,-0.07762963,0.0
 0051368,0.56963603,-0.00356972,0.01245416,-0.00922671,-0.00047605,0.00
 072094,0.00064834,-0.09843687,0.00907457,-0.03416568,0.56962927,0.0232
 8478,-0.03626074,0.02916090,-0.00110178,-0.00079716,-0.00077500,0.0086
 4348,-0.07922393,0.02337044,0.01716657,0.58173768,0.00073243,0.0019471
 4,0.00464387,0.00010224,-0.00035783,0.00015987,-0.03918264,0.03031409,
 -0.18274666,-0.02791463,0.03197767,0.50497139,0.00943167,0.00826383,0.
 00280864,0.00020133,0.00004523,-0.00004289,-0.16626822,-0.05286279,-0.
 02677537,-0.01445120,-0.00772122,-0.00740571,0.52215222,-0.02213710,-0
 .04247741,-0.01438479,-0.00118103,-0.00000402,-0.00086555,-0.04538494,
 -0.10218913,-0.01584343,0.00610213,0.01010682,0.00129816,-0.04670345,0
 .55494850,-0.00230000,-0.00618686,0.00122036,0.00074307,-0.00015063,0.
 00041558,-0.02349839,-0.01550085,-0.09282951,-0.02886932,-0.01597301,-
 0.01231236,-0.01865982,-0.02080683,0.57425874,-0.21377614,0.03913677,0
 .10715885,-0.02800168,-0.02896246,-0.05538041,-0.01897755,0.02573269,0
 .00978323,-0.00000251,-0.00296878,-0.00136318,0.00540605,-0.00394059,-
 0.00201654,0.64674987,0.02552808,-0.08683382,-0.02302347,-0.00853908,0
 .00667515,-0.01443487,0.03262552,-0.01602757,-0.02936482,0.00062117,-0
 .00047242,0.00102320,-0.00012242,-0.00182866,-0.00062033,0.02795780,0.
 30979072,0.11591755,-0.04096131,-0.15180426,-0.01337591,-0.01183067,-0
 .01411629,0.01010225,-0.02375650,-0.01319388,-0.00301785,0.00516394,0.
 00372595,-0.00074598,0.00152853,0.00012666,0.05759246,0.30416167,0.721
 11033,-0.01528014,0.02831708,0.04780754,-0.29897403,-0.04706321,-0.096
 19963,0.00093348,-0.00917985,0.00334914,0.00091067,0.00192435,-0.00040
 214,-0.00090781,0.00146961,-0.00065402,-0.10336860,-0.03263833,-0.0654
 2768,0.65029703,0.00431017,0.00345505,-0.01592516,-0.02213269,-0.05964
 994,-0.04564538,-0.00061605,-0.00037193,-0.00022954,-0.00016521,-0.000
 02985,-0.00013381,-0.00001555,-0.00007986,-0.00002758,-0.02129806,-0.1
 6103276,-0.20420482,-0.00033002,0.29351858,0.01560709,-0.02092892,-0.0
 3083774,-0.05304099,-0.04805116,-0.12439824,-0.00173658,0.00554299,0.0
 0025336,0.00029356,0.00059569,-0.00052269,0.00039723,0.00074445,-0.000
 53550,-0.04682003,-0.20252659,-0.44977752,0.00911412,0.33160818,0.7713
 7807,-0.00796642,0.00752383,0.00756381,0.00060221,0.00020845,0.0002511
 8,-0.18167339,0.00148219,0.13060337,0.01029678,-0.00046166,-0.01112379
 ,-0.02019657,-0.00237878,0.01789655,0.00209487,0.00134812,-0.00091482,
 -0.00098987,-0.00005613,-0.00007320,0.19859072,0.03342098,-0.01826323,
 -0.02774594,-0.00092292,-0.00037825,-0.00021426,-0.00640127,-0.0434577
 6,0.00471454,-0.00751300,0.00138398,0.00801752,-0.01426393,0.00026423,
 0.01272057,-0.00067249,-0.00520779,-0.00040833,0.00225999,0.00026754,-
 0.00013834,-0.00559096,0.06563856,0.00317189,-0.00355125,-0.00027341,-
 0.00019138,-0.00020319,-0.00000936,0.13213874,-0.00290622,-0.18355654,
 0.01943918,0.00117786,-0.02270395,-0.00887044,-0.00013401,0.00835348,-
 0.00150491,-0.00017806,0.00141738,0.00017084,0.00013792,0.00010632,-0.
 14042177,0.00419628,0.19785086,0.00093369,-0.00001447,0.00141508,0.001
 08081,-0.00046536,0.00032917,-0.01052072,-0.00748282,-0.00277351,-0.21
 081449,-0.12215449,-0.05480287,0.00004177,0.00172226,-0.00263546,-0.00
 013418,0.00051122,0.00021031,-0.00156406,-0.00007805,-0.00091292,0.000
 70142,0.00047578,-0.00001561,0.22602061,-0.00035275,0.00162835,-0.0002
 9163,-0.00015886,-0.00025343,-0.00029899,0.01023358,0.00535097,0.00327
 449,-0.12481035,-0.13957209,-0.04251637,0.00107845,-0.00054446,0.00169
 282,0.00012404,-0.00015595,-0.00026442,0.00035788,0.00024773,0.0003205
 3,-0.00025190,0.00024421,-0.00070819,0.13457492,0.14693095,0.00228022,
 -0.00090216,0.00198114,-0.00057483,0.00001480,-0.00058584,-0.02415081,
 -0.01943068,-0.00838477,-0.05399472,-0.04005643,-0.06558481,-0.0015401
 7,0.00339015,-0.00493602,-0.00046225,0.00007156,0.00000112,0.00055641,
 0.00021900,0.00047299,0.00063795,-0.00055075,0.00095697,0.06233938,0.0
 4444868,0.07158338,-0.00088270,0.00250064,-0.00178674,0.00046842,-0.00
 011004,0.00001392,-0.00493877,0.00976768,0.00439878,-0.07256604,0.0783
 8185,0.00629429,0.00020916,-0.00019243,0.00037224,0.00097785,0.0001259
 9,-0.00071826,-0.00055374,-0.00027610,-0.00037075,0.00034971,-0.000215
 56,-0.00006182,0.00991201,-0.02346843,-0.00123515,0.07420657,0.0021700
 1,-0.00099954,0.00265225,-0.00002938,-0.00034297,-0.00023300,0.0015591
 0,-0.01012139,-0.00408044,0.07942368,-0.28776119,-0.02274590,-0.000321
 76,-0.00000591,-0.00065548,-0.00128243,0.00077130,0.00087532,-0.000157
 57,0.00014650,-0.00018286,-0.00029764,0.00021128,0.00035616,0.00657256
 ,-0.01544769,-0.00097344,-0.08746556,0.31275009,-0.00458016,0.00635494
 ,-0.00456142,0.00086458,-0.00009004,0.00031023,-0.00745409,0.02541673,
 0.00642557,0.00697531,-0.02453204,-0.04936774,0.00027936,-0.00039471,0
 .00065021,0.00166304,-0.00092098,-0.00185332,-0.00095144,-0.00018585,0
 .00017916,0.00107936,-0.00045388,0.00080159,0.00372330,-0.00723851,-0.
 00192299,-0.00684201,0.02486836,0.05093598,0.00052463,-0.00101945,0.00
 117457,-0.00091160,-0.00017492,-0.00061699,0.00937020,-0.00192914,-0.0
 0975199,-0.17788778,0.00727224,0.13361324,0.00171858,0.00006557,-0.000
 31183,-0.00075265,0.00103309,0.00022020,0.00039673,0.00105476,0.000213
 33,-0.00021091,0.00115794,-0.00276005,-0.01631945,0.00254635,0.0175455
 3,-0.00696634,-0.00032867,0.00560031,0.19108179,0.00000193,0.00045179,
 -0.00143644,-0.00010475,0.00050544,0.00000971,-0.00848086,0.00009072,0
 .00887759,0.00771205,-0.04689226,-0.00937961,0.00007382,-0.00031096,-0
 .00088108,0.00012546,-0.00045949,0.00085590,0.00092749,-0.00126951,-0.
 00010163,0.00104936,-0.00015477,0.00205703,-0.01273368,0.00092584,0.01
 460733,0.02135283,0.00002739,-0.02251925,-0.00979453,0.04699188,-0.000
 54259,-0.00062535,0.00209381,-0.00033927,0.00024742,-0.00029344,0.0229
 4875,-0.00247873,-0.02504015,0.13222345,-0.00805769,-0.18213510,0.0015
 4003,0.00031779,0.00131937,0.00022132,-0.00047204,-0.00020444,0.000263
 42,-0.00001159,0.00102224,-0.00331197,0.00202373,-0.00411230,-0.006613
 41,0.00098371,0.00673954,0.00038160,-0.00019751,-0.00151941,-0.1453501
 8,0.00840511,0.20144922,0.00160518,0.00007444,-0.00066260,0.00029184,0
 .00000625,0.00023947,-0.02177505,0.00093426,0.02073620,0.00129572,0.00
 041857,0.00148654,-0.17592835,-0.00655099,0.13202759,-0.00023626,0.000
 63966,0.00046698,-0.00000343,-0.00001694,-0.00057773,-0.00310228,-0.00
 338178,-0.00256410,0.00049944,-0.00000937,-0.00018592,-0.00010779,-0.0
 0000676,-0.00002931,-0.00002897,-0.00000559,-0.00105741,0.19340163,0.0
 0147516,0.00100767,-0.00040158,0.00061255,0.00019607,0.00038393,-0.014
 35374,-0.00039167,0.01509148,0.00108235,0.00010638,0.00059664,-0.00598
 941,-0.04668673,0.00690612,-0.00019942,-0.00066812,0.00028721,-0.00034
 358,-0.00029895,-0.00061467,-0.00295719,-0.00140228,-0.00142852,0.0001
 5919,-0.00011965,0.00009024,0.00012879,-0.00007075,-0.00010217,0.00016
 500,0.00034886,-0.00041013,0.00849004,0.04838734,0.00051889,0.00128801
 ,0.00033909,-0.00029661,0.00006354,-0.00030481,-0.00757754,0.00073133,
 0.00750570,-0.00054217,0.00014259,0.00157267,0.13293378,0.00741390,-0.
 18568536,0.00166483,-0.00107144,-0.00032171,-0.00010773,-0.00004920,0.
 00026432,-0.00219024,-0.00133526,0.00027283,0.00007940,0.00005321,0.00
 010318,0.00004312,0.00012539,-0.00000192,0.00028956,-0.00025427,0.0000
 9240,-0.14594352,-0.00634519,0.19857211,0.00192639,0.00112184,0.002232
 40,0.00019438,-0.00004567,0.00006230,-0.01096004,0.01317384,-0.0231399
 9,-0.00390753,-0.00414746,-0.00035190,-0.09000756,0.04103754,-0.087409
 25,0.00066808,-0.00039434,-0.00028998,-0.00032406,0.00000563,-0.000057
 81,0.00056765,0.00063085,0.00049704,-0.00036834,0.00036948,-0.00172340
 ,0.00016625,-0.00012731,0.00039226,0.00009091,-0.00008467,-0.00023170,
 0.01031682,-0.00977075,0.01873258,0.09640704,0.00064948,0.00222784,0.0
 0101706,0.00027872,0.00002665,0.00016652,-0.00750714,0.00654331,-0.017
 55680,-0.00279362,-0.00233185,-0.00082331,0.04284368,-0.08765120,0.088
 89073,0.00034260,-0.00008548,-0.00050424,-0.00026252,-0.00004486,-0.00
 011331,0.00080707,0.00044186,0.00047281,-0.00066270,0.00058304,-0.0008
 8540,-0.00019618,0.00027456,-0.00000713,0.00002076,-0.00010577,0.00011
 767,-0.00017894,-0.00113663,-0.00057927,-0.04446685,0.09149291,0.00122
 554,0.00005196,0.00109361,0.00019956,0.00003188,0.00018294,-0.00337786
 ,0.00421960,-0.00884342,-0.00217407,-0.00203190,0.00064688,-0.08833372
 ,0.08761328,-0.23455351,-0.00036454,-0.00023760,-0.00045379,0.00006256
 ,-0.00006673,-0.00001082,-0.00009724,-0.00039644,0.00058167,-0.0004359
 4,0.00040952,-0.00043192,0.00011929,0.00019247,0.00007125,0.00013911,0
 .00004902,0.00051106,-0.00985604,0.00866817,-0.01762991,0.09897380,-0.
 09573002,0.25238722,-0.00312973,-0.00703926,-0.00259779,0.00010900,0.0
 0005060,0.00022071,0.01041720,-0.02243189,-0.00426610,0.00039079,0.000
 67176,0.00014935,-0.07133464,0.07806515,0.01517613,-0.00234700,0.00086
 982,0.00101354,0.00046726,-0.00010215,-0.00047154,0.00095827,0.0005502
 3,0.00084956,0.00008279,0.00002062,0.00033328,-0.00028694,-0.00004127,
 -0.00054070,-0.00003530,0.00005095,-0.00002680,-0.00678266,0.02128906,
 0.00292528,-0.00459740,0.01105311,0.00367564,0.07546666,-0.00310215,-0
 .00355308,-0.00255271,-0.00044151,-0.00008858,-0.00024048,0.00933806,-
 0.01582340,-0.00190502,0.00066522,0.00023591,0.00035106,0.07615016,-0.
 28283910,-0.04959019,-0.00185789,0.00091171,0.00139883,0.00060256,0.00
 004142,-0.00001183,-0.00013635,0.00045768,0.00060452,-0.00023476,0.000
 25594,0.00015641,-0.00025177,0.00063636,-0.00023983,-0.00007800,-0.000
 02466,0.00008151,-0.00066154,0.00241770,0.00039576,0.00280359,-0.01023
 959,-0.00263633,-0.08298413,0.30734797,-0.00094287,-0.00167809,0.00037
 185,-0.00030545,-0.00001793,-0.00021039,0.00495032,-0.00721536,-0.0034
 9792,0.00035938,0.00013365,0.00002110,0.01483436,-0.04893009,-0.056092
 48,-0.00035700,-0.00011805,0.00029986,0.00024509,0.00006506,0.00026847
 ,-0.00002515,0.00032938,0.00035498,0.00002775,0.00020997,0.00008963,-0
 .00065119,0.00003914,-0.00030544,-0.00001183,-0.00013137,-0.00000798,0
 .00595838,-0.02240339,-0.00452274,-0.00746858,0.02562079,0.00682135,-0
 .01648978,0.05401284,0.05660729,-0.02978236,0.00332726,0.00529759,0.00
 236209,0.00017447,0.00047502,-0.00017759,-0.00536800,-0.00056696,-0.00
 012437,0.00074977,0.00026982,-0.00003231,-0.00003414,0.00010841,-0.286
 47598,-0.04793171,-0.09715444,-0.00225455,0.00034997,0.00031708,-0.000
 04344,0.00053528,0.00009827,0.00010838,-0.00005871,0.00015037,-0.00006
 307,0.00019605,-0.00028282,-0.00000572,0.00001233,-0.00012892,0.000553
 53,0.00020728,-0.00051949,-0.00018827,0.00008878,0.00022705,0.00059494
 ,0.00016656,-0.00012683,0.31518176,0.01006287,0.00481827,0.00297571,0.
 00163302,0.00554682,-0.00508847,0.00040621,0.00153686,0.00007383,-0.00
 002163,-0.00012156,0.00005631,-0.00047756,-0.00051147,0.00018084,-0.04
 465376,-0.04554617,-0.02933278,-0.01434811,-0.00065771,-0.00192587,-0.
 00017246,-0.00018239,-0.00004344,-0.00011603,0.00001638,-0.00002989,-0
 .00003748,-0.00000902,-0.00000046,0.00006124,0.00002012,0.00012784,0.0
 0027474,-0.00164508,-0.00051914,-0.00014102,-0.00002498,-0.00019263,-0
 .00001197,0.00029190,0.00010769,0.04790171,0.03861604,0.02647805,0.001
 06214,0.00682334,0.00134580,-0.00603738,-0.00291925,0.00072244,0.00256
 678,0.00075385,0.00010765,-0.00046264,-0.00024150,-0.00057883,-0.00085
 744,0.00069993,-0.09285318,-0.02826597,-0.08803323,-0.02634632,-0.0012
 4207,-0.00396437,0.00002635,-0.00026397,-0.00002205,0.00004609,0.00001
 632,-0.00011297,0.00004809,-0.00011879,0.00016419,-0.00007973,-0.00006
 132,-0.00003142,0.00004469,-0.00024463,-0.00032966,-0.00021569,-0.0000
 7789,-0.00036387,0.00016484,0.00018513,-0.00024454,0.09215852,0.032972
 23,0.08901641,0.00092082,-0.00092408,-0.00185643,-0.03027050,0.0049633
 8,0.00874034,0.00001321,0.00027691,-0.00016446,-0.00014698,-0.00006959
 ,0.00000271,0.00000556,-0.00004634,0.00004065,0.00590984,-0.00151614,-
 0.00344917,-0.22406244,0.06440650,0.12262707,0.00003795,-0.00010533,-0
 .00000809,0.00013739,-0.00007757,-0.00003387,0.00004478,0.00004101,0.0
 0003805,-0.00003521,-0.00001741,0.00001942,-0.00000270,0.00000517,0.00
 000588,0.00002176,0.00000286,0.00000626,-0.00000711,-0.00001650,-0.000
 00345,0.00048906,0.00011549,0.00026370,0.24648680,-0.00030135,0.007257
 88,-0.00824888,-0.00854856,0.00518075,0.00264649,-0.00125326,0.0015339
 1,0.00112239,-0.00002884,-0.00011678,0.00033576,0.00002428,-0.00024387
 ,0.00001572,0.01316760,-0.00090036,-0.00368177,0.06558899,-0.06588277,
 -0.05930582,-0.00009334,0.00011334,0.00008902,-0.00001900,-0.00002523,
 -0.00004483,0.00002873,-0.00003343,0.00004263,0.00008872,-0.00009572,-
 0.00000058,0.00001406,-0.00002758,-0.00009112,0.00000972,0.00004262,0.
 00003786,0.00001172,-0.00004475,-0.00004241,-0.00040537,-0.00367484,0.
 00178955,-0.06814934,0.05585963,-0.00164875,-0.00793104,-0.00007669,-0
 .01751713,0.00298508,0.00902509,0.00051032,0.00103717,-0.00186013,-0.0
 0009396,-0.00002059,-0.00007317,0.00015871,-0.00019122,-0.00005350,0.0
 2353342,-0.00420153,-0.00777246,0.12370013,-0.05805508,-0.14690730,0.0
 0015773,-0.00058822,-0.00004336,0.00003415,-0.00000611,-0.00000194,0.0
 0003467,-0.00001630,0.00002937,-0.00002109,0.00002944,0.00006453,-0.00
 006710,-0.00000647,0.00007017,0.00001445,0.00001340,0.00000037,-0.0001
 1288,-0.00006534,0.00001662,-0.00046290,0.00172831,-0.00122986,-0.1280
 2979,0.06392643,0.14594801,0.00052442,0.00084066,0.00150882,-0.0455281
 2,0.04334113,0.07259753,0.00011045,-0.00059118,-0.00014668,-0.00013970
 ,0.00011161,-0.00010375,-0.00003969,0.00008753,-0.00001001,-0.00773403
 ,-0.00011844,-0.00042920,-0.00472245,-0.02504008,-0.04450793,-0.000016
 70,0.00003619,0.00003265,0.00020294,-0.00011738,0.00005799,0.00003064,
 0.00009595,0.00006494,-0.00002891,-0.00008473,0.00000426,0.00000331,-0
 .00000050,-0.00001603,-0.00000609,-0.00001911,0.00001062,0.00003386,0.
 00003846,0.00000688,-0.00014211,-0.00047528,-0.00133248,0.00045776,-0.
 00013475,-0.00018998,0.05699441,-0.00008455,-0.00002302,0.00075613,0.0
 1484613,-0.13241592,-0.23327182,-0.00009553,-0.00004001,-0.00004125,0.
 00030981,0.00000906,0.00003930,-0.00000137,0.00005323,-0.00001395,-0.0
 0075109,0.00106971,0.00067345,0.00287524,-0.00835869,-0.00491086,-0.00
 002263,0.00002379,0.00006128,-0.00005455,-0.00006489,-0.00012459,-0.00
 007297,-0.00002558,0.00000220,-0.00014096,-0.00004892,-0.00005116,-0.0
 0004013,-0.00001656,0.00003117,0.00002558,-0.00001242,0.00001789,-0.00
 002235,0.00001658,0.00001817,0.00008846,0.00152682,-0.00096006,0.00111
 096,0.00105721,0.00136209,-0.01797005,0.13724961,-0.00181185,0.0011025
 7,0.00157892,0.02298925,-0.23113113,-0.40412840,0.00019178,-0.00086114
 ,-0.00017802,-0.00004776,0.00018657,-0.00005376,0.00000084,0.00010183,
 -0.00004609,-0.00049511,0.00017933,0.00084958,0.00481972,-0.00625336,-
 0.01699074,-0.00005812,0.00009339,0.00002490,-0.00001491,-0.00008502,0
 .00003331,-0.00004007,0.00009461,-0.00003531,0.00010783,-0.00012617,0.
 00005208,-0.00001612,-0.00006703,0.00000364,-0.00001651,-0.00002161,-0
 .00000913,-0.00000276,0.00005566,0.00003034,0.00014025,-0.00109010,0.0
 0003498,0.00180119,0.00140956,0.00286424,-0.02754764,0.23641204,0.4159
 6945\\-0.00000106,0.00000094,-0.00000068,-0.00000026,-0.00000039,-0.00
 000048,0.00000103,-0.00000057,-0.00000013,0.00000061,0.00000049,-0.000
 00027,-0.00000146,0.00000015,-0.00000030,-0.00000064,-0.00000112,0.000
 00013,0.00000091,-0.00000003,0.00000149,-0.00000104,0.00000053,-0.0000
 0034,0.00000024,0.00000040,-0.00000119,0.00000084,0.00000084,-0.000001
 05,0.00000131,-0.00000005,-0.00000080,0.00000054,0.00000004,0.00000015
 ,-0.00000087,-0.00000013,0.00000092,-0.00000049,0.00000084,-0.00000002
 ,-0.00000055,-0.00000099,0.00000128,0.00000021,-0.00000078,0.00000111,
 0.00000067,-0.00000017,0.00000019\\\@


 THE RED LIGHT IS ALWAYS LONGER THAN THE GREEN LIGHT.

                     -- PETER'S THEORY OF RELATIVITY
 Job cpu time:       0 days  3 hours 48 minutes 15.6 seconds.
 Elapsed time:       0 days  1 hours 54 minutes 11.3 seconds.
 File lengths (MBytes):  RWF=   1392 Int=      0 D2E=      0 Chk=     32 Scr=     32
 Normal termination of Gaussian 16 at Fri Sep 27 07:51:37 2019.
