 Entering Gaussian System, Link 0=g16
 Input=tight/species/CC(C)OC=CO/conformers/CC(C)OC=CO_62.com
 Output=tight/species/CC(C)OC=CO/conformers/CC(C)OC=CO_62.log
 Initial command:
 /shared/centos7/gaussian/g16/l1.exe "/scratch/harms.n/gauss_scrdir/Gau-36178.inp" -scrdir="/scratch/harms.n/gauss_scrdir/"
 Entering Link 1 = /shared/centos7/gaussian/g16/l1.exe PID=     36180.
  
 Copyright (c) 1988,1990,1992,1993,1995,1998,2003,2009,2016,
            Gaussian, Inc.  All Rights Reserved.
  
 This is part of the Gaussian(R) 16 program.  It is based on
 the Gaussian(R) 09 system (copyright 2009, Gaussian, Inc.),
 the Gaussian(R) 03 system (copyright 2003, Gaussian, Inc.),
 the Gaussian(R) 98 system (copyright 1998, Gaussian, Inc.),
 the Gaussian(R) 94 system (copyright 1995, Gaussian, Inc.),
 the Gaussian 92(TM) system (copyright 1992, Gaussian, Inc.),
 the Gaussian 90(TM) system (copyright 1990, Gaussian, Inc.),
 the Gaussian 88(TM) system (copyright 1988, Gaussian, Inc.),
 the Gaussian 86(TM) system (copyright 1986, Carnegie Mellon
 University), and the Gaussian 82(TM) system (copyright 1983,
 Carnegie Mellon University). Gaussian is a federally registered
 trademark of Gaussian, Inc.
  
 This software contains proprietary and confidential information,
 including trade secrets, belonging to Gaussian, Inc.
  
 This software is provided under written license and may be
 used, copied, transmitted, or stored only in accord with that
 written license.
  
 The following legend is applicable only to US Government
 contracts under FAR:
  
                    RESTRICTED RIGHTS LEGEND
  
 Use, reproduction and disclosure by the US Government is
 subject to restrictions as set forth in subparagraphs (a)
 and (c) of the Commercial Computer Software - Restricted
 Rights clause in FAR 52.227-19.
  
 Gaussian, Inc.
 340 Quinnipiac St., Bldg. 40, Wallingford CT 06492
  
  
 ---------------------------------------------------------------
 Warning -- This program may not be used in any manner that
 competes with the business of Gaussian, Inc. or will provide
 assistance to any competitor of Gaussian, Inc.  The licensee
 of this program is prohibited from giving any competitor of
 Gaussian, Inc. access to this program.  By using this program,
 the user acknowledges that Gaussian, Inc. is engaged in the
 business of creating and licensing software in the field of
 computational chemistry and represents and warrants to the
 licensee that it is not a competitor of Gaussian, Inc. and that
 it will not use this program in any manner prohibited above.
 ---------------------------------------------------------------
  

 Cite this work as:
 Gaussian 16, Revision A.03,
 M. J. Frisch, G. W. Trucks, H. B. Schlegel, G. E. Scuseria, 
 M. A. Robb, J. R. Cheeseman, G. Scalmani, V. Barone, 
 G. A. Petersson, H. Nakatsuji, X. Li, M. Caricato, A. V. Marenich, 
 J. Bloino, B. G. Janesko, R. Gomperts, B. Mennucci, H. P. Hratchian, 
 J. V. Ortiz, A. F. Izmaylov, J. L. Sonnenberg, D. Williams-Young, 
 F. Ding, F. Lipparini, F. Egidi, J. Goings, B. Peng, A. Petrone, 
 T. Henderson, D. Ranasinghe, V. G. Zakrzewski, J. Gao, N. Rega, 
 G. Zheng, W. Liang, M. Hada, M. Ehara, K. Toyota, R. Fukuda, 
 J. Hasegawa, M. Ishida, T. Nakajima, Y. Honda, O. Kitao, H. Nakai, 
 T. Vreven, K. Throssell, J. A. Montgomery, Jr., J. E. Peralta, 
 F. Ogliaro, M. J. Bearpark, J. J. Heyd, E. N. Brothers, K. N. Kudin, 
 V. N. Staroverov, T. A. Keith, R. Kobayashi, J. Normand, 
 K. Raghavachari, A. P. Rendell, J. C. Burant, S. S. Iyengar, 
 J. Tomasi, M. Cossi, J. M. Millam, M. Klene, C. Adamo, R. Cammi, 
 J. W. Ochterski, R. L. Martin, K. Morokuma, O. Farkas, 
 J. B. Foresman, and D. J. Fox, Gaussian, Inc., Wallingford CT, 2016.
 
 ******************************************
 Gaussian 16:  EM64L-G16RevA.03 25-Dec-2016
                29-Sep-2019 
 ******************************************
 %nprocshared=20
 Will use up to   20 processors via shared memory.
 %mem=5GB
 ----------------------------------------------------------------------
 #p m062x/cc-pVTZ opt=(calcfc,maxcycles=900,Tight) freq IOP(7/33=1,2/16
 =3) scf=(maxcycle=900)
 ----------------------------------------------------------------------
 1/6=900,7=10,10=4,18=20,19=15,26=3,38=1/1,3;
 2/9=110,12=2,16=3,17=6,18=5,40=1/2;
 3/5=16,6=1,11=2,25=1,30=1,71=2,74=-55,140=1/1,2,3;
 4//1;
 5/5=2,7=900,38=5/2;
 8/6=4,10=90,11=11/1;
 11/6=1,8=1,9=11,15=111,16=1/1,2,10;
 10/6=1,13=1/2;
 6/7=2,8=2,9=2,10=2,28=1/1;
 7/10=1,18=20,25=1,33=1/1,2,3,16;
 1/6=900,7=10,10=4,18=20,19=15,26=3/3(2);
 2/9=110,16=3/2;
 99//99;
 2/9=110,16=3/2;
 3/5=16,6=1,11=2,25=1,30=1,71=1,74=-55/1,2,3;
 4/5=5,16=3,69=1/1;
 5/5=2,7=900,38=5/2;
 7/33=1/1,2,3,16;
 1/6=900,7=10,18=20,19=15,26=3/3(-5);
 2/9=110,16=3/2;
 6/7=2,8=2,9=2,10=2,19=2,28=1/1;
 99/9=1/99;
 Leave Link    1 at Sun Sep 29 08:54:58 2019, MaxMem=   671088640 cpu:               4.3 elap:               2.2
 (Enter /shared/centos7/gaussian/g16/l101.exe)
 ------------------------------
 Gaussian input prepared by ASE
 ------------------------------
 Symbolic Z-matrix:
 Charge =  0 Multiplicity = 1
 O                     0.93739   0.96572   2.59212 
 O                     0.60477   0.8056   -0.50829 
 C                     0.44906   2.18765   2.07996 
 C                     0.82786   3.30115   3.05651 
 C                    -1.02014   2.13686   1.81744 
 C                     1.3367    0.0181    1.67753 
 C                     1.21614  -0.06245   0.38408 
 H                     0.97741   2.40504   1.11045 
 H                     0.51735   3.04988   4.09221 
 H                     1.92112   3.46316   3.05799 
 H                     0.33506   4.26972   2.77077 
 H                    -1.56961   1.62542   2.66195 
 H                    -1.24524   1.58105   0.88337 
 H                    -1.45296   3.1713    1.70715 
 H                     1.84457  -0.80814   2.20015 
 H                     1.63966  -0.91205  -0.13093 
 H                     0.14129   1.50752   0.03417 
 
 ITRead=  0  0  0  0  0  0  0  0  0  0  0  0  0  0  0  0  0
 MicOpt= -1 -1 -1 -1 -1 -1 -1 -1 -1 -1 -1 -1 -1 -1 -1 -1 -1
 NAtoms=     17 NQM=       17 NQMF=       0 NMMI=      0 NMMIF=      0
                NMic=       0 NMicF=      0.
                    Isotopes and Nuclear Properties:
 (Nuclear quadrupole moments (NQMom) in fm**2, nuclear magnetic moments (NMagM)
  in nuclear magnetons)

  Atom         1           2           3           4           5           6           7           8           9          10
 IAtWgt=          16          16          12          12          12          12          12           1           1           1
 AtmWgt=  15.9949146  15.9949146  12.0000000  12.0000000  12.0000000  12.0000000  12.0000000   1.0078250   1.0078250   1.0078250
 NucSpn=           0           0           0           0           0           0           0           1           1           1
 AtZEff=  -0.0000000  -0.0000000  -0.0000000  -0.0000000  -0.0000000  -0.0000000  -0.0000000  -0.0000000  -0.0000000  -0.0000000
 NQMom=    0.0000000   0.0000000   0.0000000   0.0000000   0.0000000   0.0000000   0.0000000   0.0000000   0.0000000   0.0000000
 NMagM=    0.0000000   0.0000000   0.0000000   0.0000000   0.0000000   0.0000000   0.0000000   2.7928460   2.7928460   2.7928460
 AtZNuc=   8.0000000   8.0000000   6.0000000   6.0000000   6.0000000   6.0000000   6.0000000   1.0000000   1.0000000   1.0000000

  Atom        11          12          13          14          15          16          17
 IAtWgt=           1           1           1           1           1           1           1
 AtmWgt=   1.0078250   1.0078250   1.0078250   1.0078250   1.0078250   1.0078250   1.0078250
 NucSpn=           1           1           1           1           1           1           1
 AtZEff=  -0.0000000  -0.0000000  -0.0000000  -0.0000000  -0.0000000  -0.0000000  -0.0000000
 NQMom=    0.0000000   0.0000000   0.0000000   0.0000000   0.0000000   0.0000000   0.0000000
 NMagM=    2.7928460   2.7928460   2.7928460   2.7928460   2.7928460   2.7928460   2.7928460
 AtZNuc=   1.0000000   1.0000000   1.0000000   1.0000000   1.0000000   1.0000000   1.0000000
 Leave Link  101 at Sun Sep 29 08:55:02 2019, MaxMem=   671088640 cpu:               7.4 elap:               3.7
 (Enter /shared/centos7/gaussian/g16/l103.exe)

 GradGradGradGradGradGradGradGradGradGradGradGradGradGradGradGradGradGrad
 Berny optimization.
 Initialization pass.
                           ----------------------------
                           !    Initial Parameters    !
                           ! (Angstroms and Degrees)  !
 --------------------------                            --------------------------
 ! Name  Definition              Value          Derivative Info.                !
 --------------------------------------------------------------------------------
 ! R1    R(1,3)                  1.412          calculate D2E/DX2 analytically  !
 ! R2    R(1,6)                  1.3762         calculate D2E/DX2 analytically  !
 ! R3    R(2,7)                  1.3869         calculate D2E/DX2 analytically  !
 ! R4    R(2,17)                 1.0009         calculate D2E/DX2 analytically  !
 ! R5    R(3,4)                  1.5287         calculate D2E/DX2 analytically  !
 ! R6    R(3,5)                  1.4933         calculate D2E/DX2 analytically  !
 ! R7    R(3,8)                  1.1253         calculate D2E/DX2 analytically  !
 ! R8    R(4,9)                  1.1101         calculate D2E/DX2 analytically  !
 ! R9    R(4,10)                 1.1052         calculate D2E/DX2 analytically  !
 ! R10   R(4,11)                 1.1237         calculate D2E/DX2 analytically  !
 ! R11   R(5,12)                 1.1299         calculate D2E/DX2 analytically  !
 ! R12   R(5,13)                 1.11           calculate D2E/DX2 analytically  !
 ! R13   R(5,14)                 1.1267         calculate D2E/DX2 analytically  !
 ! R14   R(6,7)                  1.3016         calculate D2E/DX2 analytically  !
 ! R15   R(6,15)                 1.1017         calculate D2E/DX2 analytically  !
 ! R16   R(7,16)                 1.08           calculate D2E/DX2 analytically  !
 ! A1    A(3,1,6)              117.0761         calculate D2E/DX2 analytically  !
 ! A2    A(7,2,17)             107.1177         calculate D2E/DX2 analytically  !
 ! A3    A(1,3,4)              108.2356         calculate D2E/DX2 analytically  !
 ! A4    A(1,3,5)              111.9976         calculate D2E/DX2 analytically  !
 ! A5    A(1,3,8)              108.4989         calculate D2E/DX2 analytically  !
 ! A6    A(4,3,5)              112.3864         calculate D2E/DX2 analytically  !
 ! A7    A(4,3,8)              107.0559         calculate D2E/DX2 analytically  !
 ! A8    A(5,3,8)              108.4836         calculate D2E/DX2 analytically  !
 ! A9    A(3,4,9)              111.2125         calculate D2E/DX2 analytically  !
 ! A10   A(3,4,10)             110.6549         calculate D2E/DX2 analytically  !
 ! A11   A(3,4,11)             110.8999         calculate D2E/DX2 analytically  !
 ! A12   A(9,4,10)             107.9771         calculate D2E/DX2 analytically  !
 ! A13   A(9,4,11)             108.0407         calculate D2E/DX2 analytically  !
 ! A14   A(10,4,11)            107.9268         calculate D2E/DX2 analytically  !
 ! A15   A(3,5,12)             111.2503         calculate D2E/DX2 analytically  !
 ! A16   A(3,5,13)             111.3754         calculate D2E/DX2 analytically  !
 ! A17   A(3,5,14)             111.3401         calculate D2E/DX2 analytically  !
 ! A18   A(12,5,13)            107.6797         calculate D2E/DX2 analytically  !
 ! A19   A(12,5,14)            107.5727         calculate D2E/DX2 analytically  !
 ! A20   A(13,5,14)            107.424          calculate D2E/DX2 analytically  !
 ! A21   A(1,6,7)              132.5458         calculate D2E/DX2 analytically  !
 ! A22   A(1,6,15)             109.5676         calculate D2E/DX2 analytically  !
 ! A23   A(7,6,15)             117.8855         calculate D2E/DX2 analytically  !
 ! A24   A(2,7,6)              129.9037         calculate D2E/DX2 analytically  !
 ! A25   A(2,7,16)             111.0017         calculate D2E/DX2 analytically  !
 ! A26   A(6,7,16)             119.0943         calculate D2E/DX2 analytically  !
 ! D1    D(6,1,3,4)           -147.3127         calculate D2E/DX2 analytically  !
 ! D2    D(6,1,3,5)             88.2451         calculate D2E/DX2 analytically  !
 ! D3    D(6,1,3,8)            -31.4719         calculate D2E/DX2 analytically  !
 ! D4    D(3,1,6,7)             -9.6536         calculate D2E/DX2 analytically  !
 ! D5    D(3,1,6,15)           170.7336         calculate D2E/DX2 analytically  !
 ! D6    D(17,2,7,6)            -6.8342         calculate D2E/DX2 analytically  !
 ! D7    D(17,2,7,16)          173.3608         calculate D2E/DX2 analytically  !
 ! D8    D(1,3,4,9)            -51.5346         calculate D2E/DX2 analytically  !
 ! D9    D(1,3,4,10)            68.4734         calculate D2E/DX2 analytically  !
 ! D10   D(1,3,4,11)          -171.7868         calculate D2E/DX2 analytically  !
 ! D11   D(5,3,4,9)             72.6752         calculate D2E/DX2 analytically  !
 ! D12   D(5,3,4,10)          -167.3167         calculate D2E/DX2 analytically  !
 ! D13   D(5,3,4,11)           -47.5769         calculate D2E/DX2 analytically  !
 ! D14   D(8,3,4,9)           -168.3113         calculate D2E/DX2 analytically  !
 ! D15   D(8,3,4,10)           -48.3033         calculate D2E/DX2 analytically  !
 ! D16   D(8,3,4,11)            71.4365         calculate D2E/DX2 analytically  !
 ! D17   D(1,3,5,12)            43.1587         calculate D2E/DX2 analytically  !
 ! D18   D(1,3,5,13)           -76.9825         calculate D2E/DX2 analytically  !
 ! D19   D(1,3,5,14)           163.1402         calculate D2E/DX2 analytically  !
 ! D20   D(4,3,5,12)           -78.9413         calculate D2E/DX2 analytically  !
 ! D21   D(4,3,5,13)           160.9175         calculate D2E/DX2 analytically  !
 ! D22   D(4,3,5,14)            41.0402         calculate D2E/DX2 analytically  !
 ! D23   D(8,3,5,12)           162.8846         calculate D2E/DX2 analytically  !
 ! D24   D(8,3,5,13)            42.7435         calculate D2E/DX2 analytically  !
 ! D25   D(8,3,5,14)           -77.1338         calculate D2E/DX2 analytically  !
 ! D26   D(1,6,7,2)             -1.21           calculate D2E/DX2 analytically  !
 ! D27   D(1,6,7,16)           178.5817         calculate D2E/DX2 analytically  !
 ! D28   D(15,6,7,2)           178.3772         calculate D2E/DX2 analytically  !
 ! D29   D(15,6,7,16)           -1.8311         calculate D2E/DX2 analytically  !
 --------------------------------------------------------------------------------
 Trust Radius=3.00D-01 FncErr=1.00D-07 GrdErr=1.00D-06 EigMax=2.50D+02 EigMin=1.00D-04
 Number of steps in this run=    102 maximum allowed number of steps=    102.
 GradGradGradGradGradGradGradGradGradGradGradGradGradGradGradGradGradGrad

 Leave Link  103 at Sun Sep 29 08:55:03 2019, MaxMem=   671088640 cpu:               1.8 elap:               0.9
 (Enter /shared/centos7/gaussian/g16/l202.exe)
                          Input orientation:                          
 ---------------------------------------------------------------------
 Center     Atomic      Atomic             Coordinates (Angstroms)
 Number     Number       Type             X           Y           Z
 ---------------------------------------------------------------------
      1          8           0        0.937393    0.965723    2.592115
      2          8           0        0.604774    0.805597   -0.508289
      3          6           0        0.449064    2.187651    2.079961
      4          6           0        0.827857    3.301147    3.056514
      5          6           0       -1.020144    2.136856    1.817441
      6          6           0        1.336696    0.018099    1.677533
      7          6           0        1.216144   -0.062448    0.384075
      8          1           0        0.977405    2.405044    1.110455
      9          1           0        0.517346    3.049884    4.092207
     10          1           0        1.921125    3.463165    3.057994
     11          1           0        0.335062    4.269721    2.770774
     12          1           0       -1.569613    1.625418    2.661953
     13          1           0       -1.245238    1.581049    0.883371
     14          1           0       -1.452962    3.171296    1.707147
     15          1           0        1.844566   -0.808144    2.200149
     16          1           0        1.639656   -0.912052   -0.130932
     17          1           0        0.141288    1.507521    0.034174
 ---------------------------------------------------------------------
                    Distance matrix (angstroms):
                    1          2          3          4          5
     1  O    0.000000
     2  O    3.122304   0.000000
     3  C    1.412047   2.938257   0.000000
     4  C    2.383668   4.357218   1.528729   0.000000
     5  C    2.409072   3.133947   1.493342   2.511172   0.000000
     6  C    1.376189   2.435914   2.378402   3.597070   3.172286
     7  C    2.451586   1.386935   2.920168   4.313521   3.448544
     8  H    2.066051   2.305952   1.125320   2.147675   2.135874
     9  H    2.602007   5.119475   2.190261   1.110050   2.893451
    10  H    2.724333   4.638299   2.179552   1.105209   3.456751
    11  H    3.363203   4.777568   2.196642   1.123668   2.700841
    12  H    2.593291   3.930712   2.174828   2.951544   1.129905
    13  H    2.839421   2.441431   2.161123   3.461070   1.109989
    14  H    3.370686   3.839136   2.173534   2.653260   1.126748
    15  H    2.030567   3.387754   3.307062   4.318951   4.126264
    16  H    3.381449   2.040514   3.989200   5.345079   4.490716
    17  H    2.733202   1.000891   2.177739   3.580923   2.219240
                    6          7          8          9         10
     6  C    0.000000
     7  C    1.301558   0.000000
     8  H    2.479551   2.583242   0.000000
     9  H    3.961528   4.891336   3.085177   0.000000
    10  H    3.757088   4.480712   2.408969   1.791924   0.000000
    11  H    4.502748   5.023975   2.578039   1.807600   1.802394
    12  H    3.463984   3.974677   3.082575   2.903469   3.964771
    13  H    3.120879   3.001462   2.381318   3.944719   4.277522
    14  H    4.210192   4.396787   2.617226   3.096024   3.646154
    15  H    1.101697   2.061334   3.501996   4.497308   4.357274
    16  H    2.056091   1.080011   3.603157   5.898425   5.421346
    17  H    2.519525   1.934567   1.631876   4.357515   4.016945
                   11         12         13         14         15
    11  H    0.000000
    12  H    3.260670   0.000000
    13  H    3.645352   1.808464   0.000000
    14  H    2.352630   1.820714   1.802953   0.000000
    15  H    5.328127   4.218069   4.121775   5.191597   0.000000
    16  H    6.080513   4.953622   3.945500   5.442109   2.342375
    17  H    3.893106   3.137882   1.627573   2.847563   3.599293
                   16         17
    16  H    0.000000
    17  H    2.850737   0.000000
 Stoichiometry    C5H10O2
 Framework group  C1[X(C5H10O2)]
 Deg. of freedom    45
 Full point group                 C1      NOp   1
 Largest Abelian subgroup         C1      NOp   1
 Largest concise Abelian subgroup C1      NOp   1
                         Standard orientation:                         
 ---------------------------------------------------------------------
 Center     Atomic      Atomic             Coordinates (Angstroms)
 Number     Number       Type             X           Y           Z
 ---------------------------------------------------------------------
      1          8           0        0.264751   -1.039419    0.421862
      2          8           0       -1.829397    1.063252   -0.548755
      3          6           0        0.910011    0.076693   -0.154168
      4          6           0        2.283922   -0.370248   -0.653793
      5          6           0        0.996480    1.225046    0.796557
      6          6           0       -1.105185   -1.099902    0.305621
      7          6           0       -1.992467   -0.240335   -0.104169
      8          1           0        0.321209    0.403508   -1.055750
      9          1           0        2.847918   -0.900026    0.142107
     10          1           0        2.181613   -1.056661   -1.513941
     11          1           0        2.896035    0.511591   -0.985917
     12          1           0        1.294215    0.879373    1.830264
     13          1           0        0.023319    1.751640    0.884476
     14          1           0        1.759917    1.981295    0.457716
     15          1           0       -1.461033   -2.086064    0.644137
     16          1           0       -3.032727   -0.529760   -0.126847
     17          1           0       -0.869871    1.306918   -0.401381
 ---------------------------------------------------------------------
 Rotational constants (GHZ):           4.2838814           1.8651504           1.5474488
 Leave Link  202 at Sun Sep 29 08:55:05 2019, MaxMem=   671088640 cpu:               3.9 elap:               2.0
 (Enter /shared/centos7/gaussian/g16/l301.exe)
 Standard basis: CC-pVTZ (5D, 7F)
 Ernie: Thresh=  0.10000D-02 Tol=  0.10000D-05 Strict=F.
 Ernie:  21 primitive shells out of 262 were deleted.
 There are   395 symmetry adapted cartesian basis functions of A   symmetry.
 There are   350 symmetry adapted basis functions of A   symmetry.
   350 basis functions,   534 primitive gaussians,   395 cartesian basis functions
    28 alpha electrons       28 beta electrons
       nuclear repulsion energy       323.2218620875 Hartrees.
 IExCor= 4336 DFT=T Ex+Corr=M062X ExCW=0 ScaHFX=  0.540000
 ScaDFX=  1.000000  1.000000  1.000000  1.000000 ScalE2=  1.000000  1.000000
 IRadAn=      5 IRanWt=     -1 IRanGd=            0 ICorTp=0 IEmpDi=  4
 NAtoms=   17 NActive=   17 NUniq=   17 SFac= 1.00D+00 NAtFMM=   60 NAOKFM=F Big=F
 Integral buffers will be    131072 words long.
 Raffenetti 2 integral format.
 Two-electron integral symmetry is turned on.
 Leave Link  301 at Sun Sep 29 08:55:05 2019, MaxMem=   671088640 cpu:               1.7 elap:               0.9
 (Enter /shared/centos7/gaussian/g16/l302.exe)
 NPDir=0 NMtPBC=     1 NCelOv=     1 NCel=       1 NClECP=     1 NCelD=      1
         NCelK=      1 NCelE2=     1 NClLst=     1 CellRange=     0.0.
 One-electron integrals computed using PRISM.
 One-electron integral symmetry used in STVInt
 NBasis=   350 RedAO= T EigKep=  3.27D-04  NBF=   350
 NBsUse=   350 1.00D-06 EigRej= -1.00D+00 NBFU=   350
 Precomputing XC quadrature grid using
 IXCGrd= 4 IRadAn=           5 IRanWt=          -1 IRanGd=           0 AccXCQ= 0.00D+00.
 Generated NRdTot=       0 NPtTot=           0 NUsed=           0 NTot=          32
 NSgBfM=   395   395   395   395   395 MxSgAt=    17 MxSgA2=    17.
 Leave Link  302 at Sun Sep 29 08:56:09 2019, MaxMem=   671088640 cpu:             127.0 elap:              63.5
 (Enter /shared/centos7/gaussian/g16/l303.exe)
 DipDrv:  MaxL=1.
 Leave Link  303 at Sun Sep 29 08:56:14 2019, MaxMem=   671088640 cpu:               9.6 elap:               4.8
 (Enter /shared/centos7/gaussian/g16/l401.exe)
 ExpMin= 1.03D-01 ExpMax= 1.53D+04 ExpMxC= 5.22D+02 IAcc=3 IRadAn=         5 AccDes= 0.00D+00
 Harris functional with IExCor= 1009 and IRadAn=       5 diagonalized for initial guess.
 HarFok:  IExCor= 1009 AccDes= 0.00D+00 IRadAn=         5 IDoV= 1 UseB2=F ITyADJ=14
 ICtDFT=  3500011 ScaDFX=  1.000000  1.000000  1.000000  1.000000
 FoFCou: FMM=F IPFlag=           0 FMFlag=      100000 FMFlg1=           0
         NFxFlg=           0 DoJE=T BraDBF=F KetDBF=T FulRan=T
         wScrn=  0.000000 ICntrl=       500 IOpCl=  0 I1Cent=   200000004 NGrid=           0
         NMat0=    1 NMatS0=      1 NMatT0=    0 NMatD0=    1 NMtDS0=    0 NMtDT0=    0
 Petite list used in FoFCou.
 Harris En= -346.798716818897    
 JPrj=0 DoOrth=F DoCkMO=F.
 Leave Link  401 at Sun Sep 29 08:56:50 2019, MaxMem=   671088640 cpu:              71.4 elap:              35.7
 (Enter /shared/centos7/gaussian/g16/l502.exe)
 Integral symmetry usage will be decided dynamically.
 Closed shell SCF:
 Using DIIS extrapolation, IDIIS=  1040.
 NGot=   671088640 LenX=   670765141 LenY=   670608675
 Requested convergence on RMS density matrix=1.00D-08 within 900 cycles.
 Requested convergence on MAX density matrix=1.00D-06.
 Requested convergence on             energy=1.00D-06.
 No special actions if energy rises.
 Fock matrices will be formed incrementally for  20 cycles.
 Integral accuracy reduced to 1.0D-05 until final iterations.

 Cycle   1  Pass 0  IDiag  1:
 FoFJK:  IHMeth= 1 ICntrl=       0 DoSepK=F KAlg= 0 I1Cent=           0 FoldK=F
 IRaf= 970000000 NMat=       1 IRICut=       1 DoRegI=T DoRafI=F ISym2E= 0 IDoP0=0 IntGTp=1.
 FoFCou: FMM=F IPFlag=           0 FMFlag=      100000 FMFlg1=           0
         NFxFlg=           0 DoJE=F BraDBF=F KetDBF=F FulRan=T
         wScrn=  0.000000 ICntrl=         0 IOpCl=  0 I1Cent=           0 NGrid=           0
         NMat0=    1 NMatS0=      1 NMatT0=    0 NMatD0=    1 NMtDS0=    0 NMtDT0=    0
 Symmetry not used in FoFCou.
 E= -346.707561147006    
 DIIS: error= 1.81D-02 at cycle   1 NSaved=   1.
 NSaved= 1 IEnMin= 1 EnMin= -346.707561147006     IErMin= 1 ErrMin= 1.81D-02
 ErrMax= 1.81D-02  0.00D+00 EMaxC= 1.00D-01 BMatC= 2.76D-01 BMatP= 2.76D-01
 IDIUse=3 WtCom= 8.19D-01 WtEn= 1.81D-01
 Coeff-Com:  0.100D+01
 Coeff-En:   0.100D+01
 Coeff:      0.100D+01
 Gap=     0.368 Goal=   None    Shift=    0.000
 GapD=    0.368 DampG=1.000 DampE=0.500 DampFc=0.5000 IDamp=-1.
 Damping current iteration by 5.00D-01
 RMSDP=1.76D-03 MaxDP=7.79D-02              OVMax= 1.30D-01

 Cycle   2  Pass 0  IDiag  1:
 RMSU=  8.78D-04    CP:  9.99D-01
 E= -346.822045204956     Delta-E=       -0.114484057950 Rises=F Damp=T
 DIIS: error= 3.83D-03 at cycle   2 NSaved=   2.
 NSaved= 2 IEnMin= 2 EnMin= -346.822045204956     IErMin= 2 ErrMin= 3.83D-03
 ErrMax= 3.83D-03  0.00D+00 EMaxC= 1.00D-01 BMatC= 2.10D-02 BMatP= 2.76D-01
 IDIUse=3 WtCom= 9.62D-01 WtEn= 3.83D-02
 Coeff-Com: -0.156D+00 0.116D+01
 Coeff-En:   0.000D+00 0.100D+01
 Coeff:     -0.150D+00 0.115D+01
 Gap=     0.332 Goal=   None    Shift=    0.000
 RMSDP=4.03D-04 MaxDP=1.47D-02 DE=-1.14D-01 OVMax= 6.57D-02

 Cycle   3  Pass 0  IDiag  1:
 RMSU=  4.01D-04    CP:  1.00D+00  1.04D+00
 E= -346.922679215515     Delta-E=       -0.100634010559 Rises=F Damp=F
 DIIS: error= 1.86D-03 at cycle   3 NSaved=   3.
 NSaved= 3 IEnMin= 3 EnMin= -346.922679215515     IErMin= 3 ErrMin= 1.86D-03
 ErrMax= 1.86D-03  0.00D+00 EMaxC= 1.00D-01 BMatC= 2.93D-03 BMatP= 2.10D-02
 IDIUse=3 WtCom= 9.81D-01 WtEn= 1.86D-02
 Coeff-Com: -0.833D-01 0.296D+00 0.788D+00
 Coeff-En:   0.000D+00 0.000D+00 0.100D+01
 Coeff:     -0.817D-01 0.290D+00 0.791D+00
 Gap=     0.333 Goal=   None    Shift=    0.000
 RMSDP=1.27D-04 MaxDP=4.87D-03 DE=-1.01D-01 OVMax= 1.47D-02

 Cycle   4  Pass 0  IDiag  1:
 RMSU=  1.04D-04    CP:  1.00D+00  1.10D+00  8.99D-01
 E= -346.924210563366     Delta-E=       -0.001531347851 Rises=F Damp=F
 DIIS: error= 9.78D-04 at cycle   4 NSaved=   4.
 NSaved= 4 IEnMin= 4 EnMin= -346.924210563366     IErMin= 4 ErrMin= 9.78D-04
 ErrMax= 9.78D-04  0.00D+00 EMaxC= 1.00D-01 BMatC= 9.21D-04 BMatP= 2.93D-03
 IDIUse=3 WtCom= 9.90D-01 WtEn= 9.78D-03
 Coeff-Com: -0.281D-01 0.731D-01 0.403D+00 0.552D+00
 Coeff-En:   0.000D+00 0.000D+00 0.201D+00 0.799D+00
 Coeff:     -0.279D-01 0.724D-01 0.401D+00 0.554D+00
 Gap=     0.329 Goal=   None    Shift=    0.000
 RMSDP=5.56D-05 MaxDP=2.27D-03 DE=-1.53D-03 OVMax= 7.71D-03

 Cycle   5  Pass 0  IDiag  1:
 RMSU=  2.84D-05    CP:  1.00D+00  1.10D+00  9.41D-01  5.76D-01
 E= -346.924892291705     Delta-E=       -0.000681728339 Rises=F Damp=F
 DIIS: error= 2.12D-04 at cycle   5 NSaved=   5.
 NSaved= 5 IEnMin= 5 EnMin= -346.924892291705     IErMin= 5 ErrMin= 2.12D-04
 ErrMax= 2.12D-04  0.00D+00 EMaxC= 1.00D-01 BMatC= 2.97D-05 BMatP= 9.21D-04
 IDIUse=3 WtCom= 9.98D-01 WtEn= 2.12D-03
 Coeff-Com: -0.524D-02 0.103D-01 0.108D+00 0.223D+00 0.664D+00
 Coeff-En:   0.000D+00 0.000D+00 0.000D+00 0.000D+00 0.100D+01
 Coeff:     -0.523D-02 0.103D-01 0.108D+00 0.222D+00 0.665D+00
 Gap=     0.329 Goal=   None    Shift=    0.000
 RMSDP=1.26D-05 MaxDP=3.57D-04 DE=-6.82D-04 OVMax= 1.82D-03

 Cycle   6  Pass 0  IDiag  1:
 RMSU=  8.49D-06    CP:  1.00D+00  1.10D+00  9.49D-01  6.31D-01  7.70D-01
 E= -346.924914838315     Delta-E=       -0.000022546610 Rises=F Damp=F
 DIIS: error= 6.07D-05 at cycle   6 NSaved=   6.
 NSaved= 6 IEnMin= 6 EnMin= -346.924914838315     IErMin= 6 ErrMin= 6.07D-05
 ErrMax= 6.07D-05  0.00D+00 EMaxC= 1.00D-01 BMatC= 2.19D-06 BMatP= 2.97D-05
 IDIUse=1 WtCom= 1.00D+00 WtEn= 0.00D+00
 Coeff-Com: -0.232D-03-0.717D-03 0.190D-01 0.611D-01 0.267D+00 0.654D+00
 Coeff:     -0.232D-03-0.717D-03 0.190D-01 0.611D-01 0.267D+00 0.654D+00
 Gap=     0.329 Goal=   None    Shift=    0.000
 RMSDP=3.76D-06 MaxDP=1.39D-04 DE=-2.25D-05 OVMax= 4.89D-04

 Initial convergence to 1.0D-05 achieved.  Increase integral accuracy.
 Cycle   7  Pass 1  IDiag  1:
 E= -346.924914857553     Delta-E=       -0.000000019238 Rises=F Damp=F
 DIIS: error= 2.53D-05 at cycle   1 NSaved=   1.
 NSaved= 1 IEnMin= 1 EnMin= -346.924914857553     IErMin= 1 ErrMin= 2.53D-05
 ErrMax= 2.53D-05  0.00D+00 EMaxC= 1.00D-01 BMatC= 7.54D-07 BMatP= 7.54D-07
 IDIUse=1 WtCom= 1.00D+00 WtEn= 0.00D+00
 Coeff-Com:  0.100D+01
 Coeff:      0.100D+01
 Gap=     0.329 Goal=   None    Shift=    0.000
 RMSDP=3.76D-06 MaxDP=1.39D-04 DE=-1.92D-08 OVMax= 4.10D-04

 Cycle   8  Pass 1  IDiag  1:
 RMSU=  7.31D-06    CP:  1.00D+00
 E= -346.924914952193     Delta-E=       -0.000000094640 Rises=F Damp=F
 DIIS: error= 2.72D-05 at cycle   2 NSaved=   2.
 NSaved= 2 IEnMin= 2 EnMin= -346.924914952193     IErMin= 1 ErrMin= 2.53D-05
 ErrMax= 2.72D-05  0.00D+00 EMaxC= 1.00D-01 BMatC= 4.86D-07 BMatP= 7.54D-07
 IDIUse=1 WtCom= 1.00D+00 WtEn= 0.00D+00
 Coeff-Com:  0.428D+00 0.572D+00
 Coeff:      0.428D+00 0.572D+00
 Gap=     0.329 Goal=   None    Shift=    0.000
 RMSDP=1.81D-06 MaxDP=6.92D-05 DE=-9.46D-08 OVMax= 3.12D-04

 Cycle   9  Pass 1  IDiag  1:
 RMSU=  1.77D-06    CP:  1.00D+00  9.51D-01
 E= -346.924915275374     Delta-E=       -0.000000323181 Rises=F Damp=F
 DIIS: error= 1.17D-05 at cycle   3 NSaved=   3.
 NSaved= 3 IEnMin= 3 EnMin= -346.924915275374     IErMin= 3 ErrMin= 1.17D-05
 ErrMax= 1.17D-05  0.00D+00 EMaxC= 1.00D-01 BMatC= 7.69D-08 BMatP= 4.86D-07
 IDIUse=1 WtCom= 1.00D+00 WtEn= 0.00D+00
 Coeff-Com: -0.924D-02 0.279D+00 0.730D+00
 Coeff:     -0.924D-02 0.279D+00 0.730D+00
 Gap=     0.329 Goal=   None    Shift=    0.000
 RMSDP=5.64D-07 MaxDP=2.10D-05 DE=-3.23D-07 OVMax= 1.01D-04

 Cycle  10  Pass 1  IDiag  1:
 RMSU=  2.37D-07    CP:  1.00D+00  9.87D-01  7.53D-01
 E= -346.924915335319     Delta-E=       -0.000000059944 Rises=F Damp=F
 DIIS: error= 1.76D-06 at cycle   4 NSaved=   4.
 NSaved= 4 IEnMin= 4 EnMin= -346.924915335319     IErMin= 4 ErrMin= 1.76D-06
 ErrMax= 1.76D-06  0.00D+00 EMaxC= 1.00D-01 BMatC= 1.90D-09 BMatP= 7.69D-08
 IDIUse=1 WtCom= 1.00D+00 WtEn= 0.00D+00
 Coeff-Com: -0.128D-01 0.104D+00 0.311D+00 0.598D+00
 Coeff:     -0.128D-01 0.104D+00 0.311D+00 0.598D+00
 Gap=     0.329 Goal=   None    Shift=    0.000
 RMSDP=8.28D-08 MaxDP=4.36D-06 DE=-5.99D-08 OVMax= 8.78D-06

 Cycle  11  Pass 1  IDiag  1:
 RMSU=  7.79D-08    CP:  1.00D+00  9.89D-01  7.66D-01  9.38D-01
 E= -346.924915336869     Delta-E=       -0.000000001551 Rises=F Damp=F
 DIIS: error= 3.29D-07 at cycle   5 NSaved=   5.
 NSaved= 5 IEnMin= 5 EnMin= -346.924915336869     IErMin= 5 ErrMin= 3.29D-07
 ErrMax= 3.29D-07  0.00D+00 EMaxC= 1.00D-01 BMatC= 9.68D-11 BMatP= 1.90D-09
 IDIUse=1 WtCom= 1.00D+00 WtEn= 0.00D+00
 Coeff-Com: -0.206D-02-0.806D-02-0.459D-02 0.139D+00 0.876D+00
 Coeff:     -0.206D-02-0.806D-02-0.459D-02 0.139D+00 0.876D+00
 Gap=     0.329 Goal=   None    Shift=    0.000
 RMSDP=3.34D-08 MaxDP=1.49D-06 DE=-1.55D-09 OVMax= 2.44D-06

 Cycle  12  Pass 1  IDiag  1:
 RMSU=  2.37D-08    CP:  1.00D+00  9.89D-01  7.72D-01  1.02D+00  1.05D+00
 E= -346.924915336998     Delta-E=       -0.000000000129 Rises=F Damp=F
 DIIS: error= 2.03D-07 at cycle   6 NSaved=   6.
 NSaved= 6 IEnMin= 6 EnMin= -346.924915336998     IErMin= 6 ErrMin= 2.03D-07
 ErrMax= 2.03D-07  0.00D+00 EMaxC= 1.00D-01 BMatC= 1.75D-11 BMatP= 9.68D-11
 IDIUse=1 WtCom= 1.00D+00 WtEn= 0.00D+00
 Coeff-Com:  0.600D-03-0.145D-01-0.346D-01-0.752D-02 0.360D+00 0.696D+00
 Coeff:      0.600D-03-0.145D-01-0.346D-01-0.752D-02 0.360D+00 0.696D+00
 Gap=     0.329 Goal=   None    Shift=    0.000
 RMSDP=1.25D-08 MaxDP=4.79D-07 DE=-1.29D-10 OVMax= 1.22D-06

 Cycle  13  Pass 1  IDiag  1:
 RMSU=  8.14D-09    CP:  1.00D+00  9.89D-01  7.73D-01  1.05D+00  1.12D+00
                    CP:  8.58D-01
 E= -346.924915337011     Delta-E=       -0.000000000013 Rises=F Damp=F
 DIIS: error= 6.89D-08 at cycle   7 NSaved=   7.
 NSaved= 7 IEnMin= 7 EnMin= -346.924915337011     IErMin= 7 ErrMin= 6.89D-08
 ErrMax= 6.89D-08  0.00D+00 EMaxC= 1.00D-01 BMatC= 2.13D-12 BMatP= 1.75D-11
 IDIUse=1 WtCom= 1.00D+00 WtEn= 0.00D+00
 Coeff-Com:  0.460D-03-0.646D-02-0.166D-01-0.161D-01 0.952D-01 0.321D+00
 Coeff-Com:  0.623D+00
 Coeff:      0.460D-03-0.646D-02-0.166D-01-0.161D-01 0.952D-01 0.321D+00
 Coeff:      0.623D+00
 Gap=     0.329 Goal=   None    Shift=    0.000
 RMSDP=3.26D-09 MaxDP=1.30D-07 DE=-1.31D-11 OVMax= 3.30D-07

 SCF Done:  E(RM062X) =  -346.924915337     A.U. after   13 cycles
            NFock= 13  Conv=0.33D-08     -V/T= 2.0062
 KE= 3.447791350538D+02 PE=-1.456053943060D+03 EE= 4.411280305817D+02
 Leave Link  502 at Sun Sep 29 09:12:16 2019, MaxMem=   671088640 cpu:            1852.7 elap:             926.8
 (Enter /shared/centos7/gaussian/g16/l801.exe)
 DoSCS=F DFT=T ScalE2(SS,OS)=  1.000000  1.000000
 Range of M.O.s used for correlation:     1   350
 NBasis=   350 NAE=    28 NBE=    28 NFC=     0 NFV=     0
 NROrb=    350 NOA=    28 NOB=    28 NVA=   322 NVB=   322

 **** Warning!!: The largest alpha MO coefficient is  0.11203294D+02

 Leave Link  801 at Sun Sep 29 09:12:17 2019, MaxMem=   671088640 cpu:               1.9 elap:               1.0
 (Enter /shared/centos7/gaussian/g16/l1101.exe)
 Using compressed storage, NAtomX=    17.
 Will process     18 centers per pass.
 Leave Link 1101 at Sun Sep 29 09:12:48 2019, MaxMem=   671088640 cpu:              61.3 elap:              30.6
 (Enter /shared/centos7/gaussian/g16/l1102.exe)
 Symmetrizing basis deriv contribution to polar:
 IMax=3 JMax=2 DiffMx= 0.00D+00
 Leave Link 1102 at Sun Sep 29 09:12:52 2019, MaxMem=   671088640 cpu:               8.2 elap:               4.2
 (Enter /shared/centos7/gaussian/g16/l1110.exe)
 Forming Gx(P) for the SCF density, NAtomX=    17.
 Integral derivatives from FoFJK, PRISM(SPDF).
 Do as many integral derivatives as possible in FoFJK.
 G2DrvN: MDV=     671087280.
 G2DrvN: will do    18 centers at a time, making    1 passes.
 Calling FoFCou, ICntrl=  3107 FMM=F I1Cent=   0 AccDes= 0.00D+00.
 FoFJK:  IHMeth= 1 ICntrl=    3107 DoSepK=F KAlg= 0 I1Cent=           0 FoldK=F
 IRaf=         0 NMat=       1 IRICut=       1 DoRegI=T DoRafI=F ISym2E= 0 IDoP0=0 IntGTp=1.
 FoFCou: FMM=F IPFlag=           0 FMFlag=      100000 FMFlg1=           0
         NFxFlg=           0 DoJE=F BraDBF=F KetDBF=F FulRan=T
         wScrn=  0.000000 ICntrl=      3107 IOpCl=  0 I1Cent=           0 NGrid=           0
         NMat0=    1 NMatS0=      1 NMatT0=    0 NMatD0=    1 NMtDS0=    0 NMtDT0=    0
 Symmetry not used in FoFCou.
 End of G2Drv F.D. properties file   721 does not exist.
 End of G2Drv F.D. properties file   722 does not exist.
 End of G2Drv F.D. properties file   788 does not exist.
 Leave Link 1110 at Sun Sep 29 09:39:09 2019, MaxMem=   671088640 cpu:            3153.3 elap:            1577.1
 (Enter /shared/centos7/gaussian/g16/l1002.exe)
 Minotr:  Closed shell wavefunction.
          IDoAtm=11111111111111111
          Direct CPHF calculation.
          Differentiating once with respect to nuclear coordinates.
          Requested convergence is 1.0D-08 RMS, and 1.0D-07 maximum.
          Secondary convergence is 1.0D-12 RMS, and 1.0D-12 maximum.
          NewPWx=T KeepS1=F KeepF1=F KeepIn=T MapXYZ=F SortEE=F KeepMc=T.
         5088 words used for storage of precomputed grid.
 Two-electron integrals replicated using symmetry.
          MDV=     671088640 using IRadAn=       1.
          Solving linear equations simultaneously, MaxMat=     380.
 FoF2E skips out because all densities are zero.
 CalDSu exits because no D1Ps are significant.
 FoFJK:  IHMeth= 1 ICntrl=       0 DoSepK=F KAlg= 0 I1Cent=           0 FoldK=F
 IRaf= 950000000 NMat=      51 IRICut=     127 DoRegI=T DoRafI=T ISym2E= 2 IDoP0=3 IntGTp=3.
 FoFCou: FMM=F IPFlag=           0 FMFlag=      100000 FMFlg1=           0
         NFxFlg=           0 DoJE=F BraDBF=F KetDBF=F FulRan=T
         wScrn=  0.000000 ICntrl=         0 IOpCl=  0 I1Cent=           0 NGrid=           0
         NMat0=   51 NMatS0=     51 NMatT0=    0 NMatD0=   51 NMtDS0=    0 NMtDT0=    0
 Integrals replicated using symmetry in FoFCou.
 Raff kept on since  92.64% of shell-pairs survive, threshold=   0.20 IRatSp=93.
          There are    54 degrees of freedom in the 1st order CPHF.  IDoFFX=6 NUNeed=     0.
     48 vectors produced by pass  0 Test12= 1.67D-14 1.85D-09 XBig12= 7.11D-02 4.81D-02.
 AX will form    48 AO Fock derivatives at one time.
     48 vectors produced by pass  1 Test12= 1.67D-14 1.85D-09 XBig12= 9.15D-03 3.12D-02.
     48 vectors produced by pass  2 Test12= 1.67D-14 1.85D-09 XBig12= 3.14D-04 2.41D-03.
     48 vectors produced by pass  3 Test12= 1.67D-14 1.85D-09 XBig12= 4.92D-06 2.61D-04.
     48 vectors produced by pass  4 Test12= 1.67D-14 1.85D-09 XBig12= 3.61D-08 1.71D-05.
     48 vectors produced by pass  5 Test12= 1.67D-14 1.85D-09 XBig12= 1.92D-10 1.67D-06.
     27 vectors produced by pass  6 Test12= 1.67D-14 1.85D-09 XBig12= 9.28D-13 9.25D-08.
      6 vectors produced by pass  7 Test12= 1.67D-14 1.85D-09 XBig12= 3.79D-15 7.37D-09.
 InvSVY:  IOpt=1 It=  1 EMax= 2.50D-16
 Solved reduced A of dimension   321 with    54 vectors.
 End of Minotr F.D. properties file   721 does not exist.
 End of Minotr F.D. properties file   722 does not exist.
 End of Minotr F.D. properties file   788 does not exist.
 Leave Link 1002 at Sun Sep 29 10:24:42 2019, MaxMem=   671088640 cpu:            5463.3 elap:            2732.3
 (Enter /shared/centos7/gaussian/g16/l601.exe)
 Copying SCF densities to generalized density rwf, IOpCl= 0 IROHF=0.

 **********************************************************************

            Population analysis using the SCF density.

 **********************************************************************

 Orbital symmetries:
       Occupied  (A) (A) (A) (A) (A) (A) (A) (A) (A) (A) (A) (A)
                 (A) (A) (A) (A) (A) (A) (A) (A) (A) (A) (A) (A)
                 (A) (A) (A) (A)
       Virtual   (A) (A) (A) (A) (A) (A) (A) (A) (A) (A) (A) (A)
                 (A) (A) (A) (A) (A) (A) (A) (A) (A) (A) (A) (A)
                 (A) (A) (A) (A) (A) (A) (A) (A) (A) (A) (A) (A)
                 (A) (A) (A) (A) (A) (A) (A) (A) (A) (A) (A) (A)
                 (A) (A) (A) (A) (A) (A) (A) (A) (A) (A) (A) (A)
                 (A) (A) (A) (A) (A) (A) (A) (A) (A) (A) (A) (A)
                 (A) (A) (A) (A) (A) (A) (A) (A) (A) (A) (A) (A)
                 (A) (A) (A) (A) (A) (A) (A) (A) (A) (A) (A) (A)
                 (A) (A) (A) (A) (A) (A) (A) (A) (A) (A) (A) (A)
                 (A) (A) (A) (A) (A) (A) (A) (A) (A) (A) (A) (A)
                 (A) (A) (A) (A) (A) (A) (A) (A) (A) (A) (A) (A)
                 (A) (A) (A) (A) (A) (A) (A) (A) (A) (A) (A) (A)
                 (A) (A) (A) (A) (A) (A) (A) (A) (A) (A) (A) (A)
                 (A) (A) (A) (A) (A) (A) (A) (A) (A) (A) (A) (A)
                 (A) (A) (A) (A) (A) (A) (A) (A) (A) (A) (A) (A)
                 (A) (A) (A) (A) (A) (A) (A) (A) (A) (A) (A) (A)
                 (A) (A) (A) (A) (A) (A) (A) (A) (A) (A) (A) (A)
                 (A) (A) (A) (A) (A) (A) (A) (A) (A) (A) (A) (A)
                 (A) (A) (A) (A) (A) (A) (A) (A) (A) (A) (A) (A)
                 (A) (A) (A) (A) (A) (A) (A) (A) (A) (A) (A) (A)
                 (A) (A) (A) (A) (A) (A) (A) (A) (A) (A) (A) (A)
                 (A) (A) (A) (A) (A) (A) (A) (A) (A) (A) (A) (A)
                 (A) (A) (A) (A) (A) (A) (A) (A) (A) (A) (A) (A)
                 (A) (A) (A) (A) (A) (A) (A) (A) (A) (A) (A) (A)
                 (A) (A) (A) (A) (A) (A) (A) (A) (A) (A) (A) (A)
                 (A) (A) (A) (A) (A) (A) (A) (A) (A) (A) (A) (A)
                 (A) (A) (A) (A) (A) (A) (A) (A) (A) (A)
 The electronic state is 1-A.
 Alpha  occ. eigenvalues --  -19.65235 -19.64393 -10.61063 -10.58231 -10.58070
 Alpha  occ. eigenvalues --  -10.55088 -10.54301  -1.19243  -1.15768  -0.90879
 Alpha  occ. eigenvalues --   -0.84115  -0.79541  -0.71475  -0.67778  -0.60246
 Alpha  occ. eigenvalues --   -0.58186  -0.54653  -0.52128  -0.49482  -0.48687
 Alpha  occ. eigenvalues --   -0.46936  -0.45853  -0.44895  -0.43998  -0.42226
 Alpha  occ. eigenvalues --   -0.39829  -0.38590  -0.27191
 Alpha virt. eigenvalues --    0.05726   0.09023   0.09088   0.09971   0.10243
 Alpha virt. eigenvalues --    0.10889   0.13546   0.14230   0.15313   0.15659
 Alpha virt. eigenvalues --    0.16719   0.19009   0.19600   0.22352   0.23803
 Alpha virt. eigenvalues --    0.26547   0.29357   0.30238   0.31483   0.33138
 Alpha virt. eigenvalues --    0.35239   0.35713   0.36298   0.37608   0.38170
 Alpha virt. eigenvalues --    0.38355   0.40796   0.42219   0.43632   0.45829
 Alpha virt. eigenvalues --    0.46570   0.47885   0.48374   0.49139   0.49598
 Alpha virt. eigenvalues --    0.50654   0.51076   0.52248   0.52801   0.54407
 Alpha virt. eigenvalues --    0.55528   0.56869   0.61122   0.62973   0.65491
 Alpha virt. eigenvalues --    0.65633   0.67905   0.70929   0.72901   0.73631
 Alpha virt. eigenvalues --    0.75277   0.76766   0.78468   0.80791   0.83123
 Alpha virt. eigenvalues --    0.85219   0.85433   0.86980   0.88469   0.89621
 Alpha virt. eigenvalues --    0.91408   0.92875   0.94553   0.95489   0.98283
 Alpha virt. eigenvalues --    0.99689   1.01208   1.02719   1.03975   1.06743
 Alpha virt. eigenvalues --    1.07073   1.09808   1.11037   1.11418   1.12799
 Alpha virt. eigenvalues --    1.15318   1.18159   1.19706   1.21777   1.22079
 Alpha virt. eigenvalues --    1.24097   1.24938   1.25626   1.26897   1.28092
 Alpha virt. eigenvalues --    1.30396   1.31209   1.32241   1.32769   1.33210
 Alpha virt. eigenvalues --    1.34593   1.36211   1.37908   1.40662   1.41856
 Alpha virt. eigenvalues --    1.44525   1.46387   1.47375   1.50896   1.51693
 Alpha virt. eigenvalues --    1.53315   1.57291   1.58295   1.60097   1.61947
 Alpha virt. eigenvalues --    1.63407   1.67261   1.73408   1.78515   1.80781
 Alpha virt. eigenvalues --    1.95699   2.00610   2.01274   2.02116   2.06826
 Alpha virt. eigenvalues --    2.10541   2.13240   2.13390   2.15730   2.19403
 Alpha virt. eigenvalues --    2.24460   2.29397   2.30979   2.34127   2.34608
 Alpha virt. eigenvalues --    2.35618   2.37798   2.41206   2.41678   2.45939
 Alpha virt. eigenvalues --    2.49034   2.50646   2.51990   2.53693   2.57524
 Alpha virt. eigenvalues --    2.58532   2.60331   2.62017   2.65267   2.66858
 Alpha virt. eigenvalues --    2.69233   2.72144   2.74122   2.75201   2.77743
 Alpha virt. eigenvalues --    2.78661   2.81611   2.84066   2.84375   2.86489
 Alpha virt. eigenvalues --    2.87605   2.90988   2.91729   2.92908   2.93526
 Alpha virt. eigenvalues --    2.96442   2.96960   2.99022   2.99823   3.01840
 Alpha virt. eigenvalues --    3.02074   3.02926   3.05486   3.06385   3.07043
 Alpha virt. eigenvalues --    3.08714   3.10890   3.11651   3.12659   3.13368
 Alpha virt. eigenvalues --    3.14311   3.17984   3.19552   3.21553   3.24113
 Alpha virt. eigenvalues --    3.24835   3.25911   3.26982   3.28602   3.29494
 Alpha virt. eigenvalues --    3.30148   3.31989   3.34309   3.34389   3.35496
 Alpha virt. eigenvalues --    3.38527   3.39254   3.40529   3.41553   3.42468
 Alpha virt. eigenvalues --    3.44226   3.44977   3.48136   3.50849   3.52462
 Alpha virt. eigenvalues --    3.52997   3.55768   3.59506   3.63355   3.64081
 Alpha virt. eigenvalues --    3.66651   3.68189   3.69980   3.70818   3.72779
 Alpha virt. eigenvalues --    3.73323   3.75335   3.76288   3.78683   3.79063
 Alpha virt. eigenvalues --    3.80017   3.81811   3.84024   3.86198   3.86711
 Alpha virt. eigenvalues --    3.88269   3.89772   3.90586   3.92028   3.93961
 Alpha virt. eigenvalues --    3.96334   3.98008   3.99173   4.01743   4.02499
 Alpha virt. eigenvalues --    4.03462   4.04857   4.06458   4.08449   4.08897
 Alpha virt. eigenvalues --    4.12132   4.13742   4.14562   4.16541   4.19372
 Alpha virt. eigenvalues --    4.21901   4.24917   4.26296   4.27627   4.30761
 Alpha virt. eigenvalues --    4.32235   4.37721   4.41540   4.43746   4.45515
 Alpha virt. eigenvalues --    4.46558   4.48088   4.52007   4.57740   4.60326
 Alpha virt. eigenvalues --    4.62755   4.66125   4.67090   4.67401   4.69788
 Alpha virt. eigenvalues --    4.72539   4.73329   4.75776   4.77412   4.80570
 Alpha virt. eigenvalues --    4.83271   4.84686   4.88854   4.92498   4.93602
 Alpha virt. eigenvalues --    4.95987   4.97784   5.00816   5.01440   5.02055
 Alpha virt. eigenvalues --    5.05029   5.07547   5.08455   5.10479   5.16919
 Alpha virt. eigenvalues --    5.19984   5.21259   5.24245   5.25956   5.30206
 Alpha virt. eigenvalues --    5.32330   5.34529   5.39881   5.41583   5.44011
 Alpha virt. eigenvalues --    5.49754   5.54148   5.59884   5.67087   5.72590
 Alpha virt. eigenvalues --    5.75196   5.78052   5.78696   5.79348   5.83132
 Alpha virt. eigenvalues --    5.94060   6.05388   6.09943   6.21760   6.38034
 Alpha virt. eigenvalues --    6.41136   6.47963   6.60727   6.64821   6.69715
 Alpha virt. eigenvalues --    6.73951   6.79118   6.81912   6.90056   7.01221
 Alpha virt. eigenvalues --    7.07253   7.15118   7.25505   7.39616   7.40453
 Alpha virt. eigenvalues --   10.04903  11.21969  11.82039  12.27636  13.20793
 Alpha virt. eigenvalues --   13.31744  14.26631
          Condensed to atoms (all electrons):
               1          2          3          4          5          6
     1  O    7.843066   0.002944   0.259232  -0.039360  -0.045454   0.354668
     2  O    0.002944   7.788932  -0.008390   0.000503  -0.011401  -0.074509
     3  C    0.259232  -0.008390   4.947512   0.321811   0.324180  -0.044408
     4  C   -0.039360   0.000503   0.321811   4.957940  -0.058498   0.001224
     5  C   -0.045454  -0.011401   0.324180  -0.058498   5.049150  -0.001842
     6  C    0.354668  -0.074509  -0.044408   0.001224  -0.001842   4.984479
     7  C   -0.071009   0.331031  -0.006470   0.001429   0.005412   0.517645
     8  H   -0.041050   0.000671   0.407208  -0.041290  -0.066780  -0.006528
     9  H    0.000461  -0.000050  -0.034090   0.392181  -0.006631   0.000497
    10  H    0.001823   0.000047  -0.033493   0.402859   0.008331  -0.000547
    11  H    0.004051   0.000020  -0.046018   0.399055  -0.002497  -0.000230
    12  H    0.002316   0.000283  -0.032376  -0.003954   0.376774  -0.000510
    13  H    0.003243   0.006967  -0.037605   0.008274   0.384757  -0.001436
    14  H    0.004878   0.000423  -0.037908  -0.011430   0.396507   0.000316
    15  H   -0.036760   0.003748   0.006449  -0.000530  -0.000560   0.413274
    16  H    0.003937  -0.037150  -0.000296   0.000040   0.000057  -0.066663
    17  H    0.001176   0.349224   0.004265   0.000976  -0.001242  -0.013131
               7          8          9         10         11         12
     1  O   -0.071009  -0.041050   0.000461   0.001823   0.004051   0.002316
     2  O    0.331031   0.000671  -0.000050   0.000047   0.000020   0.000283
     3  C   -0.006470   0.407208  -0.034090  -0.033493  -0.046018  -0.032376
     4  C    0.001429  -0.041290   0.392181   0.402859   0.399055  -0.003954
     5  C    0.005412  -0.066780  -0.006631   0.008331  -0.002497   0.376774
     6  C    0.517645  -0.006528   0.000497  -0.000547  -0.000230  -0.000510
     7  C    4.968213   0.002158   0.000011   0.000170  -0.000034   0.000261
     8  H    0.002158   0.644220   0.008283  -0.010880  -0.000929   0.008997
     9  H    0.000011   0.008283   0.572421  -0.029973  -0.034161   0.003033
    10  H    0.000170  -0.010880  -0.029973   0.566744  -0.030480  -0.000431
    11  H   -0.000034  -0.000929  -0.034161  -0.030480   0.613317   0.000637
    12  H    0.000261   0.008997   0.003033  -0.000431   0.000637   0.564952
    13  H   -0.006134  -0.014763   0.000097  -0.000416  -0.000394  -0.025908
    14  H   -0.000646   0.002105   0.000667   0.000059  -0.002334  -0.026120
    15  H   -0.065802   0.000648  -0.000005  -0.000076   0.000015  -0.000021
    16  H    0.411938  -0.000871  -0.000007   0.000005  -0.000005  -0.000026
    17  H   -0.033514   0.002780  -0.000055   0.000001  -0.000030   0.000427
              13         14         15         16         17
     1  O    0.003243   0.004878  -0.036760   0.003937   0.001176
     2  O    0.006967   0.000423   0.003748  -0.037150   0.349224
     3  C   -0.037605  -0.037908   0.006449  -0.000296   0.004265
     4  C    0.008274  -0.011430  -0.000530   0.000040   0.000976
     5  C    0.384757   0.396507  -0.000560   0.000057  -0.001242
     6  C   -0.001436   0.000316   0.413274  -0.066663  -0.013131
     7  C   -0.006134  -0.000646  -0.065802   0.411938  -0.033514
     8  H   -0.014763   0.002105   0.000648  -0.000871   0.002780
     9  H    0.000097   0.000667  -0.000005  -0.000007  -0.000055
    10  H   -0.000416   0.000059  -0.000076   0.000005   0.000001
    11  H   -0.000394  -0.002334   0.000015  -0.000005  -0.000030
    12  H   -0.025908  -0.026120  -0.000021  -0.000026   0.000427
    13  H    0.594290  -0.028675   0.000141  -0.000101   0.003931
    14  H   -0.028675   0.578208   0.000052  -0.000001  -0.000064
    15  H    0.000141   0.000052   0.544941  -0.007394  -0.001027
    16  H   -0.000101  -0.000001  -0.007394   0.535471   0.006137
    17  H    0.003931  -0.000064  -0.001027   0.006137   0.417450
 Mulliken charges:
               1
     1  O   -0.248162
     2  O   -0.353297
     3  C    0.010397
     4  C   -0.331228
     5  C   -0.350264
     6  C   -0.062299
     7  C   -0.054659
     8  H    0.106021
     9  H    0.127322
    10  H    0.126259
    11  H    0.100017
    12  H    0.131667
    13  H    0.113733
    14  H    0.123962
    15  H    0.142906
    16  H    0.154928
    17  H    0.262697
 Sum of Mulliken charges =  -0.00000
 Mulliken charges with hydrogens summed into heavy atoms:
               1
     1  O   -0.248162
     2  O   -0.090600
     3  C    0.116418
     4  C    0.022370
     5  C    0.019098
     6  C    0.080607
     7  C    0.100269
 APT charges:
               1
     1  O   -0.184365
     2  O   -0.210824
     3  C   -0.037251
     4  C   -1.246111
     5  C   -1.072202
     6  C   -0.541699
     7  C   -0.449543
     8  H    0.228225
     9  H    0.412003
    10  H    0.375328
    11  H    0.413746
    12  H    0.365173
    13  H    0.242369
    14  H    0.452943
    15  H    0.512129
    16  H    0.591927
    17  H    0.148154
 Sum of APT charges =  -0.00000
 APT charges with hydrogens summed into heavy atoms:
               1
     1  O   -0.184365
     2  O   -0.062670
     3  C    0.190973
     4  C   -0.045035
     5  C   -0.011718
     6  C   -0.029571
     7  C    0.142384
 Electronic spatial extent (au):  <R**2>=            852.0111
 Charge=             -0.0000 electrons
 Dipole moment (field-independent basis, Debye):
    X=              1.5315    Y=              0.3720    Z=              0.0458  Tot=              1.5767
 Quadrupole moment (field-independent basis, Debye-Ang):
   XX=            -43.4733   YY=            -44.2978   ZZ=            -45.4713
   XY=              4.9541   XZ=             -1.7762   YZ=              0.5965
 Traceless Quadrupole moment (field-independent basis, Debye-Ang):
   XX=              0.9408   YY=              0.1163   ZZ=             -1.0572
   XY=              4.9541   XZ=             -1.7762   YZ=              0.5965
 Octapole moment (field-independent basis, Debye-Ang**2):
  XXX=             -5.1776  YYY=             -0.5423  ZZZ=             -0.0200  XYY=             -0.1431
  XXY=             -9.2065  XXZ=              2.2743  XZZ=              2.7691  YZZ=             -0.0897
  YYZ=              1.2493  XYZ=             -0.3694
 Hexadecapole moment (field-independent basis, Debye-Ang**3):
 XXXX=           -682.5593 YYYY=           -273.8419 ZZZZ=           -140.7331 XXXY=             16.0063
 XXXZ=              2.0952 YYYX=              4.9051 YYYZ=             -8.9590 ZZZX=              5.2161
 ZZZY=             -2.0420 XXYY=           -167.3643 XXZZ=           -147.9940 YYZZ=            -71.4905
 XXYZ=             -0.7401 YYXZ=             -6.3140 ZZXY=             -2.9261
 N-N= 3.232218620875D+02 E-N=-1.456053937318D+03  KE= 3.447791350537D+02
  Exact polarizability:   0.000   0.000   0.000   0.000   0.000   0.000
 Approx polarizability:  87.771  -4.729  82.378   4.693  -6.735  69.963
 No NMR shielding tensors so no spin-rotation constants.
 Leave Link  601 at Sun Sep 29 10:25:14 2019, MaxMem=   671088640 cpu:              64.2 elap:              32.2
 (Enter /shared/centos7/gaussian/g16/l701.exe)
 SCFChk:  SCF convergence  3.26D-09 required  1.00D-08
 ... and contract with generalized density number  0.
 Compute integral second derivatives.
 Entering OneElI...
 Calculate overlap and kinetic energy integrals
    NBasis = 395  MinDer = 2  MaxDer = 2
 Requested accuracy = 0.1000D-12
 PrmmSu-InSpLW:  IPartL=    0 NPrtUS=   20 NPrtUL=    1 DoSpLW=F IThBeg=    0 IThEnd=   19 NThAct=   20.
 PrsmSu:  NPrtUS=  20 ThrOK=T IAlg=1 NPAlg=1 LenDen=           0 ISkipM=0 DoSpLW=F IThBeg=    0 IThEnd=   19.
 Prism:   IPart=     0 DynPar=F LinDyn=F Incr=           4.
 PRISM was handed    33309683 working-precision words and  8478 shell-pairs
 PRISM was handed    33309683 working-precision words and  8478 shell-pairs
 PRISM was handed    33309683 working-precision words and  8478 shell-pairs
 PRISM was handed    33309683 working-precision words and  8478 shell-pairs
 PRISM was handed    33309683 working-precision words and  8478 shell-pairs
 PRISM was handed    33309683 working-precision words and  8478 shell-pairs
 PRISM was handed    33309683 working-precision words and  8478 shell-pairs
 PRISM was handed    33309683 working-precision words and  8478 shell-pairs
 PRISM was handed    33309683 working-precision words and  8478 shell-pairs
 PRISM was handed    33309683 working-precision words and  8478 shell-pairs
 PRISM was handed    33309683 working-precision words and  8478 shell-pairs
 PRISM was handed    33309683 working-precision words and  8478 shell-pairs
 PRISM was handed    33309683 working-precision words and  8478 shell-pairs
 PRISM was handed    33309683 working-precision words and  8478 shell-pairs
 PRISM was handed    33309683 working-precision words and  8478 shell-pairs
 PRISM was handed    33309683 working-precision words and  8478 shell-pairs
 PRISM was handed    33309683 working-precision words and  8478 shell-pairs
 IPart=  1 NShTot=         465 NBatch=          79 AvBLen=         5.9
 PRISM was handed    33309683 working-precision words and  8478 shell-pairs
 PRISM was handed    33309683 working-precision words and  8478 shell-pairs
 PRISM was handed    33309683 working-precision words and  8478 shell-pairs
 IPart= 16 NShTot=         404 NBatch=          40 AvBLen=        10.1
 IPart= 10 NShTot=         414 NBatch=          47 AvBLen=         8.8
 IPart= 14 NShTot=         408 NBatch=          41 AvBLen=        10.0
 IPart= 15 NShTot=         405 NBatch=          40 AvBLen=        10.1
 IPart=  0 NShTot=         468 NBatch=          82 AvBLen=         5.7
 IPart= 17 NShTot=         400 NBatch=          38 AvBLen=        10.5
 IPart=  6 NShTot=         438 NBatch=          60 AvBLen=         7.3
 IPart=  5 NShTot=         442 NBatch=          63 AvBLen=         7.0
 IPart= 11 NShTot=         413 NBatch=          46 AvBLen=         9.0
 IPart= 18 NShTot=         399 NBatch=          38 AvBLen=        10.5
 IPart= 12 NShTot=         410 NBatch=          43 AvBLen=         9.5
 IPart=  8 NShTot=         418 NBatch=          48 AvBLen=         8.7
 IPart=  9 NShTot=         416 NBatch=          48 AvBLen=         8.7
 IPart=  7 NShTot=         427 NBatch=          51 AvBLen=         8.4
 IPart= 13 NShTot=         409 NBatch=          42 AvBLen=         9.7
 IPart= 19 NShTot=         397 NBatch=          38 AvBLen=        10.4
 IPart=  3 NShTot=         448 NBatch=          68 AvBLen=         6.6
 IPart=  2 NShTot=         453 NBatch=          73 AvBLen=         6.2
 IPart=  4 NShTot=         444 NBatch=          65 AvBLen=         6.8
 PrSmSu:  NxtVal=             81.
 Entering OneElI...
 Calculate potential energy integrals
    NBasis = 395  MinDer = 2  MaxDer = 2
 Requested accuracy = 0.1000D-12
 PrmmSu-InSpLW:  IPartL=    0 NPrtUS=   20 NPrtUL=    1 DoSpLW=F IThBeg=    0 IThEnd=   19 NThAct=   20.
 PrsmSu:  NPrtUS=  20 ThrOK=T IAlg=1 NPAlg=1 LenDen=           0 ISkipM=0 DoSpLW=F IThBeg=    0 IThEnd=   19.
 Prism:   IPart=     0 DynPar=F LinDyn=F Incr=          66.
 PRISM was handed    33351775 working-precision words and  7843 shell-pairs
 PRISM was handed    33351775 working-precision words and  7843 shell-pairs
 PRISM was handed    33351775 working-precision words and  7843 shell-pairs
 PRISM was handed    33351775 working-precision words and  7843 shell-pairs
 PRISM was handed    33351775 working-precision words and  7843 shell-pairs
 PRISM was handed    33351775 working-precision words and  7843 shell-pairs
 PRISM was handed    33351775 working-precision words and  7843 shell-pairs
 PRISM was handed    33351775 working-precision words and  7843 shell-pairs
 PRISM was handed    33351775 working-precision words and  7843 shell-pairs
 PRISM was handed    33351775 working-precision words and  7843 shell-pairs
 PRISM was handed    33351775 working-precision words and  7843 shell-pairs
 PRISM was handed    33351775 working-precision words and  7843 shell-pairs
 PRISM was handed    33351775 working-precision words and  7843 shell-pairs
 PRISM was handed    33351775 working-precision words and  7843 shell-pairs
 PRISM was handed    33351775 working-precision words and  7843 shell-pairs
 PRISM was handed    33351775 working-precision words and  7843 shell-pairs
 PRISM was handed    33351775 working-precision words and  7843 shell-pairs
 PRISM was handed    33351775 working-precision words and  7843 shell-pairs
 PRISM was handed    33351775 working-precision words and  7843 shell-pairs
 PRISM was handed    33351775 working-precision words and  7843 shell-pairs
 IPart= 18 NShTot=        6307 NBatch=         371 AvBLen=        17.0
 IPart= 17 NShTot=        6358 NBatch=         374 AvBLen=        17.0
 IPart= 19 NShTot=        6290 NBatch=         370 AvBLen=        17.0
 IPart= 12 NShTot=        6477 NBatch=         381 AvBLen=        17.0
 IPart= 16 NShTot=        6392 NBatch=         376 AvBLen=        17.0
 IPart= 10 NShTot=        6528 NBatch=         384 AvBLen=        17.0
 IPart=  2 NShTot=        7140 NBatch=         420 AvBLen=        17.0
 IPart=  4 NShTot=        6919 NBatch=         407 AvBLen=        17.0
 IPart= 11 NShTot=        6528 NBatch=         384 AvBLen=        17.0
 IPart=  3 NShTot=        7004 NBatch=         412 AvBLen=        17.0
 IPart=  6 NShTot=        6766 NBatch=         398 AvBLen=        17.0
 IPart=  8 NShTot=        6630 NBatch=         390 AvBLen=        17.0
 IPart=  7 NShTot=        6647 NBatch=         391 AvBLen=        17.0
 IPart= 13 NShTot=        6443 NBatch=         379 AvBLen=        17.0
 IPart=  1 NShTot=        7293 NBatch=         429 AvBLen=        17.0
 IPart=  0 NShTot=        7395 NBatch=         435 AvBLen=        17.0
 IPart= 14 NShTot=        6426 NBatch=         378 AvBLen=        17.0
 IPart=  9 NShTot=        6579 NBatch=         387 AvBLen=        17.0
 IPart=  5 NShTot=        6800 NBatch=         400 AvBLen=        17.0
 IPart= 15 NShTot=        6409 NBatch=         377 AvBLen=        17.0
 PrSmSu:  NxtVal=           1321.
 Polarizability after L701:
                1             2             3 
      1  0.000000D+00
      2  0.000000D+00  0.000000D+00
      3  0.000000D+00  0.000000D+00  0.000000D+00
 Dipole Derivatives after L701:
                 1             2             3             4             5 
      1  -0.223952D+00  0.211641D-01  0.178214D-01  0.127067D+00 -0.228877D+00
      2  -0.222365D+00 -0.122692D+00 -0.571364D-01 -0.683769D+00 -0.438173D+00
      3   0.107905D+00 -0.494984D-01 -0.206451D+00  0.217686D+00 -0.450268D-01
                 6             7             8             9            10 
      1   0.178593D+00  0.242358D+00 -0.108302D+00  0.121180D+00 -0.177262D+01
      2  -0.164404D+00 -0.327924D-01 -0.674716D-02  0.240359D+00  0.638189D-01
      3  -0.321364D+00 -0.188837D+00  0.221877D+00 -0.347365D+00  0.226161D+00
                11            12            13            14            15 
      1   0.302827D+00  0.358987D+00 -0.937790D+00 -0.462040D+00 -0.364879D+00
      2  -0.931519D+00 -0.882250D-02 -0.743428D-01 -0.130946D+01 -0.286504D+00
      3  -0.447392D-01 -0.103420D+01 -0.149151D-01 -0.141368D+00 -0.969354D+00
                16            17            18            19            20 
      1  -0.757409D+00 -0.177876D+00 -0.170605D+00 -0.916930D+00 -0.365348D+00
      2  -0.175701D+00 -0.783507D+00  0.223285D+00  0.199114D-01 -0.404406D+00
      3  -0.661729D-01  0.272733D+00 -0.841823D-01 -0.742683D-01  0.136269D+00
                21            22            23            24            25 
      1   0.146717D+00  0.702545D-01  0.451313D-01 -0.120291D+00  0.735450D+00
      2   0.196922D+00 -0.830393D-01  0.196735D+00 -0.626616D-01 -0.214540D+00
      3  -0.272925D-01  0.168934D+00 -0.983994D-01  0.417685D+00  0.599653D-01
                26            27            28            29            30 
      1  -0.527740D+00  0.712980D+00  0.115271D+00 -0.467441D+00 -0.652966D+00
      2   0.290976D+00 -0.255627D+00  0.198723D-01  0.386197D+00  0.373903D+00
      3  -0.644811D-01  0.209582D+00  0.474843D-01  0.374138D+00  0.624516D+00
                31            32            33            34            35 
      1   0.723520D+00  0.817205D+00 -0.301321D+00  0.240370D+00 -0.126500D+00
      2   0.147579D+00  0.320914D+00 -0.772687D-01  0.738553D-01  0.420864D-01
      3  -0.225897D+00 -0.291825D+00  0.196803D+00  0.200476D+00 -0.198134D+00
                36            37            38            39            40 
      1   0.470235D+00  0.153637D+00 -0.607003D-02 -0.634051D-03  0.617297D+00
      2   0.270793D+00 -0.555074D+00  0.429827D+00  0.357845D-01  0.550495D+00
      3   0.813062D+00 -0.272788D+00  0.174189D+00  0.143643D+00  0.788355D-01
                41            42            43            44            45 
      1   0.492623D+00 -0.190167D+00  0.402260D+00  0.525007D+00 -0.195204D+00
      2   0.655080D+00 -0.192392D+00  0.293821D+00  0.953090D+00 -0.319399D+00
      3   0.971234D-01  0.864515D-01 -0.861527D-01 -0.264181D+00  0.181036D+00
                46            47            48            49            50 
      1   0.141605D+01  0.386011D+00  0.871230D-01 -0.234838D+00 -0.119775D+00
      2   0.195428D+00  0.253380D+00 -0.157640D-01  0.676842D+00  0.468221D+00
      3   0.514813D-01 -0.131263D-01  0.106351D+00 -0.229899D+00 -0.655509D-01
                51 
      1  -0.975692D-01
      2   0.989322D-01
      3   0.211080D+00
 Hessian after L701:
                1             2             3             4             5 
      1  0.554374D+01
      2 -0.329152D+01  0.127076D+02
      3  0.919047D+00  0.233150D+01  0.173150D+02
      4  0.208063D+00 -0.552178D+00  0.253727D+00  0.878000D+01
      5 -0.472479D+00  0.158244D+00 -0.240682D+00 -0.162679D+01  0.753020D+01
      6  0.240154D+00 -0.268969D+00 -0.247724D+00 -0.125226D+01  0.259089D+01
      7 -0.604581D+01  0.346934D+01 -0.181899D+01  0.338802D+00 -0.190543D+00
      8  0.324170D+01 -0.375689D+01 -0.244179D+01 -0.281327D+00 -0.201694D+00
      9 -0.168480D+01 -0.240489D+01 -0.778452D+01  0.162787D+00 -0.277642D-01
     10  0.254890D+00  0.527950D-01 -0.214931D+00  0.163066D+00 -0.837874D-01
     11  0.101437D+00 -0.287153D+00 -0.568906D-01 -0.937661D-01 -0.724441D-01
     12 -0.242339D+00 -0.233854D-01 -0.749184D-01  0.321410D-02 -0.198483D-02
     13 -0.214715D+00  0.756868D-01  0.150763D+00  0.277279D+00  0.707046D-01
     14  0.798631D-01  0.323014D+00  0.389667D+00 -0.563170D-01 -0.205425D+00
     15  0.117814D+00  0.271209D+00 -0.754070D-01  0.197118D+00  0.426630D-01
     16  0.160820D+00  0.570677D+00  0.773938D+00  0.182378D+00 -0.395147D+00
     17  0.825299D+00 -0.966062D+01 -0.103542D+00 -0.266842D+00  0.112674D+00
     18  0.608686D+00 -0.101702D+00 -0.955162D+01  0.402357D-01  0.918489D-01
     19 -0.247324D-01 -0.231044D+00 -0.846005D-01 -0.858822D+01  0.138557D+01
     20 -0.347174D+00  0.198749D+00  0.757345D-01  0.104914D+01 -0.775177D+00
     21  0.151582D-01  0.812243D-01  0.275935D+00 -0.266466D+00 -0.252902D+01
     22  0.186714D+00 -0.161666D+00  0.168211D+00 -0.110896D-02  0.612000D-02
     23 -0.109677D+00 -0.143766D+00  0.116278D+00  0.155891D-01 -0.835036D-01
     24  0.130541D+00  0.141128D+00  0.262242D+00 -0.307099D-01 -0.933562D-02
     25  0.810555D-01  0.119660D-01 -0.811881D-01  0.258000D-01 -0.124309D-01
     26 -0.200194D-01 -0.537799D-01 -0.179150D-02 -0.195609D-01 -0.189393D-02
     27 -0.199104D-01 -0.612116D-02 -0.412329D-01  0.165459D-01 -0.522327D-02
     28  0.325989D-01  0.463850D-02 -0.647852D-01  0.169223D-01 -0.137396D-01
     29 -0.221319D-01 -0.546186D-01  0.257142D-01 -0.301416D-01  0.191586D-02
     30 -0.104130D+00 -0.146360D-03  0.316454D-01 -0.282845D-01  0.124392D-01
     31  0.642833D-01  0.101566D+00 -0.587234D-01  0.413268D-01 -0.298462D-02
     32  0.912005D-01  0.303815D-01 -0.483959D-01  0.148104D-01 -0.102480D-01
     33 -0.534644D-01 -0.497275D-01 -0.165972D-01 -0.102201D-01  0.938723D-05
     34 -0.514071D-01  0.549533D-01  0.107506D-01  0.322782D-01 -0.632663D-02
     35  0.258924D-01  0.510627D-01  0.220982D-01 -0.850408D-02 -0.180121D-01
     36  0.215898D-01  0.889229D-01 -0.319467D-01  0.600610D-01 -0.483727D-02
     37 -0.462250D-01 -0.562340D-01 -0.740689D-02  0.188618D-01  0.322459D-02
     38 -0.193279D-01  0.127092D+00  0.122290D-01  0.780965D-01 -0.759302D-01
     39 -0.184931D-02  0.142238D-01 -0.583505D-01  0.606852D-01  0.448414D-02
     40  0.898990D-02  0.110154D+00 -0.126870D-01  0.736117D-01  0.227138D-01
     41  0.948864D-01  0.127922D+00 -0.242655D-01  0.442704D-01 -0.994066D-02
     42 -0.854418D-02 -0.179962D-01 -0.497638D-01  0.107524D-01  0.227531D-02
     43 -0.270739D+00 -0.132344D+00  0.438702D-01 -0.490722D-01  0.547815D-02
     44 -0.103971D+00  0.180676D+00 -0.114349D-01 -0.325162D-01  0.156583D+00
     45  0.208148D-01 -0.245961D-01  0.122894D+00  0.102612D-01 -0.712160D-01
     46  0.179552D+00 -0.293975D-01  0.271216D-01  0.130032D+00 -0.150652D+00
     47 -0.584647D-03 -0.437958D-01  0.369944D-02 -0.164880D+00 -0.223051D+00
     48  0.285290D-01  0.150955D-03 -0.328466D-01  0.463467D-01  0.797574D-01
     49 -0.670789D-01  0.260899D-02 -0.411775D-02 -0.165003D+01  0.146107D+01
     50 -0.733918D-01  0.958250D-01 -0.481273D-01  0.193092D+01 -0.628230D+01
     51  0.127012D-01 -0.308214D-01 -0.428336D-01  0.726207D+00  0.656964D-01
                6             7             8             9            10 
      6  0.153569D+02
      7  0.390454D-01  0.182223D+02
      8 -0.805579D-02 -0.210425D+01  0.179712D+02
      9 -0.236002D+00  0.173374D+01  0.100425D+01  0.214527D+02
     10 -0.151671D-02 -0.233720D+01 -0.107956D+01 -0.154724D+01  0.118470D+02
     11 -0.263733D-03 -0.105362D+01 -0.581680D+01  0.441974D+00  0.652744D+00
     12 -0.979271D-01 -0.149766D+01  0.435736D+00 -0.552776D+01  0.150951D+01
     13  0.265164D+00 -0.666926D+01  0.320255D+00  0.303692D+00  0.443409D-01
     14 -0.496622D-02  0.231023D+00 -0.361296D+01  0.223068D+01 -0.109196D+00
     15 -0.783395D-01  0.247547D+00  0.225751D+01 -0.499995D+01 -0.901777D-01
     16  0.751809D-01  0.363956D+00  0.282280D+00 -0.174285D+00  0.201968D+00
     17  0.145567D+00  0.214840D+00  0.696142D-02 -0.644980D-01  0.618572D-01
     18  0.289965D+00 -0.166861D+00 -0.826719D-01 -0.934599D-01 -0.115373D+00
     19 -0.358105D+00  0.261713D+00  0.734243D-01  0.523666D-02  0.146928D+00
     20 -0.263398D+01  0.400770D-01 -0.166257D+00  0.623003D-02 -0.189953D-01
     21 -0.790827D+01 -0.377800D-01  0.211275D-02 -0.163790D+00 -0.238857D-01
     22  0.595842D-01 -0.433836D+01 -0.455780D+00  0.112508D+01 -0.139301D+00
     23 -0.201876D-01 -0.560598D+00 -0.461046D+01 -0.963136D+00  0.936780D-01
     24 -0.772000D-01  0.137791D+01 -0.972364D+00 -0.282551D+01 -0.412333D-01
     25  0.614818D-02  0.146065D-01  0.428270D-01 -0.341262D-01 -0.320477D+01
     26 -0.370569D-02  0.177876D-01  0.339442D-01  0.862339D-02 -0.637464D+00
     27 -0.461107D-02  0.229081D-01 -0.184856D-01  0.871826D-01  0.909449D+00
     28 -0.436581D-02  0.315933D-01  0.769245D-01  0.416793D-01 -0.408088D+01
     29  0.489151D-02  0.320039D-01 -0.268012D-02  0.320575D-02  0.997939D-01
     30 -0.716474D-02  0.384350D-02 -0.182311D-01  0.806920D-01  0.152920D+00
     31 -0.224624D-02 -0.289452D-01 -0.118304D+00  0.611447D-01 -0.298452D+01
     32 -0.423625D-03 -0.724493D-01  0.995572D-01  0.231901D-01  0.108799D+01
     33 -0.102607D-01  0.702514D-01  0.514716D-01  0.509230D-01 -0.440234D+00
     34  0.347763D-01  0.677665D-01 -0.107893D-01  0.107594D-02 -0.107626D-01
     35 -0.623614D-02 -0.164994D-01  0.544785D-01 -0.960554D-01 -0.135318D-02
     36  0.214619D-01  0.530583D-02 -0.353905D-01 -0.390853D-02 -0.822993D-02
     37 -0.937928D-02  0.899475D-01  0.331104D-01  0.590150D-01  0.590545D-01
     38  0.145332D-01  0.108254D+00 -0.226697D-01 -0.106375D+00 -0.107417D+00
     39 -0.121047D+00  0.997586D-01 -0.103314D+00  0.868920D-02 -0.719218D-01
     40  0.182607D-01  0.108163D-01 -0.781404D-01 -0.300511D-01  0.484920D-02
     41  0.897990D-02 -0.121164D+00 -0.349515D-01  0.156126D-01  0.803604D-02
     42 -0.184047D-01 -0.478705D-01 -0.145671D-01  0.103402D+00 -0.862737D-03
     43 -0.478179D-02  0.650358D-01  0.104740D+00 -0.409058D-01  0.561307D-02
     44 -0.689334D-01  0.128966D+00  0.676428D-01 -0.394268D-01  0.144769D-01
     45 -0.921728D-02 -0.500294D-01 -0.432403D-01 -0.341884D-01 -0.817416D-02
     46  0.274613D-01  0.417740D-01  0.386019D-02  0.728015D-02  0.170473D-01
     47  0.647640D-01  0.113419D-01 -0.112666D-01  0.319037D-02  0.323500D-02
     48  0.874098D-01  0.145842D-02  0.434719D-03 -0.124989D-01 -0.118389D-02
     49  0.866881D+00 -0.886840D-01 -0.509664D-01  0.106717D-01  0.126965D-01
     50  0.186092D+00 -0.134504D+00  0.285832D-02 -0.348080D-01 -0.368281D-01
     51 -0.693958D+01  0.174161D-01 -0.134027D-01 -0.102028D+00 -0.691600D-02
               11            12            13            14            15 
     11  0.149951D+02
     12 -0.331899D+00  0.145568D+02
     13 -0.189703D+00 -0.157483D+00  0.149003D+02
     14  0.393901D-01  0.107077D+00 -0.370348D+00  0.134322D+02
     15  0.124452D+00 -0.157164D-01 -0.398239D+00 -0.160326D+01  0.155956D+02
     16  0.955330D-01 -0.116498D+00  0.178938D-03  0.239967D+00  0.246775D-01
     17 -0.120385D+00 -0.174654D-01  0.246609D+00  0.101167D+00  0.321146D-01
     18 -0.199898D-01 -0.103136D+00  0.421497D-01  0.427864D-01 -0.157078D+00
     19  0.463426D-03 -0.286534D-01  0.256499D+00  0.167717D+00  0.618141D-01
     20 -0.855170D-01  0.526603D-02  0.177610D+00 -0.108934D+00  0.320153D-01
     21  0.367691D-02 -0.768003D-01  0.909126D-01  0.360955D-01 -0.148984D+00
     22  0.875926D-01 -0.336232D-01  0.214400D+00 -0.735656D-01 -0.150559D+00
     23  0.750680D-01  0.809070D-02 -0.796576D-01  0.198201D+00 -0.200821D+00
     24  0.829074D-02  0.132581D+00 -0.196748D+00 -0.238594D+00 -0.293590D+00
     25 -0.732181D+00  0.110858D+01 -0.175989D-01  0.550590D-02  0.101457D-01
     26 -0.332073D+01 -0.896364D+00 -0.708771D-02  0.438905D-02 -0.292868D-02
     27 -0.834045D+00 -0.277343D+01  0.151274D-01 -0.798956D-02 -0.513247D-02
     28 -0.284997D-01 -0.150561D-01 -0.292513D-01 -0.530598D-01 -0.488855D-01
     29 -0.303298D+01  0.122082D+01 -0.460744D-01  0.496762D-01  0.979620D-01
     30  0.126129D+01 -0.240959D+01 -0.490169D-01  0.108180D+00  0.588703D-01
     31  0.125106D+01 -0.442887D+00  0.354075D-01 -0.480091D-02 -0.522540D-01
     32 -0.237738D+01 -0.560034D+00  0.132663D-01 -0.343843D-01 -0.892359D-02
     33 -0.640067D+00 -0.359023D+01 -0.547603D-01  0.340943D-02  0.770127D-02
     34 -0.430277D-02 -0.100158D-01 -0.376614D+01 -0.215652D+00  0.670192D+00
     35 -0.206824D-01 -0.214680D-02 -0.148174D+00 -0.383087D+01 -0.559783D+00
     36  0.961177D-02  0.277325D-01  0.618666D+00 -0.752528D+00 -0.172466D+01
     37 -0.960969D-01 -0.722033D-01 -0.231207D+01 -0.111801D+01 -0.176893D+00
     38  0.364441D-01  0.691902D-01 -0.139848D+01 -0.364046D+01  0.824987D-01
     39  0.582235D-01 -0.407404D-02 -0.324772D+00  0.141365D+00 -0.431361D+01
     40  0.134222D-01  0.236639D-02 -0.273637D+01  0.124981D+01 -0.458360D+00
     41 -0.139787D-01 -0.633938D-02  0.132133D+01 -0.265717D+01 -0.553276D+00
     42 -0.190494D-01 -0.918973D-02 -0.388272D+00 -0.453806D+00 -0.381265D+01
     43  0.100520D-01 -0.383225D-02  0.108140D-02  0.116424D-01 -0.284176D-02
     44  0.521521D-02 -0.496454D-02  0.206332D-01  0.129667D-01 -0.758028D-02
     45 -0.744174D-02 -0.729864D-02 -0.230836D-02 -0.240120D-02 -0.911025D-02
     46  0.360521D-02  0.283847D-03  0.306380D-01  0.748972D-02  0.146623D-02
     47 -0.417425D-02 -0.170028D-03  0.164204D-01 -0.541307D-02  0.352396D-03
     48 -0.605363D-03 -0.584719D-02  0.828610D-02  0.231013D-02 -0.876011D-02
     49 -0.177340D-01 -0.370681D-02 -0.147452D-01  0.793418D-02  0.474345D-01
     50  0.103592D-02 -0.142438D-02 -0.229892D-01 -0.653883D-01 -0.420346D-02
     51  0.273810D-02 -0.212321D-01  0.768392D-01  0.197322D-02 -0.192336D-01
               16            17            18            19            20 
     16  0.907900D+01
     17  0.203496D+01  0.181300D+02
     18 -0.271885D+01  0.417330D+01  0.262092D+02
     19 -0.560664D+01 -0.427966D+01  0.271068D+01  0.149915D+02
     20 -0.383570D+01 -0.649480D+01 -0.338097D+01  0.194881D+01  0.118074D+02
     21  0.250238D+01 -0.346683D+01 -0.127293D+02 -0.235798D+01  0.573142D+01
     22 -0.352971D-01 -0.252976D-01 -0.148373D-02  0.767615D-01  0.723329D-01
     23  0.749368D-02 -0.229360D-01 -0.227945D-01  0.892480D-01 -0.234464D-01
     24 -0.383095D-01 -0.266164D-01  0.340277D-01 -0.550576D-01 -0.216511D-01
     25  0.424312D-01 -0.436803D-03  0.296485D-02  0.235740D-01 -0.550847D-02
     26 -0.703775D-02 -0.134226D-01  0.435125D-03 -0.887157D-02 -0.481548D-02
     27  0.138948D-01 -0.109376D-02 -0.140004D-01  0.102917D-01 -0.332115D-02
     28  0.129079D-01  0.174566D-02 -0.134288D-01  0.183735D-01 -0.652430D-02
     29 -0.729535D-02 -0.117088D-01  0.578240D-02 -0.142917D-01 -0.504444D-02
     30 -0.311359D-01  0.210983D-02  0.458504D-02 -0.246701D-01  0.786369D-02
     31  0.132823D-01  0.727522D-02 -0.752557D-02  0.178789D-01  0.143803D-02
     32  0.135365D-01 -0.224499D-02 -0.573473D-02  0.110869D-01 -0.569759D-02
     33 -0.840929D-02 -0.274218D-02 -0.504480D-02 -0.702466D-02 -0.165560D-03
     34 -0.372796D-02  0.147731D-01  0.136166D-01  0.243368D-01  0.145989D-01
     35  0.846506D-02 -0.704069D-02  0.908054D-02  0.117992D-01 -0.977482D-02
     36  0.242559D-01  0.210978D-01  0.440832D-02  0.381270D-01  0.108794D-01
     37 -0.240266D-01 -0.542271D-03  0.167233D-01 -0.368655D-01 -0.189046D-01
     38  0.301065D-01  0.546573D-01  0.604084D-01  0.388099D-03 -0.116045D-01
     39  0.190533D-01  0.475573D-01 -0.622222D-03  0.194244D-01  0.199399D-01
     40  0.151386D-01  0.265331D-01 -0.698254D-03  0.899683D-02  0.850686D-02
     41  0.308105D-01  0.138454D-01  0.177435D-03  0.125922D-01 -0.221861D-02
     42  0.357655D-03 -0.138101D-03 -0.107231D-01  0.163887D-03  0.810797D-03
     43 -0.405820D+01  0.914668D+00 -0.316273D+00  0.221985D+00  0.143730D+00
     44  0.826104D+00 -0.211818D+01 -0.825725D+00  0.189416D+00 -0.307926D+00
     45 -0.280393D+00 -0.813360D+00 -0.412137D+01 -0.569603D-01  0.178557D+00
     46 -0.379129D+00  0.217292D+00 -0.878214D-01 -0.179742D+01  0.748338D+00
     47  0.178516D+00  0.206288D+00  0.119714D-01  0.767827D+00 -0.412815D+01
     48 -0.856123D-01  0.967897D-02  0.210956D+00  0.113673D+00  0.164764D-01
     49  0.349577D-01  0.691984D-02 -0.673994D-02  0.531566D-02  0.282208D-01
     50 -0.732719D-01 -0.174302D+00  0.438047D-01 -0.124487D+00  0.123171D+00
     51  0.197567D-01  0.648678D-01  0.332064D-01  0.136417D-01 -0.451022D-01
               21            22            23            24            25 
     21  0.249241D+02
     22 -0.913835D-02  0.401217D+01
     23 -0.157053D-01  0.517625D+00  0.467739D+01
     24 -0.573690D-01 -0.131262D+01  0.119391D+01  0.277371D+01
     25  0.477444D-02  0.736359D-01 -0.592760D-01  0.673885D-01  0.274614D+01
     26 -0.165237D-02 -0.555248D-01  0.683300D-03 -0.342444D-01  0.793424D+00
     27 -0.444404D-02  0.529120D-01 -0.284073D-01 -0.770084D-04 -0.934213D+00
     28 -0.799117D-02 -0.380980D-01  0.581194D-01  0.144607D-01  0.598827D-01
     29  0.409840D-02  0.508053D-01 -0.932823D-02 -0.136973D-01 -0.152323D-01
     30 -0.312037D-02  0.168361D-01 -0.120906D-01  0.244328D-01 -0.125404D+00
     31 -0.375133D-02  0.361318D-02 -0.364668D-02  0.685210D-02  0.147979D+00
     32 -0.828619D-03  0.552978D-02 -0.283689D-02  0.457525D-02  0.732246D-02
     33 -0.543938D-02 -0.167395D-02  0.338177D-03 -0.293958D-02  0.479033D-02
     34  0.247959D-01 -0.149207D-01  0.412151D-02  0.581968D-01  0.208004D-03
     35  0.667092D-02  0.816725D-02 -0.357347D-01  0.247944D-01 -0.166930D-01
     36  0.119390D-01  0.586988D-01  0.112627D-01  0.133136D+00 -0.256367D-01
     37  0.165128D-01  0.496809D-01  0.134556D-01  0.125084D-01  0.731547D-02
     38  0.376247D-01  0.186709D-01 -0.153410D-01 -0.989224D-01 -0.797693D-02
     39  0.195612D-01  0.247605D-01 -0.877130D-01 -0.809397D-01 -0.125322D-02
     40  0.457175D-02  0.106223D-01  0.170793D-01  0.270330D-01 -0.609424D-02
     41  0.445940D-02  0.272494D-01  0.589507D-02  0.303554D-01 -0.147292D-01
     42 -0.653684D-02  0.173705D-01  0.176858D-01  0.556844D-02  0.222196D-03
     43 -0.463031D-01 -0.754576D-03  0.105749D-01 -0.971577D-02  0.537800D-02
     44  0.174333D+00  0.490694D-02  0.119490D-01 -0.159677D-01  0.647796D-02
     45  0.151207D+00 -0.372073D-02 -0.972725D-02  0.404965D-02 -0.243175D-02
     46  0.136947D+00 -0.120942D-01  0.953942D-03 -0.277691D-02  0.527645D-02
     47  0.223889D-01 -0.370539D-02  0.142894D-02 -0.161686D-02  0.109054D-02
     48 -0.436618D+01  0.237290D-02  0.242469D-03 -0.329029D-03  0.432877D-03
     49 -0.427548D-01 -0.476640D-01 -0.150836D-01 -0.772098D-02 -0.482769D-02
     50 -0.900603D-01 -0.234614D-01 -0.232627D-01  0.299519D-01 -0.414955D-02
     51  0.874850D-01 -0.130138D-01  0.127709D-01 -0.317941D-01 -0.119046D-02
               26            27            28            29            30 
     26  0.332852D+01
     27  0.722848D+00  0.296845D+01
     28 -0.191922D-01 -0.100015D+00  0.392098D+01
     29  0.118911D+00 -0.153071D-01  0.886610D-01  0.310085D+01
     30 -0.317766D-01 -0.171880D+00  0.246972D+00 -0.124909D+01  0.228341D+01
[...]
   R10        2.05882  -0.00020   0.00034   0.00026   0.00060   2.05942
   R11        2.06128  -0.00018   0.00004   0.00123   0.00126   2.06255
   R12        2.05719  -0.00030  -0.00024  -0.00406  -0.00430   2.05289
   R13        2.06001  -0.00022   0.00006  -0.00114  -0.00107   2.05894
   R14        2.51077   0.00032  -0.00213  -0.00955  -0.01167   2.49910
   R15        2.04182  -0.00016   0.00026   0.00158   0.00184   2.04366
   R16        2.04010  -0.00007  -0.00002  -0.00035  -0.00037   2.03973
    A1        2.11038   0.00157  -0.00133   0.00702   0.00569   2.11606
    A2        1.92505   0.00007  -0.00495  -0.02039  -0.02534   1.89970
    A3        1.83951  -0.00048  -0.00191  -0.01882  -0.02110   1.81841
    A4        1.95368   0.00023   0.00344   0.01979   0.02332   1.97700
    A5        1.91003   0.00021   0.00119   0.01618   0.01733   1.92736
    A6        1.95396   0.00033   0.00281   0.01991   0.02274   1.97670
    A7        1.87890  -0.00038   0.00189  -0.01823  -0.01623   1.86267
    A8        1.92447   0.00005  -0.00715  -0.01963  -0.02669   1.89777
    A9        1.91274  -0.00014  -0.00029   0.00027  -0.00003   1.91271
   A10        1.92604   0.00001   0.00018  -0.00486  -0.00468   1.92135
   A11        1.92734   0.00002  -0.00004   0.00492   0.00488   1.93222
   A12        1.89498   0.00004   0.00017  -0.00198  -0.00182   1.89317
   A13        1.89972   0.00006   0.00022   0.00180   0.00201   1.90172
   A14        1.90250   0.00001  -0.00022  -0.00019  -0.00041   1.90210
   A15        1.90781  -0.00035   0.00610   0.00745   0.01359   1.92139
   A16        1.95725   0.00021  -0.00298  -0.01799  -0.02107   1.93617
   A17        1.91440  -0.00000   0.00104  -0.00324  -0.00236   1.91205
   A18        1.89420   0.00018   0.00075   0.02487   0.02570   1.91991
   A19        1.89370   0.00016  -0.00172   0.00003  -0.00170   1.89200
   A20        1.89535  -0.00018  -0.00323  -0.01046  -0.01399   1.88136
   A21        2.28757   0.00086  -0.01919  -0.05508  -0.07427   2.21330
   A22        1.94649  -0.00054   0.01035   0.02763   0.03798   1.98448
   A23        2.04830  -0.00032   0.00896   0.02724   0.03620   2.08450
   A24        2.27107   0.00064  -0.01693  -0.05086  -0.06788   2.20320
   A25        1.95084  -0.00040   0.00594   0.01649   0.02234   1.97318
   A26        2.06100  -0.00024   0.01103   0.03380   0.04473   2.10573
    D1        3.04833   0.00006  -0.04522  -0.31994  -0.36515   2.68318
    D2        0.92017  -0.00016  -0.04940  -0.34351  -0.39265   0.52753
    D3       -1.21876  -0.00053  -0.04346  -0.34329  -0.38702  -1.60578
    D4        0.51948   0.00047   0.07327   0.36687   0.44014   0.95962
    D5       -2.66756   0.00052   0.07693   0.36237   0.43930  -2.22826
    D6        0.15512   0.00028   0.01088   0.42352   0.43425   0.58937
    D7       -3.01237   0.00032   0.01270   0.39727   0.41012  -2.60226
    D8       -1.11650  -0.00010   0.00311  -0.03968  -0.03641  -1.15291
    D9        0.96945  -0.00013   0.00325  -0.04495  -0.04155   0.92791
   D10        3.07408  -0.00010   0.00306  -0.04515  -0.04194   3.03213
   D11        1.01148   0.00007   0.00770  -0.01619  -0.00854   1.00294
   D12        3.09743   0.00003   0.00783  -0.02147  -0.01368   3.08375
   D13       -1.08113   0.00007   0.00764  -0.02166  -0.01408  -1.09521
   D14        3.12930   0.00008   0.00181  -0.04041  -0.03871   3.09059
   D15       -1.06793   0.00005   0.00194  -0.04569  -0.04385  -1.11178
   D16        1.03669   0.00008   0.00175  -0.04589  -0.04425   0.99245
   D17        0.98270  -0.00016   0.02714  -0.05250  -0.02517   0.95753
   D18       -1.11878  -0.00028   0.02398  -0.07722  -0.05292  -1.17170
   D19        3.05698  -0.00018   0.02932  -0.04991  -0.02045   3.03653
   D20       -1.07845   0.00008   0.02539  -0.05527  -0.03006  -1.10851
   D21        3.10325  -0.00004   0.02222  -0.07999  -0.05781   3.04544
   D22        0.99582   0.00005   0.02757  -0.05268  -0.02534   0.97048
   D23        3.11340   0.00030   0.02598  -0.03205  -0.00616   3.10723
   D24        1.01191   0.00019   0.02282  -0.05677  -0.03391   0.97800
   D25       -1.09551   0.00028   0.02816  -0.02947  -0.00144  -1.09695
   D26       -0.02874   0.00033   0.00456   0.02186   0.02636  -0.00239
   D27        3.14011   0.00029   0.00274   0.04980   0.05261  -3.09046
   D28       -3.12273   0.00027   0.00075   0.02673   0.02741  -3.09531
   D29        0.04613   0.00023  -0.00107   0.05467   0.05367   0.09980
         Item               Value     Threshold  Converged?
 Maximum Force            0.001572     0.000015     NO 
 RMS     Force            0.000335     0.000010     NO 
 Maximum Displacement     1.175950     0.000060     NO 
 RMS     Displacement     0.232556     0.000040     NO 
 Predicted change in Energy=-1.206004D-03
 Lowest energy point so far.  Saving SCF results.
 GradGradGradGradGradGradGradGradGradGradGradGradGradGradGradGradGradGrad

 Leave Link  103 at Sun Sep 29 14:52:00 2019, MaxMem=   671088640 cpu:             256.6 elap:             128.5
 (Enter /shared/centos7/gaussian/g16/l202.exe)
                          Input orientation:                          
 ---------------------------------------------------------------------
 Center     Atomic      Atomic             Coordinates (Angstroms)
 Number     Number       Type             X           Y           Z
 ---------------------------------------------------------------------
      1          8           0        1.449525    1.389444    2.136922
      2          8           0        0.810843    0.711326   -0.661346
      3          6           0        0.492023    2.443527    1.974406
      4          6           0        0.747423    3.363002    3.153890
      5          6           0       -0.941081    1.946341    1.900979
      6          6           0        1.221921    0.137679    1.627568
      7          6           0        0.936633   -0.167443    0.372806
      8          1           0        0.711480    3.025388    1.065743
      9          1           0        0.493776    2.847779    4.080698
     10          1           0        1.799883    3.640903    3.190483
     11          1           0        0.144518    4.267412    3.075097
     12          1           0       -1.171572    1.336397    2.776256
     13          1           0       -1.106701    1.372086    0.993817
     14          1           0       -1.621788    2.796932    1.885532
     15          1           0        1.337994   -0.654981    2.354043
     16          1           0        0.728994   -1.187702    0.088176
     17          1           0        1.426549    1.437437   -0.528427
 ---------------------------------------------------------------------
                    Distance matrix (angstroms):
                    1          2          3          4          5
     1  O    0.000000
     2  O    2.949249   0.000000
     3  C    1.433288   3.170072   0.000000
     4  C    2.328541   4.646659   1.517184   0.000000
     5  C    2.465928   3.340660   1.518675   2.535303   0.000000
     6  C    1.370460   2.395243   2.443355   3.599655   2.832770
     7  C    2.408124   1.362913   3.095152   4.498252   3.213907
     8  H    2.090083   2.889220   1.101086   2.115569   2.143109
     9  H    2.611219   5.210754   2.144736   1.090305   2.760903
    10  H    2.510340   4.939353   2.150128   1.089146   3.470914
    11  H    3.296349   5.201033   2.158434   1.089798   2.818590
    12  H    2.698465   4.017187   2.153195   2.816430   1.091452
    13  H    2.800229   2.617851   2.159967   3.473822   1.086343
    14  H    3.387799   4.093169   2.144992   2.746330   1.089544
    15  H    2.058945   3.352202   3.234277   4.139169   3.488026
    16  H    3.370194   2.043231   4.098761   5.487063   3.987183
    17  H    2.665880   0.961248   2.854773   4.210520   3.430257
                    6          7          8          9         10
     6  C    0.000000
     7  C    1.322466   0.000000
     8  H    2.985809   3.274908   0.000000
     9  H    3.727289   4.799599   3.028018   0.000000
    10  H    3.879345   4.815392   2.465360   1.768458   0.000000
    11  H    4.506754   5.253357   2.429315   1.774422   1.773714
    12  H    2.912940   3.533077   3.053592   2.599852   3.783104
    13  H    2.710697   2.632682   2.458528   3.777306   4.291981
    14  H    3.901903   4.197782   2.483623   3.049091   3.758060
    15  H    1.081457   2.079443   3.949348   3.995419   4.400863
    16  H    2.090297   1.079378   4.325051   5.681608   5.838368
    17  H    2.525779   1.904699   2.360993   4.909498   4.338771
                   11         12         13         14         15
    11  H    0.000000
    12  H    3.226801   0.000000
    13  H    3.778914   1.783976   0.000000
    14  H    2.587897   1.768967   1.758026   0.000000
    15  H    5.116078   3.231374   3.454815   4.571161   0.000000
    16  H    6.246725   4.148373   3.277571   4.963262   2.405998
    17  H    4.757914   4.204922   2.956155   4.119196   3.562961
                   16         17
    16  H    0.000000
    17  H    2.785343   0.000000
 Stoichiometry    C5H10O2
 Framework group  C1[X(C5H10O2)]
 Deg. of freedom    45
 Full point group                 C1      NOp   1
 RotChk:  IX=0 Diff= 2.00D-01
 Largest Abelian subgroup         C1      NOp   1
 Largest concise Abelian subgroup C1      NOp   1
                         Standard orientation:                         
 ---------------------------------------------------------------------
 Center     Atomic      Atomic             Coordinates (Angstroms)
 Number     Number       Type             X           Y           Z
 ---------------------------------------------------------------------
      1          8           0        0.256594   -0.988648   -0.098376
      2          8           0       -2.059484    0.706279   -0.777398
      3          6           0        1.031604    0.202178   -0.287078
      4          6           0        2.460942   -0.296481   -0.387964
      5          6           0        0.831119    1.229290    0.813476
      6          6           0       -0.952474   -0.955162    0.545980
      7          6           0       -1.991922   -0.196369    0.241519
      8          1           0        0.789802    0.668821   -1.254635
      9          1           0        2.767531   -0.723227    0.567366
     10          1           0        2.534154   -1.070282   -1.150927
     11          1           0        3.136487    0.519299   -0.644480
     12          1           0        1.031539    0.779153    1.787374
     13          1           0       -0.177955    1.631009    0.790359
     14          1           0        1.522980    2.058454    0.668839
     15          1           0       -1.033793   -1.668146    1.355047
     16          1           0       -2.884480   -0.216654    0.848138
     17          1           0       -1.538756    0.379787   -1.516481
 ---------------------------------------------------------------------
 Rotational constants (GHZ):           4.8040472           1.6930977           1.5386289
 Leave Link  202 at Sun Sep 29 14:52:02 2019, MaxMem=   671088640 cpu:               4.0 elap:               2.0
 (Enter /shared/centos7/gaussian/g16/l301.exe)
 Standard basis: CC-pVTZ (5D, 7F)
 Ernie: Thresh=  0.10000D-02 Tol=  0.10000D-05 Strict=F.
 Ernie:  21 primitive shells out of 262 were deleted.
 There are   395 symmetry adapted cartesian basis functions of A   symmetry.
 There are   350 symmetry adapted basis functions of A   symmetry.
   350 basis functions,   534 primitive gaussians,   395 cartesian basis functions
    28 alpha electrons       28 beta electrons
       nuclear repulsion energy       322.2203809052 Hartrees.
 IExCor= 4336 DFT=T Ex+Corr=M062X ExCW=0 ScaHFX=  0.540000
 ScaDFX=  1.000000  1.000000  1.000000  1.000000 ScalE2=  1.000000  1.000000
 IRadAn=      5 IRanWt=     -1 IRanGd=            0 ICorTp=0 IEmpDi=  4
 NAtoms=   17 NActive=   17 NUniq=   17 SFac= 1.00D+00 NAtFMM=   60 NAOKFM=F Big=F
 Integral buffers will be    131072 words long.
 Raffenetti 2 integral format.
 Two-electron integral symmetry is turned on.
 Leave Link  301 at Sun Sep 29 14:52:02 2019, MaxMem=   671088640 cpu:               1.5 elap:               0.7
 (Enter /shared/centos7/gaussian/g16/l302.exe)
 NPDir=0 NMtPBC=     1 NCelOv=     1 NCel=       1 NClECP=     1 NCelD=      1
         NCelK=      1 NCelE2=     1 NClLst=     1 CellRange=     0.0.
 One-electron integrals computed using PRISM.
 One-electron integral symmetry used in STVInt
 NBasis=   350 RedAO= T EigKep=  3.15D-04  NBF=   350
 NBsUse=   350 1.00D-06 EigRej= -1.00D+00 NBFU=   350
 Precomputing XC quadrature grid using
 IXCGrd= 4 IRadAn=           5 IRanWt=          -1 IRanGd=           0 AccXCQ= 0.00D+00.
 Generated NRdTot=       0 NPtTot=           0 NUsed=           0 NTot=          32
 NSgBfM=   395   395   395   395   395 MxSgAt=    17 MxSgA2=    17.
 Leave Link  302 at Sun Sep 29 14:53:10 2019, MaxMem=   671088640 cpu:             135.1 elap:              67.6
 (Enter /shared/centos7/gaussian/g16/l303.exe)
 DipDrv:  MaxL=1.
 Leave Link  303 at Sun Sep 29 14:53:15 2019, MaxMem=   671088640 cpu:              10.4 elap:               5.2
 (Enter /shared/centos7/gaussian/g16/l401.exe)
 Initial guess from the checkpoint file:  "/scratch/harms.n/gauss_scrdir/Gau-36180.chk"
 B after Tr=    -0.000000   -0.000000    0.000000
         Rot=    0.998172    0.060209   -0.003484   -0.004022 Ang=   6.93 deg.
 Guess basis will be translated and rotated to current coordinates.
 JPrj=2 DoOrth=T DoCkMO=T.
 Generating alternative initial guess.
 ExpMin= 1.03D-01 ExpMax= 1.53D+04 ExpMxC= 5.22D+02 IAcc=2 IRadAn=         4 AccDes= 0.00D+00
 Harris functional with IExCor= 1009 and IRadAn=       4 diagonalized for initial guess.
 HarFok:  IExCor= 1009 AccDes= 0.00D+00 IRadAn=         4 IDoV= 1 UseB2=F ITyADJ=14
 ICtDFT=  3500011 ScaDFX=  1.000000  1.000000  1.000000  1.000000
 FoFCou: FMM=F IPFlag=           0 FMFlag=      100000 FMFlg1=           0
         NFxFlg=           0 DoJE=T BraDBF=F KetDBF=T FulRan=T
         wScrn=  0.000000 ICntrl=       500 IOpCl=  0 I1Cent=   200000004 NGrid=           0
         NMat0=    1 NMatS0=      1 NMatT0=    0 NMatD0=    1 NMtDS0=    0 NMtDT0=    0
 Petite list used in FoFCou.
 Harris En= -346.827145778700    
 Leave Link  401 at Sun Sep 29 14:54:05 2019, MaxMem=   671088640 cpu:              98.8 elap:              49.4
 (Enter /shared/centos7/gaussian/g16/l502.exe)
 Integral symmetry usage will be decided dynamically.
 Closed shell SCF:
 Using DIIS extrapolation, IDIIS=  1040.
 NGot=   671088640 LenX=   670765141 LenY=   670608675
 Requested convergence on RMS density matrix=1.00D-08 within 900 cycles.
 Requested convergence on MAX density matrix=1.00D-06.
 Requested convergence on             energy=1.00D-06.
 No special actions if energy rises.
 Fock matrices will be formed incrementally for  20 cycles.
 Integral accuracy reduced to 1.0D-05 until final iterations.

 Cycle   1  Pass 0  IDiag  1:
 FoFJK:  IHMeth= 1 ICntrl=       0 DoSepK=F KAlg= 0 I1Cent=           0 FoldK=F
 IRaf= 960000000 NMat=       1 IRICut=       1 DoRegI=T DoRafI=F ISym2E= 0 IDoP0=0 IntGTp=1.
 FoFCou: FMM=F IPFlag=           0 FMFlag=      100000 FMFlg1=           0
         NFxFlg=           0 DoJE=F BraDBF=F KetDBF=F FulRan=T
         wScrn=  0.000000 ICntrl=         0 IOpCl=  0 I1Cent=           0 NGrid=           0
         NMat0=    1 NMatS0=      1 NMatT0=    0 NMatD0=    1 NMtDS0=    0 NMtDT0=    0
 Symmetry not used in FoFCou.
 E= -346.818510914468    
 DIIS: error= 1.12D-02 at cycle   1 NSaved=   1.
 NSaved= 1 IEnMin= 1 EnMin= -346.818510914468     IErMin= 1 ErrMin= 1.12D-02
 ErrMax= 1.12D-02  0.00D+00 EMaxC= 1.00D-01 BMatC= 9.33D-02 BMatP= 9.33D-02
 IDIUse=3 WtCom= 8.88D-01 WtEn= 1.12D-01
 Coeff-Com:  0.100D+01
 Coeff-En:   0.100D+01
 Coeff:      0.100D+01
 Recover alternate guess density for next cycle.
 RMSDP=1.50D-03 MaxDP=4.80D-02              OVMax= 0.00D+00

 Cycle   2  Pass 0  IDiag  1:
 RMSU=  1.49D-03    CP:  9.76D-01
 E= -346.704350727605     Delta-E=        0.114160186863 Rises=F Damp=F
 Switch densities from cycles 1 and 2 for lowest energy.
 DIIS: error= 2.93D-02 at cycle   2 NSaved=   2.
 NSaved= 2 IEnMin= 1 EnMin= -346.818510914468     IErMin= 1 ErrMin= 1.12D-02
 ErrMax= 2.93D-02  0.00D+00 EMaxC= 1.00D+00 BMatC= 2.96D-01 BMatP= 9.33D-02
 IDIUse=1 WtCom= 1.00D+00 WtEn= 0.00D+00
 Coeff-Com:  0.777D+00 0.223D+00
 Coeff:      0.777D+00 0.223D+00
 Gap=     0.352 Goal=   None    Shift=    0.000
 RMSDP=1.11D-03 MaxDP=3.60D-02 DE= 1.14D-01 OVMax= 9.53D-02

 Cycle   3  Pass 0  IDiag  1:
 RMSU=  9.70D-04    CP:  9.95D-01  3.66D-01
 E= -346.925748612686     Delta-E=       -0.221397885082 Rises=F Damp=F
 DIIS: error= 6.13D-03 at cycle   3 NSaved=   3.
 NSaved= 3 IEnMin= 3 EnMin= -346.925748612686     IErMin= 3 ErrMin= 6.13D-03
 ErrMax= 6.13D-03  0.00D+00 EMaxC= 1.00D+00 BMatC= 1.53D-02 BMatP= 9.33D-02
 IDIUse=1 WtCom= 1.00D+00 WtEn= 0.00D+00
 Coeff-Com: -0.132D-01 0.162D+00 0.851D+00
 Coeff:     -0.132D-01 0.162D+00 0.851D+00
 Gap=     0.333 Goal=   None    Shift=    0.000
 RMSDP=3.41D-04 MaxDP=1.02D-02 DE=-2.21D-01 OVMax= 2.45D-02

 Cycle   4  Pass 0  IDiag  1:
 RMSU=  2.14D-04    CP:  9.92D-01  5.22D-01  8.67D-01
 E= -346.937748735740     Delta-E=       -0.012000123053 Rises=F Damp=F
 DIIS: error= 1.71D-03 at cycle   4 NSaved=   4.
 NSaved= 4 IEnMin= 4 EnMin= -346.937748735740     IErMin= 4 ErrMin= 1.71D-03
 ErrMax= 1.71D-03  0.00D+00 EMaxC= 1.00D+00 BMatC= 2.68D-03 BMatP= 1.53D-02
 IDIUse=1 WtCom= 1.00D+00 WtEn= 0.00D+00
 Coeff-Com: -0.434D-01 0.492D-01 0.368D+00 0.626D+00
 Coeff:     -0.434D-01 0.492D-01 0.368D+00 0.626D+00
 Gap=     0.335 Goal=   None    Shift=    0.000
 RMSDP=1.24D-04 MaxDP=6.03D-03 DE=-1.20D-02 OVMax= 1.07D-02

 Cycle   5  Pass 0  IDiag  1:
 RMSU=  8.90D-05    CP:  9.93D-01  5.28D-01  9.41D-01  7.80D-01
 E= -346.939395155500     Delta-E=       -0.001646419760 Rises=F Damp=F
 DIIS: error= 5.58D-04 at cycle   5 NSaved=   5.
 NSaved= 5 IEnMin= 5 EnMin= -346.939395155500     IErMin= 5 ErrMin= 5.58D-04
 ErrMax= 5.58D-04  0.00D+00 EMaxC= 1.00D+00 BMatC= 2.51D-04 BMatP= 2.68D-03
 IDIUse=1 WtCom= 1.00D+00 WtEn= 0.00D+00
 Coeff-Com: -0.108D-01-0.190D-02 0.442D-01 0.262D+00 0.707D+00
 Coeff:     -0.108D-01-0.190D-02 0.442D-01 0.262D+00 0.707D+00
 Gap=     0.333 Goal=   None    Shift=    0.000
 RMSDP=3.04D-05 MaxDP=9.07D-04 DE=-1.65D-03 OVMax= 3.81D-03

 Cycle   6  Pass 0  IDiag  1:
 RMSU=  1.96D-05    CP:  9.93D-01  5.29D-01  9.48D-01  8.77D-01  9.14D-01
 E= -346.939603789757     Delta-E=       -0.000208634257 Rises=F Damp=F
 DIIS: error= 1.18D-04 at cycle   6 NSaved=   6.
 NSaved= 6 IEnMin= 6 EnMin= -346.939603789757     IErMin= 6 ErrMin= 1.18D-04
 ErrMax= 1.18D-04  0.00D+00 EMaxC= 1.00D+00 BMatC= 6.33D-06 BMatP= 2.51D-04
 IDIUse=1 WtCom= 1.00D+00 WtEn= 0.00D+00
 Coeff-Com: -0.100D-02-0.212D-02-0.114D-01 0.199D-01 0.145D+00 0.850D+00
 Coeff:     -0.100D-02-0.212D-02-0.114D-01 0.199D-01 0.145D+00 0.850D+00
 Gap=     0.333 Goal=   None    Shift=    0.000
 RMSDP=1.23D-05 MaxDP=3.28D-04 DE=-2.09D-04 OVMax= 1.75D-03

 Cycle   7  Pass 0  IDiag  1:
 RMSU=  7.44D-06    CP:  9.93D-01  5.32D-01  9.50D-01  8.97D-01  9.93D-01
                    CP:  1.06D+00
 E= -346.939612192706     Delta-E=       -0.000008402949 Rises=F Damp=F
 DIIS: error= 5.65D-05 at cycle   7 NSaved=   7.
 NSaved= 7 IEnMin= 7 EnMin= -346.939612192706     IErMin= 7 ErrMin= 5.65D-05
 ErrMax= 5.65D-05  0.00D+00 EMaxC= 1.00D+00 BMatC= 1.32D-06 BMatP= 6.33D-06
 IDIUse=1 WtCom= 1.00D+00 WtEn= 0.00D+00
 Coeff-Com:  0.505D-03-0.581D-03-0.892D-02-0.176D-01-0.720D-02 0.330D+00
 Coeff-Com:  0.704D+00
 Coeff:      0.505D-03-0.581D-03-0.892D-02-0.176D-01-0.720D-02 0.330D+00
 Coeff:      0.704D+00
 Gap=     0.333 Goal=   None    Shift=    0.000
 RMSDP=4.37D-06 MaxDP=1.32D-04 DE=-8.40D-06 OVMax= 8.07D-04

 Initial convergence to 1.0D-05 achieved.  Increase integral accuracy.
 Cycle   8  Pass 1  IDiag  1:
