 Entering Gaussian System, Link 0=g16
 Input=tight/species/CC(C)OC=CO/conformers/CC(C)OC=CO_121.com
 Output=tight/species/CC(C)OC=CO/conformers/CC(C)OC=CO_121.log
 Initial command:
 /shared/centos7/gaussian/g16/l1.exe "/scratch/harms.n/gauss_scrdir/Gau-14834.inp" -scrdir="/scratch/harms.n/gauss_scrdir/"
 Entering Link 1 = /shared/centos7/gaussian/g16/l1.exe PID=     14835.
  
 Copyright (c) 1988,1990,1992,1993,1995,1998,2003,2009,2016,
            Gaussian, Inc.  All Rights Reserved.
  
 This is part of the Gaussian(R) 16 program.  It is based on
 the Gaussian(R) 09 system (copyright 2009, Gaussian, Inc.),
 the Gaussian(R) 03 system (copyright 2003, Gaussian, Inc.),
 the Gaussian(R) 98 system (copyright 1998, Gaussian, Inc.),
 the Gaussian(R) 94 system (copyright 1995, Gaussian, Inc.),
 the Gaussian 92(TM) system (copyright 1992, Gaussian, Inc.),
 the Gaussian 90(TM) system (copyright 1990, Gaussian, Inc.),
 the Gaussian 88(TM) system (copyright 1988, Gaussian, Inc.),
 the Gaussian 86(TM) system (copyright 1986, Carnegie Mellon
 University), and the Gaussian 82(TM) system (copyright 1983,
 Carnegie Mellon University). Gaussian is a federally registered
 trademark of Gaussian, Inc.
  
 This software contains proprietary and confidential information,
 including trade secrets, belonging to Gaussian, Inc.
  
 This software is provided under written license and may be
 used, copied, transmitted, or stored only in accord with that
 written license.
  
 The following legend is applicable only to US Government
 contracts under FAR:
  
                    RESTRICTED RIGHTS LEGEND
  
 Use, reproduction and disclosure by the US Government is
 subject to restrictions as set forth in subparagraphs (a)
 and (c) of the Commercial Computer Software - Restricted
 Rights clause in FAR 52.227-19.
  
 Gaussian, Inc.
 340 Quinnipiac St., Bldg. 40, Wallingford CT 06492
  
  
 ---------------------------------------------------------------
 Warning -- This program may not be used in any manner that
 competes with the business of Gaussian, Inc. or will provide
 assistance to any competitor of Gaussian, Inc.  The licensee
 of this program is prohibited from giving any competitor of
 Gaussian, Inc. access to this program.  By using this program,
 the user acknowledges that Gaussian, Inc. is engaged in the
 business of creating and licensing software in the field of
 computational chemistry and represents and warrants to the
 licensee that it is not a competitor of Gaussian, Inc. and that
 it will not use this program in any manner prohibited above.
 ---------------------------------------------------------------
  

 Cite this work as:
 Gaussian 16, Revision A.03,
 M. J. Frisch, G. W. Trucks, H. B. Schlegel, G. E. Scuseria, 
 M. A. Robb, J. R. Cheeseman, G. Scalmani, V. Barone, 
 G. A. Petersson, H. Nakatsuji, X. Li, M. Caricato, A. V. Marenich, 
 J. Bloino, B. G. Janesko, R. Gomperts, B. Mennucci, H. P. Hratchian, 
 J. V. Ortiz, A. F. Izmaylov, J. L. Sonnenberg, D. Williams-Young, 
 F. Ding, F. Lipparini, F. Egidi, J. Goings, B. Peng, A. Petrone, 
 T. Henderson, D. Ranasinghe, V. G. Zakrzewski, J. Gao, N. Rega, 
 G. Zheng, W. Liang, M. Hada, M. Ehara, K. Toyota, R. Fukuda, 
 J. Hasegawa, M. Ishida, T. Nakajima, Y. Honda, O. Kitao, H. Nakai, 
 T. Vreven, K. Throssell, J. A. Montgomery, Jr., J. E. Peralta, 
 F. Ogliaro, M. J. Bearpark, J. J. Heyd, E. N. Brothers, K. N. Kudin, 
 V. N. Staroverov, T. A. Keith, R. Kobayashi, J. Normand, 
 K. Raghavachari, A. P. Rendell, J. C. Burant, S. S. Iyengar, 
 J. Tomasi, M. Cossi, J. M. Millam, M. Klene, C. Adamo, R. Cammi, 
 J. W. Ochterski, R. L. Martin, K. Morokuma, O. Farkas, 
 J. B. Foresman, and D. J. Fox, Gaussian, Inc., Wallingford CT, 2016.
 
 ******************************************
 Gaussian 16:  EM64L-G16RevA.03 25-Dec-2016
                29-Sep-2019 
 ******************************************
 %nprocshared=20
 Will use up to   20 processors via shared memory.
 %mem=5GB
 ----------------------------------------------------------------------
 #p m062x/cc-pVTZ opt=(calcfc,maxcycles=900,Tight) freq IOP(7/33=1,2/16
 =3) scf=(maxcycle=900)
 ----------------------------------------------------------------------
 1/6=900,7=10,10=4,18=20,19=15,26=3,38=1/1,3;
 2/9=110,12=2,16=3,17=6,18=5,40=1/2;
 3/5=16,6=1,11=2,25=1,30=1,71=2,74=-55,140=1/1,2,3;
 4//1;
 5/5=2,7=900,38=5/2;
 8/6=4,10=90,11=11/1;
 11/6=1,8=1,9=11,15=111,16=1/1,2,10;
 10/6=1,13=1/2;
 6/7=2,8=2,9=2,10=2,28=1/1;
 7/10=1,18=20,25=1,33=1/1,2,3,16;
 1/6=900,7=10,10=4,18=20,19=15,26=3/3(2);
 2/9=110,16=3/2;
 99//99;
 2/9=110,16=3/2;
 3/5=16,6=1,11=2,25=1,30=1,71=1,74=-55/1,2,3;
 4/5=5,16=3,69=1/1;
 5/5=2,7=900,38=5/2;
 7/33=1/1,2,3,16;
 1/6=900,7=10,18=20,19=15,26=3/3(-5);
 2/9=110,16=3/2;
 6/7=2,8=2,9=2,10=2,19=2,28=1/1;
 99/9=1/99;
 Leave Link    1 at Sun Sep 29 09:13:52 2019, MaxMem=   671088640 cpu:               4.0 elap:               2.0
 (Enter /shared/centos7/gaussian/g16/l101.exe)
 ------------------------------
 Gaussian input prepared by ASE
 ------------------------------
 Symbolic Z-matrix:
 Charge =  0 Multiplicity = 1
 O                     3.15536   0.99135   2.71172 
 O                     1.16717  -0.68649   0.14941 
 C                     2.39422   1.95472   3.4092 
 C                     2.54988   1.76079   4.91757 
 C                     0.96151   2.03847   2.99643 
 C                     2.44298   0.04678   2.00873 
 C                     1.83526   0.28311   0.88228 
 H                     2.86612   2.94459   3.15658 
 H                     2.89883   0.7325    5.14795 
 H                     3.28754   2.47149   5.3326 
 H                     1.58051   1.93122   5.45971 
 H                     0.38825   1.09304   3.22931 
 H                     0.86173   2.24032   1.90952 
 H                     0.45607   2.88033   3.54904 
 H                     2.50792  -0.9715    2.4242 
 H                     1.77064   1.26139   0.42927 
 H                     1.31946  -1.55955   0.61456 
 
 ITRead=  0  0  0  0  0  0  0  0  0  0  0  0  0  0  0  0  0
 MicOpt= -1 -1 -1 -1 -1 -1 -1 -1 -1 -1 -1 -1 -1 -1 -1 -1 -1
 NAtoms=     17 NQM=       17 NQMF=       0 NMMI=      0 NMMIF=      0
                NMic=       0 NMicF=      0.
                    Isotopes and Nuclear Properties:
 (Nuclear quadrupole moments (NQMom) in fm**2, nuclear magnetic moments (NMagM)
  in nuclear magnetons)

  Atom         1           2           3           4           5           6           7           8           9          10
 IAtWgt=          16          16          12          12          12          12          12           1           1           1
 AtmWgt=  15.9949146  15.9949146  12.0000000  12.0000000  12.0000000  12.0000000  12.0000000   1.0078250   1.0078250   1.0078250
 NucSpn=           0           0           0           0           0           0           0           1           1           1
 AtZEff=  -0.0000000  -0.0000000  -0.0000000  -0.0000000  -0.0000000  -0.0000000  -0.0000000  -0.0000000  -0.0000000  -0.0000000
 NQMom=    0.0000000   0.0000000   0.0000000   0.0000000   0.0000000   0.0000000   0.0000000   0.0000000   0.0000000   0.0000000
 NMagM=    0.0000000   0.0000000   0.0000000   0.0000000   0.0000000   0.0000000   0.0000000   2.7928460   2.7928460   2.7928460
 AtZNuc=   8.0000000   8.0000000   6.0000000   6.0000000   6.0000000   6.0000000   6.0000000   1.0000000   1.0000000   1.0000000

  Atom        11          12          13          14          15          16          17
 IAtWgt=           1           1           1           1           1           1           1
 AtmWgt=   1.0078250   1.0078250   1.0078250   1.0078250   1.0078250   1.0078250   1.0078250
 NucSpn=           1           1           1           1           1           1           1
 AtZEff=  -0.0000000  -0.0000000  -0.0000000  -0.0000000  -0.0000000  -0.0000000  -0.0000000
 NQMom=    0.0000000   0.0000000   0.0000000   0.0000000   0.0000000   0.0000000   0.0000000
 NMagM=    2.7928460   2.7928460   2.7928460   2.7928460   2.7928460   2.7928460   2.7928460
 AtZNuc=   1.0000000   1.0000000   1.0000000   1.0000000   1.0000000   1.0000000   1.0000000
 Leave Link  101 at Sun Sep 29 09:13:54 2019, MaxMem=   671088640 cpu:               2.5 elap:               1.3
 (Enter /shared/centos7/gaussian/g16/l103.exe)

 GradGradGradGradGradGradGradGradGradGradGradGradGradGradGradGradGradGrad
 Berny optimization.
 Initialization pass.
                           ----------------------------
                           !    Initial Parameters    !
                           ! (Angstroms and Degrees)  !
 --------------------------                            --------------------------
 ! Name  Definition              Value          Derivative Info.                !
 --------------------------------------------------------------------------------
 ! R1    R(1,3)                  1.412          calculate D2E/DX2 analytically  !
 ! R2    R(1,6)                  1.3762         calculate D2E/DX2 analytically  !
 ! R3    R(2,7)                  1.3869         calculate D2E/DX2 analytically  !
 ! R4    R(2,17)                 1.0009         calculate D2E/DX2 analytically  !
 ! R5    R(3,4)                  1.5287         calculate D2E/DX2 analytically  !
 ! R6    R(3,5)                  1.4933         calculate D2E/DX2 analytically  !
 ! R7    R(3,8)                  1.1253         calculate D2E/DX2 analytically  !
 ! R8    R(4,9)                  1.1101         calculate D2E/DX2 analytically  !
 ! R9    R(4,10)                 1.1052         calculate D2E/DX2 analytically  !
 ! R10   R(4,11)                 1.1237         calculate D2E/DX2 analytically  !
 ! R11   R(5,12)                 1.1299         calculate D2E/DX2 analytically  !
 ! R12   R(5,13)                 1.11           calculate D2E/DX2 analytically  !
 ! R13   R(5,14)                 1.1267         calculate D2E/DX2 analytically  !
 ! R14   R(6,7)                  1.3016         calculate D2E/DX2 analytically  !
 ! R15   R(6,15)                 1.1017         calculate D2E/DX2 analytically  !
 ! R16   R(7,16)                 1.08           calculate D2E/DX2 analytically  !
 ! A1    A(3,1,6)              116.2037         calculate D2E/DX2 analytically  !
 ! A2    A(7,2,17)             106.9145         calculate D2E/DX2 analytically  !
 ! A3    A(1,3,4)              110.2392         calculate D2E/DX2 analytically  !
 ! A4    A(1,3,5)              114.7639         calculate D2E/DX2 analytically  !
 ! A5    A(1,3,8)              105.2601         calculate D2E/DX2 analytically  !
 ! A6    A(4,3,5)              112.1806         calculate D2E/DX2 analytically  !
 ! A7    A(4,3,8)              106.881          calculate D2E/DX2 analytically  !
 ! A8    A(5,3,8)              106.914          calculate D2E/DX2 analytically  !
 ! A9    A(3,4,9)              110.75           calculate D2E/DX2 analytically  !
 ! A10   A(3,4,10)             110.9102         calculate D2E/DX2 analytically  !
 ! A11   A(3,4,11)             111.6519         calculate D2E/DX2 analytically  !
 ! A12   A(9,4,10)             107.9345         calculate D2E/DX2 analytically  !
 ! A13   A(9,4,11)             108.153          calculate D2E/DX2 analytically  !
 ! A14   A(10,4,11)            107.2825         calculate D2E/DX2 analytically  !
 ! A15   A(3,5,12)             112.5107         calculate D2E/DX2 analytically  !
 ! A16   A(3,5,13)             111.5367         calculate D2E/DX2 analytically  !
 ! A17   A(3,5,14)             109.6762         calculate D2E/DX2 analytically  !
 ! A18   A(12,5,13)            107.9616         calculate D2E/DX2 analytically  !
 ! A19   A(12,5,14)            107.2477         calculate D2E/DX2 analytically  !
 ! A20   A(13,5,14)            107.7011         calculate D2E/DX2 analytically  !
 ! A21   A(1,6,7)              123.9985         calculate D2E/DX2 analytically  !
 ! A22   A(1,6,15)             114.2833         calculate D2E/DX2 analytically  !
 ! A23   A(7,6,15)             121.448          calculate D2E/DX2 analytically  !
 ! A24   A(2,7,6)              123.7313         calculate D2E/DX2 analytically  !
 ! A25   A(2,7,16)             112.5061         calculate D2E/DX2 analytically  !
 ! A26   A(6,7,16)             123.7399         calculate D2E/DX2 analytically  !
 ! D1    D(6,1,3,4)            112.1139         calculate D2E/DX2 analytically  !
 ! D2    D(6,1,3,5)            -15.7077         calculate D2E/DX2 analytically  !
 ! D3    D(6,1,3,8)           -132.9634         calculate D2E/DX2 analytically  !
 ! D4    D(3,1,6,7)             74.8044         calculate D2E/DX2 analytically  !
 ! D5    D(3,1,6,15)          -111.1056         calculate D2E/DX2 analytically  !
 ! D6    D(17,2,7,6)            -4.5233         calculate D2E/DX2 analytically  !
 ! D7    D(17,2,7,16)          177.1535         calculate D2E/DX2 analytically  !
 ! D8    D(1,3,4,9)            -20.5638         calculate D2E/DX2 analytically  !
 ! D9    D(1,3,4,10)            99.2549         calculate D2E/DX2 analytically  !
 ! D10   D(1,3,4,11)          -141.1516         calculate D2E/DX2 analytically  !
 ! D11   D(5,3,4,9)            108.6669         calculate D2E/DX2 analytically  !
 ! D12   D(5,3,4,10)          -131.5144         calculate D2E/DX2 analytically  !
 ! D13   D(5,3,4,11)           -11.921          calculate D2E/DX2 analytically  !
 ! D14   D(8,3,4,9)           -134.4575         calculate D2E/DX2 analytically  !
 ! D15   D(8,3,4,10)           -14.6388         calculate D2E/DX2 analytically  !
 ! D16   D(8,3,4,11)           104.9547         calculate D2E/DX2 analytically  !
 ! D17   D(1,3,5,12)            64.8924         calculate D2E/DX2 analytically  !
 ! D18   D(1,3,5,13)           -56.6027         calculate D2E/DX2 analytically  !
 ! D19   D(1,3,5,14)          -175.8292         calculate D2E/DX2 analytically  !
 ! D20   D(4,3,5,12)           -61.941          calculate D2E/DX2 analytically  !
 ! D21   D(4,3,5,13)           176.5639         calculate D2E/DX2 analytically  !
 ! D22   D(4,3,5,14)            57.3374         calculate D2E/DX2 analytically  !
 ! D23   D(8,3,5,12)          -178.7968         calculate D2E/DX2 analytically  !
 ! D24   D(8,3,5,13)            59.7081         calculate D2E/DX2 analytically  !
 ! D25   D(8,3,5,14)           -59.5184         calculate D2E/DX2 analytically  !
 ! D26   D(1,6,7,2)            177.12           calculate D2E/DX2 analytically  !
 ! D27   D(1,6,7,16)            -4.7429         calculate D2E/DX2 analytically  !
 ! D28   D(15,6,7,2)             3.4363         calculate D2E/DX2 analytically  !
 ! D29   D(15,6,7,16)         -178.4266         calculate D2E/DX2 analytically  !
 --------------------------------------------------------------------------------
 Trust Radius=3.00D-01 FncErr=1.00D-07 GrdErr=1.00D-06 EigMax=2.50D+02 EigMin=1.00D-04
 Number of steps in this run=    102 maximum allowed number of steps=    102.
 GradGradGradGradGradGradGradGradGradGradGradGradGradGradGradGradGradGrad

 Leave Link  103 at Sun Sep 29 09:13:55 2019, MaxMem=   671088640 cpu:               1.7 elap:               0.9
 (Enter /shared/centos7/gaussian/g16/l202.exe)
                          Input orientation:                          
 ---------------------------------------------------------------------
 Center     Atomic      Atomic             Coordinates (Angstroms)
 Number     Number       Type             X           Y           Z
 ---------------------------------------------------------------------
      1          8           0        3.155360    0.991353    2.711723
      2          8           0        1.167169   -0.686494    0.149410
      3          6           0        2.394222    1.954716    3.409203
      4          6           0        2.549880    1.760790    4.917571
      5          6           0        0.961505    2.038468    2.996434
      6          6           0        2.442978    0.046784    2.008732
      7          6           0        1.835262    0.283111    0.882285
      8          1           0        2.866117    2.944587    3.156583
      9          1           0        2.898830    0.732504    5.147948
     10          1           0        3.287544    2.471487    5.332597
     11          1           0        1.580513    1.931216    5.459709
     12          1           0        0.388250    1.093041    3.229314
     13          1           0        0.861730    2.240324    1.909524
     14          1           0        0.456075    2.880327    3.549041
     15          1           0        2.507916   -0.971503    2.424198
     16          1           0        1.770642    1.261389    0.429274
     17          1           0        1.319458   -1.559550    0.614558
 ---------------------------------------------------------------------
                    Distance matrix (angstroms):
                    1          2          3          4          5
     1  O    0.000000
     2  O    3.651510   0.000000
     3  C    1.412047   4.371258   0.000000
     4  C    2.413381   5.535021   1.528729   0.000000
     5  C    2.447551   3.946297   1.493342   2.508148   0.000000
     6  C    1.376189   2.371174   2.367256   3.377957   2.671539
     7  C    2.364553   1.386935   3.080911   4.356346   2.883462
     8  H    2.024026   5.011413   1.125320   2.145335   2.115242
     9  H    2.463332   5.477005   2.184414   1.110050   3.176127
    10  H    3.012848   6.429173   2.182779   1.105209   3.325000
    11  H    3.303773   5.934858   2.206185   1.123668   2.542125
    12  H    2.816938   3.641329   2.190609   2.822896   1.129905
    13  H    2.732067   3.428929   2.163132   3.482550   1.109989
    14  H    3.399333   4.978489   2.152376   2.740485   1.126748
    15  H    2.086781   2.655841   3.089647   3.699202   3.432020
    16  H    2.683270   2.058337   3.122424   4.582732   2.801582
    17  H    3.778325   1.000891   4.616841   5.572658   4.329803
                    6          7          8          9         10
     6  C    0.000000
     7  C    1.301558   0.000000
     8  H    3.145452   3.649459   0.000000
     9  H    3.245411   4.419164   2.976561   0.000000
    10  H    4.200067   5.167533   2.266376   1.791440   0.000000
    11  H    4.025441   4.871752   2.825613   1.808885   1.794995
    12  H    2.608906   2.873740   3.094081   3.180276   3.837945
    13  H    2.705884   2.415299   2.463476   4.112261   4.201838
    14  H    3.788047   3.969795   2.442634   3.624458   3.371268
    15  H    1.101697   2.098574   4.000056   3.236552   4.573924
    16  H    2.102853   1.080011   3.386951   4.880411   5.273321
    17  H    2.405479   1.932131   5.398268   5.319732   6.510186
                   11         12         13         14         15
    11  H    0.000000
    12  H    2.664337   0.000000
    13  H    3.635384   1.811709   0.000000
    14  H    2.411602   1.816924   1.806150   0.000000
    15  H    4.301184   3.066519   3.645634   4.506874   0.000000
    16  H    5.078395   3.127232   1.993884   3.752598   3.083683
    17  H    5.977381   3.839315   4.040482   5.391579   2.243441
                   16         17
    16  H    0.000000
    17  H    2.862795   0.000000
 Stoichiometry    C5H10O2
 Framework group  C1[X(C5H10O2)]
 Deg. of freedom    45
 Full point group                 C1      NOp   1
 Largest Abelian subgroup         C1      NOp   1
 Largest concise Abelian subgroup C1      NOp   1
                         Standard orientation:                         
 ---------------------------------------------------------------------
 Center     Atomic      Atomic             Coordinates (Angstroms)
 Number     Number       Type             X           Y           Z
 ---------------------------------------------------------------------
      1          8           0        0.428168   -0.939042   -0.506937
      2          8           0       -2.951041    0.199640    0.279111
      3          6           0        1.368304    0.107597   -0.386237
      4          6           0        2.554156   -0.342510    0.467093
      5          6           0        0.800360    1.408022    0.078958
      6          6           0       -0.781734   -0.744297    0.119246
      7          6           0       -1.711476    0.050870   -0.324987
      8          1           0        1.760147    0.275325   -1.427713
      9          1           0        2.276963   -1.212960    1.097723
     10          1           0        3.407150   -0.641060   -0.169110
     11          1           0        2.913854    0.479475    1.143546
     12          1           0        0.396245    1.351380    1.132603
     13          1           0       -0.019556    1.754989   -0.583934
     14          1           0        1.604279    2.197465    0.071468
     15          1           0       -0.952407   -1.398893    0.988793
     16          1           0       -1.592838    0.689368   -1.187929
     17          1           0       -2.988520   -0.457966    1.032723
 ---------------------------------------------------------------------
 Rotational constants (GHZ):           6.1414749           1.4143795           1.2694656
 Leave Link  202 at Sun Sep 29 09:13:56 2019, MaxMem=   671088640 cpu:               3.7 elap:               1.9
 (Enter /shared/centos7/gaussian/g16/l301.exe)
 Standard basis: CC-pVTZ (5D, 7F)
 Ernie: Thresh=  0.10000D-02 Tol=  0.10000D-05 Strict=F.
 Ernie:  21 primitive shells out of 262 were deleted.
 There are   395 symmetry adapted cartesian basis functions of A   symmetry.
 There are   350 symmetry adapted basis functions of A   symmetry.
   350 basis functions,   534 primitive gaussians,   395 cartesian basis functions
    28 alpha electrons       28 beta electrons
       nuclear repulsion energy       316.3004993831 Hartrees.
 IExCor= 4336 DFT=T Ex+Corr=M062X ExCW=0 ScaHFX=  0.540000
 ScaDFX=  1.000000  1.000000  1.000000  1.000000 ScalE2=  1.000000  1.000000
 IRadAn=      5 IRanWt=     -1 IRanGd=            0 ICorTp=0 IEmpDi=  4
 NAtoms=   17 NActive=   17 NUniq=   17 SFac= 1.00D+00 NAtFMM=   60 NAOKFM=F Big=F
 Integral buffers will be    131072 words long.
 Raffenetti 2 integral format.
 Two-electron integral symmetry is turned on.
 Leave Link  301 at Sun Sep 29 09:13:57 2019, MaxMem=   671088640 cpu:               1.5 elap:               0.8
 (Enter /shared/centos7/gaussian/g16/l302.exe)
 NPDir=0 NMtPBC=     1 NCelOv=     1 NCel=       1 NClECP=     1 NCelD=      1
         NCelK=      1 NCelE2=     1 NClLst=     1 CellRange=     0.0.
 One-electron integrals computed using PRISM.
 One-electron integral symmetry used in STVInt
 NBasis=   350 RedAO= T EigKep=  2.66D-04  NBF=   350
 NBsUse=   350 1.00D-06 EigRej= -1.00D+00 NBFU=   350
 Precomputing XC quadrature grid using
 IXCGrd= 4 IRadAn=           5 IRanWt=          -1 IRanGd=           0 AccXCQ= 0.00D+00.
 Generated NRdTot=       0 NPtTot=           0 NUsed=           0 NTot=          32
 NSgBfM=   395   395   395   395   395 MxSgAt=    17 MxSgA2=    17.
 Leave Link  302 at Sun Sep 29 09:14:51 2019, MaxMem=   671088640 cpu:             106.9 elap:              53.5
 (Enter /shared/centos7/gaussian/g16/l303.exe)
 DipDrv:  MaxL=1.
 Leave Link  303 at Sun Sep 29 09:14:56 2019, MaxMem=   671088640 cpu:              10.4 elap:               5.2
 (Enter /shared/centos7/gaussian/g16/l401.exe)
 ExpMin= 1.03D-01 ExpMax= 1.53D+04 ExpMxC= 5.22D+02 IAcc=3 IRadAn=         5 AccDes= 0.00D+00
 Harris functional with IExCor= 1009 and IRadAn=       5 diagonalized for initial guess.
 HarFok:  IExCor= 1009 AccDes= 0.00D+00 IRadAn=         5 IDoV= 1 UseB2=F ITyADJ=14
 ICtDFT=  3500011 ScaDFX=  1.000000  1.000000  1.000000  1.000000
 FoFCou: FMM=F IPFlag=           0 FMFlag=      100000 FMFlg1=           0
         NFxFlg=           0 DoJE=T BraDBF=F KetDBF=T FulRan=T
         wScrn=  0.000000 ICntrl=       500 IOpCl=  0 I1Cent=   200000004 NGrid=           0
         NMat0=    1 NMatS0=      1 NMatT0=    0 NMatD0=    1 NMtDS0=    0 NMtDT0=    0
 Petite list used in FoFCou.
 Harris En= -346.799753928268    
 JPrj=0 DoOrth=F DoCkMO=F.
 Leave Link  401 at Sun Sep 29 09:15:25 2019, MaxMem=   671088640 cpu:              58.4 elap:              29.2
 (Enter /shared/centos7/gaussian/g16/l502.exe)
 Integral symmetry usage will be decided dynamically.
 Closed shell SCF:
 Using DIIS extrapolation, IDIIS=  1040.
 NGot=   671088640 LenX=   670765141 LenY=   670608675
 Requested convergence on RMS density matrix=1.00D-08 within 900 cycles.
 Requested convergence on MAX density matrix=1.00D-06.
 Requested convergence on             energy=1.00D-06.
 No special actions if energy rises.
 Fock matrices will be formed incrementally for  20 cycles.
 Integral accuracy reduced to 1.0D-05 until final iterations.

 Cycle   1  Pass 0  IDiag  1:
 FoFJK:  IHMeth= 1 ICntrl=       0 DoSepK=F KAlg= 0 I1Cent=           0 FoldK=F
 IRaf= 950000000 NMat=       1 IRICut=       1 DoRegI=T DoRafI=F ISym2E= 0 IDoP0=0 IntGTp=1.
 FoFCou: FMM=F IPFlag=           0 FMFlag=      100000 FMFlg1=           0
         NFxFlg=           0 DoJE=F BraDBF=F KetDBF=F FulRan=T
         wScrn=  0.000000 ICntrl=         0 IOpCl=  0 I1Cent=           0 NGrid=           0
         NMat0=    1 NMatS0=      1 NMatT0=    0 NMatD0=    1 NMtDS0=    0 NMtDT0=    0
 Symmetry not used in FoFCou.
 E= -346.687949351613    
 DIIS: error= 2.57D-02 at cycle   1 NSaved=   1.
 NSaved= 1 IEnMin= 1 EnMin= -346.687949351613     IErMin= 1 ErrMin= 2.57D-02
 ErrMax= 2.57D-02  0.00D+00 EMaxC= 1.00D-01 BMatC= 2.85D-01 BMatP= 2.85D-01
 IDIUse=3 WtCom= 7.43D-01 WtEn= 2.57D-01
 Coeff-Com:  0.100D+01
 Coeff-En:   0.100D+01
 Coeff:      0.100D+01
 Gap=     0.345 Goal=   None    Shift=    0.000
 GapD=    0.345 DampG=1.000 DampE=0.500 DampFc=0.5000 IDamp=-1.
 Damping current iteration by 5.00D-01
 RMSDP=2.06D-03 MaxDP=9.46D-02              OVMax= 1.45D-01

 Cycle   2  Pass 0  IDiag  1:
 RMSU=  1.03D-03    CP:  1.00D+00
 E= -346.806728470343     Delta-E=       -0.118779118730 Rises=F Damp=T
 DIIS: error= 5.05D-03 at cycle   2 NSaved=   2.
 NSaved= 2 IEnMin= 2 EnMin= -346.806728470343     IErMin= 2 ErrMin= 5.05D-03
 ErrMax= 5.05D-03  0.00D+00 EMaxC= 1.00D-01 BMatC= 2.12D-02 BMatP= 2.85D-01
 IDIUse=3 WtCom= 9.50D-01 WtEn= 5.05D-02
 Coeff-Com: -0.136D+00 0.114D+01
 Coeff-En:   0.000D+00 0.100D+01
 Coeff:     -0.129D+00 0.113D+01
 Gap=     0.342 Goal=   None    Shift=    0.000
 RMSDP=4.26D-04 MaxDP=1.34D-02 DE=-1.19D-01 OVMax= 7.13D-02

 Cycle   3  Pass 0  IDiag  1:
 RMSU=  4.22D-04    CP:  1.00D+00  9.59D-01
 E= -346.913744363865     Delta-E=       -0.107015893522 Rises=F Damp=F
 DIIS: error= 2.17D-03 at cycle   3 NSaved=   3.
 NSaved= 3 IEnMin= 3 EnMin= -346.913744363865     IErMin= 3 ErrMin= 2.17D-03
 ErrMax= 2.17D-03  0.00D+00 EMaxC= 1.00D-01 BMatC= 2.69D-03 BMatP= 2.12D-02
 IDIUse=3 WtCom= 9.78D-01 WtEn= 2.17D-02
 Coeff-Com: -0.767D-01 0.273D+00 0.803D+00
 Coeff-En:   0.000D+00 0.000D+00 0.100D+01
 Coeff:     -0.750D-01 0.267D+00 0.808D+00
 Gap=     0.343 Goal=   None    Shift=    0.000
 RMSDP=1.16D-04 MaxDP=3.71D-03 DE=-1.07D-01 OVMax= 8.95D-03

 Cycle   4  Pass 0  IDiag  1:
 RMSU=  9.43D-05    CP:  1.00D+00  1.02D+00  9.19D-01
 E= -346.915335195697     Delta-E=       -0.001590831832 Rises=F Damp=F
 DIIS: error= 1.03D-03 at cycle   4 NSaved=   4.
 NSaved= 4 IEnMin= 4 EnMin= -346.915335195697     IErMin= 4 ErrMin= 1.03D-03
 ErrMax= 1.03D-03  0.00D+00 EMaxC= 1.00D-01 BMatC= 6.50D-04 BMatP= 2.69D-03
 IDIUse=3 WtCom= 9.90D-01 WtEn= 1.03D-02
 Coeff-Com: -0.253D-01 0.662D-01 0.380D+00 0.579D+00
 Coeff-En:   0.000D+00 0.000D+00 0.110D+00 0.890D+00
 Coeff:     -0.250D-01 0.656D-01 0.377D+00 0.582D+00
 Gap=     0.340 Goal=   None    Shift=    0.000
 RMSDP=4.34D-05 MaxDP=1.75D-03 DE=-1.59D-03 OVMax= 4.36D-03

 Cycle   5  Pass 0  IDiag  1:
 RMSU=  2.53D-05    CP:  1.00D+00  1.01D+00  9.54D-01  6.65D-01
 E= -346.915810262679     Delta-E=       -0.000475066982 Rises=F Damp=F
 DIIS: error= 1.84D-04 at cycle   5 NSaved=   5.
 NSaved= 5 IEnMin= 5 EnMin= -346.915810262679     IErMin= 5 ErrMin= 1.84D-04
 ErrMax= 1.84D-04  0.00D+00 EMaxC= 1.00D-01 BMatC= 2.59D-05 BMatP= 6.50D-04
 IDIUse=3 WtCom= 9.98D-01 WtEn= 1.84D-03
 Coeff-Com: -0.463D-02 0.879D-02 0.973D-01 0.232D+00 0.666D+00
 Coeff-En:   0.000D+00 0.000D+00 0.000D+00 0.000D+00 0.100D+01
 Coeff:     -0.462D-02 0.878D-02 0.971D-01 0.232D+00 0.667D+00
 Gap=     0.339 Goal=   None    Shift=    0.000
 RMSDP=1.11D-05 MaxDP=3.66D-04 DE=-4.75D-04 OVMax= 8.92D-04

 Cycle   6  Pass 0  IDiag  1:
 RMSU=  8.29D-06    CP:  1.00D+00  1.01D+00  9.61D-01  6.92D-01  7.72D-01
 E= -346.915828477662     Delta-E=       -0.000018214982 Rises=F Damp=F
 DIIS: error= 6.31D-05 at cycle   6 NSaved=   6.
 NSaved= 6 IEnMin= 6 EnMin= -346.915828477662     IErMin= 6 ErrMin= 6.31D-05
 ErrMax= 6.31D-05  0.00D+00 EMaxC= 1.00D-01 BMatC= 1.70D-06 BMatP= 2.59D-05
 IDIUse=1 WtCom= 1.00D+00 WtEn= 0.00D+00
 Coeff-Com:  0.156D-03-0.148D-02 0.119D-01 0.538D-01 0.248D+00 0.688D+00
 Coeff:      0.156D-03-0.148D-02 0.119D-01 0.538D-01 0.248D+00 0.688D+00
 Gap=     0.340 Goal=   None    Shift=    0.000
 RMSDP=3.36D-06 MaxDP=1.24D-04 DE=-1.82D-05 OVMax= 5.58D-04

 Initial convergence to 1.0D-05 achieved.  Increase integral accuracy.
 Cycle   7  Pass 1  IDiag  1:
 E= -346.915845404629     Delta-E=       -0.000016926967 Rises=F Damp=F
 DIIS: error= 2.97D-05 at cycle   1 NSaved=   1.
 NSaved= 1 IEnMin= 1 EnMin= -346.915845404629     IErMin= 1 ErrMin= 2.97D-05
 ErrMax= 2.97D-05  0.00D+00 EMaxC= 1.00D-01 BMatC= 7.71D-07 BMatP= 7.71D-07
 IDIUse=1 WtCom= 1.00D+00 WtEn= 0.00D+00
 Coeff-Com:  0.100D+01
 Coeff:      0.100D+01
 Gap=     0.340 Goal=   None    Shift=    0.000
 RMSDP=3.36D-06 MaxDP=1.24D-04 DE=-1.69D-05 OVMax= 3.69D-04

 Cycle   8  Pass 1  IDiag  1:
 RMSU=  7.52D-06    CP:  1.00D+00
 E= -346.915845572822     Delta-E=       -0.000000168194 Rises=F Damp=F
 DIIS: error= 2.77D-05 at cycle   2 NSaved=   2.
 NSaved= 2 IEnMin= 2 EnMin= -346.915845572822     IErMin= 2 ErrMin= 2.77D-05
 ErrMax= 2.77D-05  0.00D+00 EMaxC= 1.00D-01 BMatC= 3.77D-07 BMatP= 7.71D-07
 IDIUse=1 WtCom= 1.00D+00 WtEn= 0.00D+00
 Coeff-Com:  0.383D+00 0.617D+00
 Coeff:      0.383D+00 0.617D+00
 Gap=     0.340 Goal=   None    Shift=    0.000
 RMSDP=1.79D-06 MaxDP=6.24D-05 DE=-1.68D-07 OVMax= 3.48D-04

 Cycle   9  Pass 1  IDiag  1:
 RMSU=  1.76D-06    CP:  1.00D+00  9.59D-01
 E= -346.915845837901     Delta-E=       -0.000000265079 Rises=F Damp=F
 DIIS: error= 1.14D-05 at cycle   3 NSaved=   3.
 NSaved= 3 IEnMin= 3 EnMin= -346.915845837901     IErMin= 3 ErrMin= 1.14D-05
 ErrMax= 1.14D-05  0.00D+00 EMaxC= 1.00D-01 BMatC= 8.73D-08 BMatP= 3.77D-07
 IDIUse=1 WtCom= 1.00D+00 WtEn= 0.00D+00
 Coeff-Com: -0.709D-02 0.320D+00 0.687D+00
 Coeff:     -0.709D-02 0.320D+00 0.687D+00
 Gap=     0.340 Goal=   None    Shift=    0.000
 RMSDP=6.39D-07 MaxDP=2.03D-05 DE=-2.65D-07 OVMax= 1.06D-04

 Cycle  10  Pass 1  IDiag  1:
 RMSU=  2.69D-07    CP:  1.00D+00  9.97D-01  7.15D-01
 E= -346.915845909687     Delta-E=       -0.000000071785 Rises=F Damp=F
 DIIS: error= 1.81D-06 at cycle   4 NSaved=   4.
 NSaved= 4 IEnMin= 4 EnMin= -346.915845909687     IErMin= 4 ErrMin= 1.81D-06
 ErrMax= 1.81D-06  0.00D+00 EMaxC= 1.00D-01 BMatC= 2.74D-09 BMatP= 8.73D-08
 IDIUse=1 WtCom= 1.00D+00 WtEn= 0.00D+00
 Coeff-Com: -0.130D-01 0.142D+00 0.326D+00 0.545D+00
 Coeff:     -0.130D-01 0.142D+00 0.326D+00 0.545D+00
 Gap=     0.340 Goal=   None    Shift=    0.000
 RMSDP=9.47D-08 MaxDP=4.77D-06 DE=-7.18D-08 OVMax= 9.53D-06

 Cycle  11  Pass 1  IDiag  1:
 RMSU=  8.95D-08    CP:  1.00D+00  9.99D-01  7.26D-01  9.31D-01
 E= -346.915845911937     Delta-E=       -0.000000002250 Rises=F Damp=F
 DIIS: error= 4.17D-07 at cycle   5 NSaved=   5.
 NSaved= 5 IEnMin= 5 EnMin= -346.915845911937     IErMin= 5 ErrMin= 4.17D-07
 ErrMax= 4.17D-07  0.00D+00 EMaxC= 1.00D-01 BMatC= 8.38D-11 BMatP= 2.74D-09
 IDIUse=1 WtCom= 1.00D+00 WtEn= 0.00D+00
 Coeff-Com: -0.136D-02-0.883D-02-0.244D-01 0.856D-01 0.949D+00
 Coeff:     -0.136D-02-0.883D-02-0.244D-01 0.856D-01 0.949D+00
 Gap=     0.340 Goal=   None    Shift=    0.000
 RMSDP=4.24D-08 MaxDP=1.40D-06 DE=-2.25D-09 OVMax= 4.31D-06

 Cycle  12  Pass 1  IDiag  1:
 RMSU=  2.71D-08    CP:  1.00D+00  1.00D+00  7.25D-01  1.04D+00  1.11D+00
 E= -346.915845912043     Delta-E=       -0.000000000107 Rises=F Damp=F
 DIIS: error= 1.54D-07 at cycle   6 NSaved=   6.
 NSaved= 6 IEnMin= 6 EnMin= -346.915845912043     IErMin= 6 ErrMin= 1.54D-07
 ErrMax= 1.54D-07  0.00D+00 EMaxC= 1.00D-01 BMatC= 1.78D-11 BMatP= 8.38D-11
 IDIUse=1 WtCom= 1.00D+00 WtEn= 0.00D+00
 Coeff-Com:  0.841D-03-0.184D-01-0.463D-01-0.250D-01 0.378D+00 0.711D+00
 Coeff:      0.841D-03-0.184D-01-0.463D-01-0.250D-01 0.378D+00 0.711D+00
 Gap=     0.340 Goal=   None    Shift=    0.000
 RMSDP=1.35D-08 MaxDP=4.61D-07 DE=-1.07D-10 OVMax= 1.35D-06

 Cycle  13  Pass 1  IDiag  1:
 RMSU=  8.50D-09    CP:  1.00D+00  1.00D+00  7.26D-01  1.07D+00  1.17D+00
                    CP:  9.76D-01
 E= -346.915845912060     Delta-E=       -0.000000000017 Rises=F Damp=F
 DIIS: error= 3.55D-08 at cycle   7 NSaved=   7.
 NSaved= 7 IEnMin= 7 EnMin= -346.915845912060     IErMin= 7 ErrMin= 3.55D-08
 ErrMax= 3.55D-08  0.00D+00 EMaxC= 1.00D-01 BMatC= 1.49D-12 BMatP= 1.78D-11
 IDIUse=1 WtCom= 1.00D+00 WtEn= 0.00D+00
 Coeff-Com:  0.413D-03-0.583D-02-0.151D-01-0.157D-01 0.650D-01 0.270D+00
 Coeff-Com:  0.702D+00
 Coeff:      0.413D-03-0.583D-02-0.151D-01-0.157D-01 0.650D-01 0.270D+00
 Coeff:      0.702D+00
 Gap=     0.340 Goal=   None    Shift=    0.000
 RMSDP=3.84D-09 MaxDP=1.23D-07 DE=-1.72D-11 OVMax= 5.37D-07

 SCF Done:  E(RM062X) =  -346.915845912     A.U. after   13 cycles
            NFock= 13  Conv=0.38D-08     -V/T= 2.0061
 KE= 3.448108665999D+02 PE=-1.442634062532D+03 EE= 4.346068506365D+02
 Leave Link  502 at Sun Sep 29 09:25:21 2019, MaxMem=   671088640 cpu:            1191.1 elap:             595.7
 (Enter /shared/centos7/gaussian/g16/l801.exe)
 DoSCS=F DFT=T ScalE2(SS,OS)=  1.000000  1.000000
 Range of M.O.s used for correlation:     1   350
 NBasis=   350 NAE=    28 NBE=    28 NFC=     0 NFV=     0
 NROrb=    350 NOA=    28 NOB=    28 NVA=   322 NVB=   322

 **** Warning!!: The largest alpha MO coefficient is  0.12882761D+02

 Leave Link  801 at Sun Sep 29 09:25:22 2019, MaxMem=   671088640 cpu:               2.2 elap:               1.1
 (Enter /shared/centos7/gaussian/g16/l1101.exe)
 Using compressed storage, NAtomX=    17.
 Will process     18 centers per pass.
 Leave Link 1101 at Sun Sep 29 09:25:50 2019, MaxMem=   671088640 cpu:              56.2 elap:              28.1
 (Enter /shared/centos7/gaussian/g16/l1102.exe)
 Symmetrizing basis deriv contribution to polar:
 IMax=3 JMax=2 DiffMx= 0.00D+00
 Leave Link 1102 at Sun Sep 29 09:25:53 2019, MaxMem=   671088640 cpu:               5.1 elap:               2.6
 (Enter /shared/centos7/gaussian/g16/l1110.exe)
 Forming Gx(P) for the SCF density, NAtomX=    17.
 Integral derivatives from FoFJK, PRISM(SPDF).
 Do as many integral derivatives as possible in FoFJK.
 G2DrvN: MDV=     671087280.
 G2DrvN: will do    18 centers at a time, making    1 passes.
 Calling FoFCou, ICntrl=  3107 FMM=F I1Cent=   0 AccDes= 0.00D+00.
 FoFJK:  IHMeth= 1 ICntrl=    3107 DoSepK=F KAlg= 0 I1Cent=           0 FoldK=F
 IRaf=         0 NMat=       1 IRICut=       1 DoRegI=T DoRafI=F ISym2E= 0 IDoP0=0 IntGTp=1.
 FoFCou: FMM=F IPFlag=           0 FMFlag=      100000 FMFlg1=           0
         NFxFlg=           0 DoJE=F BraDBF=F KetDBF=F FulRan=T
         wScrn=  0.000000 ICntrl=      3107 IOpCl=  0 I1Cent=           0 NGrid=           0
         NMat0=    1 NMatS0=      1 NMatT0=    0 NMatD0=    1 NMtDS0=    0 NMtDT0=    0
 Symmetry not used in FoFCou.
 End of G2Drv F.D. properties file   721 does not exist.
 End of G2Drv F.D. properties file   722 does not exist.
 End of G2Drv F.D. properties file   788 does not exist.
 Leave Link 1110 at Sun Sep 29 09:43:42 2019, MaxMem=   671088640 cpu:            2137.9 elap:            1069.1
 (Enter /shared/centos7/gaussian/g16/l1002.exe)
 Minotr:  Closed shell wavefunction.
          IDoAtm=11111111111111111
          Direct CPHF calculation.
          Differentiating once with respect to nuclear coordinates.
          Requested convergence is 1.0D-08 RMS, and 1.0D-07 maximum.
          Secondary convergence is 1.0D-12 RMS, and 1.0D-12 maximum.
          NewPWx=T KeepS1=F KeepF1=F KeepIn=T MapXYZ=F SortEE=F KeepMc=T.
         5095 words used for storage of precomputed grid.
 Two-electron integrals replicated using symmetry.
          MDV=     671088640 using IRadAn=       1.
          Solving linear equations simultaneously, MaxMat=     380.
 FoF2E skips out because all densities are zero.
 CalDSu exits because no D1Ps are significant.
 FoFJK:  IHMeth= 1 ICntrl=       0 DoSepK=F KAlg= 0 I1Cent=           0 FoldK=F
 IRaf= 940000000 NMat=      51 IRICut=     127 DoRegI=T DoRafI=T ISym2E= 2 IDoP0=3 IntGTp=3.
 FoFCou: FMM=F IPFlag=           0 FMFlag=      100000 FMFlg1=           0
         NFxFlg=           0 DoJE=F BraDBF=F KetDBF=F FulRan=T
         wScrn=  0.000000 ICntrl=         0 IOpCl=  0 I1Cent=           0 NGrid=           0
         NMat0=   51 NMatS0=     51 NMatT0=    0 NMatD0=   51 NMtDS0=    0 NMtDT0=    0
 Integrals replicated using symmetry in FoFCou.
 Raff kept on since  91.24% of shell-pairs survive, threshold=   0.20 IRatSp=91.
          There are    54 degrees of freedom in the 1st order CPHF.  IDoFFX=6 NUNeed=     0.
     48 vectors produced by pass  0 Test12= 1.67D-14 1.85D-09 XBig12= 7.38D-02 5.34D-02.
 AX will form    48 AO Fock derivatives at one time.
     48 vectors produced by pass  1 Test12= 1.67D-14 1.85D-09 XBig12= 6.13D-03 1.81D-02.
     48 vectors produced by pass  2 Test12= 1.67D-14 1.85D-09 XBig12= 2.49D-04 3.04D-03.
     48 vectors produced by pass  3 Test12= 1.67D-14 1.85D-09 XBig12= 2.59D-06 2.09D-04.
     48 vectors produced by pass  4 Test12= 1.67D-14 1.85D-09 XBig12= 1.96D-08 1.46D-05.
     48 vectors produced by pass  5 Test12= 1.67D-14 1.85D-09 XBig12= 1.01D-10 1.08D-06.
     26 vectors produced by pass  6 Test12= 1.67D-14 1.85D-09 XBig12= 5.35D-13 6.41D-08.
      5 vectors produced by pass  7 Test12= 1.67D-14 1.85D-09 XBig12= 2.02D-15 4.87D-09.
 InvSVY:  IOpt=1 It=  1 EMax= 2.50D-16
 Solved reduced A of dimension   319 with    54 vectors.
 End of Minotr F.D. properties file   721 does not exist.
 End of Minotr F.D. properties file   722 does not exist.
 End of Minotr F.D. properties file   788 does not exist.
 Leave Link 1002 at Sun Sep 29 10:14:17 2019, MaxMem=   671088640 cpu:            3669.8 elap:            1835.2
 (Enter /shared/centos7/gaussian/g16/l601.exe)
 Copying SCF densities to generalized density rwf, IOpCl= 0 IROHF=0.

 **********************************************************************

            Population analysis using the SCF density.

 **********************************************************************

 Orbital symmetries:
       Occupied  (A) (A) (A) (A) (A) (A) (A) (A) (A) (A) (A) (A)
                 (A) (A) (A) (A) (A) (A) (A) (A) (A) (A) (A) (A)
                 (A) (A) (A) (A)
       Virtual   (A) (A) (A) (A) (A) (A) (A) (A) (A) (A) (A) (A)
                 (A) (A) (A) (A) (A) (A) (A) (A) (A) (A) (A) (A)
                 (A) (A) (A) (A) (A) (A) (A) (A) (A) (A) (A) (A)
                 (A) (A) (A) (A) (A) (A) (A) (A) (A) (A) (A) (A)
                 (A) (A) (A) (A) (A) (A) (A) (A) (A) (A) (A) (A)
                 (A) (A) (A) (A) (A) (A) (A) (A) (A) (A) (A) (A)
                 (A) (A) (A) (A) (A) (A) (A) (A) (A) (A) (A) (A)
                 (A) (A) (A) (A) (A) (A) (A) (A) (A) (A) (A) (A)
                 (A) (A) (A) (A) (A) (A) (A) (A) (A) (A) (A) (A)
                 (A) (A) (A) (A) (A) (A) (A) (A) (A) (A) (A) (A)
                 (A) (A) (A) (A) (A) (A) (A) (A) (A) (A) (A) (A)
                 (A) (A) (A) (A) (A) (A) (A) (A) (A) (A) (A) (A)
                 (A) (A) (A) (A) (A) (A) (A) (A) (A) (A) (A) (A)
                 (A) (A) (A) (A) (A) (A) (A) (A) (A) (A) (A) (A)
                 (A) (A) (A) (A) (A) (A) (A) (A) (A) (A) (A) (A)
                 (A) (A) (A) (A) (A) (A) (A) (A) (A) (A) (A) (A)
                 (A) (A) (A) (A) (A) (A) (A) (A) (A) (A) (A) (A)
                 (A) (A) (A) (A) (A) (A) (A) (A) (A) (A) (A) (A)
                 (A) (A) (A) (A) (A) (A) (A) (A) (A) (A) (A) (A)
                 (A) (A) (A) (A) (A) (A) (A) (A) (A) (A) (A) (A)
                 (A) (A) (A) (A) (A) (A) (A) (A) (A) (A) (A) (A)
                 (A) (A) (A) (A) (A) (A) (A) (A) (A) (A) (A) (A)
                 (A) (A) (A) (A) (A) (A) (A) (A) (A) (A) (A) (A)
                 (A) (A) (A) (A) (A) (A) (A) (A) (A) (A) (A) (A)
                 (A) (A) (A) (A) (A) (A) (A) (A) (A) (A) (A) (A)
                 (A) (A) (A) (A) (A) (A) (A) (A) (A) (A) (A) (A)
                 (A) (A) (A) (A) (A) (A) (A) (A) (A) (A)
 The electronic state is 1-A.
 Alpha  occ. eigenvalues --  -19.65289 -19.63490 -10.59417 -10.58829 -10.57611
 Alpha  occ. eigenvalues --  -10.53657 -10.53003  -1.17873  -1.16473  -0.89023
 Alpha  occ. eigenvalues --   -0.84347  -0.77755  -0.71222  -0.65999  -0.59143
 Alpha  occ. eigenvalues --   -0.57543  -0.55592  -0.51218  -0.50493  -0.47055
 Alpha  occ. eigenvalues --   -0.46420  -0.45621  -0.44845  -0.43263  -0.41130
 Alpha  occ. eigenvalues --   -0.38751  -0.34397  -0.28212
 Alpha virt. eigenvalues --    0.05758   0.06172   0.07234   0.08697   0.10687
 Alpha virt. eigenvalues --    0.11534   0.12410   0.13796   0.14478   0.17827
 Alpha virt. eigenvalues --    0.19236   0.19798   0.21490   0.23764   0.24432
 Alpha virt. eigenvalues --    0.27209   0.28496   0.30250   0.31216   0.33139
 Alpha virt. eigenvalues --    0.34609   0.36751   0.37425   0.37840   0.40444
 Alpha virt. eigenvalues --    0.41143   0.42939   0.43608   0.45452   0.46244
 Alpha virt. eigenvalues --    0.47053   0.48153   0.48600   0.48959   0.51243
 Alpha virt. eigenvalues --    0.51651   0.52067   0.52752   0.53350   0.55302
 Alpha virt. eigenvalues --    0.56600   0.58256   0.59375   0.60245   0.62348
 Alpha virt. eigenvalues --    0.64186   0.65123   0.67174   0.70105   0.70987
 Alpha virt. eigenvalues --    0.72749   0.74607   0.78349   0.80448   0.81130
 Alpha virt. eigenvalues --    0.83640   0.85779   0.88187   0.90623   0.91547
 Alpha virt. eigenvalues --    0.92763   0.94520   0.97574   0.98623   1.00098
 Alpha virt. eigenvalues --    1.00983   1.02098   1.03973   1.04584   1.05768
 Alpha virt. eigenvalues --    1.08666   1.10629   1.11391   1.12070   1.13585
 Alpha virt. eigenvalues --    1.14716   1.16429   1.19425   1.19823   1.20263
 Alpha virt. eigenvalues --    1.21109   1.23048   1.24128   1.26324   1.27366
 Alpha virt. eigenvalues --    1.30627   1.31327   1.32499   1.33193   1.35004
 Alpha virt. eigenvalues --    1.36628   1.37617   1.38064   1.38686   1.40470
 Alpha virt. eigenvalues --    1.41354   1.44699   1.46401   1.49227   1.50560
 Alpha virt. eigenvalues --    1.51564   1.53380   1.55239   1.58632   1.60204
 Alpha virt. eigenvalues --    1.61414   1.65760   1.67263   1.80545   1.85212
 Alpha virt. eigenvalues --    1.88427   1.90923   1.97134   2.00815   2.04902
 Alpha virt. eigenvalues --    2.08432   2.11226   2.14453   2.19651   2.22443
 Alpha virt. eigenvalues --    2.27176   2.30182   2.32060   2.32884   2.34120
 Alpha virt. eigenvalues --    2.36804   2.37658   2.41306   2.43760   2.47404
 Alpha virt. eigenvalues --    2.47800   2.51912   2.53457   2.56035   2.58028
 Alpha virt. eigenvalues --    2.59919   2.62376   2.63459   2.65107   2.67057
 Alpha virt. eigenvalues --    2.68118   2.72786   2.74651   2.76909   2.78977
 Alpha virt. eigenvalues --    2.80039   2.81387   2.82788   2.85506   2.86128
 Alpha virt. eigenvalues --    2.87300   2.88014   2.89891   2.92187   2.92736
 Alpha virt. eigenvalues --    2.94253   2.96281   2.97047   2.98073   2.99145
 Alpha virt. eigenvalues --    3.01366   3.04200   3.04549   3.07392   3.08882
 Alpha virt. eigenvalues --    3.10350   3.11004   3.11860   3.12581   3.15594
 Alpha virt. eigenvalues --    3.16515   3.17277   3.18965   3.21387   3.21959
 Alpha virt. eigenvalues --    3.23929   3.26693   3.27939   3.28568   3.30467
 Alpha virt. eigenvalues --    3.31479   3.32917   3.33931   3.36698   3.37404
 Alpha virt. eigenvalues --    3.38289   3.40413   3.41672   3.42219   3.44012
 Alpha virt. eigenvalues --    3.46955   3.48068   3.48524   3.52601   3.53192
 Alpha virt. eigenvalues --    3.54770   3.56699   3.58033   3.59319   3.61482
 Alpha virt. eigenvalues --    3.61884   3.63507   3.66510   3.67665   3.69551
 Alpha virt. eigenvalues --    3.73185   3.75156   3.75914   3.77267   3.78871
 Alpha virt. eigenvalues --    3.80420   3.82677   3.83880   3.85187   3.87063
 Alpha virt. eigenvalues --    3.87524   3.89271   3.91269   3.93363   3.94043
 Alpha virt. eigenvalues --    3.94657   3.96531   3.97067   4.00830   4.01752
 Alpha virt. eigenvalues --    4.03542   4.03662   4.05838   4.06419   4.08338
 Alpha virt. eigenvalues --    4.10539   4.12707   4.13275   4.14094   4.17616
 Alpha virt. eigenvalues --    4.19466   4.23578   4.24829   4.26286   4.28986
 Alpha virt. eigenvalues --    4.29375   4.31090   4.35475   4.37254   4.39244
 Alpha virt. eigenvalues --    4.42904   4.45491   4.49529   4.52717   4.56276
 Alpha virt. eigenvalues --    4.57844   4.60010   4.64141   4.67594   4.69055
 Alpha virt. eigenvalues --    4.71455   4.74088   4.75975   4.78743   4.79937
 Alpha virt. eigenvalues --    4.82452   4.83886   4.87024   4.89810   4.92193
 Alpha virt. eigenvalues --    4.93201   4.97355   4.98651   5.02589   5.04352
 Alpha virt. eigenvalues --    5.06082   5.08559   5.09171   5.13854   5.18032
 Alpha virt. eigenvalues --    5.20459   5.21173   5.24479   5.24730   5.27183
 Alpha virt. eigenvalues --    5.30726   5.32631   5.36475   5.38785   5.45810
 Alpha virt. eigenvalues --    5.46668   5.54140   5.58312   5.67915   5.70943
 Alpha virt. eigenvalues --    5.75846   5.77385   5.80950   5.82755   5.86524
 Alpha virt. eigenvalues --    5.88971   6.01172   6.21667   6.27620   6.31334
 Alpha virt. eigenvalues --    6.32091   6.47964   6.50839   6.58865   6.68093
 Alpha virt. eigenvalues --    6.75115   6.76433   6.78708   6.80979   7.04233
 Alpha virt. eigenvalues --    7.13038   7.13893   7.27664   7.29656   7.36006
 Alpha virt. eigenvalues --   10.43500  10.95294  11.72529  11.81068  12.99351
 Alpha virt. eigenvalues --   13.43775  14.21746
          Condensed to atoms (all electrons):
               1          2          3          4          5          6
     1  O    7.885389   0.003427   0.303858  -0.056831  -0.061945   0.332972
     2  O    0.003427   7.782164   0.000559  -0.000001  -0.000584  -0.076227
     3  C    0.303858   0.000559   4.927761   0.320030   0.289218  -0.094290
     4  C   -0.056831  -0.000001   0.320030   5.024212  -0.060529  -0.000666
     5  C   -0.061945  -0.000584   0.289218  -0.060529   5.102433  -0.004423
     6  C    0.332972  -0.076227  -0.094290  -0.000666  -0.004423   5.082181
     7  C   -0.056214   0.351208  -0.018749  -0.002034   0.000903   0.489715
     8  H   -0.036527  -0.000003   0.406624  -0.062385  -0.047449   0.004782
     9  H    0.001648  -0.000007  -0.039906   0.385315   0.002951   0.004287
    10  H    0.002320  -0.000000  -0.034375   0.402218   0.005851  -0.000283
    11  H    0.005035  -0.000001  -0.048925   0.391973  -0.001531  -0.000211
    12  H    0.000585   0.001075  -0.035869  -0.006721   0.396884  -0.009870
    13  H    0.002380   0.000608  -0.033159   0.009357   0.404445  -0.011107
    14  H    0.003177  -0.000037  -0.025465  -0.003431   0.389046   0.003928
    15  H   -0.046930  -0.001374   0.012624   0.002375  -0.002670   0.433460
    16  H   -0.000887  -0.028955   0.004740  -0.000057  -0.008160  -0.059519
    17  H    0.000170   0.327772   0.000393  -0.000003  -0.000421  -0.005603
               7          8          9         10         11         12
     1  O   -0.056214  -0.036527   0.001648   0.002320   0.005035   0.000585
     2  O    0.351208  -0.000003  -0.000007  -0.000000  -0.000001   0.001075
     3  C   -0.018749   0.406624  -0.039906  -0.034375  -0.048925  -0.035869
     4  C   -0.002034  -0.062385   0.385315   0.402218   0.391973  -0.006721
     5  C    0.000903  -0.047449   0.002951   0.005851  -0.001531   0.396884
     6  C    0.489715   0.004782   0.004287  -0.000283  -0.000211  -0.009870
     7  C    4.972474   0.002049   0.000614   0.000004   0.000096  -0.003388
     8  H    0.002049   0.614083   0.006237  -0.012418   0.006539   0.008451
     9  H    0.000614   0.006237   0.574382  -0.027548  -0.028531   0.000833
    10  H    0.000004  -0.012418  -0.027548   0.583091  -0.035480  -0.000022
    11  H    0.000096   0.006539  -0.028531  -0.035480   0.611013   0.001058
    12  H   -0.003388   0.008451   0.000833  -0.000022   0.001058   0.576875
    13  H   -0.007315  -0.008618  -0.000634  -0.000464   0.000521  -0.033054
    14  H    0.000856  -0.006959   0.000385   0.000226  -0.003342  -0.029684
    15  H   -0.102690  -0.001229  -0.001056  -0.000015  -0.000307  -0.001422
    16  H    0.417823  -0.000555   0.000020   0.000006  -0.000014   0.000207
    17  H   -0.051318  -0.000009  -0.000001   0.000000  -0.000002   0.000083
              13         14         15         16         17
     1  O    0.002380   0.003177  -0.046930  -0.000887   0.000170
     2  O    0.000608  -0.000037  -0.001374  -0.028955   0.327772
     3  C   -0.033159  -0.025465   0.012624   0.004740   0.000393
     4  C    0.009357  -0.003431   0.002375  -0.000057  -0.000003
     5  C    0.404445   0.389046  -0.002670  -0.008160  -0.000421
     6  C   -0.011107   0.003928   0.433460  -0.059519  -0.005603
     7  C   -0.007315   0.000856  -0.102690   0.417823  -0.051318
     8  H   -0.008618  -0.006959  -0.001229  -0.000555  -0.000009
     9  H   -0.000634   0.000385  -0.001056   0.000020  -0.000001
    10  H   -0.000464   0.000226  -0.000015   0.000006   0.000000
    11  H    0.000521  -0.003342  -0.000307  -0.000014  -0.000002
    12  H   -0.033054  -0.029684  -0.001422   0.000207   0.000083
    13  H    0.580694  -0.025543   0.000430  -0.004424  -0.000047
    14  H   -0.025543   0.572693   0.000082   0.000211   0.000006
    15  H    0.000430   0.000082   0.578197   0.003847   0.006099
    16  H   -0.004424   0.000211   0.003847   0.497387   0.006436
    17  H   -0.000047   0.000006   0.006099   0.006436   0.453756
 Mulliken charges:
               1
     1  O   -0.281627
     2  O   -0.359625
     3  C    0.064932
     4  C   -0.342822
     5  C   -0.404019
     6  C   -0.089125
     7  C    0.005968
     8  H    0.127388
     9  H    0.121012
    10  H    0.116890
    11  H    0.102108
    12  H    0.133980
    13  H    0.125929
    14  H    0.123852
    15  H    0.120578
    16  H    0.171893
    17  H    0.262688
 Sum of Mulliken charges =   0.00000
 Mulliken charges with hydrogens summed into heavy atoms:
               1
     1  O   -0.281627
     2  O   -0.096936
     3  C    0.192319
     4  C   -0.002812
     5  C   -0.020258
     6  C    0.031453
     7  C    0.177861
 APT charges:
               1
     1  O   -0.189272
     2  O   -0.409058
     3  C   -0.205763
     4  C   -1.238605
     5  C   -1.006679
     6  C   -0.415604
     7  C   -0.290371
     8  H    0.410489
     9  H    0.274765
    10  H    0.513500
    11  H    0.370506
    12  H    0.253255
    13  H    0.251417
    14  H    0.481675
    15  H    0.354833
    16  H    0.326294
    17  H    0.518617
 Sum of APT charges =   0.00000
 APT charges with hydrogens summed into heavy atoms:
               1
     1  O   -0.189272
     2  O    0.109560
     3  C    0.204726
     4  C   -0.079834
     5  C   -0.020332
     6  C   -0.060771
     7  C    0.035923
 Electronic spatial extent (au):  <R**2>=            967.5493
 Charge=             -0.0000 electrons
 Dipole moment (field-independent basis, Debye):
    X=              0.6861    Y=              0.4284    Z=              1.1700  Tot=              1.4224
 Quadrupole moment (field-independent basis, Debye-Ang):
   XX=            -45.5691   YY=            -45.0989   ZZ=            -41.9331
   XY=              3.8293   XZ=             -2.9290   YZ=             -3.7950
 Traceless Quadrupole moment (field-independent basis, Debye-Ang):
   XX=             -1.3687   YY=             -0.8985   ZZ=              2.2673
   XY=              3.8293   XZ=             -2.9290   YZ=             -3.7950
 Octapole moment (field-independent basis, Debye-Ang**2):
  XXX=              5.0123  YYY=             -1.6663  ZZZ=              0.5453  XYY=             -4.4916
  XXY=            -10.1603  XXZ=              6.7080  XZZ=             -9.7887  YZZ=             -1.0325
  YYZ=              2.3494  XYZ=              5.6885
 Hexadecapole moment (field-independent basis, Debye-Ang**3):
 XXXX=           -967.3196 YYYY=           -230.2302 ZZZZ=           -110.1567 XXXY=             29.6286
 XXXZ=            -45.4327 YYYX=              0.6015 YYYZ=             -4.5795 ZZZX=            -14.2622
 ZZZY=             -3.0551 XXYY=           -188.1371 XXZZ=           -153.3232 YYZZ=            -55.2630
 XXYZ=            -11.7896 YYXZ=             -1.7529 ZZXY=              1.1660
 N-N= 3.163004993831D+02 E-N=-1.442634068082D+03  KE= 3.448108665999D+02
  Exact polarizability:   0.000   0.000   0.000   0.000   0.000   0.000
 Approx polarizability:  88.967  -5.775  76.263  -1.076  -6.195  74.577
 No NMR shielding tensors so no spin-rotation constants.
 Leave Link  601 at Sun Sep 29 10:14:44 2019, MaxMem=   671088640 cpu:              52.7 elap:              26.4
 (Enter /shared/centos7/gaussian/g16/l701.exe)
 SCFChk:  SCF convergence  3.84D-09 required  1.00D-08
 ... and contract with generalized density number  0.
 Compute integral second derivatives.
 Entering OneElI...
 Calculate overlap and kinetic energy integrals
    NBasis = 395  MinDer = 2  MaxDer = 2
 Requested accuracy = 0.1000D-12
 PrmmSu-InSpLW:  IPartL=    0 NPrtUS=   20 NPrtUL=    1 DoSpLW=F IThBeg=    0 IThEnd=   19 NThAct=   20.
 PrsmSu:  NPrtUS=  20 ThrOK=T IAlg=1 NPAlg=1 LenDen=           0 ISkipM=0 DoSpLW=F IThBeg=    0 IThEnd=   19.
 Prism:   IPart=     0 DynPar=F LinDyn=F Incr=           4.
 PRISM was handed    33312782 working-precision words and  8417 shell-pairs
 PRISM was handed    33312782 working-precision words and  8417 shell-pairs
 PRISM was handed    33312782 working-precision words and  8417 shell-pairs
 PRISM was handed    33312782 working-precision words and  8417 shell-pairs
 PRISM was handed    33312782 working-precision words and  8417 shell-pairs
 PRISM was handed    33312782 working-precision words and  8417 shell-pairs
 PRISM was handed    33312782 working-precision words and  8417 shell-pairs
 PRISM was handed    33312782 working-precision words and  8417 shell-pairs
 PRISM was handed    33312782 working-precision words and  8417 shell-pairs
 PRISM was handed    33312782 working-precision words and  8417 shell-pairs
 PRISM was handed    33312782 working-precision words and  8417 shell-pairs
 PRISM was handed    33312782 working-precision words and  8417 shell-pairs
 PRISM was handed    33312782 working-precision words and  8417 shell-pairs
 PRISM was handed    33312782 working-precision words and  8417 shell-pairs
 PRISM was handed    33312782 working-precision words and  8417 shell-pairs
 IPart=  0 NShTot=         464 NBatch=          82 AvBLen=         5.7
 IPart=  2 NShTot=         455 NBatch=          74 AvBLen=         6.1
 IPart= 11 NShTot=         412 NBatch=          45 AvBLen=         9.2
 PRISM was handed    33312782 working-precision words and  8417 shell-pairs
 PRISM was handed    33312782 working-precision words and  8417 shell-pairs
 PRISM was handed    33312782 working-precision words and  8417 shell-pairs
 IPart= 15 NShTot=         397 NBatch=          38 AvBLen=        10.4
 PRISM was handed    33312782 working-precision words and  8417 shell-pairs
 PRISM was handed    33312782 working-precision words and  8417 shell-pairs
 IPart=  7 NShTot=         422 NBatch=          52 AvBLen=         8.1
 IPart= 12 NShTot=         408 NBatch=          41 AvBLen=        10.0
 IPart= 16 NShTot=         396 NBatch=          38 AvBLen=        10.4
 IPart=  4 NShTot=         441 NBatch=          64 AvBLen=         6.9
 IPart= 19 NShTot=         394 NBatch=          37 AvBLen=        10.6
 IPart= 10 NShTot=         414 NBatch=          47 AvBLen=         8.8
 IPart=  8 NShTot=         418 NBatch=          51 AvBLen=         8.2
 IPart= 17 NShTot=         396 NBatch=          38 AvBLen=        10.4
 IPart=  3 NShTot=         448 NBatch=          68 AvBLen=         6.6
 IPart= 18 NShTot=         395 NBatch=          37 AvBLen=        10.7
 IPart= 14 NShTot=         403 NBatch=          40 AvBLen=        10.1
 IPart=  6 NShTot=         433 NBatch=          60 AvBLen=         7.2
 IPart=  1 NShTot=         461 NBatch=          80 AvBLen=         5.8
 IPart=  5 NShTot=         437 NBatch=          62 AvBLen=         7.0
 IPart= 13 NShTot=         406 NBatch=          40 AvBLen=        10.2
 IPart=  9 NShTot=         417 NBatch=          50 AvBLen=         8.3
 PrSmSu:  NxtVal=             81.
 Entering OneElI...
 Calculate potential energy integrals
    NBasis = 395  MinDer = 2  MaxDer = 2
 Requested accuracy = 0.1000D-12
 PrmmSu-InSpLW:  IPartL=    0 NPrtUS=   20 NPrtUL=    1 DoSpLW=F IThBeg=    0 IThEnd=   19 NThAct=   20.
 PrsmSu:  NPrtUS=  20 ThrOK=T IAlg=1 NPAlg=1 LenDen=           0 ISkipM=0 DoSpLW=F IThBeg=    0 IThEnd=   19.
 Prism:   IPart=     0 DynPar=F LinDyn=F Incr=          65.
 PRISM was handed    33355047 working-precision words and  7715 shell-pairs
 PRISM was handed    33355047 working-precision words and  7715 shell-pairs
 PRISM was handed    33355047 working-precision words and  7715 shell-pairs
 PRISM was handed    33355047 working-precision words and  7715 shell-pairs
 PRISM was handed    33355047 working-precision words and  7715 shell-pairs
 PRISM was handed    33355047 working-precision words and  7715 shell-pairs
 PRISM was handed    33355047 working-precision words and  7715 shell-pairs
 PRISM was handed    33355047 working-precision words and  7715 shell-pairs
 PRISM was handed    33355047 working-precision words and  7715 shell-pairs
 PRISM was handed    33355047 working-precision words and  7715 shell-pairs
 PRISM was handed    33355047 working-precision words and  7715 shell-pairs
 PRISM was handed    33355047 working-precision words and  7715 shell-pairs
 PRISM was handed    33355047 working-precision words and  7715 shell-pairs
 PRISM was handed    33355047 working-precision words and  7715 shell-pairs
 PRISM was handed    33355047 working-precision words and  7715 shell-pairs
 PRISM was handed    33355047 working-precision words and  7715 shell-pairs
 PRISM was handed    33355047 working-precision words and  7715 shell-pairs
 PRISM was handed    33355047 working-precision words and  7715 shell-pairs
 PRISM was handed    33355047 working-precision words and  7715 shell-pairs
 PRISM was handed    33355047 working-precision words and  7715 shell-pairs
 IPart=  8 NShTot=        6528 NBatch=         384 AvBLen=        17.0
 IPart= 16 NShTot=        6290 NBatch=         370 AvBLen=        17.0
 IPart=  6 NShTot=        6715 NBatch=         395 AvBLen=        17.0
 IPart=  4 NShTot=        6800 NBatch=         400 AvBLen=        17.0
 IPart=  7 NShTot=        6528 NBatch=         384 AvBLen=        17.0
 IPart= 10 NShTot=        6443 NBatch=         379 AvBLen=        17.0
 IPart=  5 NShTot=        6715 NBatch=         395 AvBLen=        17.0
 IPart= 13 NShTot=        6358 NBatch=         374 AvBLen=        17.0
 IPart= 19 NShTot=        6171 NBatch=         363 AvBLen=        17.0
 IPart=  0 NShTot=        7208 NBatch=         424 AvBLen=        17.0
 IPart=  9 NShTot=        6460 NBatch=         380 AvBLen=        17.0
 IPart= 17 NShTot=        6290 NBatch=         370 AvBLen=        17.0
 IPart=  1 NShTot=        7140 NBatch=         420 AvBLen=        17.0
 IPart=  2 NShTot=        7004 NBatch=         412 AvBLen=        17.0
 IPart= 15 NShTot=        6324 NBatch=         372 AvBLen=        17.0
 IPart= 12 NShTot=        6358 NBatch=         374 AvBLen=        17.0
 IPart= 14 NShTot=        6341 NBatch=         373 AvBLen=        17.0
 IPart= 18 NShTot=        6239 NBatch=         367 AvBLen=        17.0
 IPart= 11 NShTot=        6375 NBatch=         375 AvBLen=        17.0
 IPart=  3 NShTot=        6868 NBatch=         404 AvBLen=        17.0
 PrSmSu:  NxtVal=           1301.
 Polarizability after L701:
                1             2             3 
      1  0.000000D+00
      2  0.000000D+00  0.000000D+00
      3  0.000000D+00  0.000000D+00  0.000000D+00
 Dipole Derivatives after L701:
                 1             2             3             4             5 
      1  -0.188459D+00 -0.404751D-01 -0.160612D-01  0.148453D+00 -0.116519D+01
      2  -0.211470D+00 -0.170795D+00  0.789786D-01 -0.153907D+00 -0.531986D+00
      3  -0.389290D-01  0.641149D-01 -0.208563D+00  0.585108D-01  0.357388D+00
                 6             7             8             9            10 
      1   0.103612D+01 -0.862634D-01 -0.251581D+00  0.852415D+00 -0.187878D+01
      2   0.234042D+00 -0.244052D+00 -0.121634D-01  0.994102D-01  0.510592D-01
      3  -0.843640D+00  0.151190D+00  0.205616D-01 -0.518864D+00 -0.308153D-01
                11            12            13            14            15 
      1   0.351680D+00 -0.644392D+00 -0.710626D+00 -0.531497D+00 -0.196082D+00
      2  -0.901155D+00 -0.172947D-01  0.142466D+00 -0.135400D+01 -0.995424D-01
      3  -0.287579D-01 -0.935881D+00 -0.392966D-01  0.114438D+00 -0.955411D+00
                16            17            18            19            20 
      1  -0.491261D+00  0.298712D+00  0.303732D+00 -0.342744D+00  0.244644D+00
      2   0.199246D+00 -0.278674D+00  0.436006D+00  0.255265D+00 -0.250566D+00
      3   0.192662D+00  0.371058D+00 -0.476876D+00  0.782140D-01  0.226319D+00
                21            22            23            24            25 
      1  -0.378128D+00  0.428908D+00  0.107331D+00 -0.582071D+00 -0.380149D-01
      2   0.243534D+00  0.357742D-01  0.177776D+00 -0.704347D-01  0.114345D+00
      3  -0.277803D+00 -0.168785D+00 -0.612392D-01  0.624784D+00 -0.100768D+00
                26            27            28            29            30 
      1  -0.613900D+00  0.466251D+00  0.116430D+01 -0.302154D+00 -0.732840D+00
      2   0.508018D+00 -0.309854D+00 -0.216731D+00  0.159972D+00  0.151532D+00
      3  -0.360845D+00  0.354293D+00 -0.863871D-01  0.335847D-01  0.216225D+00
                31            32            33            34            35 
      1   0.457627D+00  0.731390D+00  0.660708D+00  0.783978D-01  0.689468D-02
      2   0.639430D-01  0.297394D+00  0.156931D+00 -0.189596D+00  0.105416D+00
      3   0.152885D+00  0.336411D+00  0.356495D+00 -0.193062D+00 -0.456215D-01
                36            37            38            39            40 
      1   0.109299D+00  0.174030D+00 -0.313998D-02  0.369738D-01  0.586531D+00
      2   0.426183D+00 -0.550048D+00  0.285226D+00 -0.402097D+00  0.603386D+00
      3   0.575951D+00  0.213914D+00 -0.675474D-01  0.294995D+00  0.117973D-01
                41            42            43            44            45 
      1   0.476284D+00  0.543357D-02  0.192644D+00  0.209437D+00 -0.313543D+00
      2   0.743650D+00  0.123104D-01  0.375379D-01  0.452123D+00 -0.487117D+00
      3   0.180011D-01  0.114843D+00 -0.520583D-01 -0.289581D+00  0.419733D+00
                46            47            48            49            50 
      1   0.552393D-01 -0.461332D+00  0.567761D+00  0.450013D+00  0.942894D+00
      2   0.393124D-01  0.342647D+00 -0.274241D+00  0.234684D-01  0.427118D+00
      3  -0.873936D-01 -0.361117D+00  0.580996D+00 -0.616780D-01 -0.327166D+00
                51 
      1  -0.117558D+01
      2  -0.178345D+00
      3   0.678720D+00
 Hessian after L701:
                1             2             3             4             5 
      1  0.534294D+01
      2 -0.264301D+01  0.131523D+02
      3  0.253548D+01 -0.156301D+01  0.164957D+02
      4  0.444945D+00 -0.226304D+00 -0.168462D+00  0.599731D+01
      5 -0.248252D+00 -0.141586D+00  0.725586D-01  0.796771D+00  0.124968D+02
      6 -0.142735D+00  0.627297D-01 -0.195104D+00  0.392197D+01  0.218029D+01
      7 -0.425666D+01  0.443364D+01  0.347549D+00  0.181144D+00 -0.249996D-01
      8  0.426994D+01 -0.468250D+01  0.578159D+00 -0.243418D-03 -0.948341D-01
      9  0.289601D+00  0.597268D+00 -0.882786D+01 -0.153816D-01 -0.535153D-04
     10  0.225291D+00 -0.117431D+00  0.434250D+00  0.766720D-01 -0.192943D-01
     11 -0.174234D-01 -0.208361D+00  0.585980D-01 -0.776104D-02 -0.487949D-01
     12  0.373503D+00 -0.452739D-02  0.103239D+00 -0.917735D-02  0.490133D-02
     13 -0.141308D+00 -0.988902D-01  0.426816D-02  0.245600D+00  0.112373D+00
     14 -0.177760D+00  0.668975D+00  0.142057D+00  0.774855D-01 -0.101144D+00
     15 -0.150227D-01  0.149377D+00 -0.326938D-01 -0.296130D-01  0.164546D-02
     16 -0.136176D+01 -0.895890D+00 -0.408252D+01  0.839358D-01 -0.328742D-01
     17 -0.567688D+00 -0.939531D+01  0.779998D+00  0.124618D-01  0.207726D+00
     18 -0.391824D+01  0.808258D+00 -0.786882D+01  0.231169D+00  0.146569D+00
     19  0.120187D+00 -0.238247D+00  0.588585D+00 -0.128236D+01 -0.913795D+00
     20 -0.337204D+00  0.216261D+00 -0.558292D-01 -0.803834D+00 -0.843128D+01
     21  0.475603D+00 -0.430683D-01 -0.872178D-01 -0.376978D+01  0.333927D+00
     22 -0.210162D+00 -0.237853D+00 -0.606006D-01  0.203486D-01 -0.177916D-02
     23 -0.240978D+00 -0.499290D-01 -0.711342D-01  0.285831D-02 -0.849976D-02
     24 -0.501953D-01 -0.931253D-01  0.383331D+00 -0.258759D-01  0.405016D-02
     25 -0.642340D-02  0.309087D-01  0.495696D-01  0.962242D-02 -0.492406D-02
     26 -0.193694D-01 -0.683428D-01 -0.243225D-01 -0.177550D-01  0.116869D-02
     27  0.908692D-01  0.161642D-01  0.897814D-02  0.126240D-01 -0.574440D-02
     28  0.147817D+00  0.153793D-01  0.924473D-02  0.179342D-01 -0.641387D-02
     29  0.602794D-03 -0.505093D-01 -0.605977D-03 -0.421151D-02 -0.297189D-02
     30 -0.156278D-01 -0.193507D-02 -0.475241D-01 -0.706636D-02  0.277758D-02
     31  0.589546D-01  0.869847D-01  0.732005D-01  0.150326D-01 -0.121322D-02
     32  0.822264D-01  0.154956D-01  0.575323D-01  0.101360D-01 -0.675898D-02
     33  0.793560D-01  0.633859D-01  0.121663D-02  0.105650D-01 -0.108888D-02
     34 -0.450287D-01 -0.170127D-01 -0.143621D-01  0.391322D-01  0.187611D-01
     35 -0.645160D-03  0.548568D-01  0.602873D-01  0.217788D-01 -0.201235D-01
     36 -0.587039D-02  0.104913D+00  0.242757D-01  0.494695D-01  0.981733D-02
     37 -0.487153D-01 -0.690670D-01  0.570830D-03  0.810420D-02  0.216473D-01
     38 -0.196328D-01  0.140216D+00  0.379852D-02  0.450791D-01 -0.798041D-02
     39  0.928733D-02 -0.374539D-01 -0.609303D-01 -0.426054D-01 -0.175730D-01
     40 -0.795739D-02  0.843865D-01  0.179228D-01  0.239591D-01  0.101157D-01
     41  0.679487D-01  0.118369D+00  0.363699D-01  0.214938D-01 -0.267766D-02
     42  0.122145D-01  0.272464D-01 -0.342942D-01 -0.178382D-03 -0.185009D-03
     43 -0.286453D+00 -0.575789D-01  0.284645D+00  0.119948D-01 -0.571481D-01
     44 -0.838833D-01  0.221598D+00 -0.387120D-01 -0.859115D-01  0.257017D-01
     45  0.286622D+00 -0.416403D-01  0.157824D+00  0.659774D-01 -0.672944D-01
     46 -0.853062D-02 -0.431442D-01  0.709830D-02 -0.817740D-01 -0.361867D-01
     47 -0.851679D-01  0.304239D-01 -0.280083D-01 -0.658151D-03  0.107244D+00
     48  0.524341D-01 -0.528148D-01 -0.284530D-01  0.149752D+00 -0.140492D-01
     49  0.328665D-01 -0.686541D-02 -0.264322D-01 -0.581159D+01  0.387212D+00
     50  0.202971D-01 -0.219332D-01 -0.773598D-02  0.158614D+00 -0.397198D+01
     51 -0.572765D-01  0.823263D-02  0.832798D-02 -0.373389D+00 -0.265055D+01
                6             7             8             9            10 
      6  0.102298D+02
      7 -0.374820D-01  0.165514D+02
      8  0.533907D-03 -0.273333D+01  0.169786D+02
      9 -0.874808D-01 -0.688266D+00 -0.626215D+00  0.215199D+02
     10  0.126504D-01 -0.294178D+01 -0.922259D+00  0.194099D+01  0.116525D+02
     11  0.242884D-02 -0.934187D+00 -0.561891D+01 -0.572759D+00  0.617397D+00
     12 -0.528491D-01  0.192093D+01 -0.585370D+00 -0.457322D+01 -0.144195D+01
     13  0.707023D-02 -0.600644D+01 -0.129674D+01 -0.431204D+00  0.135659D+00
     14  0.661726D-02 -0.135877D+01 -0.254673D+01  0.120843D+01 -0.940248D-01
     15 -0.146509D+00 -0.459558D+00  0.121093D+01 -0.605672D+01  0.581168D-01
     16  0.350074D+00  0.332418D+00  0.239218D+00  0.490194D-01  0.289088D+00
     17  0.106679D+00  0.148510D+00  0.242498D+00  0.335678D-01 -0.567886D-02
     18 -0.107920D-01 -0.174328D-01  0.803077D-03  0.990058D-01  0.739392D-01
     19 -0.367724D+01  0.586334D-01  0.486976D-01  0.136255D+00  0.556136D-01
     20  0.288592D+00  0.198687D-01 -0.759511D-01  0.102612D-01 -0.345556D-01
     21 -0.673483D+01  0.870311D-01  0.108779D-01 -0.924192D-01  0.162360D-01
     22 -0.712437D-02 -0.416163D+01  0.185940D+00 -0.101248D+01  0.106438D+00
     23  0.268246D-03  0.183121D+00 -0.443195D+01 -0.458440D+00  0.716037D-01
     24 -0.360082D-02 -0.910334D+00 -0.427131D+00 -0.219403D+01 -0.220181D+00
     25  0.307487D-02  0.684442D-01  0.787808D-01 -0.816543D-01 -0.388992D+01
     26 -0.588353D-02  0.251523D-01  0.559287D-01  0.497474D-01  0.512081D+00
     27 -0.284579D-02 -0.316947D-01  0.538695D-01  0.117723D-01 -0.406909D+00
     28  0.169696D-02  0.992998D-02  0.301153D-01 -0.452794D-01 -0.229532D+01
     29 -0.201044D-03  0.233638D-01  0.328996D-01  0.206543D-01 -0.509218D+00
     30 -0.480832D-02 -0.712699D-01  0.301336D-01  0.725646D-01 -0.100052D+01
     31  0.561793D-02 -0.737581D-01 -0.595756D-01 -0.147433D+00 -0.353838D+01
     32  0.409447D-02 -0.304601D-01  0.140316D+00 -0.115951D-01  0.589424D+00
     33 -0.189818D-02 -0.115160D+00 -0.259247D-01  0.280966D-01  0.489131D+00
     34  0.121317D-01  0.508110D-01  0.349820D-01  0.497842D-01 -0.136880D-01
     35  0.448012D-02  0.826740D-01  0.719844D-02 -0.131826D+00  0.644476D-02
     36 -0.106490D-01  0.557210D-01 -0.747623D-01  0.220781D-01  0.491509D-02
     37 -0.124163D-01 -0.342702D-01  0.346125D-01  0.244663D-01  0.903110D-01
     38 -0.104331D-01  0.123317D+00  0.371519D-01  0.334981D-02 -0.116091D+00
     39 -0.199117D-01  0.215712D-01 -0.212023D-01  0.937797D-01  0.630110D-01
     40  0.218474D-02  0.503151D-01  0.881861D-02 -0.132672D-01 -0.263643D-01
     41  0.252363D-02 -0.435755D-01 -0.225683D-01 -0.243132D-01 -0.168184D-01
     42 -0.888750D-02 -0.168049D-01 -0.174787D-01  0.114340D-01  0.159645D-02
     43  0.349392D-01  0.754129D-01  0.102668D+00 -0.850038D-01  0.605750D-01
     44 -0.538785D-01  0.126216D+00  0.145335D-01 -0.754103D-01  0.435308D-01
     45 -0.111877D-01 -0.130197D+00 -0.907416D-01 -0.810204D-02 -0.325750D-01
     46  0.173647D+00  0.757436D-01 -0.245468D-01  0.367966D-01  0.568209D-02
     47 -0.358826D-01 -0.544346D-01 -0.300391D-01 -0.230777D-01 -0.114402D-01
     48 -0.513760D-01  0.683745D-01 -0.140813D-01 -0.118161D-01  0.159033D-01
     49 -0.648057D+00  0.202758D-01  0.291926D-02 -0.695021D-02  0.759858D-02
     50 -0.255296D+01  0.138989D-01 -0.565996D-02  0.413850D-03  0.632892D-02
     51 -0.288710D+01 -0.229823D-01 -0.239907D-02 -0.699904D-02 -0.860395D-02
               11            12            13            14            15 
     11  0.144931D+02
     12  0.206996D+00  0.141102D+02
     13 -0.196049D+00  0.168073D-02  0.146455D+02
     14  0.420171D-02  0.460872D-01  0.446099D+00  0.130241D+02
     15 -0.369556D-01 -0.939279D-01  0.532787D-01 -0.552029D+00  0.160140D+02
     16  0.449162D-01  0.526316D-01 -0.686371D-01  0.198647D+00 -0.997194D-02
     17 -0.156029D+00  0.655837D-02  0.292487D+00 -0.102569D-01  0.735412D-02
     18  0.824965D-02 -0.148537D+00 -0.385379D-02  0.426935D-01 -0.289842D+00
     19 -0.109312D-01  0.102846D-01  0.392354D+00  0.282767D+00 -0.261888D-01
     20 -0.633884D-01 -0.246438D-02  0.314517D+00 -0.130545D+00  0.287924D-01
     21 -0.730045D-03 -0.600277D-01 -0.509286D-01 -0.434761D-02 -0.286257D+00
     22  0.606158D-01 -0.170848D+00  0.113938D+00  0.911838D-01  0.720512D-01
     23  0.144609D+00  0.109172D+00  0.750405D-01  0.330884D-02 -0.163230D+00
     24  0.115862D+00 -0.101118D+00  0.517915D-01 -0.176828D+00  0.245245D-02
     25  0.317043D+00 -0.249189D+00 -0.235322D-01 -0.326307D-01  0.148900D-01
     26 -0.237413D+01 -0.111889D+01 -0.353142D-01  0.530381D-01 -0.483638D-01
     27 -0.117850D+01 -0.308430D+01  0.168289D-01 -0.445365D-01 -0.119772D-01
     28 -0.527270D+00 -0.111737D+01  0.786474D-01 -0.890210D-01 -0.163156D-01
     29 -0.366212D+01  0.350660D+00 -0.802033D-01  0.154377D-01  0.114710D-01
     30  0.327494D+00 -0.320008D+01 -0.248240D-01  0.140924D-01 -0.387770D-01
     31  0.741739D+00  0.587051D+00  0.578754D-01 -0.292002D-01  0.439134D-01
     32 -0.259032D+01  0.106749D+01 -0.689074D-03 -0.428067D-01  0.108232D-01
     33  0.114572D+01 -0.282692D+01  0.630430D-01 -0.123744D-01 -0.152528D-01
     34 -0.153047D-01  0.303237D-02 -0.384158D+01  0.676647D-01 -0.880703D+00
     35  0.294458D-03 -0.102005D-01 -0.199683D-01 -0.424666D+01  0.762362D-01
     36  0.442535D-02 -0.270167D-03 -0.989265D+00 -0.154599D+00 -0.174363D+01
     37 -0.105883D+00  0.573520D-01 -0.280696D+01 -0.586737D+00  0.119093D+01
     38  0.293686D-01 -0.506615D-01 -0.843983D+00 -0.410747D+01 -0.652731D+00
     39 -0.514408D-01 -0.249430D-01  0.127243D+01 -0.490438D+00 -0.341314D+01
     40  0.621619D-02 -0.124308D-02 -0.279126D+01  0.121938D+01  0.221575D-01
     41  0.673417D-01 -0.623143D-04  0.131810D+01 -0.256306D+01 -0.630574D-02
     42 -0.895984D-02 -0.290573D-01  0.263906D-01 -0.216915D-02 -0.388512D+01
     43  0.289337D-01 -0.186922D-01  0.210361D-02  0.683297D-02 -0.603813D-02
     44 -0.801220D-02 -0.124044D-01  0.232380D-01 -0.482183D-03 -0.132999D-01
     45 -0.144313D-01 -0.148269D-01 -0.139730D-01 -0.624444D-02 -0.340558D-02
     46 -0.328654D-02  0.499637D-02 -0.237313D-02 -0.256360D-01 -0.683166D-02
     47 -0.646653D-02 -0.343455D-02 -0.348497D-01 -0.159119D-01 -0.157831D-01
     48 -0.354759D-02 -0.404848D-02  0.416813D-01 -0.141525D-01  0.805275D-03
     49  0.123438D-02 -0.300073D-02  0.104474D-01  0.372251D-02 -0.509364D-02
     50 -0.238248D-02 -0.384616D-02  0.248274D-01 -0.396277D-02 -0.793100D-02
     51 -0.245191D-02  0.656516D-03 -0.244115D-01 -0.225494D-02 -0.274412D-04
               16            17            18            19            20 
     16  0.105387D+02
     17  0.536686D+01  0.214922D+02
     18  0.333736D+01  0.376332D+01  0.217092D+02
     19 -0.545778D+01 -0.577968D+01  0.863863D+00  0.102256D+02
     20 -0.544345D+01 -0.870339D+01 -0.346348D+01  0.600872D+01  0.208832D+02
     21  0.815060D+00 -0.350444D+01 -0.108595D+02  0.275681D+01  0.416575D+01
     22  0.403054D-01  0.583951D-01 -0.746395D-01  0.764295D-01  0.142251D-01
     23  0.643999D-01 -0.144226D-01 -0.419000D-01  0.206243D-01 -0.217357D-01
     24 -0.103441D+00 -0.564784D-01  0.332865D-01 -0.576657D-01 -0.289354D-02
     25  0.587603D-01 -0.223673D-01  0.318389D-01  0.230586D-01 -0.118649D-01
     26 -0.471213D-01 -0.269442D-01 -0.187171D-01 -0.244839D-01 -0.108860D-02
     27  0.558942D-01 -0.127860D-01 -0.181364D-01  0.225532D-01 -0.923659D-02
     28  0.295732D-01  0.207729D-03 -0.203786D-02  0.227424D-01 -0.582769D-02
     29 -0.345228D-03 -0.996839D-02  0.570839D-03 -0.457345D-02 -0.508467D-02
     30 -0.110602D-01  0.939014D-03 -0.917759D-02 -0.596842D-02  0.188614D-02
     31  0.179129D-01  0.119882D-01  0.926482D-02  0.199704D-01  0.128669D-02
     32  0.231711D-01 -0.268060D-02  0.971750D-02  0.122494D-01 -0.662093D-02
     33  0.164130D-01  0.699189D-02 -0.659743D-02  0.155127D-01  0.986205D-03
     34 -0.393282D-01 -0.251887D-01 -0.141713D-01 -0.191780D-01  0.487961D-02
     35 -0.217476D-01  0.157715D-01  0.112381D-01  0.955329D-02 -0.106598D-01
     36  0.426176D-02  0.452175D-01  0.220268D-01  0.414528D-01  0.273721D-01
     37  0.390881D-02 -0.316437D-01  0.174765D-01 -0.548546D-01 -0.710714D-02
     38 -0.255741D-02 -0.136919D-01  0.310100D-01  0.307991D-01  0.946106D-02
     39  0.777260D-02  0.268678D-02 -0.708266D-03 -0.259733D-01 -0.219395D-01
     40  0.295497D-01  0.651211D-01 -0.494958D-02  0.343965D-01  0.234178D-01
     41  0.737333D-01  0.465533D-01 -0.793913D-02  0.354593D-01  0.704566D-03
     42 -0.136849D-02 -0.429701D-02 -0.264554D-01  0.517802D-02  0.482739D-02
     43 -0.457045D+01  0.296410D+00 -0.434886D+00  0.309497D+00  0.202234D+00
     44  0.254971D+00 -0.357818D+01 -0.153786D+01  0.259307D+00 -0.703766D-01
     45 -0.367763D+00 -0.146109D+01 -0.258980D+01 -0.256189D+00  0.414332D+00
     46  0.146254D+00  0.216129D+00 -0.190580D+00 -0.471588D+01  0.134104D+00
     47  0.162491D+00 -0.915660D-01  0.258877D+00  0.253199D+00 -0.369338D+01
     48 -0.149164D+00  0.264318D+00  0.123688D-01 -0.337529D+00 -0.144991D+01
     49 -0.724240D-01 -0.363300D-01  0.958739D-01  0.191589D+00 -0.794047D-01
     50  0.155764D-01 -0.233872D-02 -0.114149D-01  0.103356D-01  0.103827D+00
     51  0.368012D-01  0.214546D-01 -0.475133D-01 -0.537358D-01  0.629517D-01
               21            22            23            24            25 
     21  0.208849D+02
     22 -0.339769D-01  0.409074D+01
     23 -0.453190D-02 -0.222714D+00  0.445282D+01
     24 -0.125650D-02  0.132911D+01  0.660121D+00  0.165106D+01
     25  0.910946D-02 -0.237193D-01 -0.105581D-01  0.182199D-01  0.374617D+01
     26 -0.537472D-02 -0.333009D-02  0.756216D-02 -0.607742D-01 -0.167762D+00
     27 -0.670483D-02  0.460015D-02 -0.490087D-01  0.678320D-01  0.817643D-01
     28 -0.307679D-02 -0.350247D-01  0.378635D-01 -0.501729D-01 -0.197972D-01
     29  0.105182D-02  0.374773D-01  0.127543D-01  0.287072D-01 -0.730039D-01
     30 -0.364835D-02 -0.484029D-01  0.296503D-01 -0.742281D-02  0.125554D+00
     31  0.634268D-02 -0.964359D-02  0.238262D-02  0.522066D-01  0.668996D-01
     32  0.215281D-02  0.228998D-02 -0.253402D-01  0.176466D-01 -0.961713D-01
     33 -0.501940D-02  0.307259D-01  0.523033D-02  0.779646D-01  0.123701D-02
     34  0.658795D-02  0.199712D-02 -0.179082D-01 -0.633091D-01  0.232301D-02
     35  0.110025D-01 -0.269079D-01 -0.185533D-01  0.511968D-01 -0.101220D-01
     36  0.142651D-01 -0.669930D-01  0.382820D-01  0.961936D-01 -0.221489D-02
     37  0.287488D-02 -0.186887D-01  0.371938D-01  0.174020D-01 -0.306479D-02
     38 -0.901251D-02  0.434124D-01 -0.981982D-02 -0.207121D-01  0.513011D-02
     39 -0.229893D-01  0.250366D-01 -0.160450D-01  0.100356D-01 -0.148572D-02
     40  0.813401D-04  0.197536D-01  0.375293D-02  0.834728D-02 -0.289652D-02
     41 -0.950670D-04  0.536048D-02 -0.388721D-01 -0.421153D-01 -0.265628D-02
     42 -0.156323D-01  0.417302D-02 -0.428070D-01 -0.126490D-01  0.564119D-03
     43 -0.212123D+00 -0.100333D-01 -0.806817D-02  0.835652D-02 -0.790409D-02
     44  0.444648D+00 -0.501225D-02 -0.785769D-03  0.152839D-02  0.113668D-02
     45 -0.331237D-01  0.798122D-02  0.514470D-02 -0.482558D-03 -0.226281D-02
     46 -0.169540D+00 -0.271319D-02  0.735552D-03 -0.179104D-02  0.853282D-03
     47 -0.141831D+01 -0.394103D-02 -0.131961D-02  0.494989D-02 -0.162679D-02
     48 -0.273841D+01  0.525129D-02  0.414009D-03 -0.654420D-02  0.203634D-02
     49  0.636900D-01  0.166986D-02  0.650032D-03 -0.246768D-02  0.112676D-02
     50  0.204979D-01  0.263770D-02  0.177998D-03 -0.400362D-02  0.688502D-03
     51  0.479275D-01 -0.386696D-02 -0.118516D-02  0.495310D-02 -0.105242D-02
               26            27            28            29            30 
     26  0.245487D+01
     27  0.117295D+01  0.297927D+01
     28 -0.681391D-01  0.147051D+00  0.191246D+01
     29  0.814957D-01  0.776868D-01  0.550696D+00  0.360735D+01
     30  0.621527D-01 -0.616537D-01  0.100379D+01 -0.307569D+00  0.338698D+01
[...]
   yy         0.738027D+02      0.109364D+02      0.121684D+02
   zx         0.990381D+01      0.146759D+01      0.163292D+01
   zy         0.987069D+01      0.146269D+01      0.162746D+01
   zz         0.691566D+02      0.102479D+02      0.114024D+02

 ----------------------------------------------------------------------

 Test job not archived.
 1\1\GINC-C0243\Freq\RM062X\CC-pVTZ\C5H10O2\HARMS.N\29-Sep-2019\0\\#P G
 eom=AllCheck Guess=TCheck SCRF=Check Test GenChk RM062X/CC-pVTZ Freq\\
 Gaussian input prepared by ASE\\0,1\O,2.9070549024,1.5559126129,2.2818
 636091\O,1.5820437767,-1.2537739702,0.4083045467\C,2.2739693889,2.1939
 25896,3.3996317868\C,2.4824254377,1.4178252439,4.6902019274\C,0.806134
 5805,2.4576035405,3.115636746\C,2.4951762057,0.2814012505,2.0014781165
 \C,1.9328363089,-0.0106702707,0.8371130837\H,2.8043093276,3.1437271036
 ,3.4702409933\H,1.8923260055,0.5006234157,4.7014941901\H,3.5341312873,
 1.163277707,4.8181728222\H,2.1668097683,2.0233327291,5.5392991608\H,0.
 2561591448,1.5196022758,3.0339165076\H,0.6924741365,3.0066437452,2.181
 700255\H,0.3666447824,3.0442486732,3.9223215477\H,2.7147439976,-0.4861
 914649,2.7406346345\H,1.725961762,0.7572494179,0.1050672937\H,1.810249
 9658,-1.9021881241,1.0810254313\\Version=EM64L-G16RevA.03\State=1-A\HF
 =-346.9397254\RMSD=1.692e-09\RMSF=5.259e-07\ZeroPoint=0.1470574\Therma
 l=0.1556059\Dipole=-0.1993686,-0.1309226,0.8086544\DipoleDeriv=-0.4957
 375,-0.0640639,-0.0955977,-0.0349439,-1.0707857,-0.6316054,0.0080159,-
 0.3209587,-0.8656748,-0.3953443,-0.2051451,-0.1454593,-0.3079224,-1.19
 90224,-0.7608091,-0.0326771,-0.2610499,-0.4883697,0.4767961,-0.2182991
 ,-0.1385206,-0.1456425,0.4862249,0.1846874,-0.0466061,0.2998788,0.8555
 305,0.0301464,0.0635462,-0.0189293,0.0265786,0.0014224,0.0772376,-0.00
 22015,0.0152931,-0.1492953,-0.1348416,0.0806349,0.0302339,0.0401697,0.
 0211599,-0.0065421,-0.0634907,-0.023038,-0.0314635,-0.0836307,0.184331
 5,0.2889463,0.1363769,0.7519943,0.4656,0.1341105,-0.1406757,0.0019593,
 0.0469247,0.2533503,0.2988884,0.34329,0.9543146,0.6144241,0.172663,0.2
 558372,0.4047085,-0.0319428,-0.0660286,-0.0022301,-0.060505,-0.1170297
 ,-0.0327239,-0.0018261,-0.0113569,-0.0156889,-0.0018005,-0.0928567,-0.
 0147002,-0.065141,-0.0688921,0.0272743,-0.0269747,-0.012209,0.0633723,
 -0.1024691,0.0511607,-0.0468265,0.0464708,0.0406685,0.0394768,-0.00625
 22,0.0260522,0.052535,0.0573102,0.0381087,0.0526524,0.0328965,0.005103
 1,-0.0986674,0.028988,-0.0712836,-0.0581539,0.0162003,-0.0397161,-0.02
 62397,-0.0838832,-0.0676599,-0.0002802,-0.0244415,0.0185746,0.0667877,
 0.0275652,-0.0007012,-0.0189637,0.0148281,0.0308068,0.0682129,-0.05044
 43,0.09506,-0.0704026,0.0383078,0.0484739,0.0491548,0.0517306,0.011254
 7,-0.078924,0.0694509,-0.0942057,-0.0437287,0.1194015,-0.0450379,-0.10
 80763,0.0009335,-0.1090748,0.0285975,-0.0560231,0.1121701,0.0448777,0.
 1429088,-0.0124963,-0.0427599,-0.0081574,-0.014767,0.0348616,-0.040705
 1,0.0479735,0.0683267,0.2902055,0.0247386,-0.0615725,0.0129209,0.34428
 22,0.0691799,-0.061586,0.0639381,0.1646795\Polar=56.9731196,-0.405166,
 70.590205,6.7686625,10.103102,76.5008788\Quadrupole=-2.2517725,3.65763
 07,-1.4058582,-1.4820086,0.1902432,-1.2044817\PG=C01 [X(C5H10O2)]\NIma
 g=0\\0.18775061,0.06384708,0.44923982,-0.07173998,0.13641972,0.2900431
 0,0.01152646,-0.00385648,-0.00816369,0.10114579,-0.00777613,-0.0124045
 6,-0.00952875,0.00760293,0.59446347,-0.00803786,-0.00611894,-0.0052751
 6,0.15363057,-0.13468465,0.40117162,-0.09911248,0.01927036,0.05929465,
 -0.00211264,-0.00129023,-0.00179879,0.52035859,0.00514466,-0.09628373,
 -0.02698027,-0.00133016,0.00299472,0.00145839,0.07716141,0.60205067,0.
 04994894,-0.03903791,-0.14464972,0.00098193,0.00719972,0.00317526,0.02
 413860,-0.01104008,0.46325144,0.00158939,-0.00356520,0.01966595,0.0001
 7718,0.00060992,0.00037195,-0.08399979,0.00770966,-0.01826362,0.587747
 07,0.00140601,0.00780077,-0.02304342,-0.00027384,-0.00072202,-0.000243
 95,0.00781033,-0.12376741,0.06099025,0.00156582,0.55617480,0.00412515,
 0.00424745,-0.04088775,-0.00015374,-0.00067823,-0.00035813,-0.01716098
 ,0.05324484,-0.15282966,-0.01423359,0.04296685,0.50769280,-0.02026789,
 0.01167578,0.00958294,-0.00016175,0.00083446,0.00047675,-0.19200342,0.
 01302440,-0.03096712,-0.00711679,0.00184657,-0.00700151,0.48797958,0.0
 2481802,-0.00738750,-0.00663900,-0.00033717,-0.00048050,0.00016926,0.0
 0692654,-0.08526086,0.00517559,0.01993959,-0.00384544,0.00817445,0.015
 28416,0.57775548,0.03626187,-0.01592848,-0.00623549,-0.00053992,-0.001
 44865,-0.00059218,-0.03608697,0.00675933,-0.08395518,-0.03203960,0.007
 68637,-0.00587608,-0.01756727,0.00193026,0.58888058,-0.07896383,-0.084
 94242,-0.01498170,-0.00086047,-0.00552847,-0.00782617,0.00608098,0.008
 63696,-0.00764585,-0.00068041,0.00022003,0.00142787,-0.00077937,0.0040
 2867,0.00407818,0.26129472,-0.06700278,-0.27339703,-0.04052042,-0.0201
 1121,-0.01408011,-0.04039208,0.00360398,-0.03767687,-0.02767116,-0.000
 45260,0.00631284,0.00201804,-0.00012086,0.00247570,0.00387213,0.078449
 29,0.61198710,-0.00413195,-0.02834889,-0.09064357,-0.00703901,-0.01376
 140,-0.00293535,-0.01211289,-0.03555874,-0.01343123,-0.00012749,-0.002
 11449,-0.00134776,0.00154999,0.00128005,0.00039620,0.26869315,0.018030
 65,0.77174825,-0.00793419,-0.01404521,-0.01235355,-0.06722172,-0.07051
 623,-0.04445225,-0.00136483,0.00354172,0.00348250,-0.00018914,-0.00006
 002,0.00017346,-0.00020618,-0.00035295,0.00077104,-0.13904742,-0.03527
 638,-0.18748758,0.26482149,-0.01660405,-0.01596063,-0.03936673,-0.0497
 8900,-0.29490660,-0.04125153,-0.00542755,-0.00243404,-0.00230737,-0.00
 041798,-0.00039216,0.00053638,-0.00023033,0.00101755,0.00057031,-0.039
 94045,-0.13156454,-0.05824546,0.06853386,0.66627249,-0.00308588,-0.011
 28060,-0.00164853,-0.04753351,-0.08418148,-0.12501094,-0.00061013,0.00
 200392,-0.00001182,-0.00011305,-0.00000351,0.00008555,-0.00071790,-0.0
 0033664,0.00105808,-0.19063935,-0.05908157,-0.46570850,0.29038872,-0.0
 1311100,0.79252583,0.00685587,0.01854628,0.00631062,0.00033683,0.00024
 718,0.00026391,-0.11625934,-0.11910419,-0.01067637,0.00346053,0.005347
 42,-0.00025563,-0.01877766,-0.02793956,-0.00221417,-0.00012411,0.00158
 580,0.00238586,0.00002162,0.00057084,-0.00016420,0.12684571,-0.0037650
 1,-0.02118003,-0.01030982,-0.00053398,-0.00070000,-0.00036032,-0.11205
 769,-0.24587045,-0.01060158,-0.00882484,-0.01501489,0.00190670,0.00342
 624,0.00710039,0.00116063,0.00182716,0.00210372,-0.00252566,0.00023330
 ,-0.00027916,0.00036592,0.11783842,0.27165754,-0.00793580,-0.03505297,
 -0.01180600,-0.00066603,-0.00069312,-0.00049710,-0.00618738,-0.0030617
 8,-0.04658154,0.01423588,0.02658457,-0.00048444,-0.00479641,-0.0055272
 9,0.00051792,0.00186548,-0.00053271,-0.00379804,0.00023961,-0.00075065
 ,0.00058960,0.00515451,0.01752728,0.06409213,0.00005954,0.00026723,0.0
 0072387,-0.00002561,-0.00014904,-0.00008676,0.00177770,0.00462524,0.00
 074603,-0.12768981,-0.12198163,-0.00040728,0.00103762,0.00119794,0.000
 32576,0.00007869,-0.00184556,0.00009166,0.00009520,0.00066154,-0.00002
 712,0.00071643,0.00094672,-0.00113669,0.13371527,0.00012646,0.00120009
 ,0.00041543,0.00010839,0.00000534,0.00000622,-0.00922098,-0.01741604,-
 0.00095996,-0.12142022,-0.23417278,0.00064328,-0.00074081,0.00076430,-
 0.00093645,0.00031496,-0.00132776,-0.00068564,0.00013027,0.00051982,-0
 .00001629,0.00098714,-0.00026341,0.00345718,0.13371680,0.25669272,-0.0
 0058483,-0.00153939,0.00136172,0.00008759,0.00043991,0.00011496,0.0164
 3401,0.02712463,0.00158112,-0.00088240,-0.00016541,-0.04639088,0.00152
 365,-0.00047949,0.00124408,0.00041366,-0.00071876,-0.00020894,-0.00026
 841,-0.00061413,-0.00034126,-0.00114595,0.00287967,-0.00460409,0.00068
 640,-0.00129279,0.05003503,0.00126694,-0.00087754,0.00014601,0.0000207
 4,-0.00009730,-0.00002491,-0.00454122,0.00090099,0.00052832,-0.3011684
 8,0.05922881,-0.02933758,0.00116442,0.00109559,-0.00125038,-0.00000087
 ,0.00015557,-0.00043313,0.00009878,-0.00012011,0.00014093,0.00043593,0
 .00031574,-0.00036522,-0.01490712,0.00463791,-0.00128061,0.32507941,-0
 .00131547,0.00062665,-0.00151832,0.00003118,0.00002541,-0.00000240,0.0
 1828714,-0.00490830,-0.00011958,0.05820141,-0.06237357,0.00739954,-0.0
 0057885,-0.00139306,0.00313916,-0.00006172,0.00071924,0.00001667,-0.00
 000936,-0.00022916,0.00005715,0.00004569,0.00013081,-0.00066523,-0.026
 74639,0.00792917,-0.00297054,-0.06600872,0.06367350,0.00088681,-0.0004
 5003,0.00339129,0.00005732,0.00024889,0.00013100,-0.02998424,0.0060407
 4,-0.00381756,-0.02739087,0.00637369,-0.04920981,0.00059417,0.00304801
 ,-0.00531814,-0.00037491,-0.00066453,-0.00042609,0.00004047,-0.0002296
 2,-0.00003886,0.00062367,-0.00043692,0.00091079,-0.00022260,-0.0001920
 2,-0.00135593,0.03264156,-0.00962116,0.05199191,0.00129028,0.00007748,
 -0.00026210,0.00003865,0.00003214,-0.00000007,-0.00100276,-0.00321100,
 -0.00299707,-0.06866003,0.04489205,0.06103057,-0.00014228,-0.00008582,
 0.00008792,0.00009486,-0.00041958,-0.00025339,0.00004969,0.00008747,0.
 00004546,0.00012393,-0.00008419,0.00030909,0.00511705,-0.00971256,-0.0
 1511314,-0.00722212,0.01714096,0.02489773,0.07075464,-0.00032338,-0.00
 013019,0.00584659,0.00006349,-0.00007530,-0.00001943,-0.00543214,0.009
 94151,0.01211383,0.04516023,-0.13185675,-0.11957153,0.00017628,-0.0000
 8364,-0.00048534,0.00005267,-0.00195697,-0.00004593,0.00011010,0.00074
 957,0.00003611,-0.00049426,0.00072021,-0.00069715,0.00892597,-0.014773
 63,-0.02088322,0.00100784,-0.00458063,-0.00458676,-0.04900439,0.141291
 91,-0.00053121,0.00166709,-0.00748209,-0.00016191,-0.00055313,-0.00023
 123,0.00882264,-0.01925962,-0.01796625,0.06004180,-0.11779890,-0.21000
 441,0.00019346,-0.00046072,0.00076724,0.00060695,0.00299684,0.00063709
 ,-0.00003376,0.00000072,0.00007759,0.00055826,0.00020502,0.00103862,-0
 .00078013,0.00064643,0.00040393,-0.00095639,0.00336245,0.00383858,-0.0
 6714994,0.12841603,0.22807638,0.00253019,0.00084557,0.00004865,-0.0001
 6568,-0.00038310,-0.00004093,-0.01863471,-0.03202133,-0.00396940,0.001
 42828,-0.00096375,0.00152639,-0.11241034,-0.11450550,-0.00996963,-0.00
 004540,-0.00009108,-0.00026715,0.00051074,0.00093715,0.00071828,-0.005
 79484,0.00217715,-0.00129364,0.00029117,0.00083473,-0.00065978,0.00029
 389,0.00029810,0.00025966,0.00001113,0.00008306,0.00006806,0.12411390,
 -0.00132546,0.00052690,0.00022536,0.00008177,-0.00006971,-0.00005840,0
 .00226054,0.00529624,0.00096536,0.00029817,0.00122259,-0.00025672,-0.1
 1586219,-0.24815321,-0.01549451,0.00085385,-0.00108516,-0.00123678,0.0
 0084168,-0.00041987,0.00000634,0.00176900,0.00091488,0.00014677,-0.000
 26525,0.00013401,-0.00038816,0.00000295,0.00016250,-0.00004857,-0.0000
 4980,-0.00002285,0.00008486,0.12655610,0.26847843,0.00004417,-0.000145
 38,-0.00022354,0.00000928,0.00007729,0.00000056,-0.00317641,-0.0061181
 9,-0.00169743,-0.00009208,-0.00131000,0.00018556,-0.01040190,-0.015699
 94,-0.04863243,0.00079387,0.00025707,0.00035274,-0.00003825,-0.0002091
 6,-0.00038965,-0.00124561,0.00041371,0.00043763,-0.00018535,0.00039548
 ,0.00002728,0.00024250,0.00018883,0.00002895,-0.00009386,-0.00005733,-
 0.00005295,0.01271488,0.01818501,0.04840758,0.00288385,-0.00212818,0.0
 0029929,-0.00003822,-0.00022362,-0.00004722,-0.00297557,0.01786579,-0.
 03038713,-0.00673870,0.00086932,0.00031540,-0.04911231,0.01139504,-0.0
 2006999,0.00007641,0.00072259,0.00017384,-0.00006215,0.00031039,-0.000
 03884,0.00137394,-0.00050541,0.00028612,-0.00000355,0.00013755,0.00014
 065,-0.00029860,0.00114543,-0.00180747,0.00004359,-0.00026997,0.000064
 98,0.00114566,-0.00698543,0.01462412,0.05310787,-0.00074900,0.00017448
 ,-0.00034934,-0.00010731,0.00000906,-0.00010720,0.00042264,-0.00389537
 ,0.00420499,0.00152033,0.00043403,-0.00015678,0.01221222,-0.11737319,0
 .11784507,-0.00002774,-0.00006089,-0.00010407,0.00010323,-0.00007056,0
 .00027494,0.00027499,0.00039126,-0.00057696,-0.00002299,0.00045438,-0.
 00032003,0.00010110,0.00031297,0.00053631,-0.00007475,0.00006749,0.000
 31175,0.00355423,-0.01304585,0.02424968,-0.01434680,0.12262842,0.00051
 841,-0.00041939,0.00169665,0.00007805,0.00015861,0.00009659,0.00058858
 ,0.00210088,-0.00678285,-0.00189181,-0.00034137,0.00086532,-0.02263554
 ,0.11803750,-0.24640993,-0.00028050,0.00025272,0.00015617,-0.00022102,
 0.00002006,-0.00021088,-0.00026622,-0.00024698,0.00012650,0.00014353,-
 0.00003755,0.00005419,-0.00001153,0.00047465,-0.00024416,0.00015020,-0
 .00006519,0.00034795,0.00083295,-0.00227197,0.00316578,0.02568381,-0.1
 2976585,0.26561039,-0.00868273,0.00453762,0.00138488,0.00019643,0.0005
 2238,0.00019000,-0.00731589,0.01667921,0.02494257,0.00107818,-0.000224
 29,0.00012621,-0.08939847,0.05834557,0.07848860,-0.00079835,-0.0030648
 0,-0.00126730,0.00046737,-0.00031834,0.00011548,0.00090644,-0.00100666
 ,0.00017658,-0.00003264,0.00001615,-0.00006295,0.00013490,-0.00043916,
 0.00002010,-0.00019097,0.00023277,-0.00076949,0.00697576,-0.00794549,-
 0.01322330,0.00059993,-0.00290228,-0.00273666,0.09615880,0.00090160,0.
 00024599,-0.00019959,-0.00003916,-0.00028042,-0.00017191,-0.00048211,-
 0.00436425,-0.00366192,-0.00033059,0.00011368,-0.00011259,0.05907691,-
 0.12476546,-0.10803008,0.00041426,0.00059464,-0.00042010,0.00033273,0.
 00015819,0.00053711,0.00022953,0.00025040,0.00023832,0.00007669,-0.000
 13813,-0.00011652,-0.00015503,0.00009858,0.00016487,0.00034456,0.00013
 321,0.00047969,0.01241213,-0.01393108,-0.02031026,-0.00788122,0.009897
 34,0.01215900,-0.06473876,0.13193919,-0.00140995,0.00042600,0.00178646
 ,0.00001364,-0.00017915,-0.00000181,-0.00215134,0.00421686,0.00304856,
 -0.00009429,-0.00001041,-0.00027954,0.08027099,-0.10882824,-0.19575498
 ,-0.00019261,0.00015863,0.00002505,0.00010917,0.00026619,-0.00007322,0
 .00057854,-0.00008877,0.00027217,0.00013240,0.00006096,-0.00002223,0.0
 0014485,0.00001661,0.00025520,-0.00047402,0.00030133,0.00005848,-0.000
 07134,0.00001086,-0.00147456,0.01068669,-0.01575331,-0.01843828,-0.087
 43564,0.11940660,0.21043386,0.00548871,-0.01212534,0.00671727,-0.00392
 067,-0.00021463,0.00256858,0.00012962,0.00023866,0.00054580,0.00068551
 ,0.00018323,-0.00015686,0.00005637,-0.00009694,-0.00032704,-0.05254008
 ,0.03817525,-0.05041425,0.00381985,0.01114788,-0.00988474,-0.00000198,
 -0.00010521,-0.00002050,-0.00015578,0.00025702,0.00067852,-0.00028418,
 0.00001104,-0.00020908,-0.00025139,-0.00018770,-0.00004031,-0.00020517
 ,-0.00001066,-0.00007390,-0.00007672,-0.00008837,0.00000933,0.00007639
 ,-0.00008794,-0.00005118,0.04118381,0.00107942,-0.03616652,0.01436754,
 0.00077887,0.00408918,-0.00031320,-0.00236614,0.00191585,0.00575379,0.
 00012322,0.00015588,-0.00044543,0.00014908,-0.00041771,-0.00077549,0.0
 3760213,-0.17313328,0.12773226,-0.00243877,0.00432298,-0.00527609,0.00
 017555,-0.00008547,-0.00054114,0.00055647,0.00039479,-0.00091482,-0.00
 022365,-0.00019128,-0.00017646,0.00005331,0.00055367,-0.00014266,0.000
 18869,0.00001294,0.00005876,-0.00020228,0.00012068,-0.00004245,0.00036
 586,-0.00001098,-0.00003633,-0.03464819,0.19862751,0.00235870,-0.00419
 458,0.01079671,0.00300167,0.00109476,0.00142092,0.00033258,-0.00032236
 ,0.00082020,0.00083979,0.00044989,-0.00116022,0.00003865,0.00008830,0.
 00000792,-0.05037018,0.12486503,-0.18563597,-0.00637218,0.02162029,-0.
 01298411,-0.00001372,0.00018774,-0.00007904,0.00001828,-0.00150786,-0.
 00190481,-0.00024504,0.00022715,-0.00017104,-0.00018824,-0.00029219,0.
 00046192,0.00003871,0.00003408,-0.00000388,-0.00000029,0.00000244,-0.0
 0001196,-0.00003807,0.00000846,0.00001115,0.05575635,-0.13960779,0.191
 30956,-0.00488835,0.00240064,0.00336068,0.00357858,-0.00795686,0.00673
 722,0.00066339,0.00010953,-0.00030281,0.00008881,0.00008139,-0.0000736
 6,0.00007352,0.00016476,0.00000496,0.00607817,0.00747339,-0.01056419,-
 0.05616026,0.04043609,-0.04698229,-0.00006422,0.00008383,0.00008257,-0
 .00012940,-0.00017604,0.00000138,-0.00002486,0.00003849,-0.00000266,-0
 .00004375,-0.00012090,0.00005679,-0.00002175,-0.00023782,0.00008759,0.
 00009196,0.00015970,0.00006559,-0.00016197,-0.00006695,-0.00005395,0.0
 0609223,-0.00193244,-0.00457177,0.04254407,0.00113620,0.00093470,0.000
 01531,0.00422926,-0.03011617,0.01925776,0.00000004,0.00003164,-0.00007
 503,0.00001850,-0.00009057,-0.00008248,-0.00003624,0.00007905,-0.00007
 411,-0.00239390,0.00740987,-0.00427281,0.03911382,-0.18855846,0.137741
 20,-0.00001573,-0.00001234,-0.00002524,-0.00001301,-0.00001592,0.00004
 149,0.00002788,0.00001009,0.00004142,0.00001457,-0.00002182,-0.0000292
 2,-0.00001028,0.00000084,0.00009690,0.00007346,-0.00005710,0.00001009,
 -0.00000745,-0.00002294,0.00000352,-0.00187828,-0.00006539,-0.00124866
 ,-0.03809091,0.21411893,0.00383201,-0.00043795,0.00159319,0.00273948,-
 0.01057589,0.01136519,-0.00046757,-0.00041588,-0.00042056,0.00005494,0
 .00011040,-0.00004407,-0.00013398,0.00011891,-0.00001773,-0.00585660,0
 .02244354,-0.01113324,-0.04755630,0.14279451,-0.19764104,0.00009008,-0
 .00006069,-0.00008517,-0.00009171,-0.00001140,0.00002718,0.00008217,0.
 00002839,0.00004552,0.00000030,-0.00006665,0.00004854,0.00004459,0.000
 11773,-0.00013880,0.00007255,-0.00030285,-0.00002383,0.00006788,0.0000
 2601,0.00014138,-0.00475198,-0.00115681,-0.00220738,0.05320944,-0.1490
 9906,0.19754860,-0.00139239,0.00007233,-0.00003379,-0.04251388,0.08428
 661,-0.10192401,0.00031236,0.00002844,-0.00010533,-0.00001178,0.000052
 54,0.00005579,0.00006496,0.00012206,0.00004664,0.00013647,-0.00178102,
 0.00120385,0.00230117,-0.00983741,0.00838814,-0.00005508,0.00003442,0.
 00005184,0.00005526,0.00000324,0.00003222,-0.00004755,-0.00003978,-0.0
 0002966,-0.00001053,0.00002034,0.00001019,-0.00002283,0.00001803,0.000
 01423,-0.00001737,-0.00002920,-0.00002716,-0.00001317,-0.00000664,-0.0
 0000198,-0.00009649,0.00073886,-0.00058525,0.00228383,-0.00216793,-0.0
 0133531,0.03902703,0.00040183,0.00216078,0.00116573,0.06348241,-0.2477
 5181,0.20283239,0.00053388,-0.00035330,-0.00092892,-0.00013542,0.00002
 100,0.00016625,-0.00013683,-0.00003191,0.00020985,0.00049471,0.0026794
 9,0.00026033,0.00975820,-0.03822544,0.03226449,-0.00006412,0.00013656,
 0.00017013,0.00004927,0.00001305,-0.00008243,0.00000797,-0.00001291,-0
 .00004786,-0.00000044,0.00004423,0.00007337,0.00008813,-0.00002159,-0.
 00007249,0.00002334,0.00001284,-0.00002276,-0.00005234,0.00008205,0.00
 002866,-0.00056982,-0.00012284,-0.00140471,-0.00236589,-0.00362439,-0.
 00351230,-0.07151488,0.28499419,-0.00051861,0.00019425,-0.00181726,-0.
 09634173,0.24706528,-0.28257422,0.00012562,-0.00019267,0.00026723,-0.0
 0008151,-0.00013057,0.00004352,-0.00000895,-0.00005102,-0.00007987,0.0
 0028871,-0.00531343,0.00195319,0.00357833,-0.00972279,0.00972217,0.000
 01642,-0.00001592,-0.00004995,0.00006968,0.00001497,-0.00002133,-0.000
 02156,-0.00001336,-0.00001163,0.00001057,0.00005686,-0.00001938,0.0000
 1971,-0.00002125,0.00000718,0.00000350,0.00001121,0.00000236,0.0000211
 3,0.00000292,0.00001232,-0.00034600,0.00151632,-0.00066997,-0.00105490
 ,-0.00230107,0.00094221,0.09423959,-0.23109972,0.27229343\\0.00000015,
 0.00000028,0.00000023,0.00000108,-0.00000035,0.00000044,-0.00000008,-0
 .00000054,0.00000069,-0.00000081,-0.00000014,0.00000024,0.00000054,0.0
 0000049,-0.00000050,0.00000031,-0.00000030,0.00000035,0.00000063,0.000
 00005,-0.00000030,-0.00000007,0.00000016,0.00000035,-0.00000102,-0.000
 00008,0.00000002,-0.00000079,-0.00000063,0.00000050,-0.00000075,-0.000
 00017,0.00000029,-0.00000024,-0.00000043,-0.00000112,0.00000046,0.0000
 0057,0.00000002,-0.00000041,-0.00000036,-0.00000008,-0.00000018,-0.000
 00007,0.00000018,0.00000098,0.00000046,-0.00000007,0.00000021,0.000001
 05,-0.00000124\\\@


 IN SO FAR AS QUANTUM MECHANICS IS CORRECT, CHEMICAL 
 QUESTIONS ARE PROBLEMS IN APPLIED MATHEMATICS.

                    -- EYRING, WALTER, & KIMBALL, 1944
 Job cpu time:       0 days  2 hours 41 minutes 16.2 seconds.
 Elapsed time:       0 days  1 hours 20 minutes 39.1 seconds.
 File lengths (MBytes):  RWF=   1392 Int=      0 D2E=      0 Chk=     32 Scr=     32
 Normal termination of Gaussian 16 at Sun Sep 29 17:12:29 2019.
