 Entering Gaussian System, Link 0=g16
 Input=tight/species/CC(C)OC=CO/conformers/CC(C)OC=CO_61.com
 Output=tight/species/CC(C)OC=CO/conformers/CC(C)OC=CO_61.log
 Initial command:
 /shared/centos7/gaussian/g16/l1.exe "/scratch/harms.n/gauss_scrdir/Gau-14175.inp" -scrdir="/scratch/harms.n/gauss_scrdir/"
 Entering Link 1 = /shared/centos7/gaussian/g16/l1.exe PID=     14176.
  
 Copyright (c) 1988,1990,1992,1993,1995,1998,2003,2009,2016,
            Gaussian, Inc.  All Rights Reserved.
  
 This is part of the Gaussian(R) 16 program.  It is based on
 the Gaussian(R) 09 system (copyright 2009, Gaussian, Inc.),
 the Gaussian(R) 03 system (copyright 2003, Gaussian, Inc.),
 the Gaussian(R) 98 system (copyright 1998, Gaussian, Inc.),
 the Gaussian(R) 94 system (copyright 1995, Gaussian, Inc.),
 the Gaussian 92(TM) system (copyright 1992, Gaussian, Inc.),
 the Gaussian 90(TM) system (copyright 1990, Gaussian, Inc.),
 the Gaussian 88(TM) system (copyright 1988, Gaussian, Inc.),
 the Gaussian 86(TM) system (copyright 1986, Carnegie Mellon
 University), and the Gaussian 82(TM) system (copyright 1983,
 Carnegie Mellon University). Gaussian is a federally registered
 trademark of Gaussian, Inc.
  
 This software contains proprietary and confidential information,
 including trade secrets, belonging to Gaussian, Inc.
  
 This software is provided under written license and may be
 used, copied, transmitted, or stored only in accord with that
 written license.
  
 The following legend is applicable only to US Government
 contracts under FAR:
  
                    RESTRICTED RIGHTS LEGEND
  
 Use, reproduction and disclosure by the US Government is
 subject to restrictions as set forth in subparagraphs (a)
 and (c) of the Commercial Computer Software - Restricted
 Rights clause in FAR 52.227-19.
  
 Gaussian, Inc.
 340 Quinnipiac St., Bldg. 40, Wallingford CT 06492
  
  
 ---------------------------------------------------------------
 Warning -- This program may not be used in any manner that
 competes with the business of Gaussian, Inc. or will provide
 assistance to any competitor of Gaussian, Inc.  The licensee
 of this program is prohibited from giving any competitor of
 Gaussian, Inc. access to this program.  By using this program,
 the user acknowledges that Gaussian, Inc. is engaged in the
 business of creating and licensing software in the field of
 computational chemistry and represents and warrants to the
 licensee that it is not a competitor of Gaussian, Inc. and that
 it will not use this program in any manner prohibited above.
 ---------------------------------------------------------------
  

 Cite this work as:
 Gaussian 16, Revision A.03,
 M. J. Frisch, G. W. Trucks, H. B. Schlegel, G. E. Scuseria, 
 M. A. Robb, J. R. Cheeseman, G. Scalmani, V. Barone, 
 G. A. Petersson, H. Nakatsuji, X. Li, M. Caricato, A. V. Marenich, 
 J. Bloino, B. G. Janesko, R. Gomperts, B. Mennucci, H. P. Hratchian, 
 J. V. Ortiz, A. F. Izmaylov, J. L. Sonnenberg, D. Williams-Young, 
 F. Ding, F. Lipparini, F. Egidi, J. Goings, B. Peng, A. Petrone, 
 T. Henderson, D. Ranasinghe, V. G. Zakrzewski, J. Gao, N. Rega, 
 G. Zheng, W. Liang, M. Hada, M. Ehara, K. Toyota, R. Fukuda, 
 J. Hasegawa, M. Ishida, T. Nakajima, Y. Honda, O. Kitao, H. Nakai, 
 T. Vreven, K. Throssell, J. A. Montgomery, Jr., J. E. Peralta, 
 F. Ogliaro, M. J. Bearpark, J. J. Heyd, E. N. Brothers, K. N. Kudin, 
 V. N. Staroverov, T. A. Keith, R. Kobayashi, J. Normand, 
 K. Raghavachari, A. P. Rendell, J. C. Burant, S. S. Iyengar, 
 J. Tomasi, M. Cossi, J. M. Millam, M. Klene, C. Adamo, R. Cammi, 
 J. W. Ochterski, R. L. Martin, K. Morokuma, O. Farkas, 
 J. B. Foresman, and D. J. Fox, Gaussian, Inc., Wallingford CT, 2016.
 
 ******************************************
 Gaussian 16:  EM64L-G16RevA.03 25-Dec-2016
                26-Sep-2019 
 ******************************************
 %nprocshared=20
 Will use up to   20 processors via shared memory.
 %mem=5GB
 ----------------------------------------------------------------------
 #p m062x/cc-pVTZ opt=(calcfc,maxcycles=900,Tight) freq IOP(7/33=1,2/16
 =3) scf=(maxcycle=900)
 ----------------------------------------------------------------------
 1/6=900,7=10,10=4,18=20,19=15,26=3,38=1/1,3;
 2/9=110,12=2,16=3,17=6,18=5,40=1/2;
 3/5=16,6=1,11=2,25=1,30=1,71=2,74=-55,140=1/1,2,3;
 4//1;
 5/5=2,7=900,38=5/2;
 8/6=4,10=90,11=11/1;
 11/6=1,8=1,9=11,15=111,16=1/1,2,10;
 10/6=1,13=1/2;
 6/7=2,8=2,9=2,10=2,28=1/1;
 7/10=1,18=20,25=1,33=1/1,2,3,16;
 1/6=900,7=10,10=4,18=20,19=15,26=3/3(2);
 2/9=110,16=3/2;
 99//99;
 2/9=110,16=3/2;
 3/5=16,6=1,11=2,25=1,30=1,71=1,74=-55/1,2,3;
 4/5=5,16=3,69=1/1;
 5/5=2,7=900,38=5/2;
 7/33=1/1,2,3,16;
 1/6=900,7=10,18=20,19=15,26=3/3(-5);
 2/9=110,16=3/2;
 6/7=2,8=2,9=2,10=2,19=2,28=1/1;
 99/9=1/99;
 Leave Link    1 at Thu Sep 26 23:35:30 2019, MaxMem=   671088640 cpu:               4.3 elap:               2.2
 (Enter /shared/centos7/gaussian/g16/l101.exe)
 ------------------------------
 Gaussian input prepared by ASE
 ------------------------------
 Symbolic Z-matrix:
 Charge =  0 Multiplicity = 1
 O                     3.19575   0.83077   2.92281 
 O                     0.8737    1.57985   1.14058 
 C                     2.39295   1.75943   3.62066 
 C                     2.69517   3.19359   3.18607 
 C                     2.56664   1.57718   5.09263 
 C                     2.53408   0.05248   2.00067 
 C                     1.53412   0.36336   1.22769 
 H                     1.31312   1.56083   3.37397 
 H                     3.73922   3.47668   3.43514 
 H                     2.54996   3.31585   2.09729 
 H                     2.00519   3.90886   3.71042 
 H                     3.65401   1.65503   5.38969 
 H                     2.19831   0.58106   5.41534 
 H                     1.99632   2.36039   5.66785 
 H                     2.98029  -0.95163   1.9207 
 H                     1.11371  -0.3683    0.55364 
 H                     1.40651   2.23968   1.67211 
 
 ITRead=  0  0  0  0  0  0  0  0  0  0  0  0  0  0  0  0  0
 MicOpt= -1 -1 -1 -1 -1 -1 -1 -1 -1 -1 -1 -1 -1 -1 -1 -1 -1
 NAtoms=     17 NQM=       17 NQMF=       0 NMMI=      0 NMMIF=      0
                NMic=       0 NMicF=      0.
                    Isotopes and Nuclear Properties:
 (Nuclear quadrupole moments (NQMom) in fm**2, nuclear magnetic moments (NMagM)
  in nuclear magnetons)

  Atom         1           2           3           4           5           6           7           8           9          10
 IAtWgt=          16          16          12          12          12          12          12           1           1           1
 AtmWgt=  15.9949146  15.9949146  12.0000000  12.0000000  12.0000000  12.0000000  12.0000000   1.0078250   1.0078250   1.0078250
 NucSpn=           0           0           0           0           0           0           0           1           1           1
 AtZEff=  -0.0000000  -0.0000000  -0.0000000  -0.0000000  -0.0000000  -0.0000000  -0.0000000  -0.0000000  -0.0000000  -0.0000000
 NQMom=    0.0000000   0.0000000   0.0000000   0.0000000   0.0000000   0.0000000   0.0000000   0.0000000   0.0000000   0.0000000
 NMagM=    0.0000000   0.0000000   0.0000000   0.0000000   0.0000000   0.0000000   0.0000000   2.7928460   2.7928460   2.7928460
 AtZNuc=   8.0000000   8.0000000   6.0000000   6.0000000   6.0000000   6.0000000   6.0000000   1.0000000   1.0000000   1.0000000

  Atom        11          12          13          14          15          16          17
 IAtWgt=           1           1           1           1           1           1           1
 AtmWgt=   1.0078250   1.0078250   1.0078250   1.0078250   1.0078250   1.0078250   1.0078250
 NucSpn=           1           1           1           1           1           1           1
 AtZEff=  -0.0000000  -0.0000000  -0.0000000  -0.0000000  -0.0000000  -0.0000000  -0.0000000
 NQMom=    0.0000000   0.0000000   0.0000000   0.0000000   0.0000000   0.0000000   0.0000000
 NMagM=    2.7928460   2.7928460   2.7928460   2.7928460   2.7928460   2.7928460   2.7928460
 AtZNuc=   1.0000000   1.0000000   1.0000000   1.0000000   1.0000000   1.0000000   1.0000000
 Leave Link  101 at Thu Sep 26 23:35:34 2019, MaxMem=   671088640 cpu:               7.1 elap:               3.8
 (Enter /shared/centos7/gaussian/g16/l103.exe)

 GradGradGradGradGradGradGradGradGradGradGradGradGradGradGradGradGradGrad
 Berny optimization.
 Initialization pass.
                           ----------------------------
                           !    Initial Parameters    !
                           ! (Angstroms and Degrees)  !
 --------------------------                            --------------------------
 ! Name  Definition              Value          Derivative Info.                !
 --------------------------------------------------------------------------------
 ! R1    R(1,3)                  1.412          calculate D2E/DX2 analytically  !
 ! R2    R(1,6)                  1.3762         calculate D2E/DX2 analytically  !
 ! R3    R(2,7)                  1.3869         calculate D2E/DX2 analytically  !
 ! R4    R(2,17)                 1.0009         calculate D2E/DX2 analytically  !
 ! R5    R(3,4)                  1.5287         calculate D2E/DX2 analytically  !
 ! R6    R(3,5)                  1.4933         calculate D2E/DX2 analytically  !
 ! R7    R(3,8)                  1.1253         calculate D2E/DX2 analytically  !
 ! R8    R(4,9)                  1.1101         calculate D2E/DX2 analytically  !
 ! R9    R(4,10)                 1.1052         calculate D2E/DX2 analytically  !
 ! R10   R(4,11)                 1.1237         calculate D2E/DX2 analytically  !
 ! R11   R(5,12)                 1.1299         calculate D2E/DX2 analytically  !
 ! R12   R(5,13)                 1.11           calculate D2E/DX2 analytically  !
 ! R13   R(5,14)                 1.1267         calculate D2E/DX2 analytically  !
 ! R14   R(6,7)                  1.3016         calculate D2E/DX2 analytically  !
 ! R15   R(6,15)                 1.1017         calculate D2E/DX2 analytically  !
 ! R16   R(7,16)                 1.08           calculate D2E/DX2 analytically  !
 ! A1    A(3,1,6)              115.4513         calculate D2E/DX2 analytically  !
 ! A2    A(7,2,17)             106.9412         calculate D2E/DX2 analytically  !
 ! A3    A(1,3,4)              111.3515         calculate D2E/DX2 analytically  !
 ! A4    A(1,3,5)              109.9227         calculate D2E/DX2 analytically  !
 ! A5    A(1,3,8)              108.732          calculate D2E/DX2 analytically  !
 ! A6    A(4,3,5)              111.8213         calculate D2E/DX2 analytically  !
 ! A7    A(4,3,8)              107.0344         calculate D2E/DX2 analytically  !
 ! A8    A(5,3,8)              107.8276         calculate D2E/DX2 analytically  !
 ! A9    A(3,4,9)              111.1865         calculate D2E/DX2 analytically  !
 ! A10   A(3,4,10)             110.9693         calculate D2E/DX2 analytically  !
 ! A11   A(3,4,11)             110.0672         calculate D2E/DX2 analytically  !
 ! A12   A(9,4,10)             108.4453         calculate D2E/DX2 analytically  !
 ! A13   A(9,4,11)             108.0888         calculate D2E/DX2 analytically  !
 ! A14   A(10,4,11)            107.9756         calculate D2E/DX2 analytically  !
 ! A15   A(3,5,12)             111.2641         calculate D2E/DX2 analytically  !
 ! A16   A(3,5,13)             110.9469         calculate D2E/DX2 analytically  !
 ! A17   A(3,5,14)             111.0696         calculate D2E/DX2 analytically  !
 ! A18   A(12,5,13)            107.7426         calculate D2E/DX2 analytically  !
 ! A19   A(12,5,14)            107.7582         calculate D2E/DX2 analytically  !
 ! A20   A(13,5,14)            107.9033         calculate D2E/DX2 analytically  !
 ! A21   A(1,6,7)              129.2166         calculate D2E/DX2 analytically  !
 ! A22   A(1,6,15)             111.6752         calculate D2E/DX2 analytically  !
 ! A23   A(7,6,15)             119.0622         calculate D2E/DX2 analytically  !
 ! A24   A(2,7,6)              127.7799         calculate D2E/DX2 analytically  !
 ! A25   A(2,7,16)             111.6938         calculate D2E/DX2 analytically  !
 ! A26   A(6,7,16)             120.5245         calculate D2E/DX2 analytically  !
 ! D1    D(6,1,3,4)           -109.3504         calculate D2E/DX2 analytically  !
 ! D2    D(6,1,3,5)            126.1641         calculate D2E/DX2 analytically  !
 ! D3    D(6,1,3,8)              8.3398         calculate D2E/DX2 analytically  !
 ! D4    D(3,1,6,7)             35.1396         calculate D2E/DX2 analytically  !
 ! D5    D(3,1,6,15)          -147.3899         calculate D2E/DX2 analytically  !
 ! D6    D(17,2,7,6)             9.6292         calculate D2E/DX2 analytically  !
 ! D7    D(17,2,7,16)         -170.8567         calculate D2E/DX2 analytically  !
 ! D8    D(1,3,4,9)            -63.484          calculate D2E/DX2 analytically  !
 ! D9    D(1,3,4,10)            57.3099         calculate D2E/DX2 analytically  !
 ! D10   D(1,3,4,11)           176.7729         calculate D2E/DX2 analytically  !
 ! D11   D(5,3,4,9)             59.926          calculate D2E/DX2 analytically  !
 ! D12   D(5,3,4,10)          -179.2801         calculate D2E/DX2 analytically  !
 ! D13   D(5,3,4,11)           -59.8171         calculate D2E/DX2 analytically  !
 ! D14   D(8,3,4,9)            177.8043         calculate D2E/DX2 analytically  !
 ! D15   D(8,3,4,10)           -61.4018         calculate D2E/DX2 analytically  !
 ! D16   D(8,3,4,11)            58.0612         calculate D2E/DX2 analytically  !
 ! D17   D(1,3,5,12)            55.5629         calculate D2E/DX2 analytically  !
 ! D18   D(1,3,5,13)           -64.3787         calculate D2E/DX2 analytically  !
 ! D19   D(1,3,5,14)           175.6064         calculate D2E/DX2 analytically  !
 ! D20   D(4,3,5,12)           -68.6507         calculate D2E/DX2 analytically  !
 ! D21   D(4,3,5,13)           171.4078         calculate D2E/DX2 analytically  !
 ! D22   D(4,3,5,14)            51.3929         calculate D2E/DX2 analytically  !
 ! D23   D(8,3,5,12)           173.9467         calculate D2E/DX2 analytically  !
 ! D24   D(8,3,5,13)            54.0051         calculate D2E/DX2 analytically  !
 ! D25   D(8,3,5,14)           -66.0098         calculate D2E/DX2 analytically  !
 ! D26   D(1,6,7,2)             -0.0516         calculate D2E/DX2 analytically  !
 ! D27   D(1,6,7,16)          -179.5275         calculate D2E/DX2 analytically  !
 ! D28   D(15,6,7,2)          -177.3622         calculate D2E/DX2 analytically  !
 ! D29   D(15,6,7,16)            3.1619         calculate D2E/DX2 analytically  !
 --------------------------------------------------------------------------------
 Trust Radius=3.00D-01 FncErr=1.00D-07 GrdErr=1.00D-06 EigMax=2.50D+02 EigMin=1.00D-04
 Number of steps in this run=    102 maximum allowed number of steps=    102.
 GradGradGradGradGradGradGradGradGradGradGradGradGradGradGradGradGradGrad

 Leave Link  103 at Thu Sep 26 23:35:35 2019, MaxMem=   671088640 cpu:               1.5 elap:               1.1
 (Enter /shared/centos7/gaussian/g16/l202.exe)
                          Input orientation:                          
 ---------------------------------------------------------------------
 Center     Atomic      Atomic             Coordinates (Angstroms)
 Number     Number       Type             X           Y           Z
 ---------------------------------------------------------------------
      1          8           0        3.195749    0.830775    2.922811
      2          8           0        0.873696    1.579847    1.140584
      3          6           0        2.392954    1.759429    3.620664
      4          6           0        2.695174    3.193586    3.186072
      5          6           0        2.566641    1.577178    5.092631
      6          6           0        2.534077    0.052483    2.000669
      7          6           0        1.534117    0.363359    1.227694
      8          1           0        1.313119    1.560829    3.373966
      9          1           0        3.739222    3.476681    3.435136
     10          1           0        2.549964    3.315853    2.097288
     11          1           0        2.005195    3.908858    3.710424
     12          1           0        3.654013    1.655032    5.389694
     13          1           0        2.198307    0.581055    5.415344
     14          1           0        1.996318    2.360387    5.667849
     15          1           0        2.980292   -0.951626    1.920705
     16          1           0        1.113710   -0.368302    0.553637
     17          1           0        1.406506    2.239680    1.672107
 ---------------------------------------------------------------------
                    Distance matrix (angstroms):
                    1          2          3          4          5
     1  O    0.000000
     2  O    3.021485   0.000000
     3  C    1.412047   2.913965   0.000000
     4  C    2.429560   3.178986   1.528729   0.000000
     5  C    2.379289   4.299388   1.493342   2.502850   0.000000
     6  C    1.376189   2.414425   2.357534   3.361200   3.447606
     7  C    2.419281   1.386935   2.900503   3.632283   4.180574
     8  H    2.069013   2.276279   1.125320   2.147388   2.127297
     9  H    2.749301   4.132092   2.189934   1.110050   2.780349
    10  H    2.697062   2.595934   2.183525   1.105209   3.463430
    11  H    3.392986   3.648104   2.185969   1.123668   2.768113
    12  H    2.641007   5.078459   2.175003   2.853501   1.129905
    13  H    2.696289   4.585384   2.155767   3.470136   1.109989
    14  H    3.363568   4.729234   2.170125   2.709583   1.126748
    15  H    2.056110   3.384478   3.253405   4.343412   4.077631
    16  H    3.374264   2.048756   3.945929   4.702955   5.147656
    17  H    2.598205   1.000891   2.236201   2.205151   3.672166
                    6          7          8          9         10
     6  C    0.000000
     7  C    1.301558   0.000000
     8  H    2.377349   2.467642   0.000000
     9  H    3.903230   4.407727   3.091958   0.000000
    10  H    3.264839   3.241197   2.497960   1.797230   0.000000
    11  H    4.251425   4.353898   2.470914   1.808151   1.802952
    12  H    3.912533   4.846093   3.090602   2.673193   3.849310
    13  H    3.471619   4.245580   2.431201   3.831486   4.314195
    14  H    4.366214   4.890473   2.523481   3.044476   3.737425
    15  H    1.101697   2.073854   3.347217   4.741242   4.292754
    16  H    2.070845   1.080011   3.422801   5.475421   4.244842
    17  H    2.482580   1.932452   1.834635   3.174902   1.626783
                   11         12         13         14         15
    11  H    0.000000
    12  H    3.258571   0.000000
    13  H    3.744104   1.809189   0.000000
    14  H    2.495868   1.822869   1.808475   0.000000
    15  H    5.270504   4.391179   3.895268   5.096933   0.000000
    16  H    5.390190   5.825330   5.070880   5.863438   2.386057
    17  H    2.701725   4.383327   4.170109   4.040842   3.566937
                   16         17
    16  H    0.000000
    17  H    2.852767   0.000000
 Stoichiometry    C5H10O2
 Framework group  C1[X(C5H10O2)]
 Deg. of freedom    45
 Full point group                 C1      NOp   1
 Largest Abelian subgroup         C1      NOp   1
 Largest concise Abelian subgroup C1      NOp   1
                         Standard orientation:                         
 ---------------------------------------------------------------------
 Center     Atomic      Atomic             Coordinates (Angstroms)
 Number     Number       Type             X           Y           Z
 ---------------------------------------------------------------------
      1          8           0        0.194940   -0.875906   -0.664564
      2          8           0       -1.803938    1.086100    0.468747
      3          6           0        0.896306    0.037269    0.152795
      4          6           0        1.182688    1.342541   -0.589676
      5          6           0        2.147888   -0.595915    0.665329
      6          6           0       -1.119231   -1.091558   -0.317657
      7          6           0       -1.989317   -0.255623    0.170416
      8          1           0        0.253360    0.296470    1.039237
      9          1           0        1.849047    1.170744   -1.460689
     10          1           0        0.246538    1.805353   -0.951498
     11          1           0        1.688163    2.074020    0.097393
     12          1           0        2.789354   -0.980112   -0.181783
     13          1           0        1.915129   -1.454240    1.329540
     14          1           0        2.762827    0.141511    1.254917
     15          1           0       -1.435209   -2.122936   -0.541607
     16          1           0       -2.992967   -0.580948    0.401223
     17          1           0       -0.914264    1.348300    0.092563
 ---------------------------------------------------------------------
 Rotational constants (GHZ):           4.1850080           1.9134915           1.5528144
 Leave Link  202 at Thu Sep 26 23:35:37 2019, MaxMem=   671088640 cpu:               4.6 elap:               2.3
 (Enter /shared/centos7/gaussian/g16/l301.exe)
 Standard basis: CC-pVTZ (5D, 7F)
 Ernie: Thresh=  0.10000D-02 Tol=  0.10000D-05 Strict=F.
 Ernie:  21 primitive shells out of 262 were deleted.
 There are   395 symmetry adapted cartesian basis functions of A   symmetry.
 There are   350 symmetry adapted basis functions of A   symmetry.
   350 basis functions,   534 primitive gaussians,   395 cartesian basis functions
    28 alpha electrons       28 beta electrons
       nuclear repulsion energy       323.5995918231 Hartrees.
 IExCor= 4336 DFT=T Ex+Corr=M062X ExCW=0 ScaHFX=  0.540000
 ScaDFX=  1.000000  1.000000  1.000000  1.000000 ScalE2=  1.000000  1.000000
 IRadAn=      5 IRanWt=     -1 IRanGd=            0 ICorTp=0 IEmpDi=  4
 NAtoms=   17 NActive=   17 NUniq=   17 SFac= 1.00D+00 NAtFMM=   60 NAOKFM=F Big=F
 Integral buffers will be    131072 words long.
 Raffenetti 2 integral format.
 Two-electron integral symmetry is turned on.
 Leave Link  301 at Thu Sep 26 23:35:39 2019, MaxMem=   671088640 cpu:               2.3 elap:               1.6
 (Enter /shared/centos7/gaussian/g16/l302.exe)
 NPDir=0 NMtPBC=     1 NCelOv=     1 NCel=       1 NClECP=     1 NCelD=      1
         NCelK=      1 NCelE2=     1 NClLst=     1 CellRange=     0.0.
 One-electron integrals computed using PRISM.
 One-electron integral symmetry used in STVInt
 NBasis=   350 RedAO= T EigKep=  3.27D-04  NBF=   350
 NBsUse=   350 1.00D-06 EigRej= -1.00D+00 NBFU=   350
 Precomputing XC quadrature grid using
 IXCGrd= 4 IRadAn=           5 IRanWt=          -1 IRanGd=           0 AccXCQ= 0.00D+00.
 Generated NRdTot=       0 NPtTot=           0 NUsed=           0 NTot=          32
 NSgBfM=   395   395   395   395   395 MxSgAt=    17 MxSgA2=    17.
 Leave Link  302 at Thu Sep 26 23:37:31 2019, MaxMem=   671088640 cpu:             224.3 elap:             112.3
 (Enter /shared/centos7/gaussian/g16/l303.exe)
 DipDrv:  MaxL=1.
 Leave Link  303 at Thu Sep 26 23:37:38 2019, MaxMem=   671088640 cpu:              13.6 elap:               7.4
 (Enter /shared/centos7/gaussian/g16/l401.exe)
 ExpMin= 1.03D-01 ExpMax= 1.53D+04 ExpMxC= 5.22D+02 IAcc=3 IRadAn=         5 AccDes= 0.00D+00
 Harris functional with IExCor= 1009 and IRadAn=       5 diagonalized for initial guess.
 HarFok:  IExCor= 1009 AccDes= 0.00D+00 IRadAn=         5 IDoV= 1 UseB2=F ITyADJ=14
 ICtDFT=  3500011 ScaDFX=  1.000000  1.000000  1.000000  1.000000
 FoFCou: FMM=F IPFlag=           0 FMFlag=      100000 FMFlg1=           0
         NFxFlg=           0 DoJE=T BraDBF=F KetDBF=T FulRan=T
         wScrn=  0.000000 ICntrl=       500 IOpCl=  0 I1Cent=   200000004 NGrid=           0
         NMat0=    1 NMatS0=      1 NMatT0=    0 NMatD0=    1 NMtDS0=    0 NMtDT0=    0
 Petite list used in FoFCou.
 Harris En= -346.801356067974    
 JPrj=0 DoOrth=F DoCkMO=F.
 Leave Link  401 at Thu Sep 26 23:38:32 2019, MaxMem=   671088640 cpu:             105.8 elap:              53.7
 (Enter /shared/centos7/gaussian/g16/l502.exe)
 Integral symmetry usage will be decided dynamically.
 Closed shell SCF:
 Using DIIS extrapolation, IDIIS=  1040.
 NGot=   671088640 LenX=   670765141 LenY=   670608675
 Requested convergence on RMS density matrix=1.00D-08 within 900 cycles.
 Requested convergence on MAX density matrix=1.00D-06.
 Requested convergence on             energy=1.00D-06.
 No special actions if energy rises.
 Fock matrices will be formed incrementally for  20 cycles.
 Integral accuracy reduced to 1.0D-05 until final iterations.

 Cycle   1  Pass 0  IDiag  1:
 FoFJK:  IHMeth= 1 ICntrl=       0 DoSepK=F KAlg= 0 I1Cent=           0 FoldK=F
 IRaf= 970000000 NMat=       1 IRICut=       1 DoRegI=T DoRafI=F ISym2E= 0 IDoP0=0 IntGTp=1.
 FoFCou: FMM=F IPFlag=           0 FMFlag=      100000 FMFlg1=           0
         NFxFlg=           0 DoJE=F BraDBF=F KetDBF=F FulRan=T
         wScrn=  0.000000 ICntrl=         0 IOpCl=  0 I1Cent=           0 NGrid=           0
         NMat0=    1 NMatS0=      1 NMatT0=    0 NMatD0=    1 NMtDS0=    0 NMtDT0=    0
 Symmetry not used in FoFCou.
 E= -346.710667525528    
 DIIS: error= 2.08D-02 at cycle   1 NSaved=   1.
 NSaved= 1 IEnMin= 1 EnMin= -346.710667525528     IErMin= 1 ErrMin= 2.08D-02
 ErrMax= 2.08D-02  0.00D+00 EMaxC= 1.00D-01 BMatC= 2.76D-01 BMatP= 2.76D-01
 IDIUse=3 WtCom= 7.92D-01 WtEn= 2.08D-01
 Coeff-Com:  0.100D+01
 Coeff-En:   0.100D+01
 Coeff:      0.100D+01
 Gap=     0.364 Goal=   None    Shift=    0.000
 GapD=    0.364 DampG=1.000 DampE=0.500 DampFc=0.5000 IDamp=-1.
 Damping current iteration by 5.00D-01
 RMSDP=1.80D-03 MaxDP=7.23D-02              OVMax= 1.37D-01

 Cycle   2  Pass 0  IDiag  1:
 RMSU=  8.98D-04    CP:  9.99D-01
 E= -346.825222266538     Delta-E=       -0.114554741010 Rises=F Damp=T
 DIIS: error= 4.47D-03 at cycle   2 NSaved=   2.
 NSaved= 2 IEnMin= 2 EnMin= -346.825222266538     IErMin= 2 ErrMin= 4.47D-03
 ErrMax= 4.47D-03  0.00D+00 EMaxC= 1.00D-01 BMatC= 2.10D-02 BMatP= 2.76D-01
 IDIUse=3 WtCom= 9.55D-01 WtEn= 4.47D-02
 Coeff-Com: -0.154D+00 0.115D+01
 Coeff-En:   0.000D+00 0.100D+01
 Coeff:     -0.147D+00 0.115D+01
 Gap=     0.336 Goal=   None    Shift=    0.000
 RMSDP=4.08D-04 MaxDP=1.43D-02 DE=-1.15D-01 OVMax= 6.73D-02

 Cycle   3  Pass 0  IDiag  1:
 RMSU=  4.07D-04    CP:  1.00D+00  1.02D+00
 E= -346.926176575851     Delta-E=       -0.100954309313 Rises=F Damp=F
 DIIS: error= 2.13D-03 at cycle   3 NSaved=   3.
 NSaved= 3 IEnMin= 3 EnMin= -346.926176575851     IErMin= 3 ErrMin= 2.13D-03
 ErrMax= 2.13D-03  0.00D+00 EMaxC= 1.00D-01 BMatC= 2.92D-03 BMatP= 2.10D-02
 IDIUse=3 WtCom= 9.79D-01 WtEn= 2.13D-02
 Coeff-Com: -0.827D-01 0.294D+00 0.789D+00
 Coeff-En:   0.000D+00 0.000D+00 0.100D+01
 Coeff:     -0.809D-01 0.288D+00 0.793D+00
 Gap=     0.337 Goal=   None    Shift=    0.000
 RMSDP=1.29D-04 MaxDP=5.00D-03 DE=-1.01D-01 OVMax= 1.29D-02

 Cycle   4  Pass 0  IDiag  1:
 RMSU=  1.03D-04    CP:  1.00D+00  1.09D+00  8.92D-01
 E= -346.927722211493     Delta-E=       -0.001545635642 Rises=F Damp=F
 DIIS: error= 1.20D-03 at cycle   4 NSaved=   4.
 NSaved= 4 IEnMin= 4 EnMin= -346.927722211493     IErMin= 4 ErrMin= 1.20D-03
 ErrMax= 1.20D-03  0.00D+00 EMaxC= 1.00D-01 BMatC= 9.11D-04 BMatP= 2.92D-03
 IDIUse=3 WtCom= 9.88D-01 WtEn= 1.20D-02
 Coeff-Com: -0.277D-01 0.719D-01 0.403D+00 0.553D+00
 Coeff-En:   0.000D+00 0.000D+00 0.197D+00 0.803D+00
 Coeff:     -0.273D-01 0.710D-01 0.400D+00 0.556D+00
 Gap=     0.333 Goal=   None    Shift=    0.000
 RMSDP=5.26D-05 MaxDP=2.06D-03 DE=-1.55D-03 OVMax= 6.77D-03

 Cycle   5  Pass 0  IDiag  1:
 RMSU=  2.82D-05    CP:  1.00D+00  1.09D+00  9.36D-01  6.10D-01
 E= -346.928395884802     Delta-E=       -0.000673673308 Rises=F Damp=F
 DIIS: error= 2.20D-04 at cycle   5 NSaved=   5.
 NSaved= 5 IEnMin= 5 EnMin= -346.928395884802     IErMin= 5 ErrMin= 2.20D-04
 ErrMax= 2.20D-04  0.00D+00 EMaxC= 1.00D-01 BMatC= 2.82D-05 BMatP= 9.11D-04
 IDIUse=3 WtCom= 9.98D-01 WtEn= 2.20D-03
 Coeff-Com: -0.510D-02 0.999D-02 0.107D+00 0.220D+00 0.668D+00
 Coeff-En:   0.000D+00 0.000D+00 0.000D+00 0.000D+00 0.100D+01
 Coeff:     -0.509D-02 0.996D-02 0.107D+00 0.220D+00 0.668D+00
 Gap=     0.333 Goal=   None    Shift=    0.000
 RMSDP=1.18D-05 MaxDP=3.07D-04 DE=-6.74D-04 OVMax= 1.59D-03

 Cycle   6  Pass 0  IDiag  1:
 RMSU=  8.53D-06    CP:  1.00D+00  1.09D+00  9.44D-01  6.53D-01  8.00D-01
 E= -346.928416677363     Delta-E=       -0.000020792561 Rises=F Damp=F
 DIIS: error= 4.91D-05 at cycle   6 NSaved=   6.
 NSaved= 6 IEnMin= 6 EnMin= -346.928416677363     IErMin= 6 ErrMin= 4.91D-05
 ErrMax= 4.91D-05  0.00D+00 EMaxC= 1.00D-01 BMatC= 2.04D-06 BMatP= 2.82D-05
 IDIUse=1 WtCom= 1.00D+00 WtEn= 0.00D+00
 Coeff-Com: -0.846D-04-0.101D-02 0.169D-01 0.575D-01 0.260D+00 0.666D+00
 Coeff:     -0.846D-04-0.101D-02 0.169D-01 0.575D-01 0.260D+00 0.666D+00
 Gap=     0.333 Goal=   None    Shift=    0.000
 RMSDP=3.71D-06 MaxDP=1.35D-04 DE=-2.08D-05 OVMax= 5.05D-04

 Initial convergence to 1.0D-05 achieved.  Increase integral accuracy.
 Cycle   7  Pass 1  IDiag  1:
 E= -346.928406549340     Delta-E=        0.000010128023 Rises=F Damp=F
 DIIS: error= 6.77D-05 at cycle   1 NSaved=   1.
 NSaved= 1 IEnMin= 1 EnMin= -346.928406549340     IErMin= 1 ErrMin= 6.77D-05
 ErrMax= 6.77D-05  0.00D+00 EMaxC= 1.00D-01 BMatC= 8.06D-07 BMatP= 8.06D-07
 IDIUse=1 WtCom= 1.00D+00 WtEn= 0.00D+00
 Coeff-Com:  0.100D+01
 Coeff:      0.100D+01
 Gap=     0.333 Goal=   None    Shift=    0.000
 RMSDP=3.71D-06 MaxDP=1.35D-04 DE= 1.01D-05 OVMax= 4.06D-04

 Cycle   8  Pass 1  IDiag  1:
 RMSU=  9.01D-06    CP:  1.00D+00
 E= -346.928406677475     Delta-E=       -0.000000128136 Rises=F Damp=F
 DIIS: error= 2.06D-05 at cycle   2 NSaved=   2.
 NSaved= 2 IEnMin= 2 EnMin= -346.928406677475     IErMin= 2 ErrMin= 2.06D-05
 ErrMax= 2.06D-05  0.00D+00 EMaxC= 1.00D-01 BMatC= 4.42D-07 BMatP= 8.06D-07
 IDIUse=1 WtCom= 1.00D+00 WtEn= 0.00D+00
 Coeff-Com:  0.401D+00 0.599D+00
 Coeff:      0.401D+00 0.599D+00
 Gap=     0.333 Goal=   None    Shift=    0.000
 RMSDP=1.91D-06 MaxDP=7.30D-05 DE=-1.28D-07 OVMax= 3.29D-04

 Cycle   9  Pass 1  IDiag  1:
 RMSU=  1.90D-06    CP:  1.00D+00  9.75D-01
 E= -346.928406963983     Delta-E=       -0.000000286508 Rises=F Damp=F
 DIIS: error= 1.08D-05 at cycle   3 NSaved=   3.
 NSaved= 3 IEnMin= 3 EnMin= -346.928406963983     IErMin= 3 ErrMin= 1.08D-05
 ErrMax= 1.08D-05  0.00D+00 EMaxC= 1.00D-01 BMatC= 9.34D-08 BMatP= 4.42D-07
 IDIUse=1 WtCom= 1.00D+00 WtEn= 0.00D+00
 Coeff-Com: -0.820D-02 0.310D+00 0.698D+00
 Coeff:     -0.820D-02 0.310D+00 0.698D+00
 Gap=     0.333 Goal=   None    Shift=    0.000
 RMSDP=6.75D-07 MaxDP=2.35D-05 DE=-2.87D-07 OVMax= 1.11D-04

 Cycle  10  Pass 1  IDiag  1:
 RMSU=  3.15D-07    CP:  1.00D+00  1.01D+00  7.40D-01
 E= -346.928407038192     Delta-E=       -0.000000074209 Rises=F Damp=F
 DIIS: error= 1.67D-06 at cycle   4 NSaved=   4.
 NSaved= 4 IEnMin= 4 EnMin= -346.928407038192     IErMin= 4 ErrMin= 1.67D-06
 ErrMax= 1.67D-06  0.00D+00 EMaxC= 1.00D-01 BMatC= 1.90D-09 BMatP= 9.34D-08
 IDIUse=1 WtCom= 1.00D+00 WtEn= 0.00D+00
 Coeff-Com: -0.118D-01 0.116D+00 0.292D+00 0.604D+00
 Coeff:     -0.118D-01 0.116D+00 0.292D+00 0.604D+00
 Gap=     0.333 Goal=   None    Shift=    0.000
 RMSDP=9.52D-08 MaxDP=4.83D-06 DE=-7.42D-08 OVMax= 8.93D-06

 Cycle  11  Pass 1  IDiag  1:
 RMSU=  8.68D-08    CP:  1.00D+00  1.02D+00  7.52D-01  1.05D+00
 E= -346.928407039793     Delta-E=       -0.000000001601 Rises=F Damp=F
 DIIS: error= 4.64D-07 at cycle   5 NSaved=   5.
 NSaved= 5 IEnMin= 5 EnMin= -346.928407039793     IErMin= 5 ErrMin= 4.64D-07
 ErrMax= 4.64D-07  0.00D+00 EMaxC= 1.00D-01 BMatC= 9.39D-11 BMatP= 1.90D-09
 IDIUse=1 WtCom= 1.00D+00 WtEn= 0.00D+00
 Coeff-Com: -0.135D-02-0.155D-01-0.244D-01 0.123D+00 0.919D+00
 Coeff:     -0.135D-02-0.155D-01-0.244D-01 0.123D+00 0.919D+00
 Gap=     0.333 Goal=   None    Shift=    0.000
 RMSDP=4.53D-08 MaxDP=2.09D-06 DE=-1.60D-09 OVMax= 3.25D-06

 Cycle  12  Pass 1  IDiag  1:
 RMSU=  2.29D-08    CP:  1.00D+00  1.02D+00  7.61D-01  1.16D+00  1.07D+00
 E= -346.928407039896     Delta-E=       -0.000000000103 Rises=F Damp=F
 DIIS: error= 1.60D-07 at cycle   6 NSaved=   6.
 NSaved= 6 IEnMin= 6 EnMin= -346.928407039896     IErMin= 6 ErrMin= 1.60D-07
 ErrMax= 1.60D-07  0.00D+00 EMaxC= 1.00D-01 BMatC= 1.04D-11 BMatP= 9.39D-11
 IDIUse=1 WtCom= 1.00D+00 WtEn= 0.00D+00
 Coeff-Com:  0.575D-03-0.148D-01-0.325D-01-0.116D-01 0.304D+00 0.754D+00
 Coeff:      0.575D-03-0.148D-01-0.325D-01-0.116D-01 0.304D+00 0.754D+00
 Gap=     0.333 Goal=   None    Shift=    0.000
 RMSDP=1.20D-08 MaxDP=3.64D-07 DE=-1.03D-10 OVMax= 1.23D-06

 Cycle  13  Pass 1  IDiag  1:
 RMSU=  9.02D-09    CP:  1.00D+00  1.02D+00  7.61D-01  1.18D+00  1.11D+00
                    CP:  9.27D-01
 E= -346.928407039894     Delta-E=        0.000000000002 Rises=F Damp=F
 DIIS: error= 5.37D-08 at cycle   7 NSaved=   7.
 NSaved= 7 IEnMin= 6 EnMin= -346.928407039896     IErMin= 7 ErrMin= 5.37D-08
 ErrMax= 5.37D-08  0.00D+00 EMaxC= 1.00D-01 BMatC= 1.31D-12 BMatP= 1.04D-11
 IDIUse=1 WtCom= 1.00D+00 WtEn= 0.00D+00
 Coeff-Com:  0.362D-03-0.583D-02-0.134D-01-0.143D-01 0.743D-01 0.321D+00
 Coeff-Com:  0.638D+00
 Coeff:      0.362D-03-0.583D-02-0.134D-01-0.143D-01 0.743D-01 0.321D+00
 Coeff:      0.638D+00
 Gap=     0.333 Goal=   None    Shift=    0.000
 RMSDP=2.89D-09 MaxDP=1.37D-07 DE= 2.05D-12 OVMax= 2.16D-07

 SCF Done:  E(RM062X) =  -346.928407040     A.U. after   13 cycles
            NFock= 13  Conv=0.29D-08     -V/T= 2.0062
 KE= 3.447819087771D+02 PE=-1.456864299513D+03 EE= 4.415543918731D+02
 Leave Link  502 at Thu Sep 26 23:53:07 2019, MaxMem=   671088640 cpu:            1743.8 elap:             875.4
 (Enter /shared/centos7/gaussian/g16/l801.exe)
 DoSCS=F DFT=T ScalE2(SS,OS)=  1.000000  1.000000
 Range of M.O.s used for correlation:     1   350
 NBasis=   350 NAE=    28 NBE=    28 NFC=     0 NFV=     0
 NROrb=    350 NOA=    28 NOB=    28 NVA=   322 NVB=   322

 **** Warning!!: The largest alpha MO coefficient is  0.11267837D+02

 Leave Link  801 at Thu Sep 26 23:53:09 2019, MaxMem=   671088640 cpu:               1.7 elap:               1.3
 (Enter /shared/centos7/gaussian/g16/l1101.exe)
 Using compressed storage, NAtomX=    17.
 Will process     18 centers per pass.
 Leave Link 1101 at Thu Sep 26 23:53:53 2019, MaxMem=   671088640 cpu:              87.6 elap:              43.9
 (Enter /shared/centos7/gaussian/g16/l1102.exe)
 Symmetrizing basis deriv contribution to polar:
 IMax=3 JMax=2 DiffMx= 0.00D+00
 Leave Link 1102 at Thu Sep 26 23:53:57 2019, MaxMem=   671088640 cpu:               7.6 elap:               4.2
 (Enter /shared/centos7/gaussian/g16/l1110.exe)
 Forming Gx(P) for the SCF density, NAtomX=    17.
 Integral derivatives from FoFJK, PRISM(SPDF).
 Do as many integral derivatives as possible in FoFJK.
 G2DrvN: MDV=     671087280.
 G2DrvN: will do    18 centers at a time, making    1 passes.
 Calling FoFCou, ICntrl=  3107 FMM=F I1Cent=   0 AccDes= 0.00D+00.
 FoFJK:  IHMeth= 1 ICntrl=    3107 DoSepK=F KAlg= 0 I1Cent=           0 FoldK=F
 IRaf=         0 NMat=       1 IRICut=       1 DoRegI=T DoRafI=F ISym2E= 0 IDoP0=0 IntGTp=1.
 FoFCou: FMM=F IPFlag=           0 FMFlag=      100000 FMFlg1=           0
         NFxFlg=           0 DoJE=F BraDBF=F KetDBF=F FulRan=T
         wScrn=  0.000000 ICntrl=      3107 IOpCl=  0 I1Cent=           0 NGrid=           0
         NMat0=    1 NMatS0=      1 NMatT0=    0 NMatD0=    1 NMtDS0=    0 NMtDT0=    0
 Symmetry not used in FoFCou.
 End of G2Drv F.D. properties file   721 does not exist.
 End of G2Drv F.D. properties file   722 does not exist.
 End of G2Drv F.D. properties file   788 does not exist.
 Leave Link 1110 at Fri Sep 27 00:15:54 2019, MaxMem=   671088640 cpu:            2632.5 elap:            1317.2
 (Enter /shared/centos7/gaussian/g16/l1002.exe)
 Minotr:  Closed shell wavefunction.
          IDoAtm=11111111111111111
          Direct CPHF calculation.
          Differentiating once with respect to nuclear coordinates.
          Requested convergence is 1.0D-08 RMS, and 1.0D-07 maximum.
          Secondary convergence is 1.0D-12 RMS, and 1.0D-12 maximum.
          NewPWx=T KeepS1=F KeepF1=F KeepIn=T MapXYZ=F SortEE=F KeepMc=T.
         5088 words used for storage of precomputed grid.
 Two-electron integrals replicated using symmetry.
          MDV=     671088640 using IRadAn=       1.
          Solving linear equations simultaneously, MaxMat=     380.
 FoF2E skips out because all densities are zero.
 CalDSu exits because no D1Ps are significant.
 FoFJK:  IHMeth= 1 ICntrl=       0 DoSepK=F KAlg= 0 I1Cent=           0 FoldK=F
 IRaf= 950000000 NMat=      51 IRICut=     127 DoRegI=T DoRafI=T ISym2E= 2 IDoP0=3 IntGTp=3.
 FoFCou: FMM=F IPFlag=           0 FMFlag=      100000 FMFlg1=           0
         NFxFlg=           0 DoJE=F BraDBF=F KetDBF=F FulRan=T
         wScrn=  0.000000 ICntrl=         0 IOpCl=  0 I1Cent=           0 NGrid=           0
         NMat0=   51 NMatS0=     51 NMatT0=    0 NMatD0=   51 NMtDS0=    0 NMtDT0=    0
 Integrals replicated using symmetry in FoFCou.
 Raff kept on since  92.77% of shell-pairs survive, threshold=   0.20 IRatSp=93.
          There are    54 degrees of freedom in the 1st order CPHF.  IDoFFX=6 NUNeed=     0.
     48 vectors produced by pass  0 Test12= 1.67D-14 1.85D-09 XBig12= 6.90D-02 5.49D-02.
 AX will form    48 AO Fock derivatives at one time.
     48 vectors produced by pass  1 Test12= 1.67D-14 1.85D-09 XBig12= 7.79D-03 3.11D-02.
     48 vectors produced by pass  2 Test12= 1.67D-14 1.85D-09 XBig12= 2.87D-04 2.14D-03.
     48 vectors produced by pass  3 Test12= 1.67D-14 1.85D-09 XBig12= 4.75D-06 2.29D-04.
     48 vectors produced by pass  4 Test12= 1.67D-14 1.85D-09 XBig12= 3.56D-08 1.82D-05.
     48 vectors produced by pass  5 Test12= 1.67D-14 1.85D-09 XBig12= 1.97D-10 1.44D-06.
     27 vectors produced by pass  6 Test12= 1.67D-14 1.85D-09 XBig12= 8.19D-13 7.40D-08.
      6 vectors produced by pass  7 Test12= 1.67D-14 1.85D-09 XBig12= 3.12D-15 4.80D-09.
 InvSVY:  IOpt=1 It=  1 EMax= 2.50D-16
 Solved reduced A of dimension   321 with    54 vectors.
 End of Minotr F.D. properties file   721 does not exist.
 End of Minotr F.D. properties file   722 does not exist.
 End of Minotr F.D. properties file   788 does not exist.
 Leave Link 1002 at Fri Sep 27 00:58:24 2019, MaxMem=   671088640 cpu:            5094.9 elap:            2549.4
 (Enter /shared/centos7/gaussian/g16/l601.exe)
 Copying SCF densities to generalized density rwf, IOpCl= 0 IROHF=0.

 **********************************************************************

            Population analysis using the SCF density.

 **********************************************************************

 Orbital symmetries:
       Occupied  (A) (A) (A) (A) (A) (A) (A) (A) (A) (A) (A) (A)
                 (A) (A) (A) (A) (A) (A) (A) (A) (A) (A) (A) (A)
                 (A) (A) (A) (A)
       Virtual   (A) (A) (A) (A) (A) (A) (A) (A) (A) (A) (A) (A)
                 (A) (A) (A) (A) (A) (A) (A) (A) (A) (A) (A) (A)
                 (A) (A) (A) (A) (A) (A) (A) (A) (A) (A) (A) (A)
                 (A) (A) (A) (A) (A) (A) (A) (A) (A) (A) (A) (A)
                 (A) (A) (A) (A) (A) (A) (A) (A) (A) (A) (A) (A)
                 (A) (A) (A) (A) (A) (A) (A) (A) (A) (A) (A) (A)
                 (A) (A) (A) (A) (A) (A) (A) (A) (A) (A) (A) (A)
                 (A) (A) (A) (A) (A) (A) (A) (A) (A) (A) (A) (A)
                 (A) (A) (A) (A) (A) (A) (A) (A) (A) (A) (A) (A)
                 (A) (A) (A) (A) (A) (A) (A) (A) (A) (A) (A) (A)
                 (A) (A) (A) (A) (A) (A) (A) (A) (A) (A) (A) (A)
                 (A) (A) (A) (A) (A) (A) (A) (A) (A) (A) (A) (A)
                 (A) (A) (A) (A) (A) (A) (A) (A) (A) (A) (A) (A)
                 (A) (A) (A) (A) (A) (A) (A) (A) (A) (A) (A) (A)
                 (A) (A) (A) (A) (A) (A) (A) (A) (A) (A) (A) (A)
                 (A) (A) (A) (A) (A) (A) (A) (A) (A) (A) (A) (A)
                 (A) (A) (A) (A) (A) (A) (A) (A) (A) (A) (A) (A)
                 (A) (A) (A) (A) (A) (A) (A) (A) (A) (A) (A) (A)
                 (A) (A) (A) (A) (A) (A) (A) (A) (A) (A) (A) (A)
                 (A) (A) (A) (A) (A) (A) (A) (A) (A) (A) (A) (A)
                 (A) (A) (A) (A) (A) (A) (A) (A) (A) (A) (A) (A)
                 (A) (A) (A) (A) (A) (A) (A) (A) (A) (A) (A) (A)
                 (A) (A) (A) (A) (A) (A) (A) (A) (A) (A) (A) (A)
                 (A) (A) (A) (A) (A) (A) (A) (A) (A) (A) (A) (A)
                 (A) (A) (A) (A) (A) (A) (A) (A) (A) (A) (A) (A)
                 (A) (A) (A) (A) (A) (A) (A) (A) (A) (A) (A) (A)
                 (A) (A) (A) (A) (A) (A) (A) (A) (A) (A)
 The electronic state is 1-A.
 Alpha  occ. eigenvalues --  -19.64891 -19.64622 -10.60560 -10.58246 -10.58018
 Alpha  occ. eigenvalues --  -10.55179 -10.54146  -1.19200  -1.15798  -0.90643
 Alpha  occ. eigenvalues --   -0.83957  -0.79466  -0.71131  -0.67351  -0.60439
 Alpha  occ. eigenvalues --   -0.58405  -0.54146  -0.52476  -0.49239  -0.48563
 Alpha  occ. eigenvalues --   -0.46898  -0.45713  -0.45580  -0.44223  -0.42763
 Alpha  occ. eigenvalues --   -0.38956  -0.37605  -0.27610
 Alpha virt. eigenvalues --    0.05720   0.08510   0.09159   0.10058   0.10530
 Alpha virt. eigenvalues --    0.11523   0.13440   0.14014   0.14995   0.15783
 Alpha virt. eigenvalues --    0.16889   0.18494   0.19331   0.23388   0.23787
 Alpha virt. eigenvalues --    0.26426   0.29600   0.30469   0.32363   0.33151
 Alpha virt. eigenvalues --    0.34100   0.35565   0.36331   0.38000   0.38944
 Alpha virt. eigenvalues --    0.39989   0.40883   0.42392   0.44336   0.46108
 Alpha virt. eigenvalues --    0.46869   0.47909   0.48491   0.49376   0.49687
 Alpha virt. eigenvalues --    0.50696   0.51449   0.52002   0.52452   0.54283
 Alpha virt. eigenvalues --    0.55682   0.59192   0.60547   0.62412   0.63621
 Alpha virt. eigenvalues --    0.65582   0.67745   0.68518   0.73039   0.73470
 Alpha virt. eigenvalues --    0.75777   0.76475   0.78333   0.79546   0.83756
 Alpha virt. eigenvalues --    0.85005   0.86330   0.88219   0.89555   0.90852
 Alpha virt. eigenvalues --    0.92439   0.93743   0.95360   0.96233   0.97331
 Alpha virt. eigenvalues --    0.98996   1.00112   1.02113   1.04098   1.06716
 Alpha virt. eigenvalues --    1.07172   1.08574   1.10153   1.12600   1.13634
 Alpha virt. eigenvalues --    1.15228   1.17039   1.18241   1.20322   1.23103
 Alpha virt. eigenvalues --    1.23716   1.25724   1.27092   1.27708   1.28580
 Alpha virt. eigenvalues --    1.28995   1.30429   1.32407   1.32756   1.34279
 Alpha virt. eigenvalues --    1.35816   1.37188   1.38641   1.40282   1.42466
 Alpha virt. eigenvalues --    1.44749   1.46391   1.49184   1.50849   1.51682
 Alpha virt. eigenvalues --    1.52416   1.56290   1.57424   1.57981   1.62552
 Alpha virt. eigenvalues --    1.63029   1.67929   1.74642   1.80435   1.83536
 Alpha virt. eigenvalues --    1.95944   1.99398   2.00243   2.03739   2.06994
 Alpha virt. eigenvalues --    2.09324   2.11231   2.13783   2.19024   2.21301
 Alpha virt. eigenvalues --    2.25288   2.28971   2.30622   2.33112   2.35447
 Alpha virt. eigenvalues --    2.37479   2.38058   2.40644   2.42163   2.47979
 Alpha virt. eigenvalues --    2.48619   2.50702   2.52199   2.55233   2.57863
 Alpha virt. eigenvalues --    2.59501   2.60109   2.61215   2.64627   2.67171
 Alpha virt. eigenvalues --    2.69885   2.72188   2.74836   2.75616   2.78605
 Alpha virt. eigenvalues --    2.80723   2.82111   2.83423   2.84617   2.86177
 Alpha virt. eigenvalues --    2.88020   2.89723   2.91833   2.92827   2.93191
 Alpha virt. eigenvalues --    2.94865   2.96710   2.99427   3.00379   3.01635
 Alpha virt. eigenvalues --    3.01896   3.04820   3.05116   3.07095   3.08446
 Alpha virt. eigenvalues --    3.09138   3.10545   3.11150   3.12005   3.14289
 Alpha virt. eigenvalues --    3.15496   3.18136   3.19364   3.20252   3.21538
 Alpha virt. eigenvalues --    3.24452   3.25516   3.27769   3.28584   3.29446
 Alpha virt. eigenvalues --    3.30341   3.32399   3.32742   3.34394   3.36136
 Alpha virt. eigenvalues --    3.38091   3.39572   3.40638   3.41263   3.42588
 Alpha virt. eigenvalues --    3.44897   3.45957   3.47907   3.49639   3.51686
 Alpha virt. eigenvalues --    3.54477   3.56703   3.57840   3.61455   3.63503
 Alpha virt. eigenvalues --    3.63670   3.67316   3.69576   3.70259   3.71533
 Alpha virt. eigenvalues --    3.74122   3.75427   3.76455   3.77013   3.78502
 Alpha virt. eigenvalues --    3.81552   3.82446   3.83124   3.86258   3.87526
 Alpha virt. eigenvalues --    3.89995   3.90847   3.91722   3.92594   3.94337
 Alpha virt. eigenvalues --    3.95898   3.96813   3.98825   4.00093   4.01502
 Alpha virt. eigenvalues --    4.03454   4.04742   4.06604   4.07583   4.09486
 Alpha virt. eigenvalues --    4.11469   4.13000   4.14390   4.16757   4.18846
 Alpha virt. eigenvalues --    4.19751   4.21917   4.26565   4.28836   4.29578
 Alpha virt. eigenvalues --    4.33222   4.34308   4.38592   4.41502   4.43126
 Alpha virt. eigenvalues --    4.45038   4.47020   4.49770   4.53721   4.61084
 Alpha virt. eigenvalues --    4.62739   4.64553   4.67267   4.69024   4.70156
 Alpha virt. eigenvalues --    4.71418   4.71681   4.75004   4.75180   4.79985
 Alpha virt. eigenvalues --    4.84958   4.86228   4.91423   4.93432   4.94448
 Alpha virt. eigenvalues --    4.96199   4.98256   5.00440   5.02075   5.04690
 Alpha virt. eigenvalues --    5.05927   5.07427   5.08045   5.10701   5.18263
 Alpha virt. eigenvalues --    5.19377   5.21360   5.23771   5.26963   5.32582
 Alpha virt. eigenvalues --    5.32799   5.34066   5.37263   5.42864   5.44861
 Alpha virt. eigenvalues --    5.51304   5.53742   5.56238   5.70037   5.71261
 Alpha virt. eigenvalues --    5.74931   5.76229   5.79426   5.79683   5.85879
 Alpha virt. eigenvalues --    5.91257   6.04078   6.13471   6.22164   6.36887
 Alpha virt. eigenvalues --    6.41441   6.44392   6.59795   6.63798   6.70343
 Alpha virt. eigenvalues --    6.76582   6.78800   6.82307   6.87125   7.03180
 Alpha virt. eigenvalues --    7.08828   7.15455   7.26825   7.35466   7.41900
 Alpha virt. eigenvalues --   10.05674  11.30701  11.81479  12.24277  13.24398
 Alpha virt. eigenvalues --   13.31215  14.25175
          Condensed to atoms (all electrons):
               1          2          3          4          5          6
     1  O    7.865293   0.002019   0.257036  -0.035631  -0.039410   0.351609
     2  O    0.002019   7.792916  -0.008376  -0.005894   0.000740  -0.074193
     3  C    0.257036  -0.008376   4.966514   0.327707   0.316019  -0.052156
     4  C   -0.035631  -0.005894   0.327707   5.017401  -0.069723  -0.003512
     5  C   -0.039410   0.000740   0.316019  -0.069723   4.976859  -0.000229
     6  C    0.351609  -0.074193  -0.052156  -0.003512  -0.000229   4.991743
     7  C   -0.070575   0.325097  -0.014797   0.006077   0.000790   0.521496
     8  H   -0.042383   0.008616   0.409418  -0.054251  -0.044889  -0.015444
     9  H   -0.000744   0.000247  -0.028573   0.387747  -0.005697  -0.000220
    10  H    0.002747  -0.001832  -0.034785   0.385159   0.008724   0.002257
    11  H    0.004444   0.000157  -0.038837   0.392736  -0.003703   0.000746
    12  H   -0.001357  -0.000057  -0.036481  -0.008885   0.396510   0.000692
    13  H    0.000209   0.000013  -0.032710   0.008794   0.399207   0.000192
    14  H    0.005155   0.000057  -0.045774  -0.000862   0.395402  -0.000550
    15  H   -0.041836   0.004015   0.006916  -0.000705  -0.000237   0.418194
    16  H    0.004020  -0.037256   0.000541  -0.000083   0.000058  -0.065824
    17  H    0.001583   0.347346   0.006793  -0.001541   0.001252  -0.010307
               7          8          9         10         11         12
     1  O   -0.070575  -0.042383  -0.000744   0.002747   0.004444  -0.001357
     2  O    0.325097   0.008616   0.000247  -0.001832   0.000157  -0.000057
     3  C   -0.014797   0.409418  -0.028573  -0.034785  -0.038837  -0.036481
     4  C    0.006077  -0.054251   0.387747   0.385159   0.392736  -0.008885
     5  C    0.000790  -0.044889  -0.005697   0.008724  -0.003703   0.396510
     6  C    0.521496  -0.015444  -0.000220   0.002257   0.000746   0.000692
     7  C    4.972936  -0.000835   0.000172  -0.002874  -0.000663   0.000009
     8  H   -0.000835   0.622483   0.008018  -0.010435  -0.001855   0.008099
     9  H    0.000172   0.008018   0.560712  -0.029159  -0.030877   0.003700
    10  H   -0.002874  -0.010435  -0.029159   0.600547  -0.027433   0.000075
    11  H   -0.000663  -0.001855  -0.030877  -0.027433   0.581741   0.000705
    12  H    0.000009   0.008099   0.003700   0.000075   0.000705   0.585396
    13  H    0.000479  -0.010696  -0.000219  -0.000398  -0.000225  -0.030038
    14  H   -0.000038  -0.000266   0.000137  -0.000216  -0.002844  -0.035244
    15  H   -0.075234   0.000486   0.000016   0.000282   0.000073   0.000102
    16  H    0.409784  -0.001394   0.000002  -0.000010  -0.000004  -0.000005
    17  H   -0.036454  -0.005754   0.000614   0.010023  -0.000480   0.000005
              13         14         15         16         17
     1  O    0.000209   0.005155  -0.041836   0.004020   0.001583
     2  O    0.000013   0.000057   0.004015  -0.037256   0.347346
     3  C   -0.032710  -0.045774   0.006916   0.000541   0.006793
     4  C    0.008794  -0.000862  -0.000705  -0.000083  -0.001541
     5  C    0.399207   0.395402  -0.000237   0.000058   0.001252
     6  C    0.000192  -0.000550   0.418194  -0.065824  -0.010307
     7  C    0.000479  -0.000038  -0.075234   0.409784  -0.036454
     8  H   -0.010696  -0.000266   0.000486  -0.001394  -0.005754
     9  H   -0.000219   0.000137   0.000016   0.000002   0.000614
    10  H   -0.000398  -0.000216   0.000282  -0.000010   0.010023
    11  H   -0.000225  -0.002844   0.000073  -0.000004  -0.000480
    12  H   -0.030038  -0.035244   0.000102  -0.000005   0.000005
    13  H    0.568176  -0.028821  -0.000303   0.000012  -0.000026
    14  H   -0.028821   0.610014  -0.000025  -0.000008  -0.000121
    15  H   -0.000303  -0.000025   0.558487  -0.005614  -0.000785
    16  H    0.000012  -0.000008  -0.005614   0.536488   0.006141
    17  H   -0.000026  -0.000121  -0.000785   0.006141   0.416701
 Mulliken charges:
               1
     1  O   -0.262180
     2  O   -0.353616
     3  C    0.001546
     4  C   -0.344532
     5  C   -0.331671
     6  C   -0.064494
     7  C   -0.035371
     8  H    0.131083
     9  H    0.134125
    10  H    0.097330
    11  H    0.126320
    12  H    0.116774
    13  H    0.126354
    14  H    0.104003
    15  H    0.136167
    16  H    0.153151
    17  H    0.265012
 Sum of Mulliken charges =  -0.00000
 Mulliken charges with hydrogens summed into heavy atoms:
               1
     1  O   -0.262180
     2  O   -0.088604
     3  C    0.132628
     4  C    0.013242
     5  C    0.015461
     6  C    0.071673
     7  C    0.117780
 APT charges:
               1
     1  O   -0.195514
     2  O   -0.228118
     3  C   -0.032111
     4  C   -1.083702
     5  C   -1.242492
     6  C   -0.541837
     7  C   -0.420546
     8  H    0.243424
     9  H    0.421546
    10  H    0.237946
    11  H    0.419215
    12  H    0.407407
    13  H    0.354735
    14  H    0.415165
    15  H    0.501660
    16  H    0.584963
    17  H    0.158261
 Sum of APT charges =  -0.00000
 APT charges with hydrogens summed into heavy atoms:
               1
     1  O   -0.195514
     2  O   -0.069857
     3  C    0.211313
     4  C   -0.004996
     5  C   -0.065186
     6  C   -0.040177
     7  C    0.164417
 Electronic spatial extent (au):  <R**2>=            847.2134
 Charge=             -0.0000 electrons
 Dipole moment (field-independent basis, Debye):
    X=              1.3906    Y=              0.1532    Z=              0.2959  Tot=              1.4300
 Quadrupole moment (field-independent basis, Debye-Ang):
   XX=            -43.2612   YY=            -43.5298   ZZ=            -46.0551
   XY=              4.7501   XZ=              1.1407   YZ=             -1.5201
 Traceless Quadrupole moment (field-independent basis, Debye-Ang):
   XX=              1.0208   YY=              0.7523   ZZ=             -1.7731
   XY=              4.7501   XZ=              1.1407   YZ=             -1.5201
 Octapole moment (field-independent basis, Debye-Ang**2):
  XXX=             -5.9824  YYY=             -1.0601  ZZZ=             -0.3598  XYY=             -0.5624
  XXY=             -8.7399  XXZ=             -0.5789  XZZ=              1.9444  YZZ=              1.2925
  YYZ=             -1.6904  XYZ=              1.4447
 Hexadecapole moment (field-independent basis, Debye-Ang**3):
 XXXX=           -673.3459 YYYY=           -289.6446 ZZZZ=           -135.9877 XXXY=             16.3711
 XXXZ=            -12.4208 YYYX=              3.6844 YYYZ=              6.6910 ZZZX=             -4.9349
 ZZZY=              2.1783 XXYY=           -169.7952 XXZZ=           -139.6964 YYZZ=            -73.0347
 XXYZ=             -0.1971 YYXZ=              6.6291 ZZXY=             -1.2709
 N-N= 3.235995918231D+02 E-N=-1.456864286595D+03  KE= 3.447819087771D+02
  Exact polarizability:   0.000   0.000   0.000   0.000   0.000   0.000
 Approx polarizability:  86.796  -3.717  82.341  -6.458   6.126  70.820
 No NMR shielding tensors so no spin-rotation constants.
 Leave Link  601 at Fri Sep 27 00:59:07 2019, MaxMem=   671088640 cpu:              84.8 elap:              43.6
 (Enter /shared/centos7/gaussian/g16/l701.exe)
 SCFChk:  SCF convergence  2.89D-09 required  1.00D-08
 ... and contract with generalized density number  0.
 Compute integral second derivatives.
 Entering OneElI...
 Calculate overlap and kinetic energy integrals
    NBasis = 395  MinDer = 2  MaxDer = 2
 Requested accuracy = 0.1000D-12
 PrmmSu-InSpLW:  IPartL=    0 NPrtUS=   20 NPrtUL=    1 DoSpLW=F IThBeg=    0 IThEnd=   19 NThAct=   20.
 PrsmSu:  NPrtUS=  20 ThrOK=T IAlg=1 NPAlg=1 LenDen=           0 ISkipM=0 DoSpLW=F IThBeg=    0 IThEnd=   19.
 Prism:   IPart=     0 DynPar=F LinDyn=F Incr=           4.
 PRISM was handed    33309745 working-precision words and  8485 shell-pairs
 PRISM was handed    33309745 working-precision words and  8485 shell-pairs
 PRISM was handed    33309745 working-precision words and  8485 shell-pairs
 PRISM was handed    33309745 working-precision words and  8485 shell-pairs
 IPart=  4 NShTot=         445 NBatch=          66 AvBLen=         6.7
 PRISM was handed    33309745 working-precision words and  8485 shell-pairs
 PRISM was handed    33309745 working-precision words and  8485 shell-pairs
 PRISM was handed    33309745 working-precision words and  8485 shell-pairs
 PRISM was handed    33309745 working-precision words and  8485 shell-pairs
 PRISM was handed    33309745 working-precision words and  8485 shell-pairs
 PRISM was handed    33309745 working-precision words and  8485 shell-pairs
 PRISM was handed    33309745 working-precision words and  8485 shell-pairs
 PRISM was handed    33309745 working-precision words and  8485 shell-pairs
 PRISM was handed    33309745 working-precision words and  8485 shell-pairs
 IPart=  0 NShTot=         466 NBatch=          83 AvBLen=         5.6
 PRISM was handed    33309745 working-precision words and  8485 shell-pairs
 PRISM was handed    33309745 working-precision words and  8485 shell-pairs
 PRISM was handed    33309745 working-precision words and  8485 shell-pairs
 PRISM was handed    33309745 working-precision words and  8485 shell-pairs
 PRISM was handed    33309745 working-precision words and  8485 shell-pairs
 IPart=  9 NShTot=         420 NBatch=          49 AvBLen=         8.6
 PRISM was handed    33309745 working-precision words and  8485 shell-pairs
 IPart=  1 NShTot=         460 NBatch=          79 AvBLen=         5.8
 PRISM was handed    33309745 working-precision words and  8485 shell-pairs
 IPart= 11 NShTot=         414 NBatch=          46 AvBLen=         9.0
 IPart= 16 NShTot=         403 NBatch=          40 AvBLen=        10.1
 IPart= 13 NShTot=         408 NBatch=          41 AvBLen=        10.0
 IPart=  3 NShTot=         449 NBatch=          70 AvBLen=         6.4
 IPart= 10 NShTot=         418 NBatch=          49 AvBLen=         8.5
 IPart=  2 NShTot=         455 NBatch=          74 AvBLen=         6.1
 IPart= 15 NShTot=         404 NBatch=          40 AvBLen=        10.1
 IPart= 14 NShTot=         404 NBatch=          40 AvBLen=        10.1
 IPart=  8 NShTot=         420 NBatch=          49 AvBLen=         8.6
 IPart= 18 NShTot=         401 NBatch=          40 AvBLen=        10.0
 IPart= 17 NShTot=         403 NBatch=          40 AvBLen=        10.1
 IPart=  6 NShTot=         437 NBatch=          60 AvBLen=         7.3
 IPart=  7 NShTot=         427 NBatch=          51 AvBLen=         8.4
 IPart= 12 NShTot=         411 NBatch=          43 AvBLen=         9.6
 IPart= 19 NShTot=         397 NBatch=          38 AvBLen=        10.4
 IPart=  5 NShTot=         443 NBatch=          64 AvBLen=         6.9
 PrSmSu:  NxtVal=             81.
 Entering OneElI...
 Calculate potential energy integrals
    NBasis = 395  MinDer = 2  MaxDer = 2
 Requested accuracy = 0.1000D-12
 PrmmSu-InSpLW:  IPartL=    0 NPrtUS=   20 NPrtUL=    1 DoSpLW=F IThBeg=    0 IThEnd=   19 NThAct=   20.
 PrsmSu:  NPrtUS=  20 ThrOK=T IAlg=1 NPAlg=1 LenDen=           0 ISkipM=0 DoSpLW=F IThBeg=    0 IThEnd=   19.
 Prism:   IPart=     0 DynPar=F LinDyn=F Incr=          66.
 PRISM was handed    33351462 working-precision words and  7852 shell-pairs
 PRISM was handed    33351462 working-precision words and  7852 shell-pairs
 PRISM was handed    33351462 working-precision words and  7852 shell-pairs
 PRISM was handed    33351462 working-precision words and  7852 shell-pairs
 PRISM was handed    33351462 working-precision words and  7852 shell-pairs
 PRISM was handed    33351462 working-precision words and  7852 shell-pairs
 PRISM was handed    33351462 working-precision words and  7852 shell-pairs
 PRISM was handed    33351462 working-precision words and  7852 shell-pairs
 PRISM was handed    33351462 working-precision words and  7852 shell-pairs
 PRISM was handed    33351462 working-precision words and  7852 shell-pairs
 PRISM was handed    33351462 working-precision words and  7852 shell-pairs
 PRISM was handed    33351462 working-precision words and  7852 shell-pairs
 PRISM was handed    33351462 working-precision words and  7852 shell-pairs
 PRISM was handed    33351462 working-precision words and  7852 shell-pairs
 PRISM was handed    33351462 working-precision words and  7852 shell-pairs
 PRISM was handed    33351462 working-precision words and  7852 shell-pairs
 PRISM was handed    33351462 working-precision words and  7852 shell-pairs
 PRISM was handed    33351462 working-precision words and  7852 shell-pairs
 PRISM was handed    33351462 working-precision words and  7852 shell-pairs
 IPart=  4 NShTot=        6987 NBatch=         411 AvBLen=        17.0
 PRISM was handed    33351462 working-precision words and  7852 shell-pairs
 IPart=  7 NShTot=        6698 NBatch=         394 AvBLen=        17.0
 IPart=  5 NShTot=        6885 NBatch=         405 AvBLen=        17.0
 IPart= 16 NShTot=        6375 NBatch=         375 AvBLen=        17.0
 IPart= 12 NShTot=        6460 NBatch=         380 AvBLen=        17.0
 IPart= 18 NShTot=        6273 NBatch=         369 AvBLen=        17.0
 IPart=  9 NShTot=        6596 NBatch=         388 AvBLen=        17.0
 IPart=  6 NShTot=        6834 NBatch=         402 AvBLen=        17.0
 IPart= 10 NShTot=        6562 NBatch=         386 AvBLen=        17.0
 IPart= 13 NShTot=        6443 NBatch=         379 AvBLen=        17.0
 IPart=  2 NShTot=        7157 NBatch=         421 AvBLen=        17.0
 IPart= 14 NShTot=        6392 NBatch=         376 AvBLen=        17.0
 IPart=  0 NShTot=        7378 NBatch=         434 AvBLen=        17.0
 IPart= 19 NShTot=        6256 NBatch=         368 AvBLen=        17.0
 IPart= 17 NShTot=        6358 NBatch=         374 AvBLen=        17.0
 IPart= 11 NShTot=        6511 NBatch=         383 AvBLen=        17.0
 IPart=  8 NShTot=        6647 NBatch=         391 AvBLen=        17.0
 IPart=  1 NShTot=        7259 NBatch=         427 AvBLen=        17.0
 IPart=  3 NShTot=        7038 NBatch=         414 AvBLen=        17.0
 IPart= 15 NShTot=        6375 NBatch=         375 AvBLen=        17.0
 PrSmSu:  NxtVal=           1321.
 Polarizability after L701:
                1             2             3 
      1  0.000000D+00
      2  0.000000D+00  0.000000D+00
      3  0.000000D+00  0.000000D+00  0.000000D+00
 Dipole Derivatives after L701:
                 1             2             3             4             5 
      1  -0.263816D+00  0.215027D-01 -0.305961D-01  0.114373D+00 -0.232626D+00
      2  -0.175113D+00 -0.189688D+00  0.845421D-01 -0.669074D+00 -0.431649D+00
      3  -0.165074D+00  0.537156D-01 -0.133036D+00 -0.439963D-01  0.977958D-01
                 6             7             8             9            10 
      1  -0.195963D+00  0.217020D+00 -0.138284D+00 -0.108232D+00 -0.101169D+01
      2   0.283788D+00 -0.270109D-01  0.510960D-01 -0.185439D+00 -0.129827D+00
      3  -0.367078D+00  0.191934D+00 -0.183159D+00 -0.364450D+00  0.228522D-01
                11            12            13            14            15 
      1  -0.514823D+00  0.238254D+00 -0.170896D+01  0.436803D+00 -0.307010D+00
      2  -0.132806D+01  0.112732D+00  0.123091D+00 -0.957990D+00  0.277085D-01
      3   0.577533D-01 -0.911352D+00 -0.243258D+00  0.883155D-01 -0.106053D+01
                16            17            18            19            20 
      1  -0.684330D+00 -0.220124D+00  0.380219D+00 -0.852561D+00 -0.392917D+00
      2  -0.217598D+00 -0.835630D+00 -0.104874D+00 -0.102898D-01 -0.390877D+00
      3   0.198006D+00 -0.189061D+00 -0.105551D+00  0.180926D+00 -0.969781D-01
                21            22            23            24            25 
      1  -0.769380D-01  0.112927D+00  0.419205D-01  0.997481D-01  0.576400D+00
      2  -0.191140D+00 -0.456628D-01  0.192398D+00  0.411299D-01  0.263702D+00
      3  -0.181996D-01 -0.176204D+00  0.603192D-01  0.424948D+00 -0.390770D+00
                26            27            28            29            30 
      1  -0.645222D-01 -0.564415D+00  0.827422D-01  0.373452D-01 -0.391900D-02
      2   0.967412D-01 -0.304159D+00 -0.556567D+00  0.413350D+00 -0.203727D+00
      3   0.663459D-01  0.591496D+00  0.304782D+00 -0.193778D+00  0.217744D+00
                31            32            33            34            35 
      1   0.425913D+00  0.441776D+00  0.391549D+00  0.764226D+00 -0.382480D+00
      2   0.386486D+00  0.648628D+00  0.481176D+00 -0.244013D+00  0.239814D+00
      3   0.500611D-01  0.636967D-01  0.183105D+00 -0.719954D-01  0.474814D-01
                36            37            38            39            40 
      1  -0.753955D+00  0.257062D-01 -0.531473D+00  0.437351D+00  0.706436D+00
      2   0.277943D+00  0.107097D+00  0.586531D+00 -0.385004D+00  0.626649D-01
      3   0.218181D+00 -0.110320D+00 -0.412814D+00  0.451967D+00  0.294297D+00
                41            42            43            44            45 
      1   0.659079D+00  0.516023D+00  0.376423D+00  0.533914D+00  0.137185D+00
      2   0.188511D+00  0.704493D-01  0.271454D+00  0.997264D+00  0.242941D+00
      3   0.330136D+00  0.350548D+00  0.587378D-01  0.223085D+00  0.131292D+00
                46            47            48            49            50 
      1   0.134784D+01  0.415690D+00 -0.330451D+00 -0.228648D+00 -0.110781D+00
      2   0.215224D+00  0.262982D+00 -0.330038D-01  0.645436D+00  0.456585D+00
      3  -0.173300D+00 -0.314003D-01  0.144072D+00  0.733231D-01  0.185474D-01
                51 
      1   0.171151D+00
      2  -0.215063D+00
      3   0.246846D+00
 Hessian after L701:
                1             2             3             4             5 
      1  0.582195D+01
      2 -0.378612D+01  0.140557D+02
      3 -0.302622D+00 -0.265957D+01  0.155728D+02
      4  0.189460D+00 -0.545129D+00 -0.323067D+00  0.944745D+01
      5 -0.472167D+00  0.119137D+00  0.287481D+00 -0.169179D+01  0.700174D+01
      6 -0.324270D+00  0.340478D+00 -0.207871D+00  0.237323D+01 -0.143595D+01
      7 -0.575335D+01  0.315782D+01  0.256805D+01  0.311414D+00 -0.203776D+00
      8  0.296825D+01 -0.541505D+01  0.287725D+01 -0.289646D+00 -0.196723D+00
      9  0.237802D+01  0.282673D+01 -0.643382D+01 -0.145648D+00  0.423321D-01
     10 -0.182690D+00  0.203604D+00 -0.108662D+00  0.346436D+00  0.964373D-01
     11  0.196322D+00  0.443427D+00 -0.219144D+00 -0.176582D-01 -0.220225D+00
     12 -0.809311D-01 -0.139288D+00 -0.281978D+00 -0.182704D+00 -0.357913D-01
     13  0.213100D+00 -0.117398D+00  0.306023D+00  0.155809D+00 -0.104992D+00
     14 -0.521426D-01 -0.330151D+00 -0.319969D-01 -0.107955D+00 -0.632905D-01
     15  0.335705D+00 -0.807019D-01  0.544160D-01  0.854606D-02  0.139467D-03
     16 -0.477060D+00  0.165774D+01 -0.228500D+01  0.208675D+00 -0.411799D+00
     17  0.186751D+01 -0.953023D+01 -0.203445D+00 -0.279090D+00  0.268365D-01
     18 -0.200885D+01 -0.174138D+00 -0.891607D+01  0.454730D-01 -0.209664D-01
     19  0.727823D-01 -0.388349D+00  0.212089D+00 -0.858026D+01  0.157730D+01
     20 -0.487399D+00  0.201104D+00  0.115621D-01  0.123348D+01 -0.214943D+00
     21  0.678662D-01 -0.186368D-01  0.178067D+00  0.126491D+00  0.161303D+01
     22  0.222744D+00 -0.159050D+00 -0.236854D+00  0.377005D-01 -0.422058D-01
     23 -0.115697D+00  0.622022D-01 -0.165971D+00 -0.431355D-01 -0.950533D-01
     24 -0.189144D+00 -0.175713D+00  0.350345D-01  0.258431D-01  0.831806D-02
     25  0.740409D-03  0.753996D-01 -0.212552D-01  0.481094D-01 -0.154132D-02
     26  0.377170D-01  0.311427D-01 -0.146877D-01  0.180132D-02 -0.158094D-01
     27 -0.333119D-01 -0.500791D-01 -0.238603D-01 -0.468219D-01 -0.353799D-03
     28 -0.570976D-01 -0.388158D-01  0.597033D-02 -0.626510D-02  0.614837D-02
     29  0.115514D-01  0.938320D-01 -0.117980D-03  0.637083D-01 -0.313253D-01
     30  0.161125D-02 -0.196034D-01 -0.611360D-01 -0.347523D-01 -0.146888D-01
     31  0.260553D-02  0.880476D-01  0.410548D-01  0.726168D-01  0.261533D-01
     32  0.828605D-01  0.100664D+00  0.733490D-01  0.486616D-01 -0.101697D-01
     33  0.366521D-01  0.705613D-01 -0.188712D-01  0.184972D-01  0.533548D-02
     34  0.531912D-01 -0.127642D-01  0.741972D-01  0.262156D-01 -0.135024D-01
     35 -0.254304D-01 -0.415863D-01 -0.673301D-02 -0.172582D-01 -0.226963D-02
     36  0.127870D-01  0.157079D-02 -0.268816D-01 -0.173455D-01  0.576448D-02
     37  0.726887D-02 -0.130280D-01  0.449884D-01  0.932760D-02 -0.138552D-01
     38 -0.440901D-01 -0.329127D-01 -0.494371D-01 -0.352780D-01  0.929243D-02
     39  0.804671D-01 -0.253311D-01  0.250151D-01  0.215260D-01 -0.124583D-01
     40  0.729222D-01  0.833872D-01  0.997712D-01  0.404149D-01 -0.738248D-02
     41  0.755389D-01 -0.577734D-02  0.599817D-01  0.797292D-02 -0.112566D-01
     42  0.923351D-01  0.615502D-01  0.258054D-01  0.186668D-01 -0.152050D-02
     43 -0.283519D+00 -0.181928D+00 -0.138227D-01 -0.488176D-01  0.281509D-02
     44 -0.182678D+00  0.191884D+00 -0.648740D-02 -0.374131D-01  0.169307D+00
     45  0.599548D-02  0.196881D-01  0.153371D+00 -0.592768D-02  0.591964D-01
     46  0.167822D+00 -0.127552D-01 -0.644394D-01  0.129074D+00 -0.154448D+00
     47  0.123501D-01 -0.469978D-01 -0.604982D-02 -0.164380D+00 -0.255546D+00
     48 -0.653701D-01  0.936252D-03 -0.168100D-01 -0.376283D-01 -0.299994D-01
     49 -0.708609D-01 -0.106557D-01  0.357809D-02 -0.238736D+01  0.140861D+01
     50 -0.863695D-01  0.103578D+00  0.540153D-01  0.187311D+01 -0.620970D+01
     51 -0.694376D-02  0.215518D-01 -0.572286D-01 -0.184438D+01 -0.469868D+00
                6             7             8             9            10 
      6  0.152890D+02
      7 -0.567386D-01  0.181108D+02
      8  0.292798D-01 -0.187886D+01  0.187973D+02
      9 -0.242605D+00 -0.229055D+01 -0.139071D+01  0.207645D+02
     10 -0.260802D+00 -0.616221D+01  0.845956D+00 -0.437279D+00  0.144978D+02
     11 -0.828910D-02  0.734247D+00 -0.261880D+01 -0.173287D+01 -0.696864D+00
     12 -0.135309D+00 -0.398114D+00 -0.177387D+01 -0.542845D+01  0.338058D+00
     13  0.496383D-02 -0.314523D+01 -0.152301D+01  0.155060D+01 -0.100414D-01
     14 -0.947887D-03 -0.150654D+01 -0.580461D+01 -0.698014D+00 -0.131092D+00
     15 -0.104456D+00  0.151295D+01 -0.686175D+00 -0.577171D+01  0.826581D-01
     16  0.258812D-01  0.401561D+00  0.165482D+00  0.235247D+00 -0.153035D-01
     17 -0.106133D+00  0.140450D+00 -0.403879D-01  0.929840D-01  0.187892D+00
     18  0.298291D+00  0.206083D+00  0.969934D-01 -0.531765D-01 -0.285379D-01
     19  0.179748D+00  0.259277D+00  0.718420D-01  0.649014D-02  0.237837D+00
     20  0.176774D+01  0.412351D-01 -0.128932D+00  0.161533D-02  0.180412D+00
     21 -0.839784D+01  0.479417D-01 -0.368152D-02 -0.142792D+00 -0.760392D-01
     22 -0.739297D-01 -0.425567D+01 -0.372124D+00 -0.117956D+01  0.101441D+00
     23  0.273750D-01 -0.447681D+00 -0.477741D+01  0.765152D+00 -0.125733D+00
     24 -0.132813D+00 -0.144489D+01  0.786485D+00 -0.286511D+01  0.181282D+00
     25 -0.347932D-01  0.647037D-01  0.454739D-02 -0.225028D-01 -0.303634D+01
     26 -0.341547D-03 -0.282188D-01  0.287362D-01  0.656798D-01 -0.107289D+00
     27  0.946779D-02 -0.175816D-01  0.110669D-01  0.247164D-01 -0.122328D+01
     28  0.364603D-01  0.938274D-01 -0.532972D-02 -0.186619D-01 -0.246427D+01
     29 -0.167885D-01  0.695728D-01  0.416030D-02  0.801340D-01 -0.125627D+01
     30 -0.691742D-01 -0.525197D-01  0.598164D-01 -0.312116D-02  0.845695D+00
     31 -0.633653D-02  0.100780D-01 -0.904539D-01 -0.267299D-02 -0.334742D+01
     32 -0.418228D-02 -0.118170D+00 -0.301066D-01 -0.594350D-01  0.837134D+00
     33 -0.250371D-01  0.573516D-02 -0.160764D-01  0.110619D+00  0.671280D+00
     34 -0.702722D-02  0.260259D-01  0.457579D-01  0.268123D-01 -0.127666D-01
     35  0.375352D-02  0.319442D-01  0.269141D-01 -0.169048D-01  0.784594D-02
     36 -0.398856D-02 -0.316634D-01  0.132821D-01  0.983571D-01 -0.172143D-01
     37  0.315026D-02  0.418718D-01  0.936576D-01 -0.335822D-01 -0.456501D-01
     38 -0.414987D-02  0.375467D-01 -0.296087D-01 -0.118515D-01 -0.347351D-01
     39 -0.949675D-02 -0.466079D-02  0.198160D-01  0.808804D-01  0.239619D-01
     40  0.463216D-02 -0.598034D-01 -0.936168D-01 -0.933412D-01  0.176246D-01
     41  0.608669D-03 -0.504948D-01  0.126011D+00 -0.127274D-01 -0.105165D-01
     42 -0.974270D-02 -0.998384D-01 -0.457884D-01  0.265342D-01  0.592262D-01
     43  0.703609D-02  0.618589D-01  0.101214D+00  0.407169D-01 -0.198779D-02
     44  0.549433D-01  0.136184D+00  0.715408D-01  0.403328D-01  0.128511D-01
     45 -0.225240D-01  0.440385D-01  0.389864D-01 -0.425282D-01  0.109156D-02
     46 -0.243399D-01  0.585806D-01  0.820347D-02 -0.121070D-01  0.221350D-01
     47 -0.129033D-01  0.173940D-01 -0.133786D-01 -0.482150D-02  0.129728D-01
     48  0.107255D+00 -0.902278D-02 -0.115586D-02 -0.140707D-01 -0.821758D-02
     49 -0.184687D+01 -0.637335D-01 -0.518658D-01 -0.199551D-02  0.553852D-01
     50 -0.634496D+00 -0.132650D+00  0.396803D-03  0.123754D-01 -0.226077D-01
     51 -0.634313D+01  0.207751D-01 -0.155178D-01 -0.108176D+00 -0.432242D-01
               11            12            13            14            15 
     11  0.128357D+02
     12  0.116292D+01  0.157305D+02
     13 -0.285611D-01  0.223451D-01  0.125133D+02
     14  0.783022D-01 -0.102444D+00  0.985504D+00  0.149563D+02
     15 -0.933982D-01  0.101204D-01 -0.151962D+01  0.593649D+00  0.145876D+02
     16  0.177388D+00 -0.406514D-02  0.201254D+00  0.791407D-01  0.137254D+00
     17  0.705369D-01 -0.165327D-01  0.362668D-01 -0.136573D+00  0.147942D-01
     18 -0.320539D-01 -0.121505D+00  0.129073D+00  0.170212D-01 -0.111553D+00
     19  0.171441D+00 -0.502237D-01  0.132357D+00 -0.724056D-02  0.192376D-01
     20 -0.802964D-01 -0.298436D-01 -0.323293D-01 -0.884094D-01 -0.698844D-02
     21 -0.322564D-01 -0.129999D+00  0.993589D-02 -0.420110D-02 -0.827031D-01
     22 -0.112155D+00  0.134376D+00 -0.160668D+00  0.129055D+00  0.272244D-01
     23  0.904701D-01  0.173426D+00  0.141030D+00  0.737077D-01 -0.144136D-01
     24  0.195529D+00 -0.688793D-01  0.460651D-01 -0.192856D-01  0.165303D+00
     25 -0.229427D+00 -0.123273D+01 -0.573236D-02 -0.597086D-02  0.506274D-03
     26 -0.407661D+01  0.136934D+00 -0.103192D-01 -0.111341D-01  0.553159D-03
     27  0.287569D+00 -0.248502D+01  0.306689D-02 -0.132087D-01  0.425630D-02
     28 -0.971966D+00  0.681157D+00  0.275475D-01 -0.915761D-01  0.678253D-01
     29 -0.376093D+01 -0.422250D+00 -0.103247D+00  0.559660D-01 -0.836719D-01
     30 -0.403809D+00 -0.401924D+01  0.688093D-01 -0.742370D-01  0.444358D-02
     31  0.814363D+00  0.748971D+00 -0.238194D-01  0.992318D-02 -0.390064D-04
     32 -0.275302D+01  0.115618D+01  0.839064D-02  0.476214D-01 -0.112306D-01
     33  0.101443D+01 -0.303638D+01  0.229471D-02  0.696763D-02 -0.230450D-01
     34  0.203149D-01 -0.920654D-02 -0.294798D+01 -0.579857D+00 -0.129418D+01
     35 -0.138276D-01  0.470839D-02 -0.538529D+00 -0.353516D+01  0.743184D+00
     36  0.133895D-01  0.135061D-02 -0.108409D+01  0.662719D+00 -0.253772D+01
     37 -0.418887D-01  0.245369D-01 -0.402703D+01  0.222901D+00 -0.186556D+00
     38  0.108389D+00 -0.105377D+00  0.391927D+00 -0.243408D+01 -0.120065D+01
     39 -0.115155D+00  0.255842D-01 -0.327966D+00 -0.125323D+01 -0.305646D+01
     40 -0.295240D-01  0.566510D-01 -0.297107D+01  0.105658D+01  0.793241D+00
     41 -0.254362D-01 -0.137877D-01  0.908596D+00 -0.281664D+01  0.821094D+00
     42 -0.313714D-01  0.211310D-01  0.760602D+00  0.915918D+00 -0.310410D+01
     43  0.433357D-02  0.385434D-03  0.139471D-01  0.172753D-01  0.855139D-02
     44  0.490739D-02  0.460204D-02  0.234148D-01  0.794688D-02  0.851142D-02
     45  0.126456D-02 -0.769904D-02  0.129732D-01  0.973229D-02 -0.903655D-02
     46  0.484239D-02 -0.235101D-02  0.194765D-01  0.447840D-02 -0.153854D-02
     47 -0.496400D-02 -0.336230D-03  0.327372D-02 -0.460790D-02 -0.842816D-04
     48 -0.132867D-02 -0.739205D-02 -0.812952D-03 -0.413824D-04 -0.618843D-02
     49  0.479150D-02 -0.461536D-01  0.148406D-01 -0.224812D-01  0.823586D-02
     50 -0.776077D-01  0.747982D-03 -0.400173D-01  0.480496D-02 -0.461336D-02
     51 -0.543636D-02 -0.667987D-01  0.157413D-01 -0.840448D-02 -0.191517D-01
               16            17            18            19            20 
     16  0.102799D+02
     17  0.814683D+00  0.179230D+02
     18  0.515650D+01 -0.371755D+01  0.251629D+02
     19 -0.621943D+01 -0.388389D+01 -0.387395D+01  0.156733D+02
     20 -0.343184D+01 -0.654752D+01  0.335222D+01  0.144158D+01  0.112493D+02
     21 -0.362376D+01  0.349665D+01 -0.121910D+02  0.395185D+01 -0.476783D+01
     22 -0.995387D-02 -0.531258D-01 -0.469033D-02  0.661835D-01  0.575101D-01
     23 -0.214478D-01 -0.463401D-01 -0.113203D-02  0.720961D-01 -0.341570D-01
     24  0.298463D-01 -0.747461D-02  0.618563D-01  0.911464D-01  0.250315D-01
     25  0.131805D-01  0.174985D-01 -0.612330D-02  0.263406D-01  0.120315D-01
     26  0.118702D-01 -0.304095D-02 -0.199254D-02  0.113116D-01 -0.670821D-02
     27 -0.137922D-01 -0.856747D-02 -0.750796D-02 -0.211416D-01 -0.491343D-02
     28 -0.288581D-01  0.144193D-01 -0.134413D-01 -0.222193D-01 -0.385404D-02
     29  0.453455D-01  0.698816D-01 -0.462855D-01  0.162006D-01 -0.629464D-02
     30 -0.200260D-01 -0.466408D-01 -0.151594D-01 -0.231482D-01 -0.187352D-01
     31  0.149868D-01  0.284352D-01  0.410423D-02  0.551163D-02  0.771838D-02
     32  0.330704D-01  0.170326D-01  0.387809D-02  0.121113D-01 -0.155353D-02
     33  0.639774D-02  0.711813D-02 -0.956706D-02  0.418556D-02  0.194920D-02
     34  0.472041D-01 -0.214225D-02 -0.298157D-02  0.235586D-01 -0.640328D-02
     35 -0.633256D-02 -0.148727D-01 -0.524605D-03 -0.756243D-02 -0.559809D-02
     36 -0.156840D-01  0.145056D-02 -0.155324D-01 -0.113413D-01  0.375821D-02
     37  0.216069D-01 -0.836343D-03  0.189730D-01  0.217110D-01 -0.106492D-01
     38 -0.179759D-01 -0.150720D-01 -0.113731D-01 -0.241740D-01 -0.187319D-02
     39  0.385926D-01 -0.532494D-02 -0.408316D-04  0.235996D-01 -0.973239D-02
     40  0.924497D-02  0.541427D-02  0.943812D-02  0.190757D-01 -0.328291D-03
     41  0.107667D-01 -0.456992D-02  0.702389D-02  0.918664D-02 -0.697687D-02
     42  0.107165D-01  0.357917D-02 -0.242524D-02  0.112786D-01 -0.377692D-03
     43 -0.411300D+01  0.910644D+00  0.187177D+00  0.247706D+00  0.171598D+00
     44  0.820541D+00 -0.184303D+01  0.601233D+00  0.237753D+00 -0.376200D+00
     45  0.161919D+00  0.589738D+00 -0.427411D+01  0.450724D-01 -0.170203D+00
     46 -0.357180D+00  0.192917D+00  0.175301D+00 -0.199270D+01  0.804936D+00
     47  0.151670D+00  0.225348D+00 -0.360323D-01  0.821929D+00 -0.405438D+01
     48  0.170424D+00 -0.385416D-01  0.170191D+00 -0.569355D+00 -0.179064D+00
     49  0.231444D-01  0.295022D-02  0.645404D-02  0.289975D-01  0.223065D-01
     50 -0.783007D-01 -0.151015D+00 -0.363277D-01 -0.131536D+00  0.103442D+00
     51 -0.104530D-01 -0.561058D-01  0.244177D-01  0.446508D-02  0.238064D-01
               21            22            23            24            25 
     21  0.247049D+02
     22  0.490478D-01  0.394059D+01
     23  0.213703D-01  0.469898D+00  0.480278D+01
     24 -0.231855D-01  0.144231D+01 -0.908857D+00  0.276861D+01
     25 -0.164758D-01  0.164949D-01  0.179113D-01 -0.759548D-01  0.288984D+01
     26 -0.440600D-02  0.232632D-01 -0.249702D-01 -0.368512D-01 -0.309113D-01
     27  0.133782D-02 -0.693123D-01 -0.253181D-01  0.814742D-01  0.129549D+01
     28 -0.120940D-01  0.334404D-01  0.137305D-04  0.740644D-02 -0.153252D+00
     29 -0.291130D-01  0.419002D-02 -0.153892D-01  0.649960D-01  0.113965D+00
     30  0.892145D-02 -0.480713D-02  0.605424D-01 -0.488861D-01  0.990629D-01
     31 -0.468919D-02  0.463001D-02 -0.455971D-03 -0.557207D-02  0.140928D+00
     32 -0.406616D-02  0.755726D-02  0.587096D-04 -0.779194D-02  0.268703D-01
     33 -0.747008D-02  0.305765D-02  0.662759D-03 -0.210212D-02  0.229736D-01
     34 -0.649357D-02  0.746943D-01 -0.545926D-01 -0.680979D-01 -0.126439D-01
     35  0.164168D-02 -0.522672D-01 -0.263061D-02  0.334105D-01 -0.853858D-02
     36 -0.369753D-02 -0.539263D-01  0.275286D-01  0.145930D-02  0.669881D-02
     37  0.741499D-02 -0.276225D-01  0.673249D-01 -0.648434D-02 -0.114136D-02
     38 -0.460953D-02  0.599299D-01 -0.319653D-01  0.111975D-01  0.405100D-02
     39 -0.783163D-02 -0.120868D-01  0.123012D-01  0.292097D-01 -0.409036D-02
     40  0.550819D-02  0.107430D-01 -0.335467D-02 -0.606913D-02 -0.560567D-02
     41  0.904638D-03  0.490137D-02 -0.465114D-02 -0.310098D-02 -0.215161D-02
     42 -0.479455D-02  0.583999D-02 -0.738410D-03 -0.660565D-02 -0.501545D-03
     43  0.351036D-01 -0.120985D-02  0.101574D-01  0.956388D-02  0.342370D-02
     44 -0.158483D+00  0.411120D-02  0.113363D-01  0.164018D-01  0.729946D-02
     45  0.218315D+00  0.340255D-02  0.903311D-02  0.356905D-02  0.341527D-03
     46 -0.592517D+00 -0.192220D-01 -0.209254D-02  0.150736D-02  0.576030D-02
     47 -0.187962D+00 -0.570252D-02  0.198254D-02  0.135473D-02  0.223718D-02
     48 -0.420572D+01 -0.219664D-02 -0.808040D-03  0.341364D-03 -0.226522D-02
     49  0.309076D-01 -0.343189D-01  0.357586D-01 -0.387654D-01  0.519732D-02
     50  0.816518D-01  0.362142D-01 -0.997120D-02  0.163499D-01 -0.327079D-02
     51  0.854795D-01 -0.279043D-01  0.198466D-01  0.721587D-03 -0.837794D-02
               26            27            28            29            30 
     26  0.397295D+01
     27  0.830809D-01  0.246991D+01
     28  0.865175D-01  0.850446D-01  0.271655D+01
     29  0.677659D-01 -0.410205D-01  0.105054D+01  0.346457D+01
     30 -0.372143D-01  0.965521D-01 -0.616526D+00  0.559259D+00  0.414960D+01
[...]
   yx         0.360662D+01      0.534446D+00      0.594652D+00
   yy         0.665372D+02      0.985980D+01      0.109705D+02
   zx         0.991218D+01      0.146883D+01      0.163430D+01
   zy         0.325930D+01      0.482979D+00      0.537387D+00
   zz         0.837443D+02      0.124096D+02      0.138076D+02

 ----------------------------------------------------------------------

 Test job not archived.
 1\1\GINC-C2000\Freq\RM062X\CC-pVTZ\C5H10O2\HARMS.N\27-Sep-2019\0\\#P G
 eom=AllCheck Guess=TCheck SCRF=Check Test GenChk RM062X/CC-pVTZ Freq\\
 Gaussian input prepared by ASE\\0,1\O,2.5182034909,1.4641614156,2.5165
 865407\O,1.8282030512,0.807050076,-0.0574986974\C,2.1694535633,2.07832
 32378,3.7602537958\C,2.5603848386,3.5362849158,3.6425723804\C,2.882560
 5576,1.3891771167,4.9113510899\C,1.8851830819,0.2768805323,2.248336832
 6\C,1.5793927829,-0.0169144291,0.9920022821\H,1.0851031405,1.995404490
 3,3.8890595038\H,3.6324737611,3.6148363527,3.4599343458\H,2.031362582,
 4.0098433636,2.8173615043\H,2.3246720933,4.0692172549,4.5629063222\H,3
 .9611011075,1.4672519414,4.7724296893\H,2.6193522696,0.3342892432,4.97
 62046385\H,2.6163073486,1.8610921056,5.8569401364\H,1.6873034692,-0.39
 97492789,3.0672611298\H,1.1227176449,-0.9537746978,0.7146043473\H,2.24
 52794983,1.6017308276,0.2969692254\\Version=EM64L-G16RevA.03\State=1-A
 \HF=-346.9479196\RMSD=4.013e-09\RMSF=8.463e-07\ZeroPoint=0.1475352\The
 rmal=0.1560271\Dipole=-0.0878579,0.2365966,0.9283046\DipoleDeriv=-0.42
 61878,-0.2643377,-0.2892463,-0.3105572,-1.0702146,-0.8291368,-0.149223
 ,-0.4211346,-1.127268,-0.3257248,-0.0586819,0.2370381,-0.0099266,-0.47
 53162,0.7075792,-0.0058472,0.1268608,-1.1135912,0.3136951,-0.102206,-0
 .0446449,-0.0084439,0.5959354,0.2316056,0.130499,0.3551937,1.0128725,0
 .0758784,-0.0287981,-0.0179026,-0.0300231,-0.0951098,-0.0207336,-0.026
 1266,0.0217796,0.0032079,0.0377397,0.0436052,-0.0655219,0.0351341,-0.0
 353606,0.095756,-0.0719557,-0.0038683,-0.1072772,0.0447506,0.4502526,0
 .3873096,0.3855031,0.5982225,0.5488479,0.1640549,0.16407,0.032767,-0.0
 508185,0.1117793,-0.1537607,0.1136354,0.2224008,-0.6628945,-0.0151144,
 -0.2290725,0.9653235,-0.1530214,0.0232468,0.054967,-0.0443235,-0.01122
 96,0.023989,-0.0422307,-0.0255183,-0.0387392,-0.1024437,-0.0357374,0.0
 21343,0.0319643,0.0408376,-0.0038924,0.0260585,0.0177342,0.0674055,0.0
 214955,0.0337912,-0.0687646,0.0189947,0.0039631,0.0526657,-0.0647293,0
 .0950475,-0.037097,0.0575264,0.0105287,0.0346588,-0.0066123,0.0063919,
 -0.0628856,0.0320512,-0.0935264,-0.0738739,-0.0985031,-0.0026933,-0.01
 25296,-0.0314482,0.0589091,0.012275,0.0529125,0.0175223,0.0490517,0.04
 30707,-0.042728,-0.0101105,-0.031601,-0.1272651,0.0312372,-0.010007,0.
 0137637,0.0734775,0.0456013,0.0254452,0.0346758,0.0283503,0.0297455,-0
 .0927931,0.0111914,-0.0673762,-0.0870006,0.1137458,-0.0841844,-0.06042
 83,-0.0504914,0.0074142,0.0310714,0.0139324,0.0838232,0.0085598,0.1220
 669,-0.0642541,-0.00197,-0.0709206,-0.0086463,0.0101434,-0.0158134,-0.
 0163067,0.0475617,0.281129,-0.015028,-0.0451129,-0.0192341,0.2593219,-
 0.0728344,-0.0296527,-0.038992,0.32462\Polar=54.2166031,5.1092695,69.2
 661017,6.1701919,7.5646784,82.5077127\Quadrupole=-0.6920502,2.7220499,
 -2.0299997,1.1916154,-0.676459,-0.7658312\PG=C01 [X(C5H10O2)]\NImag=0\
 \0.18379782,0.13395326,0.40142119,-0.03909994,0.14707049,0.36368449,-0
 .00199319,0.00835524,0.00067003,0.15066357,0.01087005,0.01348289,-0.00
 093545,0.23616356,0.53699340,-0.00129767,-0.00893308,0.00101712,0.0477
 6400,-0.00118343,0.41032049,-0.08558524,0.01107050,0.05447930,-0.00064
 375,-0.00015705,-0.00068755,0.61466984,-0.00348987,-0.09137609,-0.0278
 7956,0.00147681,0.00036703,0.00239682,0.03109264,0.51726561,0.03807138
 ,-0.04719029,-0.17750917,-0.00183496,-0.00499483,0.00520001,-0.0052758
 1,-0.02058671,0.46361789,0.00497331,0.01101956,0.00193438,-0.00022688,
 0.00038207,-0.00023183,-0.09511525,-0.04154033,0.00305025,0.57403834,-
 0.00520016,-0.02734608,-0.01051364,0.00009565,-0.00005254,-0.00005534,
 -0.03344214,-0.19520205,0.01419018,-0.02821917,0.50286268,-0.00963464,
 -0.04546981,-0.00978443,0.00046942,0.00096009,-0.00081416,0.00665232,0
 .02642094,-0.07591047,0.00422914,0.00768703,0.59535823,0.00816002,-0.0
 0262048,0.01086379,0.00007941,-0.00005014,0.00042790,-0.11727572,0.030
 04065,-0.05019449,0.00470222,-0.00291616,0.00616952,0.55723617,-0.0077
 0689,0.00542192,-0.02102119,-0.00049582,-0.00031968,0.00004332,0.02804
 677,-0.11025627,0.04712273,0.01776591,-0.02117029,0.02897456,0.0199746
 3,0.57224815,-0.01120453,0.00278035,-0.04770667,-0.00015161,-0.0002317
 5,-0.00070614,-0.04286980,0.04178891,-0.13141616,-0.00209044,0.0086647
 6,-0.00191182,-0.04032111,0.03213114,0.52733545,-0.10394024,-0.1205646
 1,-0.01539923,0.01084320,-0.00974122,0.01580026,0.00072482,0.00429070,
 -0.00913456,-0.00060084,0.00161622,0.00364155,-0.00037379,0.00170042,0
 .00011553,0.21662011,-0.10173064,-0.23285309,-0.04214681,-0.00612776,-
 0.00873249,0.05098167,-0.00417519,-0.03185449,-0.02297963,-0.00016511,
 -0.00069770,-0.00125732,-0.00157064,0.00498470,0.00353874,0.19726279,0
 .53581108,0.00051869,-0.02600853,-0.10896446,-0.00238169,0.01673060,-0
 .05364939,-0.02041754,-0.03577986,-0.00940354,0.00029324,-0.00140648,-
 0.00429933,0.00003333,-0.00109246,-0.00101563,0.08632080,-0.00277209,0
 .91903451,-0.00528376,-0.02758844,-0.02848761,-0.06358374,-0.04740645,
 0.01335675,-0.00156786,0.00042845,0.00618781,0.00061778,-0.00013295,-0
 .00122355,0.00014192,-0.00023190,-0.00021994,-0.08519211,-0.03778539,-
 0.09540443,0.24886696,-0.02884406,-0.03844599,-0.05109773,-0.05216987,
 -0.18002131,0.08471404,-0.00513552,-0.00164681,0.00998460,0.00037500,-
 0.00044252,-0.00261083,0.00047389,-0.00083773,-0.00026831,-0.03653456,
 -0.11305993,-0.08501622,0.24283708,0.63099914,-0.00563716,-0.00437112,
 -0.00805173,0.03647654,0.13088832,-0.24982421,0.00031273,0.00206314,-0
 .00295106,0.00055367,0.00027621,0.00111683,0.00006487,-0.00028598,-0.0
 0004666,-0.11255890,-0.11336742,-0.51134933,0.12366238,0.06574116,0.85
 594953,-0.00729493,0.00408740,0.01037104,-0.00004266,-0.00042983,0.000
 16685,-0.29681887,-0.02072319,0.02274433,-0.00665077,-0.00167162,0.000
 04228,-0.01531386,-0.00138704,-0.00028987,0.00123180,-0.00265265,-0.00
 018857,0.00073406,0.00143862,-0.00020070,0.32206984,0.01662618,-0.0031
 3567,-0.01215694,0.00002419,-0.00066018,0.00044665,-0.02434925,-0.0539
 2085,0.00540612,-0.03336532,-0.00387133,0.00407650,0.01694119,0.001888
 47,0.00051771,0.00303970,0.00279667,0.00053698,-0.00034686,0.00029004,
 -0.00100447,0.02080338,0.06079066,0.03564297,-0.00925182,-0.02102418,0
 .00002209,-0.00010481,-0.00009539,0.01680327,0.00234006,-0.05062932,0.
 00234274,0.00157027,0.00074677,-0.02654536,-0.00114129,0.00320517,0.00
 292084,0.00503006,0.00247466,-0.00098464,-0.00014401,-0.00078449,-0.02
 971245,0.00015502,0.06691097,0.00110584,0.00031573,-0.00054594,0.00011
 183,0.00008751,-0.00013971,-0.01169611,-0.00131771,0.00216317,-0.30759
 288,-0.01633818,0.04386355,0.00101459,0.00071615,-0.00040580,0.0003834
 1,0.00016795,-0.00028008,-0.00001936,-0.00007957,0.00016186,0.00120887
 ,-0.00183531,0.00008865,0.33376680,0.00138462,0.00286793,0.00110937,-0
 .00001220,0.00008964,-0.00008860,-0.03597991,-0.00445550,0.00665325,-0
 .01420742,-0.04729416,0.00285508,-0.00109174,0.00191332,-0.00100182,0.
 00008338,-0.00030312,-0.00017434,0.00016232,0.00012069,0.00014344,-0.0
 0105792,-0.00616271,0.00022589,0.01989262,0.05211055,-0.00060419,0.000
 32324,0.00054955,0.00006590,0.00001440,-0.00000207,0.00310210,-0.00050
 593,-0.00177389,0.04384093,0.00387816,-0.05495261,0.00082945,-0.000273
 44,-0.00017373,-0.00019178,-0.00021614,-0.00018239,0.00003617,0.000040
 34,0.00004241,-0.00006401,0.00054457,0.00066648,-0.04885828,-0.0049228
 5,0.05441780,-0.00009317,0.00069702,0.00048326,-0.00009110,-0.00022021
 ,0.00015793,0.00428746,-0.00472336,0.00854848,-0.11465610,0.05776903,-
 0.10285801,0.00005798,-0.00166061,-0.00012392,-0.00009885,0.00004221,0
 .00029448,0.00003757,0.00018006,-0.00027311,0.00060778,0.00070713,0.00
 050069,-0.01394780,0.01339727,-0.02476204,0.11956696,-0.00028278,0.003
 26081,0.00004671,-0.00005784,0.00027144,-0.00006081,0.01775736,-0.0146
 0255,0.02620176,0.05625796,-0.09592177,0.08646564,-0.00268593,-0.00624
 841,-0.00106986,-0.00029654,-0.00017172,-0.00011229,0.00001536,-0.0000
 9047,0.00016383,-0.00013542,0.00141876,-0.00035003,-0.00111873,0.00029
 039,-0.00256275,-0.06105747,0.10499744,0.00030062,-0.00032703,0.001390
 10,-0.00001618,-0.00001380,0.00007669,-0.00082300,-0.00042400,-0.00371
 700,-0.10192802,0.08927161,-0.20433234,0.00096553,0.00095471,0.0006206
 9,-0.00000910,-0.00009984,0.00008453,0.00002378,0.00008522,-0.00000590
 ,0.00035024,0.00019384,0.00009115,0.00326352,-0.00357151,0.00510444,0.
 11157645,-0.09802354,0.21896318,0.00032173,-0.00276756,-0.00040250,0.0
 0010999,0.00006256,-0.00010786,0.00033436,-0.00311704,-0.00828986,-0.0
 5952595,0.02895674,0.05107513,0.00005576,0.00023872,0.00000730,0.00072
 968,-0.00018783,-0.00026758,-0.00014886,-0.00015593,0.00007092,-0.0000
 4268,0.00064079,-0.00013680,-0.00496278,0.01621334,0.02702379,0.003252
 26,-0.00933138,-0.01326625,0.05993048,-0.00326442,-0.00860295,-0.00122
 549,0.00017283,0.00039267,-0.00039842,0.01014820,-0.00948515,-0.026869
 40,0.02813693,-0.11194876,-0.10922320,0.00032431,0.00107607,-0.0004876
 1,0.00146491,0.00042346,-0.00111939,-0.00041625,-0.00097668,0.00043019
 ,-0.00058573,0.00102037,0.00018685,-0.00021920,0.00065850,0.00324643,-
 0.00451409,0.00749543,0.01209327,-0.03077332,0.12042317,-0.00043524,0.
 00017430,0.00109948,-0.00000144,-0.00006631,-0.00006604,-0.00110398,0.
 00235503,0.00092677,0.05081094,-0.11238720,-0.24218374,0.00007748,0.00
 032952,-0.00027494,0.00033073,0.00050122,0.00070402,0.00000993,0.00004
 428,-0.00003998,-0.00022144,-0.00050080,0.00020740,0.00024328,-0.00122
 113,-0.00366204,0.00626187,-0.01198541,-0.01866103,-0.05565853,0.12231
 641,0.26127317,0.00236947,-0.00091307,0.00023658,0.00003480,0.00009197
 ,-0.00015934,-0.01979926,-0.00025226,0.00251820,0.00091057,-0.00089158
 ,0.00065498,-0.30916918,-0.02107205,0.03623606,-0.00007787,-0.00010601
 ,-0.00005796,0.00005266,0.00003653,0.00016366,0.00012675,0.00169451,-0
 .00280007,0.00050046,0.00082635,-0.00015535,0.00044552,-0.00010276,-0.
 00004045,-0.00002773,0.00001751,-0.00013236,0.33685334,-0.00115838,0.0
 0039042,-0.00074904,0.00000159,0.00000202,-0.00006047,0.01696757,-0.00
 007336,-0.00281170,0.00111308,0.00098765,-0.00074227,-0.02175265,-0.04
 932257,0.00326117,-0.00039998,-0.00063469,-0.00006740,0.00008689,0.000
 10075,-0.00010239,0.00126410,-0.00086419,0.00274098,-0.00028593,-0.000
 19417,0.00044217,-0.00031638,0.00007087,-0.00010254,0.00005512,-0.0000
 5305,-0.00007382,0.02131104,0.05004974,0.00142990,-0.00002846,0.003064
 65,0.00002964,-0.00003539,0.00006148,-0.02839653,-0.00093696,0.0016780
 7,-0.00023103,-0.00145852,0.00087396,0.03809744,0.00234083,-0.05129793
 ,-0.00013674,-0.00060151,-0.00020871,0.00009404,0.00014612,0.00002560,
 -0.00239065,0.00259489,-0.00368648,0.00057590,0.00027866,0.00006415,0.
 00014454,-0.00024591,-0.00000990,0.00015644,0.00005827,0.00001258,-0.0
 3769553,-0.00571111,0.05325934,0.00006862,-0.00105189,0.00126269,0.000
 08810,-0.00008015,0.00005605,0.00420927,0.01773007,0.00135104,-0.00126
 260,0.00079493,-0.00273383,-0.06509305,-0.06616822,0.00275389,-0.00016
 678,-0.00007974,-0.00015709,-0.00011010,0.00004797,-0.00004386,0.00057
 705,-0.00021508,0.00093418,0.00030419,0.00032201,-0.00027819,0.0006719
 1,0.00091496,-0.00042088,-0.00015208,-0.00026913,-0.00009579,-0.006413
 56,-0.03138014,0.00071944,0.06627208,0.00013656,0.00119668,-0.00003301
 ,0.00010734,0.00020675,-0.00044441,-0.00421604,-0.01441230,-0.00129491
 ,0.00255289,-0.00003976,0.00285030,-0.06537273,-0.30054738,0.01429660,
 -0.00082756,-0.00099833,-0.00020115,0.00016817,0.00047720,0.00018765,0
 .00026336,0.00042300,0.00000740,-0.00000246,0.00017646,-0.00010912,-0.
 00041723,-0.00090542,0.00015241,-0.00003399,0.00037841,-0.00005297,-0.
 00013622,-0.00103360,-0.00024572,0.07138904,0.32700303,0.00075906,-0.0
 0130660,0.00247185,-0.00002034,-0.00036653,0.00057660,0.00848556,0.025
 70093,-0.00081047,-0.00309364,0.00128265,-0.00411997,0.00320513,0.0126
 4750,-0.04749658,-0.00008395,0.00028324,-0.00080409,-0.00010072,-0.000
 13945,-0.00043546,0.00025351,-0.00098654,0.00077788,-0.00012919,-0.000
 28740,-0.00000054,0.00019878,0.00165593,0.00001008,-0.00013244,0.00015
 807,0.00028884,0.00088520,0.00455671,-0.00130489,-0.00099477,-0.015239
 87,0.04981128,-0.00024514,0.00063720,-0.00495583,-0.00002683,-0.000046
 99,-0.00016566,0.00362308,-0.00857371,-0.01169758,0.00017731,-0.000228
 82,0.00036290,-0.06398170,0.03038142,0.05833472,0.00038504,0.00071944,
 -0.00002442,-0.00000015,-0.00001301,-0.00001855,0.00000959,-0.00049741
 ,0.00083408,0.00002494,0.00010244,0.00009404,-0.00013434,-0.00018995,0
 .00000086,0.00028269,0.00004819,-0.00002824,-0.00564587,0.01450620,0.0
 2768863,0.00102238,-0.00342179,-0.00809683,0.06449406,0.00122892,0.000
 20245,0.00475490,0.00011357,0.00018333,-0.00025082,-0.00565915,0.00579
 867,0.01101494,-0.00023687,0.00003965,-0.00020537,0.03026881,-0.098301
 27,-0.10326352,-0.00035963,-0.00093374,0.00021441,0.00010476,0.0003427
 4,0.00023802,-0.00005302,0.00044725,-0.00067716,-0.00007823,-0.0000209
 6,0.00006648,-0.00005240,0.00020403,-0.00014850,0.00018569,-0.00048810
 ,0.00057094,-0.00065201,0.00038197,0.00368082,0.00832473,-0.01244569,-
 0.02738564,-0.03343300,0.10430356,-0.00357071,0.00093228,-0.00682919,-
 0.00006390,0.00009898,-0.00032285,0.00961982,-0.01323402,-0.01744185,0
 .00061930,-0.00094934,0.00062899,0.05707676,-0.10118092,-0.24946774,0.
 00103884,0.00229103,0.00027457,-0.00020139,-0.00054114,0.00003791,-0.0
 0061965,-0.00006463,0.00073736,-0.00010305,0.00005615,-0.00004752,-0.0
 0023990,0.00004361,0.00039809,-0.00011179,0.00084465,0.00029446,0.0002
 9182,-0.00066379,-0.00254321,-0.00114119,0.00113633,0.00259287,-0.0626
 0202,0.11149048,0.27120767,-0.00374481,-0.01482371,0.01110907,0.009389
 05,-0.00303841,-0.00386702,0.00048602,0.00092578,0.00161826,-0.0001226
 7,0.00000400,-0.00037624,-0.00020034,-0.00033630,0.00013006,-0.0405960
 3,-0.04035396,0.03334440,0.00099566,0.00535807,-0.00390059,-0.00002892
 ,0.00022816,-0.00023058,-0.00001309,-0.00000212,0.00006208,0.00000538,
 0.00014329,-0.00000787,-0.00001231,-0.00012875,-0.00007597,-0.00008949
 ,-0.00000645,-0.00000400,0.00002689,-0.00013945,-0.00112345,0.00004167
 ,0.00035867,-0.00004185,0.03832390,-0.00946179,-0.02590906,0.01549787,
 -0.00449695,0.00217923,-0.00225211,-0.00157890,0.00207064,0.00519199,0
 .00042474,-0.00019317,-0.00061764,-0.00002412,-0.00028796,-0.00036560,
 -0.04081069,-0.15594029,0.13777282,0.00326492,0.00839449,-0.00590490,0
 .00067940,-0.00052896,-0.00044867,0.00014600,0.00021698,0.00006147,-0.
 00006382,0.00019387,-0.00003830,-0.00001307,-0.00019464,-0.00013609,0.
 00015819,0.00017489,0.00012507,-0.00031652,0.00063876,-0.00073308,0.00
 004357,0.00030018,-0.00014374,0.05032139,0.17011747,-0.00239554,-0.005
 58841,0.00995217,-0.00262875,-0.00267376,-0.00267769,0.00070800,-0.001
 04568,0.00089554,-0.00007881,0.00001428,-0.00004558,-0.00055978,0.0001
 1608,-0.00016687,0.03566306,0.13740678,-0.23184577,0.00723793,0.021491
 87,-0.01408175,-0.00017964,-0.00002750,0.00005049,0.00008667,-0.000031
 06,-0.00000789,0.00000620,0.00003492,0.00000538,0.00001976,0.00003508,
 -0.00005364,0.00003438,0.00008002,0.00005471,-0.00118649,-0.00097770,-
 0.00151739,0.00017367,-0.00002807,0.00026056,-0.03690546,-0.14746740,0
 .23889960,0.00990902,-0.00010245,-0.00203042,-0.00168529,-0.00675681,0
 .00087730,0.00024248,-0.00188648,-0.00015288,0.00014472,-0.00011102,-0
 .00045396,-0.00003645,0.00015119,0.00008562,-0.00184243,-0.00562580,-0
 .00020915,-0.09148721,-0.11564308,-0.03775453,-0.00023485,-0.00016177,
 0.00000597,-0.00003935,-0.00000255,0.00000971,0.00000489,0.00001169,0.
 00001087,-0.00007226,-0.00013619,0.00001198,-0.00002199,0.00000042,-0.
 00003323,-0.00003849,-0.00000310,-0.00003087,-0.00002051,-0.00002302,0
 .00004686,-0.00361852,0.00173376,0.00019681,0.08660427,-0.00306388,0.0
 0193076,0.00043271,-0.00963746,-0.01972859,-0.00065996,-0.00049734,0.0
 0101097,0.00020355,-0.00003393,0.00003856,0.00017557,0.00004278,-0.000
 13199,-0.00010854,-0.00084236,-0.00165088,0.00098455,-0.11623312,-0.27
 088912,-0.07163164,0.00010852,0.00004740,-0.00001138,0.00002384,0.0000
 0859,0.00000712,-0.00002228,0.00001808,0.00000552,0.00003056,0.0000580
 7,-0.00001102,0.00001247,-0.00000772,0.00001848,0.00001890,0.00001579,
 0.00001243,-0.00000513,0.00003090,-0.00003960,0.00172903,-0.00055645,-
 0.00072916,0.12875841,0.28981249,-0.00084427,-0.00073720,-0.00560218,0
 .01420690,0.02942625,0.00716451,-0.00147586,0.00013535,0.00086937,0.00
 014187,-0.00008878,-0.00038887,0.00009654,-0.00024080,-0.00022605,-0.0
 1110761,-0.02446322,0.00245113,-0.04110269,-0.07599037,-0.08179065,0.0
 0013557,-0.00000787,-0.00006503,0.00000386,0.00004317,0.00000714,0.000
 01289,0.00000089,0.00001811,-0.00000488,-0.00013536,0.00001148,0.00000
 534,0.00000430,0.00002441,-0.00000256,0.00003007,0.00000487,-0.0000360
 8,0.00005317,-0.00009983,0.00074202,0.00009384,-0.00022084,0.03829871,
 0.06809951,0.08191710,-0.00252535,0.00029631,-0.00048866,-0.10302651,-
 0.17973047,-0.07195040,-0.00007528,-0.00036115,0.00032721,0.00018970,-
 0.00008477,0.00011941,-0.00000397,0.00008364,0.00001384,0.00197088,0.0
 0236833,-0.00141644,-0.00405346,-0.01217160,-0.00107923,-0.00013818,0.
 00006576,0.00031440,-0.00014955,-0.00003047,-0.00015033,0.00008364,0.0
 0015819,0.00001988,-0.00007231,-0.00000581,0.00000678,-0.00004860,-0.0
 0000611,-0.00004826,-0.00000381,-0.00004678,0.00001896,-0.00000622,-0.
 00003782,0.00000207,-0.00084240,-0.00000610,-0.00019202,0.00219198,-0.
 00038901,0.00093028,0.10650945,0.00000328,-0.00250613,-0.00115316,-0.1
 7351289,-0.34465361,-0.12419507,0.00010745,0.00077250,0.00075835,-0.00
 026000,0.00025158,-0.00033927,0.00001833,-0.00010907,-0.00018237,0.000
 91904,0.00381455,-0.00248914,-0.01692660,-0.03431449,-0.00346405,0.000
 05163,0.00002130,-0.00012735,-0.00007447,-0.00002243,-0.00003415,0.000
 25514,-0.00028078,-0.00000751,-0.00000339,-0.00017682,0.00014304,-0.00
 002261,0.00002502,0.00002044,0.00001827,-0.00013360,0.00014765,-0.0000
 2864,-0.00004497,-0.00007631,-0.00023923,-0.00067598,-0.00061029,-0.00
 020319,-0.00000686,0.00377705,0.18989787,0.37803979,-0.00199875,-0.002
 06830,0.00224262,-0.09260565,-0.16751259,-0.11625895,0.00088696,-0.002
 80845,-0.00162472,-0.00016270,0.00002414,0.00001855,-0.00028700,0.0005
 7568,0.00074561,0.00279024,0.00787124,-0.00330078,0.01711617,0.0335604
 3,0.01218895,-0.00019683,0.00027648,0.00041657,0.00001159,-0.00006630,
 -0.00004929,0.00007143,-0.00020269,-0.00003626,0.00002515,0.00008966,0
 .00012320,0.00001484,-0.00000080,-0.00006782,-0.00002264,-0.00006188,-
 0.00004488,0.00013630,-0.00012508,0.00031972,-0.00047286,-0.00063554,0
 .00049898,0.00112122,0.00325186,-0.00407467,0.07357251,0.12783214,0.10
 890318\\-0.00000005,0.,0.00000021,-0.00000095,-0.00000094,-0.00000034,
 -0.00000073,0.00000014,-0.00000027,-0.00000135,-0.00000007,-0.00000064
 ,0.00000111,0.00000037,-0.00000028,0.00000156,-0.00000037,-0.00000031,
 0.00000056,-0.00000049,0.00000099,0.00000014,-0.00000095,0.00000045,-0
 .00000145,0.00000118,-0.00000061,-0.00000219,-0.00000012,0.00000012,-0
 .00000165,0.00000018,0.,0.00000062,0.00000146,-0.00000060,0.00000183,0
 .00000036,0.,0.00000072,0.00000044,0.00000017,0.00000117,-0.00000033,0
 .00000026,0.00000147,-0.00000122,0.00000050,-0.00000082,0.00000035,0.0
 0000036\\\@


 Democracy is the recurrent suspicion that more than half of the people
 are right more than half of the time.
 -- E. B. White
 Job cpu time:       0 days  3 hours  8 minutes 33.7 seconds.
 Elapsed time:       0 days  1 hours 34 minutes 31.6 seconds.
 File lengths (MBytes):  RWF=   1392 Int=      0 D2E=      0 Chk=     32 Scr=     32
 Normal termination of Gaussian 16 at Fri Sep 27 12:53:01 2019.
