 Entering Gaussian System, Link 0=g16
 Input=tight/species/CC(C)OC=CO/conformers/CC(C)OC=CO_111.com
 Output=tight/species/CC(C)OC=CO/conformers/CC(C)OC=CO_111.log
 Initial command:
 /shared/centos7/gaussian/g16/l1.exe "/scratch/harms.n/gauss_scrdir/Gau-20703.inp" -scrdir="/scratch/harms.n/gauss_scrdir/"
 Entering Link 1 = /shared/centos7/gaussian/g16/l1.exe PID=     20704.
  
 Copyright (c) 1988,1990,1992,1993,1995,1998,2003,2009,2016,
            Gaussian, Inc.  All Rights Reserved.
  
 This is part of the Gaussian(R) 16 program.  It is based on
 the Gaussian(R) 09 system (copyright 2009, Gaussian, Inc.),
 the Gaussian(R) 03 system (copyright 2003, Gaussian, Inc.),
 the Gaussian(R) 98 system (copyright 1998, Gaussian, Inc.),
 the Gaussian(R) 94 system (copyright 1995, Gaussian, Inc.),
 the Gaussian 92(TM) system (copyright 1992, Gaussian, Inc.),
 the Gaussian 90(TM) system (copyright 1990, Gaussian, Inc.),
 the Gaussian 88(TM) system (copyright 1988, Gaussian, Inc.),
 the Gaussian 86(TM) system (copyright 1986, Carnegie Mellon
 University), and the Gaussian 82(TM) system (copyright 1983,
 Carnegie Mellon University). Gaussian is a federally registered
 trademark of Gaussian, Inc.
  
 This software contains proprietary and confidential information,
 including trade secrets, belonging to Gaussian, Inc.
  
 This software is provided under written license and may be
 used, copied, transmitted, or stored only in accord with that
 written license.
  
 The following legend is applicable only to US Government
 contracts under FAR:
  
                    RESTRICTED RIGHTS LEGEND
  
 Use, reproduction and disclosure by the US Government is
 subject to restrictions as set forth in subparagraphs (a)
 and (c) of the Commercial Computer Software - Restricted
 Rights clause in FAR 52.227-19.
  
 Gaussian, Inc.
 340 Quinnipiac St., Bldg. 40, Wallingford CT 06492
  
  
 ---------------------------------------------------------------
 Warning -- This program may not be used in any manner that
 competes with the business of Gaussian, Inc. or will provide
 assistance to any competitor of Gaussian, Inc.  The licensee
 of this program is prohibited from giving any competitor of
 Gaussian, Inc. access to this program.  By using this program,
 the user acknowledges that Gaussian, Inc. is engaged in the
 business of creating and licensing software in the field of
 computational chemistry and represents and warrants to the
 licensee that it is not a competitor of Gaussian, Inc. and that
 it will not use this program in any manner prohibited above.
 ---------------------------------------------------------------
  

 Cite this work as:
 Gaussian 16, Revision A.03,
 M. J. Frisch, G. W. Trucks, H. B. Schlegel, G. E. Scuseria, 
 M. A. Robb, J. R. Cheeseman, G. Scalmani, V. Barone, 
 G. A. Petersson, H. Nakatsuji, X. Li, M. Caricato, A. V. Marenich, 
 J. Bloino, B. G. Janesko, R. Gomperts, B. Mennucci, H. P. Hratchian, 
 J. V. Ortiz, A. F. Izmaylov, J. L. Sonnenberg, D. Williams-Young, 
 F. Ding, F. Lipparini, F. Egidi, J. Goings, B. Peng, A. Petrone, 
 T. Henderson, D. Ranasinghe, V. G. Zakrzewski, J. Gao, N. Rega, 
 G. Zheng, W. Liang, M. Hada, M. Ehara, K. Toyota, R. Fukuda, 
 J. Hasegawa, M. Ishida, T. Nakajima, Y. Honda, O. Kitao, H. Nakai, 
 T. Vreven, K. Throssell, J. A. Montgomery, Jr., J. E. Peralta, 
 F. Ogliaro, M. J. Bearpark, J. J. Heyd, E. N. Brothers, K. N. Kudin, 
 V. N. Staroverov, T. A. Keith, R. Kobayashi, J. Normand, 
 K. Raghavachari, A. P. Rendell, J. C. Burant, S. S. Iyengar, 
 J. Tomasi, M. Cossi, J. M. Millam, M. Klene, C. Adamo, R. Cammi, 
 J. W. Ochterski, R. L. Martin, K. Morokuma, O. Farkas, 
 J. B. Foresman, and D. J. Fox, Gaussian, Inc., Wallingford CT, 2016.
 
 ******************************************
 Gaussian 16:  EM64L-G16RevA.03 25-Dec-2016
                29-Sep-2019 
 ******************************************
 %nprocshared=20
 Will use up to   20 processors via shared memory.
 %mem=5GB
 ----------------------------------------------------------------------
 #p m062x/cc-pVTZ opt=(calcfc,maxcycles=900,Tight) freq IOP(7/33=1,2/16
 =3) scf=(maxcycle=900)
 ----------------------------------------------------------------------
 1/6=900,7=10,10=4,18=20,19=15,26=3,38=1/1,3;
 2/9=110,12=2,16=3,17=6,18=5,40=1/2;
 3/5=16,6=1,11=2,25=1,30=1,71=2,74=-55,140=1/1,2,3;
 4//1;
 5/5=2,7=900,38=5/2;
 8/6=4,10=90,11=11/1;
 11/6=1,8=1,9=11,15=111,16=1/1,2,10;
 10/6=1,13=1/2;
 6/7=2,8=2,9=2,10=2,28=1/1;
 7/10=1,18=20,25=1,33=1/1,2,3,16;
 1/6=900,7=10,10=4,18=20,19=15,26=3/3(2);
 2/9=110,16=3/2;
 99//99;
 2/9=110,16=3/2;
 3/5=16,6=1,11=2,25=1,30=1,71=1,74=-55/1,2,3;
 4/5=5,16=3,69=1/1;
 5/5=2,7=900,38=5/2;
 7/33=1/1,2,3,16;
 1/6=900,7=10,18=20,19=15,26=3/3(-5);
 2/9=110,16=3/2;
 6/7=2,8=2,9=2,10=2,19=2,28=1/1;
 99/9=1/99;
 Leave Link    1 at Sun Sep 29 07:22:29 2019, MaxMem=   671088640 cpu:               4.0 elap:               2.0
 (Enter /shared/centos7/gaussian/g16/l101.exe)
 ------------------------------
 Gaussian input prepared by ASE
 ------------------------------
 Symbolic Z-matrix:
 Charge =  0 Multiplicity = 1
 O                     0.73669   0.38417  -0.42275 
 O                     0.38317   0.14972   2.40008 
 C                     0.66988   1.76936  -0.68857 
 C                     0.31195   2.57145   0.56265 
 C                    -0.2922    2.0293   -1.80074 
 C                     1.74261   0.069     0.46195 
 C                     1.58485  -0.07675   1.74566 
 H                     1.68699   2.1127   -1.02613 
 H                    -0.64327   2.21078   0.99817 
 H                     1.10168   2.46929   1.32906 
 H                     0.19152   3.66139   0.3174 
 H                    -1.33188   1.67003  -1.5425 
 H                     0.02305   1.52167  -2.73615 
 H                    -0.35589   3.13476  -2.00926 
 H                     2.72533  -0.11667  -0.00013 
 H                     2.40286  -0.3755    2.38443 
 H                     0.53185  -0.05738   3.36796 
 
 ITRead=  0  0  0  0  0  0  0  0  0  0  0  0  0  0  0  0  0
 MicOpt= -1 -1 -1 -1 -1 -1 -1 -1 -1 -1 -1 -1 -1 -1 -1 -1 -1
 NAtoms=     17 NQM=       17 NQMF=       0 NMMI=      0 NMMIF=      0
                NMic=       0 NMicF=      0.
                    Isotopes and Nuclear Properties:
 (Nuclear quadrupole moments (NQMom) in fm**2, nuclear magnetic moments (NMagM)
  in nuclear magnetons)

  Atom         1           2           3           4           5           6           7           8           9          10
 IAtWgt=          16          16          12          12          12          12          12           1           1           1
 AtmWgt=  15.9949146  15.9949146  12.0000000  12.0000000  12.0000000  12.0000000  12.0000000   1.0078250   1.0078250   1.0078250
 NucSpn=           0           0           0           0           0           0           0           1           1           1
 AtZEff=  -0.0000000  -0.0000000  -0.0000000  -0.0000000  -0.0000000  -0.0000000  -0.0000000  -0.0000000  -0.0000000  -0.0000000
 NQMom=    0.0000000   0.0000000   0.0000000   0.0000000   0.0000000   0.0000000   0.0000000   0.0000000   0.0000000   0.0000000
 NMagM=    0.0000000   0.0000000   0.0000000   0.0000000   0.0000000   0.0000000   0.0000000   2.7928460   2.7928460   2.7928460
 AtZNuc=   8.0000000   8.0000000   6.0000000   6.0000000   6.0000000   6.0000000   6.0000000   1.0000000   1.0000000   1.0000000

  Atom        11          12          13          14          15          16          17
 IAtWgt=           1           1           1           1           1           1           1
 AtmWgt=   1.0078250   1.0078250   1.0078250   1.0078250   1.0078250   1.0078250   1.0078250
 NucSpn=           1           1           1           1           1           1           1
 AtZEff=  -0.0000000  -0.0000000  -0.0000000  -0.0000000  -0.0000000  -0.0000000  -0.0000000
 NQMom=    0.0000000   0.0000000   0.0000000   0.0000000   0.0000000   0.0000000   0.0000000
 NMagM=    2.7928460   2.7928460   2.7928460   2.7928460   2.7928460   2.7928460   2.7928460
 AtZNuc=   1.0000000   1.0000000   1.0000000   1.0000000   1.0000000   1.0000000   1.0000000
 Leave Link  101 at Sun Sep 29 07:22:30 2019, MaxMem=   671088640 cpu:               2.6 elap:               1.3
 (Enter /shared/centos7/gaussian/g16/l103.exe)

 GradGradGradGradGradGradGradGradGradGradGradGradGradGradGradGradGradGrad
 Berny optimization.
 Initialization pass.
                           ----------------------------
                           !    Initial Parameters    !
                           ! (Angstroms and Degrees)  !
 --------------------------                            --------------------------
 ! Name  Definition              Value          Derivative Info.                !
 --------------------------------------------------------------------------------
 ! R1    R(1,3)                  1.412          calculate D2E/DX2 analytically  !
 ! R2    R(1,6)                  1.3762         calculate D2E/DX2 analytically  !
 ! R3    R(2,7)                  1.3869         calculate D2E/DX2 analytically  !
 ! R4    R(2,17)                 1.0009         calculate D2E/DX2 analytically  !
 ! R5    R(3,4)                  1.5287         calculate D2E/DX2 analytically  !
 ! R6    R(3,5)                  1.4933         calculate D2E/DX2 analytically  !
 ! R7    R(3,8)                  1.1253         calculate D2E/DX2 analytically  !
 ! R8    R(4,9)                  1.1101         calculate D2E/DX2 analytically  !
 ! R9    R(4,10)                 1.1052         calculate D2E/DX2 analytically  !
 ! R10   R(4,11)                 1.1237         calculate D2E/DX2 analytically  !
 ! R11   R(5,12)                 1.1299         calculate D2E/DX2 analytically  !
 ! R12   R(5,13)                 1.11           calculate D2E/DX2 analytically  !
 ! R13   R(5,14)                 1.1267         calculate D2E/DX2 analytically  !
 ! R14   R(6,7)                  1.3016         calculate D2E/DX2 analytically  !
 ! R15   R(6,15)                 1.1017         calculate D2E/DX2 analytically  !
 ! R16   R(7,16)                 1.08           calculate D2E/DX2 analytically  !
 ! A1    A(3,1,6)              112.3505         calculate D2E/DX2 analytically  !
 ! A2    A(7,2,17)             107.0851         calculate D2E/DX2 analytically  !
 ! A3    A(1,3,4)              111.8198         calculate D2E/DX2 analytically  !
 ! A4    A(1,3,5)              109.9646         calculate D2E/DX2 analytically  !
 ! A5    A(1,3,8)              108.2403         calculate D2E/DX2 analytically  !
 ! A6    A(4,3,5)              111.5547         calculate D2E/DX2 analytically  !
 ! A7    A(4,3,8)              107.2809         calculate D2E/DX2 analytically  !
 ! A8    A(5,3,8)              107.8058         calculate D2E/DX2 analytically  !
 ! A9    A(3,4,9)              110.6174         calculate D2E/DX2 analytically  !
 ! A10   A(3,4,10)             110.5963         calculate D2E/DX2 analytically  !
 ! A11   A(3,4,11)             110.8166         calculate D2E/DX2 analytically  !
 ! A12   A(9,4,10)             108.2273         calculate D2E/DX2 analytically  !
 ! A13   A(9,4,11)             107.9724         calculate D2E/DX2 analytically  !
 ! A14   A(10,4,11)            108.5174         calculate D2E/DX2 analytically  !
 ! A15   A(3,5,12)             111.5457         calculate D2E/DX2 analytically  !
 ! A16   A(3,5,13)             111.4096         calculate D2E/DX2 analytically  !
 ! A17   A(3,5,14)             110.1826         calculate D2E/DX2 analytically  !
 ! A18   A(12,5,13)            107.97           calculate D2E/DX2 analytically  !
 ! A19   A(12,5,14)            107.5928         calculate D2E/DX2 analytically  !
 ! A20   A(13,5,14)            107.9858         calculate D2E/DX2 analytically  !
 ! A21   A(1,6,7)              124.8267         calculate D2E/DX2 analytically  !
 ! A22   A(1,6,15)             114.8967         calculate D2E/DX2 analytically  !
 ! A23   A(7,6,15)             120.193          calculate D2E/DX2 analytically  !
 ! A24   A(2,7,6)              123.5118         calculate D2E/DX2 analytically  !
 ! A25   A(2,7,16)             114.9821         calculate D2E/DX2 analytically  !
 ! A26   A(6,7,16)             121.5012         calculate D2E/DX2 analytically  !
 ! D1    D(6,1,3,4)            -64.0137         calculate D2E/DX2 analytically  !
 ! D2    D(6,1,3,5)            171.4806         calculate D2E/DX2 analytically  !
 ! D3    D(6,1,3,8)             53.9464         calculate D2E/DX2 analytically  !
 ! D4    D(3,1,6,7)             95.4884         calculate D2E/DX2 analytically  !
 ! D5    D(3,1,6,15)           -87.8469         calculate D2E/DX2 analytically  !
 ! D6    D(17,2,7,6)           178.5435         calculate D2E/DX2 analytically  !
 ! D7    D(17,2,7,16)           -2.2535         calculate D2E/DX2 analytically  !
 ! D8    D(1,3,4,9)            -56.2484         calculate D2E/DX2 analytically  !
 ! D9    D(1,3,4,10)            63.6455         calculate D2E/DX2 analytically  !
 ! D10   D(1,3,4,11)          -175.9666         calculate D2E/DX2 analytically  !
 ! D11   D(5,3,4,9)             67.3656         calculate D2E/DX2 analytically  !
 ! D12   D(5,3,4,10)          -172.7405         calculate D2E/DX2 analytically  !
 ! D13   D(5,3,4,11)           -52.3526         calculate D2E/DX2 analytically  !
 ! D14   D(8,3,4,9)           -174.7806         calculate D2E/DX2 analytically  !
 ! D15   D(8,3,4,10)           -54.8867         calculate D2E/DX2 analytically  !
 ! D16   D(8,3,4,11)            65.5012         calculate D2E/DX2 analytically  !
 ! D17   D(1,3,5,12)            60.0236         calculate D2E/DX2 analytically  !
 ! D18   D(1,3,5,13)           -60.713          calculate D2E/DX2 analytically  !
 ! D19   D(1,3,5,14)           179.4529         calculate D2E/DX2 analytically  !
 ! D20   D(4,3,5,12)           -64.635          calculate D2E/DX2 analytically  !
 ! D21   D(4,3,5,13)           174.6284         calculate D2E/DX2 analytically  !
 ! D22   D(4,3,5,14)            54.7943         calculate D2E/DX2 analytically  !
 ! D23   D(8,3,5,12)           177.8274         calculate D2E/DX2 analytically  !
 ! D24   D(8,3,5,13)            57.0908         calculate D2E/DX2 analytically  !
 ! D25   D(8,3,5,14)           -62.7434         calculate D2E/DX2 analytically  !
 ! D26   D(1,6,7,2)             -4.09           calculate D2E/DX2 analytically  !
 ! D27   D(1,6,7,16)           176.7574         calculate D2E/DX2 analytically  !
 ! D28   D(15,6,7,2)           179.4104         calculate D2E/DX2 analytically  !
 ! D29   D(15,6,7,16)            0.2577         calculate D2E/DX2 analytically  !
 --------------------------------------------------------------------------------
 Trust Radius=3.00D-01 FncErr=1.00D-07 GrdErr=1.00D-06 EigMax=2.50D+02 EigMin=1.00D-04
 Number of steps in this run=    102 maximum allowed number of steps=    102.
 GradGradGradGradGradGradGradGradGradGradGradGradGradGradGradGradGradGrad

 Leave Link  103 at Sun Sep 29 07:22:31 2019, MaxMem=   671088640 cpu:               1.4 elap:               0.7
 (Enter /shared/centos7/gaussian/g16/l202.exe)
                          Input orientation:                          
 ---------------------------------------------------------------------
 Center     Atomic      Atomic             Coordinates (Angstroms)
 Number     Number       Type             X           Y           Z
 ---------------------------------------------------------------------
      1          8           0        0.736686    0.384174   -0.422750
      2          8           0        0.383168    0.149721    2.400079
      3          6           0        0.669877    1.769364   -0.688575
      4          6           0        0.311953    2.571446    0.562651
      5          6           0       -0.292204    2.029303   -1.800735
      6          6           0        1.742605    0.068997    0.461945
      7          6           0        1.584849   -0.076746    1.745660
      8          1           0        1.686991    2.112699   -1.026133
      9          1           0       -0.643275    2.210783    0.998167
     10          1           0        1.101678    2.469293    1.329062
     11          1           0        0.191521    3.661390    0.317398
     12          1           0       -1.331878    1.670028   -1.542501
     13          1           0        0.023051    1.521672   -2.736149
     14          1           0       -0.355885    3.134756   -2.009256
     15          1           0        2.725333   -0.116670   -0.000126
     16          1           0        2.402855   -0.375504    2.384434
     17          1           0        0.531846   -0.057378    3.367957
 ---------------------------------------------------------------------
                    Distance matrix (angstroms):
                    1          2          3          4          5
     1  O    0.000000
     2  O    2.854523   0.000000
     3  C    1.412047   3.499318   0.000000
     4  C    2.436303   3.040718   1.528729   0.000000
     5  C    2.379897   4.651429   1.493342   2.498904   0.000000
     6  C    1.376189   2.368744   2.316396   2.884296   3.619803
     7  C    2.373569   1.386935   3.189168   3.167443   4.531632
     8  H    2.062753   4.158385   1.125320   2.150678   2.127011
     9  H    2.694401   2.695722   2.182731   1.110050   2.826666
    10  H    2.747687   2.654006   2.178809   1.105209   3.454291
    11  H    3.403699   4.087311   2.195579   1.123668   2.717386
    12  H    2.680713   4.560334   2.178550   2.818936   1.129905
    13  H    2.674882   5.328487   2.161550   3.473842   1.109989
    14  H    3.358037   5.375766   2.158862   2.716253   1.126748
    15  H    2.093842   3.364177   2.873323   3.656104   4.117393
    16  H    3.351643   2.086922   4.128808   4.046638   5.528298
    17  H    3.821830   1.000891   4.451009   3.850819   5.634596
                    6          7          8          9         10
     6  C    0.000000
     7  C    1.301558   0.000000
     8  H    2.528674   3.533687   0.000000
     9  H    3.250724   3.279645   3.088293   0.000000
    10  H    2.631369   2.624752   2.452895   1.794764   0.000000
    11  H    3.915616   4.237329   2.537706   1.806818   1.809128
    12  H    4.004192   4.729748   3.094538   2.687300   3.847972
    13  H    3.910875   5.008070   2.458082   3.855384   4.311307
    14  H    4.461992   5.308445   2.486861   3.159258   3.702931
    15  H    1.101697   2.085682   2.664757   4.214398   3.330196
    16  H    2.080739   1.080011   4.282007   4.229601   3.301476
    17  H    3.150684   1.934176   5.035039   3.484447   3.296342
                   11         12         13         14         15
    11  H    0.000000
    12  H    3.121777   0.000000
    13  H    3.732416   1.811805   0.000000
    14  H    2.447512   1.820947   1.809422   0.000000
    15  H    4.560128   4.693844   4.179990   4.909408   0.000000
    16  H    5.045706   5.792517   5.956771   6.263951   2.420147
    17  H    4.821926   5.529014   6.325534   6.316027   4.019811
                   16         17
    16  H    0.000000
    17  H    2.137568   0.000000
 Stoichiometry    C5H10O2
 Framework group  C1[X(C5H10O2)]
 Deg. of freedom    45
 Full point group                 C1      NOp   1
 Largest Abelian subgroup         C1      NOp   1
 Largest concise Abelian subgroup C1      NOp   1
                         Standard orientation:                         
 ---------------------------------------------------------------------
 Center     Atomic      Atomic             Coordinates (Angstroms)
 Number     Number       Type             X           Y           Z
 ---------------------------------------------------------------------
      1          8           0        0.259740   -0.889016   -0.391404
      2          8           0       -2.050398    0.771865   -0.621705
      3          6           0        1.208626   -0.106177    0.301890
      4          6           0        0.708134    1.319464    0.534410
      5          6           0        2.511013   -0.118112   -0.428668
      6          6           0       -0.899017   -1.066789    0.329411
      7          6           0       -1.970608   -0.338507    0.205517
      8          1           0        1.377004   -0.570440    1.313055
      9          1           0        0.434260    1.799474   -0.428292
     10          1           0       -0.184817    1.316668    1.185653
     11          1           0        1.502848    1.947278    1.021144
     12          1           0        2.404944    0.300479   -1.472802
     13          1           0        2.919434   -1.146861   -0.511997
     14          1           0        3.268215    0.513756    0.116262
     15          1           0       -0.893242   -1.932595    1.010648
     16          1           0       -2.869463   -0.557763    0.762661
     17          1           0       -2.982808    1.127938   -0.546829
 ---------------------------------------------------------------------
 Rotational constants (GHZ):           5.0361041           1.7007848           1.4613526
 Leave Link  202 at Sun Sep 29 07:22:33 2019, MaxMem=   671088640 cpu:               4.4 elap:               2.2
 (Enter /shared/centos7/gaussian/g16/l301.exe)
 Standard basis: CC-pVTZ (5D, 7F)
 Ernie: Thresh=  0.10000D-02 Tol=  0.10000D-05 Strict=F.
 Ernie:  21 primitive shells out of 262 were deleted.
 There are   395 symmetry adapted cartesian basis functions of A   symmetry.
 There are   350 symmetry adapted basis functions of A   symmetry.
   350 basis functions,   534 primitive gaussians,   395 cartesian basis functions
    28 alpha electrons       28 beta electrons
       nuclear repulsion energy       320.7485360651 Hartrees.
 IExCor= 4336 DFT=T Ex+Corr=M062X ExCW=0 ScaHFX=  0.540000
 ScaDFX=  1.000000  1.000000  1.000000  1.000000 ScalE2=  1.000000  1.000000
 IRadAn=      5 IRanWt=     -1 IRanGd=            0 ICorTp=0 IEmpDi=  4
 NAtoms=   17 NActive=   17 NUniq=   17 SFac= 1.00D+00 NAtFMM=   60 NAOKFM=F Big=F
 Integral buffers will be    131072 words long.
 Raffenetti 2 integral format.
 Two-electron integral symmetry is turned on.
 Leave Link  301 at Sun Sep 29 07:22:34 2019, MaxMem=   671088640 cpu:               1.7 elap:               0.9
 (Enter /shared/centos7/gaussian/g16/l302.exe)
 NPDir=0 NMtPBC=     1 NCelOv=     1 NCel=       1 NClECP=     1 NCelD=      1
         NCelK=      1 NCelE2=     1 NClLst=     1 CellRange=     0.0.
 One-electron integrals computed using PRISM.
 One-electron integral symmetry used in STVInt
 NBasis=   350 RedAO= T EigKep=  2.69D-04  NBF=   350
 NBsUse=   350 1.00D-06 EigRej= -1.00D+00 NBFU=   350
 Precomputing XC quadrature grid using
 IXCGrd= 4 IRadAn=           5 IRanWt=          -1 IRanGd=           0 AccXCQ= 0.00D+00.
 Generated NRdTot=       0 NPtTot=           0 NUsed=           0 NTot=          32
 NSgBfM=   395   395   395   395   395 MxSgAt=    17 MxSgA2=    17.
 Leave Link  302 at Sun Sep 29 07:23:23 2019, MaxMem=   671088640 cpu:              98.7 elap:              49.4
 (Enter /shared/centos7/gaussian/g16/l303.exe)
 DipDrv:  MaxL=1.
 Leave Link  303 at Sun Sep 29 07:23:29 2019, MaxMem=   671088640 cpu:              10.9 elap:               5.5
 (Enter /shared/centos7/gaussian/g16/l401.exe)
 ExpMin= 1.03D-01 ExpMax= 1.53D+04 ExpMxC= 5.22D+02 IAcc=3 IRadAn=         5 AccDes= 0.00D+00
 Harris functional with IExCor= 1009 and IRadAn=       5 diagonalized for initial guess.
 HarFok:  IExCor= 1009 AccDes= 0.00D+00 IRadAn=         5 IDoV= 1 UseB2=F ITyADJ=14
 ICtDFT=  3500011 ScaDFX=  1.000000  1.000000  1.000000  1.000000
 FoFCou: FMM=F IPFlag=           0 FMFlag=      100000 FMFlg1=           0
         NFxFlg=           0 DoJE=T BraDBF=F KetDBF=T FulRan=T
         wScrn=  0.000000 ICntrl=       500 IOpCl=  0 I1Cent=   200000004 NGrid=           0
         NMat0=    1 NMatS0=      1 NMatT0=    0 NMatD0=    1 NMtDS0=    0 NMtDT0=    0
 Petite list used in FoFCou.
 Harris En= -346.814488571366    
 JPrj=0 DoOrth=F DoCkMO=F.
 Leave Link  401 at Sun Sep 29 07:23:57 2019, MaxMem=   671088640 cpu:              56.1 elap:              28.1
 (Enter /shared/centos7/gaussian/g16/l502.exe)
 Integral symmetry usage will be decided dynamically.
 Closed shell SCF:
 Using DIIS extrapolation, IDIIS=  1040.
 NGot=   671088640 LenX=   670765141 LenY=   670608675
 Requested convergence on RMS density matrix=1.00D-08 within 900 cycles.
 Requested convergence on MAX density matrix=1.00D-06.
 Requested convergence on             energy=1.00D-06.
 No special actions if energy rises.
 Fock matrices will be formed incrementally for  20 cycles.
 Integral accuracy reduced to 1.0D-05 until final iterations.

 Cycle   1  Pass 0  IDiag  1:
 FoFJK:  IHMeth= 1 ICntrl=       0 DoSepK=F KAlg= 0 I1Cent=           0 FoldK=F
 IRaf= 950000000 NMat=       1 IRICut=       1 DoRegI=T DoRafI=F ISym2E= 0 IDoP0=0 IntGTp=1.
 FoFCou: FMM=F IPFlag=           0 FMFlag=      100000 FMFlg1=           0
         NFxFlg=           0 DoJE=F BraDBF=F KetDBF=F FulRan=T
         wScrn=  0.000000 ICntrl=         0 IOpCl=  0 I1Cent=           0 NGrid=           0
         NMat0=    1 NMatS0=      1 NMatT0=    0 NMatD0=    1 NMtDS0=    0 NMtDT0=    0
 Symmetry not used in FoFCou.
 E= -346.695911429349    
 DIIS: error= 1.82D-02 at cycle   1 NSaved=   1.
 NSaved= 1 IEnMin= 1 EnMin= -346.695911429349     IErMin= 1 ErrMin= 1.82D-02
 ErrMax= 1.82D-02  0.00D+00 EMaxC= 1.00D-01 BMatC= 2.90D-01 BMatP= 2.90D-01
 IDIUse=3 WtCom= 8.18D-01 WtEn= 1.82D-01
 Coeff-Com:  0.100D+01
 Coeff-En:   0.100D+01
 Coeff:      0.100D+01
 Gap=     0.361 Goal=   None    Shift=    0.000
 GapD=    0.361 DampG=1.000 DampE=0.500 DampFc=0.5000 IDamp=-1.
 Damping current iteration by 5.00D-01
 RMSDP=2.47D-03 MaxDP=1.49D-01              OVMax= 1.45D-01

 Cycle   2  Pass 0  IDiag  1:
 RMSU=  1.23D-03    CP:  1.00D+00
 E= -346.816333800658     Delta-E=       -0.120422371309 Rises=F Damp=T
 DIIS: error= 6.07D-03 at cycle   2 NSaved=   2.
 NSaved= 2 IEnMin= 2 EnMin= -346.816333800658     IErMin= 2 ErrMin= 6.07D-03
 ErrMax= 6.07D-03  0.00D+00 EMaxC= 1.00D-01 BMatC= 2.13D-02 BMatP= 2.90D-01
 IDIUse=3 WtCom= 9.39D-01 WtEn= 6.07D-02
 Coeff-Com: -0.109D+00 0.111D+01
 Coeff-En:   0.000D+00 0.100D+01
 Coeff:     -0.102D+00 0.110D+01
 Gap=     0.338 Goal=   None    Shift=    0.000
 RMSDP=5.32D-04 MaxDP=2.72D-02 DE=-1.20D-01 OVMax= 7.29D-02

 Cycle   3  Pass 0  IDiag  1:
 RMSU=  4.81D-04    CP:  1.00D+00  8.16D-01
 E= -346.927856819683     Delta-E=       -0.111523019025 Rises=F Damp=F
 DIIS: error= 2.57D-03 at cycle   3 NSaved=   3.
 NSaved= 3 IEnMin= 3 EnMin= -346.927856819683     IErMin= 3 ErrMin= 2.57D-03
 ErrMax= 2.57D-03  0.00D+00 EMaxC= 1.00D-01 BMatC= 4.47D-03 BMatP= 2.13D-02
 IDIUse=3 WtCom= 9.74D-01 WtEn= 2.57D-02
 Coeff-Com: -0.817D-01 0.328D+00 0.753D+00
 Coeff-En:   0.000D+00 0.000D+00 0.100D+01
 Coeff:     -0.796D-01 0.320D+00 0.760D+00
 Gap=     0.337 Goal=   None    Shift=    0.000
 RMSDP=2.16D-04 MaxDP=1.25D-02 DE=-1.12D-01 OVMax= 1.38D-02

 Cycle   4  Pass 0  IDiag  1:
 RMSU=  1.35D-04    CP:  1.00D+00  9.40D-01  8.53D-01
 E= -346.930371484702     Delta-E=       -0.002514665019 Rises=F Damp=F
 DIIS: error= 1.14D-03 at cycle   4 NSaved=   4.
 NSaved= 4 IEnMin= 4 EnMin= -346.930371484702     IErMin= 4 ErrMin= 1.14D-03
 ErrMax= 1.14D-03  0.00D+00 EMaxC= 1.00D-01 BMatC= 1.17D-03 BMatP= 4.47D-03
 IDIUse=3 WtCom= 9.89D-01 WtEn= 1.14D-02
 Coeff-Com: -0.284D-01 0.765D-01 0.381D+00 0.571D+00
 Coeff-En:   0.000D+00 0.000D+00 0.155D+00 0.845D+00
 Coeff:     -0.281D-01 0.756D-01 0.378D+00 0.574D+00
 Gap=     0.334 Goal=   None    Shift=    0.000
 RMSDP=7.45D-05 MaxDP=4.45D-03 DE=-2.51D-03 OVMax= 6.69D-03

 Cycle   5  Pass 0  IDiag  1:
 RMSU=  3.06D-05    CP:  1.00D+00  9.11D-01  9.13D-01  6.35D-01
 E= -346.931217083456     Delta-E=       -0.000845598754 Rises=F Damp=F
 DIIS: error= 2.34D-04 at cycle   5 NSaved=   5.
 NSaved= 5 IEnMin= 5 EnMin= -346.931217083456     IErMin= 5 ErrMin= 2.34D-04
 ErrMax= 2.34D-04  0.00D+00 EMaxC= 1.00D-01 BMatC= 3.10D-05 BMatP= 1.17D-03
 IDIUse=3 WtCom= 9.98D-01 WtEn= 2.34D-03
 Coeff-Com: -0.531D-02 0.980D-02 0.974D-01 0.213D+00 0.685D+00
 Coeff-En:   0.000D+00 0.000D+00 0.000D+00 0.000D+00 0.100D+01
 Coeff:     -0.529D-02 0.978D-02 0.972D-01 0.213D+00 0.685D+00
 Gap=     0.334 Goal=   None    Shift=    0.000
 RMSDP=1.09D-05 MaxDP=3.43D-04 DE=-8.46D-04 OVMax= 8.15D-04

 Cycle   6  Pass 0  IDiag  1:
 RMSU=  8.24D-06    CP:  1.00D+00  9.08D-01  9.19D-01  6.63D-01  8.69D-01
 E= -346.931238654581     Delta-E=       -0.000021571125 Rises=F Damp=F
 DIIS: error= 3.95D-05 at cycle   6 NSaved=   6.
 NSaved= 6 IEnMin= 6 EnMin= -346.931238654581     IErMin= 6 ErrMin= 3.95D-05
 ErrMax= 3.95D-05  0.00D+00 EMaxC= 1.00D-01 BMatC= 1.48D-06 BMatP= 3.10D-05
 IDIUse=1 WtCom= 1.00D+00 WtEn= 0.00D+00
 Coeff-Com:  0.396D-05-0.122D-02 0.101D-01 0.421D-01 0.210D+00 0.739D+00
 Coeff:      0.396D-05-0.122D-02 0.101D-01 0.421D-01 0.210D+00 0.739D+00
 Gap=     0.334 Goal=   None    Shift=    0.000
 RMSDP=3.25D-06 MaxDP=1.40D-04 DE=-2.16D-05 OVMax= 4.20D-04

 Initial convergence to 1.0D-05 achieved.  Increase integral accuracy.
 Cycle   7  Pass 1  IDiag  1:
 E= -346.931218354490     Delta-E=        0.000020300091 Rises=F Damp=F
 DIIS: error= 3.80D-05 at cycle   1 NSaved=   1.
 NSaved= 1 IEnMin= 1 EnMin= -346.931218354490     IErMin= 1 ErrMin= 3.80D-05
 ErrMax= 3.80D-05  0.00D+00 EMaxC= 1.00D-01 BMatC= 7.18D-07 BMatP= 7.18D-07
 IDIUse=1 WtCom= 1.00D+00 WtEn= 0.00D+00
 Coeff-Com:  0.100D+01
 Coeff:      0.100D+01
 Gap=     0.334 Goal=   None    Shift=    0.000
 RMSDP=3.25D-06 MaxDP=1.40D-04 DE= 2.03D-05 OVMax= 1.54D-04

 Cycle   8  Pass 1  IDiag  1:
 RMSU=  7.08D-06    CP:  1.00D+00
 E= -346.931218577067     Delta-E=       -0.000000222577 Rises=F Damp=F
 DIIS: error= 1.56D-05 at cycle   2 NSaved=   2.
 NSaved= 2 IEnMin= 2 EnMin= -346.931218577067     IErMin= 2 ErrMin= 1.56D-05
 ErrMax= 1.56D-05  0.00D+00 EMaxC= 1.00D-01 BMatC= 2.72D-07 BMatP= 7.18D-07
 IDIUse=1 WtCom= 1.00D+00 WtEn= 0.00D+00
 Coeff-Com:  0.343D+00 0.657D+00
 Coeff:      0.343D+00 0.657D+00
 Gap=     0.334 Goal=   None    Shift=    0.000
 RMSDP=1.22D-06 MaxDP=6.21D-05 DE=-2.23D-07 OVMax= 1.72D-04

 Cycle   9  Pass 1  IDiag  1:
 RMSU=  1.22D-06    CP:  1.00D+00  9.89D-01
 E= -346.931218753348     Delta-E=       -0.000000176281 Rises=F Damp=F
 DIIS: error= 7.06D-06 at cycle   3 NSaved=   3.
 NSaved= 3 IEnMin= 3 EnMin= -346.931218753348     IErMin= 3 ErrMin= 7.06D-06
 ErrMax= 7.06D-06  0.00D+00 EMaxC= 1.00D-01 BMatC= 5.31D-08 BMatP= 2.72D-07
 IDIUse=1 WtCom= 1.00D+00 WtEn= 0.00D+00
 Coeff-Com: -0.119D-01 0.299D+00 0.713D+00
 Coeff:     -0.119D-01 0.299D+00 0.713D+00
 Gap=     0.334 Goal=   None    Shift=    0.000
 RMSDP=4.58D-07 MaxDP=2.41D-05 DE=-1.76D-07 OVMax= 4.27D-05

 Cycle  10  Pass 1  IDiag  1:
 RMSU=  2.39D-07    CP:  1.00D+00  1.02D+00  7.46D-01
 E= -346.931218791941     Delta-E=       -0.000000038594 Rises=F Damp=F
 DIIS: error= 1.49D-06 at cycle   4 NSaved=   4.
 NSaved= 4 IEnMin= 4 EnMin= -346.931218791941     IErMin= 4 ErrMin= 1.49D-06
 ErrMax= 1.49D-06  0.00D+00 EMaxC= 1.00D-01 BMatC= 1.42D-09 BMatP= 5.31D-08
 IDIUse=1 WtCom= 1.00D+00 WtEn= 0.00D+00
 Coeff-Com: -0.114D-01 0.116D+00 0.300D+00 0.596D+00
 Coeff:     -0.114D-01 0.116D+00 0.300D+00 0.596D+00
 Gap=     0.334 Goal=   None    Shift=    0.000
 RMSDP=9.32D-08 MaxDP=3.65D-06 DE=-3.86D-08 OVMax= 1.01D-05

 Cycle  11  Pass 1  IDiag  1:
 RMSU=  8.73D-08    CP:  1.00D+00  1.02D+00  7.69D-01  9.98D-01
 E= -346.931218793067     Delta-E=       -0.000000001126 Rises=F Damp=F
 DIIS: error= 4.17D-07 at cycle   5 NSaved=   5.
 NSaved= 5 IEnMin= 5 EnMin= -346.931218793067     IErMin= 5 ErrMin= 4.17D-07
 ErrMax= 4.17D-07  0.00D+00 EMaxC= 1.00D-01 BMatC= 1.21D-10 BMatP= 1.42D-09
 IDIUse=1 WtCom= 1.00D+00 WtEn= 0.00D+00
 Coeff-Com: -0.106D-02-0.167D-01-0.410D-01 0.166D+00 0.893D+00
 Coeff:     -0.106D-02-0.167D-01-0.410D-01 0.166D+00 0.893D+00
 Gap=     0.334 Goal=   None    Shift=    0.000
 RMSDP=4.61D-08 MaxDP=2.81D-06 DE=-1.13D-09 OVMax= 3.81D-06

 Cycle  12  Pass 1  IDiag  1:
 RMSU=  2.64D-08    CP:  1.00D+00  1.03D+00  7.65D-01  1.14D+00  9.77D-01
 E= -346.931218793208     Delta-E=       -0.000000000141 Rises=F Damp=F
 DIIS: error= 1.65D-07 at cycle   6 NSaved=   6.
 NSaved= 6 IEnMin= 6 EnMin= -346.931218793208     IErMin= 6 ErrMin= 1.65D-07
 ErrMax= 1.65D-07  0.00D+00 EMaxC= 1.00D-01 BMatC= 1.57D-11 BMatP= 1.21D-10
 IDIUse=1 WtCom= 1.00D+00 WtEn= 0.00D+00
 Coeff-Com:  0.752D-03-0.184D-01-0.479D-01 0.127D-01 0.369D+00 0.684D+00
 Coeff:      0.752D-03-0.184D-01-0.479D-01 0.127D-01 0.369D+00 0.684D+00
 Gap=     0.334 Goal=   None    Shift=    0.000
 RMSDP=1.23D-08 MaxDP=3.82D-07 DE=-1.41D-10 OVMax= 1.42D-06

 Cycle  13  Pass 1  IDiag  1:
 RMSU=  8.56D-09    CP:  1.00D+00  1.03D+00  7.68D-01  1.16D+00  1.05D+00
                    CP:  9.21D-01
 E= -346.931218793228     Delta-E=       -0.000000000020 Rises=F Damp=F
 DIIS: error= 4.37D-08 at cycle   7 NSaved=   7.
 NSaved= 7 IEnMin= 7 EnMin= -346.931218793228     IErMin= 7 ErrMin= 4.37D-08
 ErrMax= 4.37D-08  0.00D+00 EMaxC= 1.00D-01 BMatC= 1.27D-12 BMatP= 1.57D-11
 IDIUse=1 WtCom= 1.00D+00 WtEn= 0.00D+00
 Coeff-Com:  0.361D-03-0.536D-02-0.146D-01-0.910D-02 0.568D-01 0.256D+00
 Coeff-Com:  0.716D+00
 Coeff:      0.361D-03-0.536D-02-0.146D-01-0.910D-02 0.568D-01 0.256D+00
 Coeff:      0.716D+00
 Gap=     0.334 Goal=   None    Shift=    0.000
 RMSDP=4.19D-09 MaxDP=2.39D-07 DE=-2.02D-11 OVMax= 3.97D-07

 SCF Done:  E(RM062X) =  -346.931218793     A.U. after   13 cycles
            NFock= 13  Conv=0.42D-08     -V/T= 2.0064
 KE= 3.447293327431D+02 PE=-1.451786060114D+03 EE= 4.393769725125D+02
 Leave Link  502 at Sun Sep 29 07:35:46 2019, MaxMem=   671088640 cpu:            1418.9 elap:             709.6
 (Enter /shared/centos7/gaussian/g16/l801.exe)
 DoSCS=F DFT=T ScalE2(SS,OS)=  1.000000  1.000000
 Range of M.O.s used for correlation:     1   350
 NBasis=   350 NAE=    28 NBE=    28 NFC=     0 NFV=     0
 NROrb=    350 NOA=    28 NOB=    28 NVA=   322 NVB=   322

 **** Warning!!: The largest alpha MO coefficient is  0.10815616D+02

 Leave Link  801 at Sun Sep 29 07:35:47 2019, MaxMem=   671088640 cpu:               1.7 elap:               0.9
 (Enter /shared/centos7/gaussian/g16/l1101.exe)
 Using compressed storage, NAtomX=    17.
 Will process     18 centers per pass.
 Leave Link 1101 at Sun Sep 29 07:36:18 2019, MaxMem=   671088640 cpu:              61.4 elap:              30.7
 (Enter /shared/centos7/gaussian/g16/l1102.exe)
 Symmetrizing basis deriv contribution to polar:
 IMax=3 JMax=2 DiffMx= 0.00D+00
 Leave Link 1102 at Sun Sep 29 07:36:22 2019, MaxMem=   671088640 cpu:               5.9 elap:               4.2
 (Enter /shared/centos7/gaussian/g16/l1110.exe)
 Forming Gx(P) for the SCF density, NAtomX=    17.
 Integral derivatives from FoFJK, PRISM(SPDF).
 Do as many integral derivatives as possible in FoFJK.
 G2DrvN: MDV=     671087280.
 G2DrvN: will do    18 centers at a time, making    1 passes.
 Calling FoFCou, ICntrl=  3107 FMM=F I1Cent=   0 AccDes= 0.00D+00.
 FoFJK:  IHMeth= 1 ICntrl=    3107 DoSepK=F KAlg= 0 I1Cent=           0 FoldK=F
 IRaf=         0 NMat=       1 IRICut=       1 DoRegI=T DoRafI=F ISym2E= 0 IDoP0=0 IntGTp=1.
 FoFCou: FMM=F IPFlag=           0 FMFlag=      100000 FMFlg1=           0
         NFxFlg=           0 DoJE=F BraDBF=F KetDBF=F FulRan=T
         wScrn=  0.000000 ICntrl=      3107 IOpCl=  0 I1Cent=           0 NGrid=           0
         NMat0=    1 NMatS0=      1 NMatT0=    0 NMatD0=    1 NMtDS0=    0 NMtDT0=    0
 Symmetry not used in FoFCou.
 End of G2Drv F.D. properties file   721 does not exist.
 End of G2Drv F.D. properties file   722 does not exist.
 End of G2Drv F.D. properties file   788 does not exist.
 Leave Link 1110 at Sun Sep 29 07:55:54 2019, MaxMem=   671088640 cpu:            2342.9 elap:            1171.6
 (Enter /shared/centos7/gaussian/g16/l1002.exe)
 Minotr:  Closed shell wavefunction.
          IDoAtm=11111111111111111
          Direct CPHF calculation.
          Differentiating once with respect to nuclear coordinates.
          Requested convergence is 1.0D-08 RMS, and 1.0D-07 maximum.
          Secondary convergence is 1.0D-12 RMS, and 1.0D-12 maximum.
          NewPWx=T KeepS1=F KeepF1=F KeepIn=T MapXYZ=F SortEE=F KeepMc=T.
         5109 words used for storage of precomputed grid.
 Two-electron integrals replicated using symmetry.
          MDV=     671088640 using IRadAn=       1.
          Solving linear equations simultaneously, MaxMat=     380.
 FoF2E skips out because all densities are zero.
 CalDSu exits because no D1Ps are significant.
 FoFJK:  IHMeth= 1 ICntrl=       0 DoSepK=F KAlg= 0 I1Cent=           0 FoldK=F
 IRaf= 940000000 NMat=      51 IRICut=     127 DoRegI=T DoRafI=T ISym2E= 2 IDoP0=3 IntGTp=3.
 FoFCou: FMM=F IPFlag=           0 FMFlag=      100000 FMFlg1=           0
         NFxFlg=           0 DoJE=F BraDBF=F KetDBF=F FulRan=T
         wScrn=  0.000000 ICntrl=         0 IOpCl=  0 I1Cent=           0 NGrid=           0
         NMat0=   51 NMatS0=     51 NMatT0=    0 NMatD0=   51 NMtDS0=    0 NMtDT0=    0
 Integrals replicated using symmetry in FoFCou.
 Raff kept on since  91.34% of shell-pairs survive, threshold=   0.20 IRatSp=91.
          There are    54 degrees of freedom in the 1st order CPHF.  IDoFFX=6 NUNeed=     0.
     48 vectors produced by pass  0 Test12= 1.67D-14 1.85D-09 XBig12= 7.33D-02 5.53D-02.
 AX will form    48 AO Fock derivatives at one time.
     48 vectors produced by pass  1 Test12= 1.67D-14 1.85D-09 XBig12= 9.59D-03 3.29D-02.
     48 vectors produced by pass  2 Test12= 1.67D-14 1.85D-09 XBig12= 2.60D-04 2.76D-03.
     48 vectors produced by pass  3 Test12= 1.67D-14 1.85D-09 XBig12= 1.72D-06 1.78D-04.
     48 vectors produced by pass  4 Test12= 1.67D-14 1.85D-09 XBig12= 1.21D-08 1.62D-05.
     48 vectors produced by pass  5 Test12= 1.67D-14 1.85D-09 XBig12= 7.05D-11 9.20D-07.
     23 vectors produced by pass  6 Test12= 1.67D-14 1.85D-09 XBig12= 3.10D-13 5.64D-08.
      3 vectors produced by pass  7 Test12= 1.67D-14 1.85D-09 XBig12= 1.21D-15 4.19D-09.
 InvSVY:  IOpt=1 It=  1 EMax= 3.89D-16
 Solved reduced A of dimension   314 with    54 vectors.
 End of Minotr F.D. properties file   721 does not exist.
 End of Minotr F.D. properties file   722 does not exist.
 End of Minotr F.D. properties file   788 does not exist.
 Leave Link 1002 at Sun Sep 29 08:27:56 2019, MaxMem=   671088640 cpu:            3844.6 elap:            1922.6
 (Enter /shared/centos7/gaussian/g16/l601.exe)
 Copying SCF densities to generalized density rwf, IOpCl= 0 IROHF=0.

 **********************************************************************

            Population analysis using the SCF density.

 **********************************************************************

 Orbital symmetries:
       Occupied  (A) (A) (A) (A) (A) (A) (A) (A) (A) (A) (A) (A)
                 (A) (A) (A) (A) (A) (A) (A) (A) (A) (A) (A) (A)
                 (A) (A) (A) (A)
       Virtual   (A) (A) (A) (A) (A) (A) (A) (A) (A) (A) (A) (A)
                 (A) (A) (A) (A) (A) (A) (A) (A) (A) (A) (A) (A)
                 (A) (A) (A) (A) (A) (A) (A) (A) (A) (A) (A) (A)
                 (A) (A) (A) (A) (A) (A) (A) (A) (A) (A) (A) (A)
                 (A) (A) (A) (A) (A) (A) (A) (A) (A) (A) (A) (A)
                 (A) (A) (A) (A) (A) (A) (A) (A) (A) (A) (A) (A)
                 (A) (A) (A) (A) (A) (A) (A) (A) (A) (A) (A) (A)
                 (A) (A) (A) (A) (A) (A) (A) (A) (A) (A) (A) (A)
                 (A) (A) (A) (A) (A) (A) (A) (A) (A) (A) (A) (A)
                 (A) (A) (A) (A) (A) (A) (A) (A) (A) (A) (A) (A)
                 (A) (A) (A) (A) (A) (A) (A) (A) (A) (A) (A) (A)
                 (A) (A) (A) (A) (A) (A) (A) (A) (A) (A) (A) (A)
                 (A) (A) (A) (A) (A) (A) (A) (A) (A) (A) (A) (A)
                 (A) (A) (A) (A) (A) (A) (A) (A) (A) (A) (A) (A)
                 (A) (A) (A) (A) (A) (A) (A) (A) (A) (A) (A) (A)
                 (A) (A) (A) (A) (A) (A) (A) (A) (A) (A) (A) (A)
                 (A) (A) (A) (A) (A) (A) (A) (A) (A) (A) (A) (A)
                 (A) (A) (A) (A) (A) (A) (A) (A) (A) (A) (A) (A)
                 (A) (A) (A) (A) (A) (A) (A) (A) (A) (A) (A) (A)
                 (A) (A) (A) (A) (A) (A) (A) (A) (A) (A) (A) (A)
                 (A) (A) (A) (A) (A) (A) (A) (A) (A) (A) (A) (A)
                 (A) (A) (A) (A) (A) (A) (A) (A) (A) (A) (A) (A)
                 (A) (A) (A) (A) (A) (A) (A) (A) (A) (A) (A) (A)
                 (A) (A) (A) (A) (A) (A) (A) (A) (A) (A) (A) (A)
                 (A) (A) (A) (A) (A) (A) (A) (A) (A) (A) (A) (A)
                 (A) (A) (A) (A) (A) (A) (A) (A) (A) (A) (A) (A)
                 (A) (A) (A) (A) (A) (A) (A) (A) (A) (A)
 The electronic state is 1-A.
 Alpha  occ. eigenvalues --  -19.65466 -19.63030 -10.58924 -10.58753 -10.57392
 Alpha  occ. eigenvalues --  -10.52757 -10.51946  -1.17881  -1.15954  -0.88686
 Alpha  occ. eigenvalues --   -0.83901  -0.76864  -0.68479  -0.64803  -0.61434
 Alpha  occ. eigenvalues --   -0.57454  -0.53451  -0.52307  -0.50269  -0.46382
 Alpha  occ. eigenvalues --   -0.45037  -0.44189  -0.43971  -0.42409  -0.40518
 Alpha  occ. eigenvalues --   -0.38255  -0.33387  -0.28986
 Alpha virt. eigenvalues --    0.04424   0.07422   0.08230   0.09965   0.11944
 Alpha virt. eigenvalues --    0.12384   0.12809   0.14301   0.15673   0.17355
 Alpha virt. eigenvalues --    0.17627   0.18680   0.21518   0.23964   0.26462
 Alpha virt. eigenvalues --    0.28452   0.30157   0.31182   0.31972   0.34064
 Alpha virt. eigenvalues --    0.35394   0.35944   0.37136   0.38274   0.40849
 Alpha virt. eigenvalues --    0.41798   0.42898   0.43618   0.44737   0.46020
 Alpha virt. eigenvalues --    0.47832   0.48119   0.49047   0.49733   0.50820
 Alpha virt. eigenvalues --    0.51361   0.52404   0.53444   0.53562   0.55206
 Alpha virt. eigenvalues --    0.55818   0.57379   0.59674   0.63142   0.63412
 Alpha virt. eigenvalues --    0.66099   0.68340   0.68758   0.70565   0.73232
 Alpha virt. eigenvalues --    0.74724   0.78289   0.79110   0.80947   0.81533
 Alpha virt. eigenvalues --    0.84246   0.85943   0.87903   0.89958   0.90768
 Alpha virt. eigenvalues --    0.93053   0.95921   0.97970   0.98279   1.00281
 Alpha virt. eigenvalues --    1.01203   1.03073   1.04634   1.06453   1.07152
 Alpha virt. eigenvalues --    1.09371   1.10004   1.11427   1.13982   1.14398
 Alpha virt. eigenvalues --    1.15569   1.16748   1.18439   1.19508   1.20044
 Alpha virt. eigenvalues --    1.23457   1.25368   1.25885   1.28060   1.28456
 Alpha virt. eigenvalues --    1.29685   1.31615   1.32687   1.33283   1.35336
 Alpha virt. eigenvalues --    1.36981   1.37462   1.39732   1.40787   1.42970
 Alpha virt. eigenvalues --    1.44966   1.45906   1.47629   1.48602   1.50665
 Alpha virt. eigenvalues --    1.52460   1.53814   1.56117   1.60342   1.61839
 Alpha virt. eigenvalues --    1.63030   1.63774   1.67203   1.75885   1.86809
 Alpha virt. eigenvalues --    1.89115   1.98512   2.02294   2.04725   2.08108
 Alpha virt. eigenvalues --    2.09756   2.12042   2.14793   2.17736   2.18073
 Alpha virt. eigenvalues --    2.21862   2.26995   2.31272   2.32316   2.36120
 Alpha virt. eigenvalues --    2.37043   2.39651   2.41169   2.44634   2.45627
 Alpha virt. eigenvalues --    2.48276   2.52199   2.55196   2.57128   2.58268
 Alpha virt. eigenvalues --    2.60024   2.62943   2.63226   2.65115   2.69297
 Alpha virt. eigenvalues --    2.71853   2.73828   2.76358   2.77202   2.80210
 Alpha virt. eigenvalues --    2.82280   2.83469   2.83925   2.84850   2.87429
 Alpha virt. eigenvalues --    2.88662   2.90289   2.93482   2.93851   2.94427
 Alpha virt. eigenvalues --    2.95352   2.97254   2.99372   3.00405   3.02496
 Alpha virt. eigenvalues --    3.04084   3.05145   3.06520   3.07764   3.09195
 Alpha virt. eigenvalues --    3.09935   3.11504   3.12407   3.12942   3.14754
 Alpha virt. eigenvalues --    3.16239   3.17090   3.17255   3.19317   3.23170
 Alpha virt. eigenvalues --    3.24142   3.25624   3.28219   3.29455   3.29925
 Alpha virt. eigenvalues --    3.30984   3.32408   3.33942   3.35968   3.37386
 Alpha virt. eigenvalues --    3.38199   3.39179   3.40489   3.43008   3.44504
 Alpha virt. eigenvalues --    3.45948   3.47254   3.49446   3.51484   3.51727
 Alpha virt. eigenvalues --    3.53403   3.55751   3.56997   3.59044   3.59436
 Alpha virt. eigenvalues --    3.61926   3.64784   3.65792   3.68458   3.70611
 Alpha virt. eigenvalues --    3.73694   3.74932   3.77963   3.78488   3.79839
 Alpha virt. eigenvalues --    3.80568   3.81559   3.83574   3.84783   3.85338
 Alpha virt. eigenvalues --    3.87603   3.89712   3.91399   3.92128   3.93319
 Alpha virt. eigenvalues --    3.95441   3.97072   3.98706   3.99993   4.01644
 Alpha virt. eigenvalues --    4.02379   4.04695   4.04941   4.07875   4.08500
 Alpha virt. eigenvalues --    4.10653   4.11442   4.12821   4.13609   4.16468
 Alpha virt. eigenvalues --    4.18172   4.20846   4.25374   4.26763   4.28331
 Alpha virt. eigenvalues --    4.29999   4.33476   4.36352   4.37252   4.41742
 Alpha virt. eigenvalues --    4.44931   4.45864   4.49753   4.51393   4.53991
 Alpha virt. eigenvalues --    4.54695   4.58878   4.65450   4.66037   4.68245
 Alpha virt. eigenvalues --    4.69595   4.72252   4.73285   4.75158   4.77474
 Alpha virt. eigenvalues --    4.81768   4.85077   4.87542   4.92388   4.94881
 Alpha virt. eigenvalues --    4.95586   4.97988   5.03233   5.05237   5.05969
 Alpha virt. eigenvalues --    5.07230   5.08386   5.11129   5.12293   5.20186
 Alpha virt. eigenvalues --    5.21681   5.23595   5.24484   5.25892   5.29408
 Alpha virt. eigenvalues --    5.31777   5.33478   5.37635   5.44630   5.47695
 Alpha virt. eigenvalues --    5.49221   5.57795   5.60797   5.67028   5.76017
 Alpha virt. eigenvalues --    5.77481   5.78329   5.80878   5.81466   5.85908
 Alpha virt. eigenvalues --    5.93963   5.99451   6.04519   6.24518   6.28003
 Alpha virt. eigenvalues --    6.34099   6.51024   6.55872   6.58149   6.66538
 Alpha virt. eigenvalues --    6.73756   6.77390   6.80936   6.85134   7.02916
 Alpha virt. eigenvalues --    7.11436   7.21815   7.26281   7.30271   7.41755
 Alpha virt. eigenvalues --   10.08646  11.17424  11.59496  11.92553  13.24061
 Alpha virt. eigenvalues --   13.28176  14.29992
          Condensed to atoms (all electrons):
               1          2          3          4          5          6
     1  O    7.869120   0.004212   0.321402  -0.057968  -0.049473   0.332304
     2  O    0.004212   7.779756   0.005135  -0.004136  -0.000150  -0.089342
     3  C    0.321402   0.005135   4.837783   0.301947   0.344167  -0.072727
     4  C   -0.057968  -0.004136   0.301947   5.156614  -0.066804  -0.012527
     5  C   -0.049473  -0.000150   0.344167  -0.066804   4.963255   0.004034
     6  C    0.332304  -0.089342  -0.072727  -0.012527   0.004034   5.057228
     7  C   -0.063479   0.356670  -0.015378   0.004808   0.000034   0.463485
     8  H   -0.057634  -0.000113   0.406891  -0.083521  -0.037633   0.004924
     9  H    0.001830   0.004777  -0.035715   0.385469  -0.004986   0.000638
    10  H   -0.001581  -0.001306  -0.033798   0.396213   0.008906   0.000709
    11  H    0.004423   0.000754  -0.020868   0.382769  -0.009013  -0.001339
    12  H    0.001448  -0.000022  -0.038148  -0.010287   0.396606   0.000187
    13  H    0.003057  -0.000004  -0.036869   0.010994   0.397425   0.000628
    14  H    0.003791   0.000001  -0.040085  -0.002542   0.392399  -0.000160
    15  H   -0.046127   0.002852   0.002657  -0.003486  -0.000090   0.449463
    16  H    0.004917  -0.049018   0.000065  -0.000216   0.000027  -0.080736
    17  H   -0.000212   0.323078  -0.000223   0.000103   0.000008   0.015373
               7          8          9         10         11         12
     1  O   -0.063479  -0.057634   0.001830  -0.001581   0.004423   0.001448
     2  O    0.356670  -0.000113   0.004777  -0.001306   0.000754  -0.000022
     3  C   -0.015378   0.406891  -0.035715  -0.033798  -0.020868  -0.038148
     4  C    0.004808  -0.083521   0.385469   0.396213   0.382769  -0.010287
     5  C    0.000034  -0.037633  -0.004986   0.008906  -0.009013   0.396606
     6  C    0.463485   0.004924   0.000638   0.000709  -0.001339   0.000187
     7  C    4.976391  -0.007638  -0.001495  -0.003749  -0.000269  -0.000355
     8  H   -0.007638   0.670762   0.009891  -0.008701   0.000242   0.010468
     9  H   -0.001495   0.009891   0.551353  -0.033859  -0.027137   0.004082
    10  H   -0.003749  -0.008701  -0.033859   0.570376  -0.026699  -0.000083
    11  H   -0.000269   0.000242  -0.027137  -0.026699   0.584710   0.000533
    12  H   -0.000355   0.010468   0.004082  -0.000083   0.000533   0.581000
    13  H    0.000226  -0.011595  -0.000357  -0.000467  -0.000181  -0.030217
    14  H    0.000043  -0.002829   0.000227  -0.000010  -0.000246  -0.032333
    15  H   -0.101843   0.010599   0.000236   0.000085   0.000062   0.000135
    16  H    0.428643   0.000171   0.000358  -0.000409   0.000055   0.000002
    17  H   -0.040063   0.000000  -0.000254   0.000560  -0.000056   0.000000
              13         14         15         16         17
     1  O    0.003057   0.003791  -0.046127   0.004917  -0.000212
     2  O   -0.000004   0.000001   0.002852  -0.049018   0.323078
     3  C   -0.036869  -0.040085   0.002657   0.000065  -0.000223
     4  C    0.010994  -0.002542  -0.003486  -0.000216   0.000103
     5  C    0.397425   0.392399  -0.000090   0.000027   0.000008
     6  C    0.000628  -0.000160   0.449463  -0.080736   0.015373
     7  C    0.000226   0.000043  -0.101843   0.428643  -0.040063
     8  H   -0.011595  -0.002829   0.010599   0.000171   0.000000
     9  H   -0.000357   0.000227   0.000236   0.000358  -0.000254
    10  H   -0.000467  -0.000010   0.000085  -0.000409   0.000560
    11  H   -0.000181  -0.000246   0.000062   0.000055  -0.000056
    12  H   -0.030217  -0.032333   0.000135   0.000002   0.000000
    13  H    0.577358  -0.029472  -0.000236  -0.000005   0.000000
    14  H   -0.029472   0.609687   0.000043  -0.000004   0.000000
    15  H   -0.000236   0.000043   0.561911  -0.003448  -0.000399
    16  H   -0.000005  -0.000004  -0.003448   0.599875  -0.014112
    17  H    0.000000   0.000000  -0.000399  -0.014112   0.448820
 Mulliken charges:
               1
     1  O   -0.270028
     2  O   -0.333144
     3  C    0.073765
     4  C   -0.397429
     5  C   -0.338711
     6  C   -0.072142
     7  C    0.003969
     8  H    0.095717
     9  H    0.144943
    10  H    0.133812
    11  H    0.112261
    12  H    0.116983
    13  H    0.119716
    14  H    0.101492
    15  H    0.127586
    16  H    0.113834
    17  H    0.267377
 Sum of Mulliken charges =  -0.00000
 Mulliken charges with hydrogens summed into heavy atoms:
               1
     1  O   -0.270028
     2  O   -0.065767
     3  C    0.169482
     4  C   -0.006414
     5  C   -0.000520
     6  C    0.055444
     7  C    0.117803
 APT charges:
               1
     1  O   -0.198466
     2  O   -0.887917
     3  C   -0.194284
     4  C   -0.959444
     5  C   -1.230899
     6  C   -0.511653
     7  C   -0.299932
     8  H    0.320821
     9  H    0.282754
    10  H    0.253622
    11  H    0.455535
    12  H    0.304826
    13  H    0.428901
    14  H    0.440887
    15  H    0.430421
    16  H    0.512181
    17  H    0.852646
 Sum of APT charges =  -0.00000
 APT charges with hydrogens summed into heavy atoms:
               1
     1  O   -0.198466
     2  O   -0.035271
     3  C    0.126537
     4  C    0.032467
     5  C   -0.056285
     6  C   -0.081231
     7  C    0.212249
 Electronic spatial extent (au):  <R**2>=            882.9103
 Charge=              0.0000 electrons
 Dipole moment (field-independent basis, Debye):
    X=             -1.7001    Y=              0.6951    Z=              1.6544  Tot=              2.4719
 Quadrupole moment (field-independent basis, Debye-Ang):
   XX=            -32.4605   YY=            -44.1685   ZZ=            -45.6239
   XY=             -1.6329   XZ=             -0.8340   YZ=             -2.0095
 Traceless Quadrupole moment (field-independent basis, Debye-Ang):
   XX=              8.2905   YY=             -3.4176   ZZ=             -4.8729
   XY=             -1.6329   XZ=             -0.8340   YZ=             -2.0095
 Octapole moment (field-independent basis, Debye-Ang**2):
  XXX=            -46.6724  YYY=             -0.0370  ZZZ=             -4.7615  XYY=             -6.2262
  XXY=             10.8108  XXZ=              0.1504  XZZ=             -2.0019  YZZ=              0.1090
  YYZ=              0.8856  XYZ=              2.6987
 Hexadecapole moment (field-independent basis, Debye-Ang**3):
 XXXX=           -655.4366 YYYY=           -258.4934 ZZZZ=           -129.2426 XXXY=            -49.1652
 XXXZ=             12.9708 YYYX=            -17.6308 YYYZ=             -8.4581 ZZZX=              3.2373
 ZZZY=             -3.8478 XXYY=           -159.7150 XXZZ=           -152.7160 YYZZ=            -62.4383
 XXYZ=             -6.5975 YYXZ=              2.9834 ZZXY=             -1.8229
 N-N= 3.207485360651D+02 E-N=-1.451786055578D+03  KE= 3.447293327431D+02
  Exact polarizability:   0.000   0.000   0.000   0.000   0.000   0.000
 Approx polarizability:  89.161  -7.066  79.224   0.790  -4.846  72.689
 No NMR shielding tensors so no spin-rotation constants.
 Leave Link  601 at Sun Sep 29 08:28:28 2019, MaxMem=   671088640 cpu:              63.9 elap:              32.0
 (Enter /shared/centos7/gaussian/g16/l701.exe)
 SCFChk:  SCF convergence  4.19D-09 required  1.00D-08
 ... and contract with generalized density number  0.
 Compute integral second derivatives.
 Entering OneElI...
 Calculate overlap and kinetic energy integrals
    NBasis = 395  MinDer = 2  MaxDer = 2
 Requested accuracy = 0.1000D-12
 PrmmSu-InSpLW:  IPartL=    0 NPrtUS=   20 NPrtUL=    1 DoSpLW=F IThBeg=    0 IThEnd=   19 NThAct=   20.
 PrsmSu:  NPrtUS=  20 ThrOK=T IAlg=1 NPAlg=1 LenDen=           0 ISkipM=0 DoSpLW=F IThBeg=    0 IThEnd=   19.
 Prism:   IPart=     0 DynPar=F LinDyn=F Incr=           4.
 PRISM was handed    33311714 working-precision words and  8440 shell-pairs
 PRISM was handed    33311714 working-precision words and  8440 shell-pairs
 PRISM was handed    33311714 working-precision words and  8440 shell-pairs
 PRISM was handed    33311714 working-precision words and  8440 shell-pairs
 PRISM was handed    33311714 working-precision words and  8440 shell-pairs
 PRISM was handed    33311714 working-precision words and  8440 shell-pairs
 PRISM was handed    33311714 working-precision words and  8440 shell-pairs
 PRISM was handed    33311714 working-precision words and  8440 shell-pairs
 PRISM was handed    33311714 working-precision words and  8440 shell-pairs
 PRISM was handed    33311714 working-precision words and  8440 shell-pairs
 PRISM was handed    33311714 working-precision words and  8440 shell-pairs
 PRISM was handed    33311714 working-precision words and  8440 shell-pairs
 PRISM was handed    33311714 working-precision words and  8440 shell-pairs
 PRISM was handed    33311714 working-precision words and  8440 shell-pairs
 PRISM was handed    33311714 working-precision words and  8440 shell-pairs
 PRISM was handed    33311714 working-precision words and  8440 shell-pairs
 PRISM was handed    33311714 working-precision words and  8440 shell-pairs
 PRISM was handed    33311714 working-precision words and  8440 shell-pairs
 IPart=  7 NShTot=         425 NBatch=          51 AvBLen=         8.3
 IPart=  1 NShTot=         464 NBatch=          81 AvBLen=         5.7
 IPart= 14 NShTot=         403 NBatch=          40 AvBLen=        10.1
 PRISM was handed    33311714 working-precision words and  8440 shell-pairs
 IPart=  2 NShTot=         458 NBatch=          76 AvBLen=         6.0
 PRISM was handed    33311714 working-precision words and  8440 shell-pairs
 IPart= 19 NShTot=         394 NBatch=          38 AvBLen=        10.4
 IPart=  8 NShTot=         420 NBatch=          51 AvBLen=         8.2
 IPart= 16 NShTot=         401 NBatch=          40 AvBLen=        10.0
 IPart= 12 NShTot=         408 NBatch=          43 AvBLen=         9.5
 IPart=  0 NShTot=         466 NBatch=          82 AvBLen=         5.7
 IPart=  4 NShTot=         439 NBatch=          63 AvBLen=         7.0
 IPart= 13 NShTot=         406 NBatch=          41 AvBLen=         9.9
 IPart=  5 NShTot=         435 NBatch=          60 AvBLen=         7.3
 IPart=  6 NShTot=         433 NBatch=          58 AvBLen=         7.5
 IPart=  3 NShTot=         444 NBatch=          67 AvBLen=         6.6
 IPart= 10 NShTot=         416 NBatch=          48 AvBLen=         8.7
 IPart= 17 NShTot=         399 NBatch=          38 AvBLen=        10.5
 IPart= 18 NShTot=         398 NBatch=          38 AvBLen=        10.5
 IPart= 11 NShTot=         412 NBatch=          46 AvBLen=         9.0
 IPart= 15 NShTot=         402 NBatch=          40 AvBLen=        10.1
 IPart=  9 NShTot=         417 NBatch=          48 AvBLen=         8.7
 PrSmSu:  NxtVal=             81.
 Entering OneElI...
 Calculate potential energy integrals
    NBasis = 395  MinDer = 2  MaxDer = 2
 Requested accuracy = 0.1000D-12
 PrmmSu-InSpLW:  IPartL=    0 NPrtUS=   20 NPrtUL=    1 DoSpLW=F IThBeg=    0 IThEnd=   19 NThAct=   20.
 PrsmSu:  NPrtUS=  20 ThrOK=T IAlg=1 NPAlg=1 LenDen=           0 ISkipM=0 DoSpLW=F IThBeg=    0 IThEnd=   19.
 Prism:   IPart=     0 DynPar=F LinDyn=F Incr=          65.
 PRISM was handed    33354572 working-precision words and  7747 shell-pairs
 PRISM was handed    33354572 working-precision words and  7747 shell-pairs
 PRISM was handed    33354572 working-precision words and  7747 shell-pairs
 PRISM was handed    33354572 working-precision words and  7747 shell-pairs
 PRISM was handed    33354572 working-precision words and  7747 shell-pairs
 PRISM was handed    33354572 working-precision words and  7747 shell-pairs
 PRISM was handed    33354572 working-precision words and  7747 shell-pairs
 PRISM was handed    33354572 working-precision words and  7747 shell-pairs
 PRISM was handed    33354572 working-precision words and  7747 shell-pairs
 PRISM was handed    33354572 working-precision words and  7747 shell-pairs
 PRISM was handed    33354572 working-precision words and  7747 shell-pairs
 PRISM was handed    33354572 working-precision words and  7747 shell-pairs
 PRISM was handed    33354572 working-precision words and  7747 shell-pairs
 PRISM was handed    33354572 working-precision words and  7747 shell-pairs
 PRISM was handed    33354572 working-precision words and  7747 shell-pairs
 PRISM was handed    33354572 working-precision words and  7747 shell-pairs
 PRISM was handed    33354572 working-precision words and  7747 shell-pairs
 PRISM was handed    33354572 working-precision words and  7747 shell-pairs
 PRISM was handed    33354572 working-precision words and  7747 shell-pairs
 PRISM was handed    33354572 working-precision words and  7747 shell-pairs
 IPart= 10 NShTot=        6494 NBatch=         382 AvBLen=        17.0
 IPart= 16 NShTot=        6239 NBatch=         367 AvBLen=        17.0
 IPart= 11 NShTot=        6460 NBatch=         380 AvBLen=        17.0
 IPart= 18 NShTot=        6171 NBatch=         363 AvBLen=        17.0
 IPart=  9 NShTot=        6528 NBatch=         384 AvBLen=        17.0
 IPart= 14 NShTot=        6392 NBatch=         376 AvBLen=        17.0
 IPart= 17 NShTot=        6222 NBatch=         366 AvBLen=        17.0
 IPart=  0 NShTot=        7242 NBatch=         426 AvBLen=        17.0
 IPart=  3 NShTot=        6885 NBatch=         405 AvBLen=        17.0
 IPart= 19 NShTot=        6120 NBatch=         360 AvBLen=        17.0
 IPart=  5 NShTot=        6817 NBatch=         401 AvBLen=        17.0
 IPart= 13 NShTot=        6409 NBatch=         377 AvBLen=        17.0
 IPart=  2 NShTot=        6987 NBatch=         411 AvBLen=        17.0
 IPart= 12 NShTot=        6443 NBatch=         379 AvBLen=        17.0
 IPart=  4 NShTot=        6851 NBatch=         403 AvBLen=        17.0
 IPart=  8 NShTot=        6562 NBatch=         386 AvBLen=        17.0
 IPart=  7 NShTot=        6630 NBatch=         390 AvBLen=        17.0
 IPart=  1 NShTot=        7157 NBatch=         421 AvBLen=        17.0
 IPart=  6 NShTot=        6800 NBatch=         400 AvBLen=        17.0
 IPart= 15 NShTot=        6290 NBatch=         370 AvBLen=        17.0
 PrSmSu:  NxtVal=           1301.
 Polarizability after L701:
                1             2             3 
      1  0.000000D+00
      2  0.000000D+00  0.000000D+00
      3  0.000000D+00  0.000000D+00  0.000000D+00
 Dipole Derivatives after L701:
                 1             2             3             4             5 
      1  -0.268683D+00 -0.439680D-01 -0.238250D-01 -0.188366D+01  0.397189D+00
      2  -0.211766D+00 -0.234496D+00  0.788865D-01  0.588287D+00 -0.523450D+00
      3  -0.682014D-01  0.447437D-01 -0.922192D-01 -0.273096D+00 -0.229615D-01
                 6             7             8             9            10 
      1   0.178546D+00 -0.252544D-03  0.148140D+00 -0.669895D+00 -0.680207D+00
      2  -0.987874D-01 -0.433855D-01 -0.731684D-01  0.141390D+00  0.696973D-01
      3  -0.256642D+00 -0.339700D+00  0.176527D+00 -0.509430D+00  0.108368D+00
                11            12            13            14            15 
      1  -0.519374D+00 -0.458404D-02 -0.182578D+01  0.733787D-01  0.476738D+00
      2  -0.125310D+01 -0.178506D-01  0.305002D-01 -0.905765D+00  0.184653D-01
      3  -0.261445D+00 -0.945028D+00  0.251133D-01  0.228461D-01 -0.961148D+00
                16            17            18            19            20 
      1  -0.704867D+00  0.145693D+00  0.300866D+00 -0.322444D+00 -0.374233D+00
      2   0.295069D-01 -0.445798D+00  0.468557D+00  0.953254D-01 -0.350031D+00
      3   0.255359D+00  0.369206D+00 -0.384293D+00  0.305251D+00  0.300449D+00
                21            22            23            24            25 
      1   0.528594D+00  0.229438D+00 -0.174816D+00  0.406059D+00  0.714337D-01
      2   0.271192D+00 -0.525761D-01  0.228926D+00 -0.159134D+00 -0.178541D+00
      3  -0.227321D+00  0.103661D+00 -0.151322D+00  0.504099D+00  0.465615D-01
                26            27            28            29            30 
      1   0.645573D-01 -0.120156D+00  0.232305D+00  0.141809D-01 -0.849379D-01
      2   0.438235D+00 -0.565451D+00 -0.391144D+00  0.123463D+00  0.244375D+00
      3  -0.111611D+00  0.338594D+00 -0.407735D+00 -0.239694D-01  0.405097D+00
                31            32            33            34            35 
      1   0.545039D+00  0.375253D+00  0.248248D+00  0.846769D-01  0.329508D+00
      2   0.533284D+00  0.556834D+00  0.296037D+00 -0.198094D-01  0.148625D+00
      3   0.303600D+00  0.258136D+00  0.264731D+00  0.337320D-01 -0.236393D+00
                36            37            38            39            40 
      1  -0.804658D+00  0.572228D+00 -0.100329D+01 -0.624481D-01  0.935221D+00
      2  -0.128440D+00 -0.205031D+00  0.582164D+00  0.209346D-01  0.163470D+00
      3   0.681177D+00 -0.940635D-01  0.173351D+00  0.132310D+00  0.688212D-01
                41            42            43            44            45 
      1   0.697554D+00  0.539879D+00  0.169188D+00  0.257501D+00 -0.262534D+00
      2   0.232496D+00  0.120070D+00 -0.199959D-01  0.767712D+00 -0.542572D+00
      3   0.652296D-01  0.154943D+00 -0.342606D-01 -0.369524D+00  0.354364D+00
                46            47            48            49            50 
      1   0.111603D+01  0.248554D+00 -0.617315D+00  0.173033D+01 -0.635834D+00
      2   0.144122D+00  0.174372D+00 -0.142558D+00 -0.531944D+00  0.532977D+00
      3  -0.277660D+00 -0.104818D+00  0.246140D+00  0.244250D+00 -0.128446D+00
                51 
      1  -0.285766D-01
      2  -0.511423D-02
      3   0.294626D+00
 Hessian after L701:
                1             2             3             4             5 
      1  0.527899D+01
      2 -0.381906D+01  0.149012D+02
      3  0.136456D+01 -0.177392D+01  0.153992D+02
      4  0.357409D+00 -0.653265D+00  0.592903D-01  0.901184D+01
      5 -0.697095D+00  0.796083D-01 -0.866142D-01  0.345078D+01  0.834118D+01
      6  0.699385D-01 -0.952803D-01 -0.460509D+00 -0.106560D+01  0.433116D+01
      7 -0.429414D+01  0.376871D+01  0.263810D+01  0.340799D+00 -0.197409D+00
      8  0.359546D+01 -0.664558D+01  0.237708D+01 -0.155745D+00 -0.146943D+00
      9  0.248895D+01  0.231691D+01 -0.729377D+01  0.138682D+00 -0.591247D-01
     10 -0.274699D+00 -0.211278D+00 -0.150468D+00  0.247409D+00  0.137404D+00
     11 -0.254058D+00  0.762396D+00  0.128962D-01  0.626379D-01 -0.257535D+00
     12 -0.140670D+00  0.106508D+00 -0.168552D+00  0.242545D+00  0.536451D-01
     13  0.342055D+00  0.100091D+00 -0.112827D+00  0.109682D+00 -0.405499D-01
     14  0.148919D+00 -0.128328D+00 -0.793280D-01 -0.391395D-01 -0.702691D-01
     15 -0.658841D-01 -0.655313D-01 -0.194829D+00  0.223463D-01 -0.412118D-02
     16 -0.209610D+01  0.155581D+01 -0.422579D+01  0.360667D+00 -0.380464D-01
     17  0.181440D+01 -0.965528D+01 -0.544873D+00  0.156534D+00 -0.423311D+00
     18 -0.405410D+01 -0.442358D+00 -0.720453D+01  0.214444D-01  0.573117D+00
     19  0.362319D+00 -0.508914D+00  0.403861D+00 -0.904244D+01 -0.595676D+00
     20 -0.583201D+00  0.204797D+00  0.212144D+00 -0.796089D+00 -0.237981D+01
     21  0.383334D+00  0.173166D+00 -0.130492D+00  0.499503D+00 -0.475516D+01
     22  0.471081D-01 -0.238391D+00 -0.162497D+00  0.154107D-01 -0.127996D-01
     23 -0.201364D+00  0.141093D+00 -0.306103D+00 -0.136466D-01 -0.653756D-02
     24 -0.157708D+00 -0.340001D+00  0.189172D+00  0.304903D-01 -0.137068D-01
     25 -0.569843D-01  0.611163D-02  0.456432D-02  0.583749D-01  0.533315D-01
     26  0.176031D-01  0.111276D+00  0.403871D-01  0.889225D-01 -0.360560D-01
     27  0.167633D-02 -0.166015D-01 -0.528342D-01 -0.123181D-01 -0.108350D-01
     28 -0.224552D-01 -0.520571D-01 -0.382427D-01 -0.116765D-01  0.970086D-02
     29 -0.182677D-01  0.366606D-01  0.417406D-01  0.198923D-01 -0.448324D-01
     30 -0.205639D-01  0.679595D-01  0.507102D-02  0.611001D-01  0.218200D-01
     31 -0.317593D-02  0.871221D-01  0.488558D-01  0.394770D-01  0.205222D-01
     32  0.766960D-01  0.909495D-01  0.804192D-01  0.262590D-01 -0.883369D-02
     33  0.424268D-01  0.752271D-01 -0.294764D-02  0.281627D-01  0.100357D-01
     34  0.719873D-01  0.448255D-01 -0.224711D-01  0.193359D-01 -0.426267D-02
     35  0.692003D-01 -0.332163D-01 -0.147114D-01  0.389361D-02 -0.128933D-01
     36 -0.771646D-01 -0.301801D-01 -0.346751D-01 -0.213620D-01  0.260631D-02
     37  0.120760D+00  0.251367D-01 -0.240682D-01  0.148382D-01 -0.109559D-01
     38 -0.394821D-01 -0.600593D-01  0.451811D-02 -0.154337D-01  0.154596D-02
     39 -0.213118D-01 -0.652796D-03 -0.612941D-01  0.283792D-04  0.000000D+00
     40  0.106433D+00  0.907208D-01  0.510111D-01  0.191804D-01 -0.482773D-03
     41  0.846752D-01  0.459494D-02  0.257396D-01  0.458668D-02 -0.694473D-02
     42  0.445110D-01  0.241884D-01 -0.323744D-01  0.677961D-02  0.881463D-04
     43 -0.159782D+00 -0.144284D+00  0.255857D+00 -0.266613D-01 -0.362395D-01
     44 -0.158731D+00  0.232474D+00  0.533059D-02 -0.449531D-01  0.861565D-01
     45  0.238059D+00 -0.104773D-01  0.638818D-01  0.334885D-01 -0.833198D-01
     46  0.162818D+00 -0.118262D-01 -0.881755D-01  0.237099D+00 -0.820598D-01
     47  0.660574D-02 -0.497460D-01  0.533428D-02 -0.467894D-01 -0.576058D-01
     48 -0.978908D-01  0.135119D-01 -0.583657D-02  0.630094D-04  0.192674D+00
     49  0.574514D-01 -0.394564D-01 -0.155650D-02 -0.175074D+01 -0.195617D+01
     50 -0.422961D-01  0.717345D-02 -0.409031D-04 -0.204845D+01 -0.505693D+01
     51  0.184091D-02 -0.246987D-02 -0.146897D-01 -0.446420D-01 -0.172274D+00
                6             7             8             9            10 
      6  0.126254D+02
      7  0.143437D+00  0.166164D+02
      8 -0.437170D-01 -0.248115D+01  0.191372D+02
      9 -0.165671D+00 -0.142698D+01 -0.210587D+01  0.208989D+02
     10  0.279486D+00 -0.593061D+01 -0.126631D+01 -0.269192D+00  0.145605D+02
     11  0.255552D-01 -0.138010D+01 -0.189551D+01  0.916885D+00  0.225580D+00
     12 -0.154385D+00 -0.315750D+00  0.934298D+00 -0.599848D+01  0.342491D+00
     13  0.931585D-02 -0.273262D+01  0.774191D-01 -0.191425D+01  0.120968D+00
     14 -0.169049D-02  0.681718D-01 -0.646181D+01 -0.440735D-01 -0.143868D+00
     15 -0.792334D-01 -0.188862D+01 -0.352357D-01 -0.551849D+01 -0.114170D+00
     16  0.188214D+00  0.185898D+00  0.291233D+00  0.686202D-01 -0.651518D-01
     17  0.549700D+00  0.192423D+00  0.104977D+00  0.442337D-01  0.275133D+00
     18 -0.319492D-01  0.481439D-01  0.268656D-01 -0.331682D-02  0.404236D-01
     19  0.372457D+00  0.145334D+00  0.695001D-01  0.561642D-01  0.332210D+00
     20 -0.478932D+01  0.190377D-01 -0.100748D+00  0.218591D-01  0.317564D+00
     21 -0.564562D+01  0.802605D-01  0.559516D-02 -0.961426D-01  0.623686D-01
     22  0.213324D-01 -0.447021D+01 -0.271086D+00  0.777015D+00  0.201467D+00
     23 -0.107300D-01 -0.232591D+00 -0.421188D+01 -0.101497D+01  0.185817D+00
     24  0.739249D-02  0.694038D+00 -0.103911D+01 -0.207501D+01 -0.947788D-01
     25  0.368379D-01  0.572262D-01  0.548356D-01 -0.331876D-01 -0.408989D+01
     26  0.203316D-01  0.922378D-01 -0.799366D-01  0.889192D-01 -0.358546D+00
     27 -0.693002D-01 -0.211738D-01  0.298123D-01  0.102669D+00  0.619822D+00
     28  0.334796D-02 -0.723356D-02  0.625613D-01  0.176734D-01 -0.257116D+01
     29  0.959967D-02  0.143811D+00  0.152915D-01 -0.682298D-01 -0.178540D+00
     30 -0.224396D-02  0.563326D-01 -0.481677D-01  0.618925D-01 -0.142419D+01
     31  0.335796D-01  0.319316D-01 -0.519508D-02  0.205257D-01 -0.271323D+01
     32  0.151209D-01 -0.542113D-01  0.476674D-02  0.132765D-01  0.112138D+01
     33 -0.215132D-02 -0.726746D-02  0.575790D-02  0.156767D-01  0.740219D+00
     34 -0.522804D-02  0.645675D-01 -0.199894D-01  0.100136D+00 -0.188669D-01
     35 -0.795289D-03  0.227160D-02  0.842103D-01 -0.149836D-01 -0.208634D-03
     36 -0.720860D-02  0.301502D-01 -0.432175D-02 -0.978635D-02  0.471543D-02
     37  0.164702D-02  0.142850D-01  0.614846D-01  0.612067D-01  0.458659D-01
     38 -0.172372D-02  0.543530D-02  0.801122D-01 -0.413622D-01 -0.118112D+00
     39 -0.711800D-02  0.451391D-01 -0.530490D-01  0.140377D-01 -0.428385D-01
     40  0.574272D-02 -0.887691D-01 -0.942534D-01 -0.345908D-01  0.824397D-01
     41  0.189173D-02 -0.475730D-01  0.473372D-01  0.144239D-01  0.311322D-02
     42 -0.482206D-02 -0.715005D-02  0.208323D-01  0.100274D+00  0.784353D-02
     43  0.260157D-01  0.436198D-02  0.759109D-01 -0.386030D-01 -0.114447D-01
     44 -0.771292D-01  0.100528D+00  0.825058D-01 -0.635447D-01  0.392035D-03
     45  0.173140D-01 -0.590077D-01 -0.662090D-01 -0.179517D-01 -0.231831D-02
     46  0.295957D-01  0.369893D-01  0.118729D-01 -0.129155D-01  0.287518D-01
     47  0.185721D+00  0.128733D-01 -0.101048D-01 -0.430305D-02  0.216167D-01
     48  0.240147D-01 -0.130257D-01 -0.359105D-02 -0.854940D-02 -0.889097D-02
     49 -0.150117D+00  0.258071D-01 -0.654018D-02  0.751315D-03  0.554219D-01
     50 -0.118700D+00 -0.124727D-01 -0.387572D-02 -0.487643D-04 -0.111275D-01
     51 -0.604391D+01  0.337182D-02 -0.968984D-03 -0.625106D-02  0.947999D-02
               11            12            13            14            15 
     11  0.126521D+02
     12 -0.989922D+00  0.158126D+02
     13 -0.459912D-01 -0.103253D+00  0.116821D+02
     14 -0.101735D-01  0.856888D-01 -0.377881D-01  0.151326D+02
     15  0.469288D-01 -0.167751D-01  0.126904D+01  0.487756D-01  0.147857D+02
     16  0.219637D+00  0.223829D-01  0.249534D+00  0.115811D+00 -0.785148D-01
     17  0.175217D+00  0.254636D-01  0.971975D-01 -0.114420D+00 -0.145018D-01
     18  0.589934D-01 -0.196182D+00 -0.998105D-01 -0.250194D-01 -0.125374D+00
     19  0.288445D+00  0.505011D-01  0.100815D+00  0.145862D-01 -0.175635D-01
     20 -0.704537D-01  0.522408D-01 -0.195282D-02 -0.680866D-01  0.196065D-02
     21  0.501382D-01 -0.198482D+00 -0.256156D-01  0.268789D-02 -0.582708D-01
     22  0.225119D+00 -0.850162D-01  0.154095D-01 -0.503037D-01  0.130631D+00
     23 -0.209564D+00  0.195828D+00 -0.522908D-01  0.719461D-01  0.515311D-01
     24  0.256512D+00  0.212325D+00  0.135104D+00  0.577602D-01 -0.680379D-01
     25 -0.246854D+00  0.548772D+00  0.901634D-02 -0.252688D-01  0.536327D-02
     26 -0.369574D+01 -0.122102D+01 -0.162214D-01  0.714897D-03 -0.841059D-02
     27 -0.986713D+00 -0.227648D+01  0.136669D-01 -0.197420D-01 -0.828798D-02
     28  0.313697D-01 -0.121993D+01  0.102565D+00 -0.737759D-01 -0.912781D-01
     29 -0.445850D+01  0.103495D+00 -0.824841D-01 -0.185205D-01  0.459838D-01
     30 -0.378042D-01 -0.345465D+01 -0.998598D-01  0.460094D-01  0.672437D-02
     31  0.102162D+01  0.687022D+00 -0.716457D-02  0.142472D-01  0.617079D-02
     32 -0.302387D+01  0.605059D+00  0.636287D-02 -0.137877D-02  0.591283D-02
     33  0.596865D+00 -0.346579D+01  0.171308D-02  0.103885D-01 -0.974694D-03
     34  0.494450D-02  0.234241D-01 -0.394722D+01  0.722417D-02  0.267784D-01
     35  0.738086D-02 -0.365604D-02 -0.820115D-01 -0.352122D+01 -0.890048D+00
     36 -0.510619D-02  0.182321D-02  0.259845D+00 -0.914970D+00 -0.157637D+01
     37 -0.129862D+00 -0.534502D-01 -0.352122D+01 -0.104828D+01 -0.733246D-01
     38  0.818358D-01  0.588213D-01 -0.859099D+00 -0.184152D+01  0.200003D+00
     39  0.540393D-01 -0.332056D-01 -0.705460D-01  0.234885D+00 -0.387359D+01
     40 -0.837484D-02 -0.118199D-01 -0.256057D+01  0.104338D+01  0.874544D+00
     41 -0.335109D-01 -0.138894D-02  0.920862D+00 -0.296420D+01  0.625672D+00
     42 -0.421213D-03 -0.344921D-01  0.758940D+00  0.609719D+00 -0.325583D+01
     43 -0.147528D-01  0.132614D-02  0.935098D-02  0.921179D-02 -0.772804D-02
     44 -0.101967D-01 -0.222029D-02  0.188909D-01  0.129924D-02 -0.704644D-02
     45  0.949542D-03 -0.522389D-02 -0.153997D-01 -0.100924D-01 -0.747113D-02
     46  0.897868D-02 -0.229976D-02  0.134189D-01  0.194156D-02 -0.244883D-02
     47 -0.487211D-02 -0.937565D-03  0.364279D-02 -0.438352D-02  0.114832D-03
     48 -0.627650D-04 -0.126346D-01 -0.641234D-02 -0.864348D-03 -0.494092D-02
     49 -0.834194D-02  0.137230D-01  0.138768D-01 -0.506579D-02  0.465052D-02
     50 -0.900743D-02 -0.190195D-02 -0.607702D-02 -0.230011D-02 -0.198735D-02
     51  0.266953D-03 -0.114080D-01  0.349903D-03 -0.134489D-03 -0.393957D-02
               16            17            18            19            20 
     16  0.985377D+01
     17  0.312849D+01  0.205362D+02
     18  0.412595D+01  0.387896D+01  0.228790D+02
     19 -0.379026D+01 -0.573928D+01 -0.331969D+00  0.143890D+02
     20 -0.522312D+01 -0.833063D+01 -0.230776D+01  0.524203D+01  0.152153D+02
     21 -0.509447D+00 -0.223907D+01 -0.121506D+02  0.101232D+01  0.695507D+01
     22  0.150328D+00 -0.857944D-02  0.304440D-01 -0.675938D-01 -0.165319D-01
     23 -0.259089D-01 -0.725303D-01 -0.208623D-01 -0.164491D-01  0.127775D-01
     24  0.830504D-01 -0.140483D-01 -0.471535D-01 -0.207870D-01 -0.887274D-02
     25 -0.146117D-01  0.240841D-01 -0.908729D-02 -0.542415D-02  0.219757D-02
     26  0.362240D-01  0.487018D-01 -0.269479D-01  0.170652D-01 -0.821701D-02
     27 -0.163865D-01 -0.418446D-01 -0.115806D-01 -0.247151D-01 -0.154188D-01
     28 -0.432433D-01  0.998852D-02  0.255130D-02 -0.204198D-01 -0.135602D-02
     29  0.426375D-01  0.611318D-01  0.515491D-01  0.225043D-01 -0.263988D-01
     30  0.263695D-01  0.776199D-01 -0.136802D-01  0.432440D-01  0.287701D-01
     31  0.218728D-02  0.134089D-01  0.578007D-02  0.168146D-01  0.130648D-01
     32  0.146789D-01  0.378274D-02  0.303528D-02  0.202702D-01 -0.177274D-02
     33  0.446361D-02  0.308741D-02 -0.722113D-02  0.101725D-01  0.597489D-02
     34  0.184404D-01  0.901383D-02 -0.160787D-01  0.559162D-02 -0.554556D-03
     35  0.169101D-01 -0.829253D-02 -0.876321D-02  0.765852D-02 -0.727479D-02
     36 -0.298745D-01 -0.940455D-02  0.310787D-02 -0.180538D-01  0.943814D-03
     37  0.384102D-01 -0.303605D-02 -0.114560D-01  0.263708D-01 -0.731913D-02
     38 -0.183738D-01 -0.118779D-01  0.287931D-02 -0.168859D-01 -0.164057D-02
     39 -0.102291D-01  0.985006D-03 -0.127588D-01 -0.472866D-02  0.110116D-02
     40  0.166885D-01  0.889041D-02  0.129580D-03  0.203353D-01  0.148194D-02
     41  0.141599D-01 -0.323421D-02  0.115406D-02  0.975293D-02 -0.550896D-02
     42  0.478448D-02  0.189323D-02 -0.647161D-02  0.456142D-02  0.659739D-03
     43 -0.457300D+01  0.635317D-01 -0.439276D-01  0.185436D+00  0.304026D+00
     44 -0.665639D-01 -0.269669D+01 -0.162749D+01  0.392551D+00 -0.190870D+00
     45  0.578965D-01 -0.156883D+01 -0.324695D+01 -0.200424D+00  0.252522D+00
     46 -0.438662D+00  0.175401D+00  0.211632D+00 -0.255734D+01  0.610314D+00
     47  0.134112D+00  0.274596D+00 -0.691155D-01  0.583322D+00 -0.418664D+01
     48  0.215519D+00 -0.825918D-01  0.231095D+00 -0.123761D+01 -0.456520D+00
     49  0.145097D+00 -0.217608D+00  0.799291D-01 -0.100720D+00  0.120411D+00
     50 -0.197693D+00  0.111701D+00 -0.682439D-01  0.209515D+00 -0.548795D-01
     51  0.729894D-01 -0.667803D-01 -0.554930D-01 -0.974341D-01  0.446396D-01
               21            22            23            24            25 
     21  0.215665D+02
     22 -0.258822D-01  0.410911D+01
     23 -0.290726D-02  0.262952D+00  0.421554D+01
     24  0.133633D-02 -0.734142D+00  0.124974D+01  0.168437D+01
     25 -0.821687D-02 -0.191685D-01 -0.397009D-01  0.355838D-01  0.392341D+01
     26 -0.970258D-02 -0.481254D-01  0.696135D-01 -0.966353D-01  0.242742D+00
     27 -0.522857D-02  0.358809D-01 -0.817109D-01  0.338605D-01 -0.533543D+00
     28  0.732353D-02 -0.132311D-01  0.476012D-01 -0.872325D-03  0.111478D+00
     29  0.161099D-01  0.560666D-01 -0.361982D-01  0.792143D-02 -0.439310D-01
     30 -0.477330D-02 -0.257985D-02  0.912138D-03  0.248357D-01  0.155424D+00
     31  0.844664D-02 -0.716468D-02  0.600912D-02 -0.565983D-02 -0.851225D-02
     32  0.766433D-02 -0.190821D-02  0.205981D-01 -0.122000D-01 -0.870361D-02
     33 -0.640995D-02 -0.731970D-04  0.244583D-03 -0.795920D-02 -0.178697D+00
     34 -0.430624D-02 -0.243354D-01  0.194995D-01 -0.588943D-01  0.144338D-01
     35 -0.230157D-02  0.128339D-01 -0.183941D-01 -0.510466D-01 -0.197323D-01
     36 -0.389957D-03 -0.390236D-01 -0.519327D-01  0.123615D+00 -0.251255D-01
     37 -0.504019D-02 -0.130939D-01  0.161428D-01  0.559439D-01  0.761443D-03
     38  0.185024D-02  0.181542D-01  0.246021D-01 -0.167059D-01 -0.331912D-02
     39 -0.614491D-02  0.471495D-01 -0.179665D-01 -0.316088D-01  0.311220D-03
     40  0.113375D-02 -0.910326D-02 -0.379307D-02  0.670556D-03  0.125229D-01
     41  0.952772D-03 -0.628222D-02  0.272048D-02 -0.167042D-02 -0.230002D-02
     42 -0.524179D-02  0.721404D-02  0.568293D-02 -0.128286D-02  0.513538D-02
     43 -0.158066D+00  0.695664D-01  0.540314D-01  0.239463D-01 -0.143685D-02
     44  0.251106D+00  0.800020D-01 -0.234280D-02  0.238410D-01  0.193969D-02
     45  0.229798D+00 -0.460067D-03  0.302726D-02 -0.420410D-01 -0.709301D-03
     46 -0.129794D+01  0.104783D-01 -0.258768D-02  0.682257D-02  0.552890D-02
     47 -0.460412D+00  0.145981D-02 -0.234896D-02  0.153525D-02  0.530037D-02
     48 -0.356496D+01 -0.106601D-02  0.727712D-03 -0.395288D-02 -0.340995D-02
     49 -0.201781D-01  0.502578D-02 -0.372140D-02  0.719154D-02  0.328303D-02
     50  0.520673D-02 -0.257972D-02  0.904170D-03 -0.330904D-02 -0.733009D-03
     51  0.750984D-01  0.107284D-02 -0.512042D-03  0.147236D-03 -0.158470D-04
               26            27            28            29            30 
     26  0.333722D+01
     27  0.109447D+01  0.264110D+01
     28 -0.496854D-01  0.119490D+00  0.262085D+01
     29  0.114951D+00  0.850858D-01  0.121517D+00  0.429460D+01
     30  0.129196D+00 -0.215769D+00  0.117031D+01 -0.311674D+00  0.348938D+01
[...]
   yy         0.791124D+02      0.117233D+02      0.130439D+02
   zx        -0.329562D+01     -0.488360D+00     -0.543374D+00
   zy        -0.992702D+01     -0.147103D+01     -0.163674D+01
   zz         0.645045D+02      0.955859D+01      0.106354D+02

 ----------------------------------------------------------------------

 Test job not archived.
 1\1\GINC-C0195\Freq\RM062X\CC-pVTZ\C5H10O2\HARMS.N\29-Sep-2019\0\\#P G
 eom=AllCheck Guess=TCheck SCRF=Check Test GenChk RM062X/CC-pVTZ Freq\\
 Gaussian input prepared by ASE\\0,1\O,0.6239165158,0.6334038604,-0.050
 6616487\O,0.3705559942,-0.7663504047,2.3508126563\C,0.6712552769,1.908
 643419,-0.6881629328\C,0.4512636428,3.0171156767,0.326403602\C,-0.3921
 340903,1.8890576862,-1.7646101887\C,1.685606335,0.3597695919,0.7518965
 847\C,1.5739451847,-0.3281255175,1.8791838025\H,1.6609901086,2.0242170
 228,-1.1487466338\H,-0.5277598671,2.8973221547,0.7913472426\H,1.209059
 7175,2.9830977268,1.1087750152\H,0.4951232847,3.9930406643,-0.15691405
 25\H,-1.3712810163,1.7417454965,-1.3087264216\H,-0.2112364252,1.075513
 7787,-2.4647045609\H,-0.3989664375,2.8318632808,-2.3104273593\H,2.6612
 89277,0.6927501635,0.4140537349\H,2.4615583132,-0.5771552622,2.4445407
 327\H,0.5059871792,-1.2485834933,3.1670676612\\Version=EM64L-G16RevA.0
 3\State=1-A\HF=-346.9414281\RMSD=1.636e-09\RMSF=3.296e-07\ZeroPoint=0.
 1467832\Thermal=0.1556428\Dipole=0.5947783,0.2137227,0.3878724\DipoleD
 eriv=-0.6974554,0.4573945,-0.6302912,0.186989,-0.8519007,0.4542056,-0.
 3181661,0.6494919,-1.0831415,-0.7456197,-0.5911445,0.7640679,-0.193289
 7,-0.5705152,0.2844756,0.2196983,0.252043,-0.6379567,0.3609464,-0.0362
 562,0.0021232,-0.1786188,0.8882023,-0.340414,0.1072411,-0.2496348,0.69
 27106,0.0396222,0.006499,-0.0055465,0.0549305,-0.1045118,-0.012691,-0.
 0243832,-0.1238351,-0.0782536,0.002477,0.0224263,-0.0810568,0.0022217,
 0.0315572,-0.0142397,-0.0801269,0.0059018,-0.0288811,0.5110163,-0.4907
 076,0.6617536,-0.1037565,-0.0435494,-0.199193,0.3630681,-0.4315196,0.5
 230577,0.5757631,0.6164625,-0.7012517,0.2553035,0.121356,-0.3350273,-0
 .2797204,-0.3184707,0.3005488,-0.1712511,-0.0326797,0.0940815,0.047814
 2,-0.0400395,0.0159552,0.0326843,0.0104193,-0.0510283,-0.073654,0.0082
 351,0.0679568,-0.0516725,0.0514059,0.0051783,0.0422263,-0.0161171,0.02
 89578,-0.0272447,0.0028718,-0.0909383,0.0137748,0.0787489,-0.0142984,-
 0.0749962,-0.0256549,-0.0533155,0.0697629,0.0027312,0.0088428,0.012552
 4,-0.1034747,0.0751137,0.014501,0.0949698,0.0252823,-0.0716051,-0.0092
 725,0.0218643,-0.0244911,0.0697538,-0.0034214,0.0925135,0.0097684,0.01
 1607,0.0435301,0.0304248,0.0098573,0.0063172,-0.0240902,-0.1167472,-0.
 0068553,-0.0812723,-0.0223158,0.0506571,-0.0131037,-0.0121152,0.009848
 ,-0.0851351,0.1019652,-0.0231457,0.067671,0.0096837,-0.0701192,-0.0002
 398,-0.0158388,-0.0732171,0.1344486,0.016403,0.0333696,0.0848021,0.009
 9584,-0.0643813,-0.0124344,-0.0229764,0.012931,0.1008185,0.0809503,-0.
 0446538,0.0742633,0.037603,0.2675554,0.0387931,-0.0705326,0.0223634,0.
 3469254,0.0017851,-0.0532545,-0.0028262,0.3154833\Polar=62.3201514,-2.
 450964,68.9515627,3.9414776,-15.6792088,77.6235164\Quadrupole=-1.77144
 36,-1.0418944,2.813338,-1.4540136,1.4570503,-5.1010242\PG=C01 [X(C5H10
 O2)]\NImag=0\\0.34804694,-0.01560275,0.33793174,0.16207997,-0.16468752
 ,0.27930281,0.01562176,-0.00365263,0.01333198,0.37379911,0.00568648,-0
 .00642489,-0.00137510,0.05877848,0.21081543,-0.00367582,-0.00391126,-0
 .00123912,-0.02340399,-0.30764560,0.51302173,-0.08608543,-0.03567233,0
 .00805823,0.00112874,0.00072721,0.00075442,0.61244957,-0.01495654,-0.1
 8166951,0.06044942,0.00481829,0.00189369,-0.00223693,0.00913905,0.4619
 4182,-0.00371412,0.04572045,-0.08731695,-0.00477340,-0.00193734,0.0015
 7193,-0.01681411,0.01154112,0.52315520,0.00403006,-0.00062383,-0.00183
 028,-0.00068265,0.00008390,0.00016091,-0.08833604,0.01662876,0.0161911
 7,0.57915273,0.00765997,-0.04872093,-0.01091623,-0.00118825,-0.0003458
 3,0.00040257,0.01388533,-0.12702068,-0.05756084,0.01311529,0.53339696,
 -0.00525693,0.02024089,0.01023757,0.00035969,0.00024479,0.00008812,0.0
 1450332,-0.06617308,-0.14429831,0.01394511,-0.05258365,0.54276359,0.00
 104770,0.00289665,-0.00277784,-0.00025916,0.00004298,-0.00006631,-0.15
 339964,-0.00229562,-0.06824628,0.00378116,-0.00277499,0.00184451,0.533
 52710,0.03117673,-0.01228222,0.03494417,-0.00073126,-0.00025069,0.0001
 8888,-0.01216122,-0.07477692,-0.01411937,-0.01915734,0.00086404,-0.020
 93642,-0.00279169,0.59671271,-0.01855646,0.01128700,-0.02024846,0.0000
 6736,-0.00003347,0.00009655,-0.06047569,-0.00534487,-0.14053512,-0.018
 61605,-0.00602211,-0.02187003,-0.04468141,-0.00064753,0.54524908,-0.23
 667335,0.03034599,-0.11996898,-0.02595303,-0.03751939,0.05130370,-0.00
 551250,0.01915582,-0.01118587,0.00017355,-0.00315130,0.00303856,-0.000
 77646,-0.00246700,0.00164994,0.63390224,0.00449969,-0.08255812,0.03899
 381,-0.01124541,-0.00051850,0.02114593,0.03298644,-0.01499883,0.026351
 51,0.00042028,-0.00230010,0.00106806,-0.00041959,-0.00450455,0.0015594
 3,0.08387653,0.36729080,-0.10654327,0.05602428,-0.14776590,0.00700020,
 0.01296804,-0.01024011,-0.01955477,0.01822325,-0.03032461,0.00086001,-
 0.00351052,0.00450037,-0.00018929,0.00378845,-0.00132097,-0.00760655,-
 0.36065907,0.69669244,-0.01578058,0.03014474,-0.05594340,-0.28507562,-
 0.08309038,0.08388753,-0.00580987,-0.00888042,0.00398523,0.00113951,0.
 00177547,-0.00066677,0.00089097,0.00270904,-0.00109034,-0.09502540,-0.
 02977027,0.04400802,0.64410060,0.00155240,0.00523301,0.01225721,-0.058
 56671,-0.07799566,0.06148251,-0.00033263,-0.00091464,0.00137790,-0.000
 09133,0.00059063,-0.00012700,0.00004361,0.00004717,-0.00013618,-0.0146
 1240,-0.19825312,0.23245668,0.04385764,0.34285695,-0.01399188,0.021398
 59,-0.03002704,0.04271512,0.05750372,-0.11589253,-0.00129473,-0.004449
 08,0.00220994,-0.00048096,-0.00016507,-0.00073377,0.00008843,0.0005091
 6,0.00005003,0.02088609,0.22572811,-0.42195133,0.03474421,-0.36715362,
 0.72178073,0.00017548,-0.00675226,0.00296816,-0.00006599,-0.00015375,-
 0.00025405,-0.25128190,-0.01658110,0.09059316,-0.00416608,0.00001409,0
 .00178505,-0.02147512,-0.00148301,0.00822133,0.00173241,0.00153511,-0.
 00269098,0.00061284,0.00002097,0.00043471,0.27274934,-0.02745896,-0.02
 161396,0.02578134,-0.00013793,0.00005751,0.00016996,-0.01207544,-0.048
 81459,0.00492685,0.02284263,0.00272335,-0.01179269,-0.00059217,0.00104
 805,-0.00101147,-0.00652035,0.00142910,-0.00325473,0.00078805,-0.00018
 572,0.00028848,0.02225447,0.06603226,0.01148349,0.01472608,-0.01136832
 ,-0.00004769,-0.00006418,0.00010858,0.08842764,0.00522376,-0.09200061,
 0.02183530,-0.00097705,-0.00995115,-0.02347990,-0.00285341,0.01008744,
 0.00520309,-0.00027743,0.00181497,-0.00072988,0.00002708,-0.00036551,-
 0.09930215,-0.01307696,0.10440268,0.00086524,0.00031918,-0.00135334,0.
 00048375,0.00005921,-0.00024064,-0.00655900,-0.00063519,0.00340930,-0.
 26541472,-0.02841067,0.10134892,0.00107543,-0.00012999,-0.00085890,-0.
 00023941,0.00020966,0.00008760,-0.00051652,-0.00004459,0.00030653,0.00
 120098,0.00082868,0.00044383,0.28649266,-0.00117256,0.00276527,0.00074
 085,-0.00012092,0.00006070,0.00001586,0.02418390,0.00138505,-0.0125505
 9,-0.02965731,-0.05000197,0.01471134,0.00085920,0.00069836,0.00116784,
 0.00045730,-0.00007047,0.00048365,0.00007846,0.00002476,-0.00013478,0.
 00068896,-0.00337111,-0.00357381,0.03065648,0.05123240,-0.00168616,0.0
 0101672,0.00184790,0.00023674,0.00003086,-0.00011426,0.02284248,0.0033
 8857,-0.01253808,0.10021397,0.01312862,-0.09400971,0.00118918,0.000946
 46,0.00097553,-0.00003068,-0.00012542,-0.00015702,-0.00014837,-0.00006
 099,0.00004800,0.00017335,-0.00385569,-0.00233440,-0.11246120,-0.01133
 599,0.10164501,-0.00007176,-0.00109687,-0.00009227,-0.00001309,-0.0001
 4300,0.00001124,0.00405830,-0.00070020,0.00515554,-0.18085840,0.006634
 17,-0.13492239,0.00062052,0.00069645,0.00035117,0.00004431,0.00096873,
 -0.00037278,-0.00022464,0.00017741,0.00039093,0.00061811,-0.00078863,-
 0.00023347,-0.01885425,0.00177249,-0.02113614,0.19280508,0.00030734,0.
 00222607,0.00126754,0.00046340,0.00029407,-0.00033126,-0.01954590,0.00
 079015,-0.01791277,0.00786034,-0.04699021,0.00834584,0.00165821,-0.003
 97396,-0.00268681,-0.00010753,-0.00082012,-0.00052556,-0.00019257,-0.0
 0056072,0.00081651,0.00022633,0.00073890,0.00100746,-0.00282292,-0.000
 89975,-0.00318300,-0.00863401,0.04897409,0.00068103,0.00114765,0.00108
 523,0.00042306,0.00007658,-0.00031471,-0.01706125,0.00265239,-0.017149
 92,-0.13411237,0.00638163,-0.18402720,0.00217863,-0.00402142,-0.002136
 79,-0.00041773,0.00031608,0.00025156,-0.00013514,-0.00006367,0.0005089
 1,0.00025645,0.00051185,0.00056485,0.01005089,-0.00086622,0.01110819,0
 .14780286,-0.00544037,0.20027319,0.00090668,0.00157067,0.00018382,0.00
 022476,-0.00001385,-0.00012833,-0.00189689,0.00389436,-0.00318175,-0.0
 4690503,-0.00987410,0.00579153,-0.00005434,-0.00014474,-0.00009481,0.0
 0032168,0.00031144,0.00014363,-0.00029364,-0.00013576,0.00034386,-0.00
 011547,-0.00035087,-0.00020059,0.00062462,-0.02674168,0.01197676,0.001
 24297,0.02120066,-0.00880092,0.04581443,0.00254408,-0.00635276,-0.0027
 0675,-0.00046317,-0.00026427,0.00018991,-0.00246535,-0.01742706,0.0149
 3116,-0.00974713,-0.26229564,0.10691426,-0.00002811,0.00052735,0.00107
 638,-0.00211609,0.00065044,-0.00176058,0.00061983,0.00020147,0.0002494
 1,0.00062431,0.00071401,-0.00023556,-0.00002609,-0.00197385,0.00041694
 ,0.00035546,0.00017707,-0.00030080,0.01050041,0.28532931,0.00107391,-0
 .00681752,-0.00118252,-0.00019325,-0.00008426,-0.00001229,-0.00217913,
 -0.01723602,0.01142560,0.00577591,0.10923740,-0.10202738,-0.00013443,0
 .00043951,0.00039783,-0.00102552,0.00038252,-0.00108989,0.00034915,0.0
 0002012,0.00055243,0.00030344,0.00104732,0.00064670,-0.00102174,0.0110
 5749,-0.00641112,0.00271659,0.02011006,-0.00970376,-0.00567979,-0.1178
 9600,0.10761860,0.00204303,-0.00021864,0.00064621,0.00020925,0.0000764
 6,-0.00009547,-0.02613517,-0.00420887,0.01086116,0.00111951,0.00067046
 ,0.00122879,-0.26162697,-0.03219980,0.10274424,0.00018309,0.00015733,-
 0.00015349,-0.00009267,-0.00003654,0.00008955,-0.00196688,0.00017549,-
 0.00423624,0.00051087,-0.00061787,-0.00078464,0.00044689,0.00023071,-0
 .00009961,0.00001508,0.00006331,-0.00009819,0.28697449,0.00022732,0.00
 062905,-0.00061386,0.00000002,-0.00001425,-0.00004554,-0.00031816,-0.0
 0136872,0.00082291,-0.00059027,-0.00022286,0.00049793,-0.03288824,-0.0
 5213466,0.01451590,0.00034493,-0.00016962,0.00012999,-0.00006138,0.000
 02542,-0.00005565,-0.00000330,0.00069048,-0.00015740,-0.00011121,0.000
 13510,-0.00038709,0.00025329,-0.00003012,-0.00003961,-0.00011395,-0.00
 004176,-0.00000117,0.03654805,0.05121936,0.00160082,-0.00133909,0.0015
 9477,-0.00001472,-0.00002325,-0.00002549,-0.02392760,-0.00380349,0.009
 79878,-0.00060605,0.00055578,0.00188319,0.10512734,0.01521258,-0.09692
 628,-0.00057453,-0.00003604,-0.00011547,0.00023689,0.00003517,0.000052
 00,-0.00358390,0.00017037,-0.00306968,0.00041056,0.00004299,-0.0002658
 9,0.00021054,0.00016643,0.00007925,0.00007336,-0.00009236,-0.00002807,
 -0.11056435,-0.01578769,0.10294799,0.00097055,-0.00036551,0.00208430,-
 0.00009251,-0.00004426,0.00003696,0.00424102,-0.02039935,-0.01680073,-
 0.00340813,0.00105488,-0.00324913,-0.05654790,0.03757826,0.03222903,-0
 .00018449,-0.00003200,0.00009340,0.00015860,-0.00000215,0.00004956,0.0
 0100947,-0.00034258,0.00092231,0.00017422,0.00000342,-0.00037342,0.000
 46969,-0.00095833,-0.00128097,-0.00013124,0.00019946,0.00018747,-0.004
 01626,0.02272759,0.01763791,0.05878599,-0.00011889,0.00107915,0.000218
 58,0.00011026,0.00004679,-0.00005795,0.00026244,-0.00165861,0.00119512
 ,-0.00084356,0.00060206,0.00006967,0.03553610,-0.20057054,-0.13206690,
 0.00011168,0.00021538,0.00013573,-0.00016213,0.00000657,0.00005540,-0.
 00046921,0.00007621,-0.00007559,0.00007770,-0.00002993,0.00005474,0.00
 025612,0.00012410,-0.00019086,0.00009845,0.00035703,0.00014181,-0.0006
 4387,0.00413061,0.00420334,-0.03885698,0.21432914,0.00125211,0.0000736
 8,0.00220699,-0.00009695,0.00002334,0.00006787,0.00554304,-0.01857684,
 -0.01636647,-0.00442163,0.00130929,-0.00276764,0.03072935,-0.12960931,
 -0.15848823,-0.00038216,0.00030210,-0.00003246,0.00021867,-0.00003311,
 0.00013171,0.00005275,0.00049040,0.00099061,-0.00013095,0.00027043,0.0
 0037307,0.00004898,-0.00132452,-0.00083676,0.00001490,-0.00016338,0.00
 021953,0.00149212,-0.00974632,-0.00867117,-0.03117844,0.14442307,0.170
 88056,-0.00453905,0.00117855,-0.00507109,0.00028834,0.00008075,-0.0000
 6700,0.00213663,0.02097304,-0.00826244,0.00052600,0.00013219,0.0005628
 8,-0.04737181,-0.00136507,-0.00056077,0.00128949,0.00087268,-0.0008262
 3,-0.00082183,-0.00000299,-0.00010690,0.00028714,0.00000071,0.00110516
 ,-0.00000782,-0.00015398,0.00001746,-0.00015205,0.00005998,0.00025288,
 0.00016129,-0.00028716,-0.00021902,0.00202797,-0.02589355,0.01372969,-
 0.00142753,0.00467287,-0.00324867,0.04768311,0.00086195,0.00099034,0.0
 0024206,-0.00014453,-0.00003185,0.00010892,-0.00063057,-0.00079469,-0.
 00197652,-0.00024295,-0.00024248,-0.00025434,0.00062778,-0.25120470,0.
 11816909,-0.00073092,0.00056649,-0.00031583,0.00024212,-0.00000425,0.0
 0005016,0.00048302,0.00018241,0.00024011,0.00013670,0.00000919,-0.0000
 0933,0.00014511,0.00027166,0.00001585,-0.00019556,0.00036959,-0.000373
 38,0.00011228,-0.00279867,0.00059170,-0.00049859,-0.01864574,0.0127074
 1,-0.00026600,0.27140823,-0.00543814,0.00098414,-0.00403772,0.00029933
 ,0.00014082,-0.00010747,0.00532976,0.01962624,-0.00933860,0.00066834,0
 .00035552,0.00060775,-0.00155752,0.11567317,-0.11494713,0.00090506,0.0
 0083982,-0.00006066,-0.00074271,-0.00003784,-0.00010047,-0.00013773,-0
 .00024955,0.00076431,-0.00001826,0.00003197,-0.00008171,-0.00000560,-0
 .00018391,0.00033625,-0.00035947,-0.00072721,-0.00041567,-0.00119689,0
 .01080296,-0.00718984,-0.00032435,-0.01806279,0.01234481,0.00275958,-0
 .12919913,0.12238429,-0.03171261,-0.00180569,-0.00221977,0.00184450,-0
 .00028874,-0.00114336,0.00056988,-0.00534966,0.00256070,-0.00010461,0.
 00041106,-0.00035728,0.00056259,0.00049218,-0.00035984,-0.27033537,-0.
 08209293,0.08240257,-0.00003795,0.00051324,-0.00068175,0.00064233,0.00
 123955,-0.00108577,0.00013014,-0.00017622,-0.00002885,-0.00011076,0.00
 025352,0.00027941,0.00007291,0.00020624,0.00016025,0.00028880,-0.00009
 832,0.00022473,-0.00000116,-0.00002610,0.00009524,-0.00009011,0.000089
 56,-0.00018753,0.29781012,0.00564323,0.00363238,-0.00023847,0.00209601
 ,0.00474165,0.00534631,0.00309397,0.00183726,-0.00145735,-0.00001558,-
 0.00007293,0.00006444,0.00014425,-0.00001650,0.00007732,-0.08003541,-0
 .06627953,0.04209677,-0.01637642,-0.00222959,0.00092829,-0.00051289,0.
 00054303,-0.00004809,-0.00011474,0.00003701,-0.00003313,0.00009830,-0.
 00020946,-0.00021525,-0.00003749,0.00000814,-0.00002396,-0.00008551,-0
 .00007948,0.00011618,-0.00003606,-0.00003095,-0.00006472,-0.00004986,-
 0.00001635,0.00000465,0.08649460,0.06055309,-0.02399968,-0.00306818,0.
 00452567,-0.00182449,0.00629367,-0.00193764,-0.00301103,-0.00311329,0.
 00296098,0.00049264,0.00050049,-0.00019714,-0.00009890,-0.00001374,-0.
 00017718,0.08187675,0.04238166,-0.08215575,0.02411682,0.00418645,-0.00
 339345,0.00114137,-0.00020093,-0.00023353,-0.00000143,-0.00009746,-0.0
 0013196,0.00004716,-0.00018266,-0.00014961,-0.00009876,0.00011787,-0.0
 0001733,0.00015885,0.00005894,-0.00008001,-0.00003854,-0.00003569,-0.0
 0002074,0.00004605,0.00004818,-0.00004978,-0.07992930,-0.04598354,0.08
 238384,0.00100363,-0.00160140,0.00117206,-0.02884299,0.00153096,-0.007
 85965,0.00030964,-0.00008925,-0.00004148,-0.00005849,-0.00001756,0.000
 05820,-0.00003534,-0.00007489,0.00005659,0.00437522,-0.00093471,0.0027
 4502,-0.24063899,0.05335006,-0.12618953,-0.00000845,0.00000754,-0.0000
 1281,0.00002423,-0.00002373,0.00000194,-0.00000708,0.00001681,-0.00002
 362,0.00001192,-0.00001537,-0.00001632,0.00000958,-0.00000925,-0.00000
 176,-0.00000113,0.00000233,0.00000336,0.00002780,-0.00000273,0.0000297
 3,0.00048972,0.00057456,0.00009876,0.26292457,-0.00025906,0.00475270,0
 .00713809,-0.01432628,0.00371179,-0.00449874,-0.00092004,0.00189317,0.
 00032314,-0.00001780,-0.00004906,-0.00025695,-0.00004025,-0.00023993,0
 .00011421,0.01435580,-0.00032164,0.00404348,0.05450632,-0.05664435,0.0
 5279448,0.00009688,-0.00027930,0.00015824,-0.00000822,0.00000890,-0.00
 001749,0.00006372,-0.00007028,0.00004567,0.00004046,-0.00001269,0.0000
 2699,-0.00001873,0.00002846,-0.00002613,-0.00003232,-0.00001001,-0.000
 06875,0.00007068,-0.00007537,0.00002187,0.00030789,-0.00355129,-0.0021
 6477,-0.05365499,0.04927806,0.00286784,0.00820809,0.00059481,0.0161933
 4,-0.00165346,0.00861872,-0.00130864,-0.00088305,-0.00065672,-0.000025
 62,0.00001389,-0.00021709,0.00009878,0.00059087,-0.00022921,-0.0239316
 7,0.00229572,-0.00846685,-0.12659633,0.05050860,-0.13750678,0.00012582
 ,0.00006820,-0.00005815,-0.00000192,0.00000290,0.00002466,0.00003353,-
 0.00002307,0.00007465,0.00000097,0.00005757,0.00003923,0.00000109,-0.0
 0000986,0.00002846,0.00001212,-0.00002156,-0.00000491,-0.00014026,-0.0
 0001511,-0.00015042,0.00063862,-0.00174176,-0.00164995,0.13164814,-0.0
 5605588,0.13679581,0.00015171,0.00093615,-0.00126776,-0.05261516,0.054
 18694,-0.09922013,0.00012265,-0.00051310,0.00026393,0.00001165,0.00006
 398,-0.00001406,0.00004127,0.00005336,-0.00002537,-0.00732199,-0.00134
 299,0.00059691,-0.00258481,-0.02569021,0.04269677,0.00005180,0.0001298
 2,-0.00009234,0.00000960,-0.00003593,-0.00000241,-0.00001381,-0.000016
 03,0.00000640,0.00000026,0.00003539,0.00000066,0.00000940,-0.00001357,
 0.00002107,0.00000081,-0.00000722,0.00000828,-0.00001759,0.00001332,-0
 .00002361,-0.00001843,-0.00088095,0.00102372,0.00041616,-0.00016405,0.
 00038420,0.06175648,-0.00059042,0.00038268,-0.00149514,0.02431064,-0.1
 3577571,0.22967642,-0.00015668,-0.00029689,0.00032462,0.00003590,0.000
 08566,-0.00003310,0.00002190,0.00005699,-0.00001785,-0.00138765,0.0006
 4239,-0.00032403,0.00381191,-0.01219792,0.01163591,0.00001139,0.000029
 36,-0.00004323,0.00001601,-0.00000965,0.00002522,-0.00005854,-0.000041
 51,-0.00000948,-0.00000844,0.00003362,-0.00003090,-0.00000427,0.000001
 64,0.00001353,0.00000455,-0.00002127,-0.00001275,-0.00002285,0.0000161
 8,-0.00002072,-0.00017015,0.00113352,0.00127300,0.00094162,0.00158085,
 -0.00134210,-0.02675491,0.14438006,0.00182329,-0.00100400,0.00179030,-
 0.05027233,0.23553485,-0.39368986,0.00016806,0.00071189,-0.00059705,-0
 .00005039,-0.00014972,0.00001883,-0.00002434,-0.00009204,0.00002292,0.
 00026051,-0.00026676,0.00042167,-0.00549358,0.00526069,-0.01536289,-0.
 00008677,-0.00001275,0.00000122,0.00003076,0.00003354,0.00002179,-0.00
 000587,0.00008008,0.00003668,0.00001557,-0.00007084,-0.00001190,0.0000
 0687,0.00001557,-0.00001254,-0.00000748,0.00001387,-0.00002675,0.00002
 868,-0.00002985,0.00004206,-0.00036810,0.00117231,0.00032358,-0.001668
 63,-0.00157745,0.00276375,0.05564375,-0.23961939,0.40425821\\0.0000005
 5,0.00000015,0.00000015,0.00000015,0.00000041,0.00000013,-0.00000015,0
 .00000015,-0.00000026,-0.00000018,-0.00000008,-0.00000026,-0.00000031,
 -0.00000058,-0.00000016,0.00000015,0.00000004,-0.00000003,0.00000056,0
 .00000029,0.00000026,-0.00000020,-0.00000011,-0.00000010,-0.00000017,-
 0.00000007,-0.00000021,-0.00000038,0.00000031,-0.00000028,-0.00000045,
 -0.00000011,-0.00000042,-0.00000006,-0.00000054,-0.00000003,0.,-0.0000
 0054,0.00000013,-0.00000027,-0.00000060,-0.00000020,-0.00000014,0.0000
 0025,0.00000012,0.00000040,0.00000075,0.00000041,0.00000049,0.00000027
 ,0.00000076\\\@


 THERE ARE TWO THINGS THAT EVERYBODY THINKS THEY CAN DO BETTER THAN
 ANYONE ELSE - PUNCH THE FIRE, AND EDIT A DAILY PAPER.
 -- UNCLE ESEK, "CENTURY MAGAZINE", 1885
 Job cpu time:       0 days  2 hours 48 minutes  4.5 seconds.
 Elapsed time:       0 days  1 hours 24 minutes  6.8 seconds.
 File lengths (MBytes):  RWF=   1392 Int=      0 D2E=      0 Chk=     32 Scr=     32
 Normal termination of Gaussian 16 at Sun Sep 29 14:52:49 2019.
