 Entering Gaussian System, Link 0=g16
 Input=tight/species/CC(C)OC=CO/conformers/CC(C)OC=CO_117.com
 Output=tight/species/CC(C)OC=CO/conformers/CC(C)OC=CO_117.log
 Initial command:
 /shared/centos7/gaussian/g16/l1.exe "/scratch/harms.n/gauss_scrdir/Gau-6394.inp" -scrdir="/scratch/harms.n/gauss_scrdir/"
 Entering Link 1 = /shared/centos7/gaussian/g16/l1.exe PID=      6395.
  
 Copyright (c) 1988,1990,1992,1993,1995,1998,2003,2009,2016,
            Gaussian, Inc.  All Rights Reserved.
  
 This is part of the Gaussian(R) 16 program.  It is based on
 the Gaussian(R) 09 system (copyright 2009, Gaussian, Inc.),
 the Gaussian(R) 03 system (copyright 2003, Gaussian, Inc.),
 the Gaussian(R) 98 system (copyright 1998, Gaussian, Inc.),
 the Gaussian(R) 94 system (copyright 1995, Gaussian, Inc.),
 the Gaussian 92(TM) system (copyright 1992, Gaussian, Inc.),
 the Gaussian 90(TM) system (copyright 1990, Gaussian, Inc.),
 the Gaussian 88(TM) system (copyright 1988, Gaussian, Inc.),
 the Gaussian 86(TM) system (copyright 1986, Carnegie Mellon
 University), and the Gaussian 82(TM) system (copyright 1983,
 Carnegie Mellon University). Gaussian is a federally registered
 trademark of Gaussian, Inc.
  
 This software contains proprietary and confidential information,
 including trade secrets, belonging to Gaussian, Inc.
  
 This software is provided under written license and may be
 used, copied, transmitted, or stored only in accord with that
 written license.
  
 The following legend is applicable only to US Government
 contracts under FAR:
  
                    RESTRICTED RIGHTS LEGEND
  
 Use, reproduction and disclosure by the US Government is
 subject to restrictions as set forth in subparagraphs (a)
 and (c) of the Commercial Computer Software - Restricted
 Rights clause in FAR 52.227-19.
  
 Gaussian, Inc.
 340 Quinnipiac St., Bldg. 40, Wallingford CT 06492
  
  
 ---------------------------------------------------------------
 Warning -- This program may not be used in any manner that
 competes with the business of Gaussian, Inc. or will provide
 assistance to any competitor of Gaussian, Inc.  The licensee
 of this program is prohibited from giving any competitor of
 Gaussian, Inc. access to this program.  By using this program,
 the user acknowledges that Gaussian, Inc. is engaged in the
 business of creating and licensing software in the field of
 computational chemistry and represents and warrants to the
 licensee that it is not a competitor of Gaussian, Inc. and that
 it will not use this program in any manner prohibited above.
 ---------------------------------------------------------------
  

 Cite this work as:
 Gaussian 16, Revision A.03,
 M. J. Frisch, G. W. Trucks, H. B. Schlegel, G. E. Scuseria, 
 M. A. Robb, J. R. Cheeseman, G. Scalmani, V. Barone, 
 G. A. Petersson, H. Nakatsuji, X. Li, M. Caricato, A. V. Marenich, 
 J. Bloino, B. G. Janesko, R. Gomperts, B. Mennucci, H. P. Hratchian, 
 J. V. Ortiz, A. F. Izmaylov, J. L. Sonnenberg, D. Williams-Young, 
 F. Ding, F. Lipparini, F. Egidi, J. Goings, B. Peng, A. Petrone, 
 T. Henderson, D. Ranasinghe, V. G. Zakrzewski, J. Gao, N. Rega, 
 G. Zheng, W. Liang, M. Hada, M. Ehara, K. Toyota, R. Fukuda, 
 J. Hasegawa, M. Ishida, T. Nakajima, Y. Honda, O. Kitao, H. Nakai, 
 T. Vreven, K. Throssell, J. A. Montgomery, Jr., J. E. Peralta, 
 F. Ogliaro, M. J. Bearpark, J. J. Heyd, E. N. Brothers, K. N. Kudin, 
 V. N. Staroverov, T. A. Keith, R. Kobayashi, J. Normand, 
 K. Raghavachari, A. P. Rendell, J. C. Burant, S. S. Iyengar, 
 J. Tomasi, M. Cossi, J. M. Millam, M. Klene, C. Adamo, R. Cammi, 
 J. W. Ochterski, R. L. Martin, K. Morokuma, O. Farkas, 
 J. B. Foresman, and D. J. Fox, Gaussian, Inc., Wallingford CT, 2016.
 
 ******************************************
 Gaussian 16:  EM64L-G16RevA.03 25-Dec-2016
                27-Sep-2019 
 ******************************************
 %nprocshared=20
 Will use up to   20 processors via shared memory.
 %mem=5GB
 ----------------------------------------------------------------------
 #p m062x/cc-pVTZ opt=(calcfc,maxcycles=900,Tight) freq IOP(7/33=1,2/16
 =3) scf=(maxcycle=900)
 ----------------------------------------------------------------------
 1/6=900,7=10,10=4,18=20,19=15,26=3,38=1/1,3;
 2/9=110,12=2,16=3,17=6,18=5,40=1/2;
 3/5=16,6=1,11=2,25=1,30=1,71=2,74=-55,140=1/1,2,3;
 4//1;
 5/5=2,7=900,38=5/2;
 8/6=4,10=90,11=11/1;
 11/6=1,8=1,9=11,15=111,16=1/1,2,10;
 10/6=1,13=1/2;
 6/7=2,8=2,9=2,10=2,28=1/1;
 7/10=1,18=20,25=1,33=1/1,2,3,16;
 1/6=900,7=10,10=4,18=20,19=15,26=3/3(2);
 2/9=110,16=3/2;
 99//99;
 2/9=110,16=3/2;
 3/5=16,6=1,11=2,25=1,30=1,71=1,74=-55/1,2,3;
 4/5=5,16=3,69=1/1;
 5/5=2,7=900,38=5/2;
 7/33=1/1,2,3,16;
 1/6=900,7=10,18=20,19=15,26=3/3(-5);
 2/9=110,16=3/2;
 6/7=2,8=2,9=2,10=2,19=2,28=1/1;
 99/9=1/99;
 Leave Link    1 at Fri Sep 27 03:44:16 2019, MaxMem=   671088640 cpu:               4.0 elap:               2.0
 (Enter /shared/centos7/gaussian/g16/l101.exe)
 ------------------------------
 Gaussian input prepared by ASE
 ------------------------------
 Symbolic Z-matrix:
 Charge =  0 Multiplicity = 1
 O                    -0.20208  -1.49863   1.69092 
 O                     2.68714   0.07517   0.13087 
 C                    -1.045    -0.50673   2.23817 
 C                    -2.26374  -1.18081   2.8685 
 C                    -1.42137   0.52984   1.23123 
 C                     1.06778  -1.03537   1.43257 
 C                     1.38991  -0.35165   0.37295 
 H                    -0.47413   0.00333   3.06297 
 H                    -2.28713  -2.26465   2.62985 
 H                    -2.254    -1.07839   3.96891 
 H                    -3.22063  -0.7257    2.4945 
 H                    -2.40845   0.29547   0.73379 
 H                    -0.65105   0.60282   0.4354 
 H                    -1.52      1.54455   1.71102 
 H                     1.8233   -1.33792   2.17514 
 H                     0.66136  -0.05217  -0.36593 
 H                     2.66654   0.61253  -0.71329 
 
 ITRead=  0  0  0  0  0  0  0  0  0  0  0  0  0  0  0  0  0
 MicOpt= -1 -1 -1 -1 -1 -1 -1 -1 -1 -1 -1 -1 -1 -1 -1 -1 -1
 NAtoms=     17 NQM=       17 NQMF=       0 NMMI=      0 NMMIF=      0
                NMic=       0 NMicF=      0.
                    Isotopes and Nuclear Properties:
 (Nuclear quadrupole moments (NQMom) in fm**2, nuclear magnetic moments (NMagM)
  in nuclear magnetons)

  Atom         1           2           3           4           5           6           7           8           9          10
 IAtWgt=          16          16          12          12          12          12          12           1           1           1
 AtmWgt=  15.9949146  15.9949146  12.0000000  12.0000000  12.0000000  12.0000000  12.0000000   1.0078250   1.0078250   1.0078250
 NucSpn=           0           0           0           0           0           0           0           1           1           1
 AtZEff=  -0.0000000  -0.0000000  -0.0000000  -0.0000000  -0.0000000  -0.0000000  -0.0000000  -0.0000000  -0.0000000  -0.0000000
 NQMom=    0.0000000   0.0000000   0.0000000   0.0000000   0.0000000   0.0000000   0.0000000   0.0000000   0.0000000   0.0000000
 NMagM=    0.0000000   0.0000000   0.0000000   0.0000000   0.0000000   0.0000000   0.0000000   2.7928460   2.7928460   2.7928460
 AtZNuc=   8.0000000   8.0000000   6.0000000   6.0000000   6.0000000   6.0000000   6.0000000   1.0000000   1.0000000   1.0000000

  Atom        11          12          13          14          15          16          17
 IAtWgt=           1           1           1           1           1           1           1
 AtmWgt=   1.0078250   1.0078250   1.0078250   1.0078250   1.0078250   1.0078250   1.0078250
 NucSpn=           1           1           1           1           1           1           1
 AtZEff=  -0.0000000  -0.0000000  -0.0000000  -0.0000000  -0.0000000  -0.0000000  -0.0000000
 NQMom=    0.0000000   0.0000000   0.0000000   0.0000000   0.0000000   0.0000000   0.0000000
 NMagM=    2.7928460   2.7928460   2.7928460   2.7928460   2.7928460   2.7928460   2.7928460
 AtZNuc=   1.0000000   1.0000000   1.0000000   1.0000000   1.0000000   1.0000000   1.0000000
 Leave Link  101 at Fri Sep 27 03:44:17 2019, MaxMem=   671088640 cpu:               2.3 elap:               1.1
 (Enter /shared/centos7/gaussian/g16/l103.exe)

 GradGradGradGradGradGradGradGradGradGradGradGradGradGradGradGradGradGrad
 Berny optimization.
 Initialization pass.
                           ----------------------------
                           !    Initial Parameters    !
                           ! (Angstroms and Degrees)  !
 --------------------------                            --------------------------
 ! Name  Definition              Value          Derivative Info.                !
 --------------------------------------------------------------------------------
 ! R1    R(1,3)                  1.412          calculate D2E/DX2 analytically  !
 ! R2    R(1,6)                  1.3762         calculate D2E/DX2 analytically  !
 ! R3    R(2,7)                  1.3869         calculate D2E/DX2 analytically  !
 ! R4    R(2,17)                 1.0009         calculate D2E/DX2 analytically  !
 ! R5    R(3,4)                  1.5287         calculate D2E/DX2 analytically  !
 ! R6    R(3,5)                  1.4933         calculate D2E/DX2 analytically  !
 ! R7    R(3,8)                  1.1253         calculate D2E/DX2 analytically  !
 ! R8    R(4,9)                  1.1101         calculate D2E/DX2 analytically  !
 ! R9    R(4,10)                 1.1052         calculate D2E/DX2 analytically  !
 ! R10   R(4,11)                 1.1237         calculate D2E/DX2 analytically  !
 ! R11   R(5,12)                 1.1299         calculate D2E/DX2 analytically  !
 ! R12   R(5,13)                 1.11           calculate D2E/DX2 analytically  !
 ! R13   R(5,14)                 1.1267         calculate D2E/DX2 analytically  !
 ! R14   R(6,7)                  1.3016         calculate D2E/DX2 analytically  !
 ! R15   R(6,15)                 1.1017         calculate D2E/DX2 analytically  !
 ! R16   R(7,16)                 1.08           calculate D2E/DX2 analytically  !
 ! A1    A(3,1,6)              112.7753         calculate D2E/DX2 analytically  !
 ! A2    A(7,2,17)             107.0482         calculate D2E/DX2 analytically  !
 ! A3    A(1,3,4)              109.0238         calculate D2E/DX2 analytically  !
 ! A4    A(1,3,5)              112.1304         calculate D2E/DX2 analytically  !
 ! A5    A(1,3,8)              107.4352         calculate D2E/DX2 analytically  !
 ! A6    A(4,3,5)              112.5297         calculate D2E/DX2 analytically  !
 ! A7    A(4,3,8)              107.5827         calculate D2E/DX2 analytically  !
 ! A8    A(5,3,8)              107.9059         calculate D2E/DX2 analytically  !
 ! A9    A(3,4,9)              111.0193         calculate D2E/DX2 analytically  !
 ! A10   A(3,4,10)             111.2627         calculate D2E/DX2 analytically  !
 ! A11   A(3,4,11)             111.2889         calculate D2E/DX2 analytically  !
 ! A12   A(9,4,10)             107.7415         calculate D2E/DX2 analytically  !
 ! A13   A(9,4,11)             107.8157         calculate D2E/DX2 analytically  !
 ! A14   A(10,4,11)            107.5394         calculate D2E/DX2 analytically  !
 ! A15   A(3,5,12)             111.9038         calculate D2E/DX2 analytically  !
 ! A16   A(3,5,13)             110.7431         calculate D2E/DX2 analytically  !
 ! A17   A(3,5,14)             111.1026         calculate D2E/DX2 analytically  !
 ! A18   A(12,5,13)            107.7134         calculate D2E/DX2 analytically  !
 ! A19   A(12,5,14)            107.3254         calculate D2E/DX2 analytically  !
 ! A20   A(13,5,14)            107.8687         calculate D2E/DX2 analytically  !
 ! A21   A(1,6,7)              123.9199         calculate D2E/DX2 analytically  !
 ! A22   A(1,6,15)             114.4449         calculate D2E/DX2 analytically  !
 ! A23   A(7,6,15)             121.5517         calculate D2E/DX2 analytically  !
 ! A24   A(2,7,6)              122.3606         calculate D2E/DX2 analytically  !
 ! A25   A(2,7,16)             115.2268         calculate D2E/DX2 analytically  !
 ! A26   A(6,7,16)             122.3906         calculate D2E/DX2 analytically  !
 ! D1    D(6,1,3,4)           -163.3844         calculate D2E/DX2 analytically  !
 ! D2    D(6,1,3,5)             71.3231         calculate D2E/DX2 analytically  !
 ! D3    D(6,1,3,8)            -47.0758         calculate D2E/DX2 analytically  !
 ! D4    D(3,1,6,7)            -80.8428         calculate D2E/DX2 analytically  !
 ! D5    D(3,1,6,15)           102.4431         calculate D2E/DX2 analytically  !
 ! D6    D(17,2,7,6)          -177.2502         calculate D2E/DX2 analytically  !
 ! D7    D(17,2,7,16)            1.0773         calculate D2E/DX2 analytically  !
 ! D8    D(1,3,4,9)             -8.1652         calculate D2E/DX2 analytically  !
 ! D9    D(1,3,4,10)           111.8225         calculate D2E/DX2 analytically  !
 ! D10   D(1,3,4,11)          -128.2642         calculate D2E/DX2 analytically  !
 ! D11   D(5,3,4,9)            116.8946         calculate D2E/DX2 analytically  !
 ! D12   D(5,3,4,10)          -123.1177         calculate D2E/DX2 analytically  !
 ! D13   D(5,3,4,11)            -3.2044         calculate D2E/DX2 analytically  !
 ! D14   D(8,3,4,9)           -124.3794         calculate D2E/DX2 analytically  !
 ! D15   D(8,3,4,10)            -4.3917         calculate D2E/DX2 analytically  !
 ! D16   D(8,3,4,11)           115.5216         calculate D2E/DX2 analytically  !
 ! D17   D(1,3,5,12)            94.3121         calculate D2E/DX2 analytically  !
 ! D18   D(1,3,5,13)           -25.8823         calculate D2E/DX2 analytically  !
 ! D19   D(1,3,5,14)          -145.7402         calculate D2E/DX2 analytically  !
 ! D20   D(4,3,5,12)           -29.0314         calculate D2E/DX2 analytically  !
 ! D21   D(4,3,5,13)          -149.2258         calculate D2E/DX2 analytically  !
 ! D22   D(4,3,5,14)            90.9163         calculate D2E/DX2 analytically  !
 ! D23   D(8,3,5,12)          -147.568          calculate D2E/DX2 analytically  !
 ! D24   D(8,3,5,13)            92.2376         calculate D2E/DX2 analytically  !
 ! D25   D(8,3,5,14)           -27.6203         calculate D2E/DX2 analytically  !
 ! D26   D(1,6,7,2)           -178.588          calculate D2E/DX2 analytically  !
 ! D27   D(1,6,7,16)             3.2038         calculate D2E/DX2 analytically  !
 ! D28   D(15,6,7,2)            -2.0987         calculate D2E/DX2 analytically  !
 ! D29   D(15,6,7,16)          179.6932         calculate D2E/DX2 analytically  !
 --------------------------------------------------------------------------------
 Trust Radius=3.00D-01 FncErr=1.00D-07 GrdErr=1.00D-06 EigMax=2.50D+02 EigMin=1.00D-04
 Number of steps in this run=    102 maximum allowed number of steps=    102.
 GradGradGradGradGradGradGradGradGradGradGradGradGradGradGradGradGradGrad

 Leave Link  103 at Fri Sep 27 03:44:18 2019, MaxMem=   671088640 cpu:               1.5 elap:               0.7
 (Enter /shared/centos7/gaussian/g16/l202.exe)
                          Input orientation:                          
 ---------------------------------------------------------------------
 Center     Atomic      Atomic             Coordinates (Angstroms)
 Number     Number       Type             X           Y           Z
 ---------------------------------------------------------------------
      1          8           0       -0.202079   -1.498632    1.690916
      2          8           0        2.687142    0.075165    0.130868
      3          6           0       -1.045000   -0.506730    2.238174
      4          6           0       -2.263739   -1.180808    2.868498
      5          6           0       -1.421374    0.529838    1.231228
      6          6           0        1.067781   -1.035372    1.432575
      7          6           0        1.389910   -0.351655    0.372945
      8          1           0       -0.474129    0.003332    3.062970
      9          1           0       -2.287129   -2.264648    2.629845
     10          1           0       -2.254002   -1.078393    3.968908
     11          1           0       -3.220626   -0.725700    2.494500
     12          1           0       -2.408445    0.295466    0.733789
     13          1           0       -0.651050    0.602823    0.435396
     14          1           0       -1.520005    1.544546    1.711021
     15          1           0        1.823297   -1.337921    2.175136
     16          1           0        0.661357   -0.052168   -0.365933
     17          1           0        2.666537    0.612527   -0.713289
 ---------------------------------------------------------------------
                    Distance matrix (angstroms):
                    1          2          3          4          5
     1  O    0.000000
     2  O    3.641179   0.000000
     3  C    1.412047   4.325301   0.000000
     4  C    2.395444   5.795110   1.528729   0.000000
     5  C    2.410951   4.277549   1.493342   2.513273   0.000000
     6  C    1.376189   2.355857   2.322132   3.630709   2.947256
     7  C    2.363690   1.386935   3.071142   4.501602   3.068713
     8  H    2.052423   4.312310   1.125320   2.154695   2.128324
     9  H    2.411597   6.038459   2.187822   1.110050   3.242655
    10  H    3.094549   6.362087   2.187218   1.105209   3.282463
    11  H    3.217887   6.413257   2.201590   1.123668   2.531706
    12  H    3.000488   5.135860   2.183042   2.599482   1.129905
    13  H    2.488779   3.393330   2.153210   3.420831   1.109989
    14  H    3.316363   4.728218   2.170542   3.052940   1.126748
    15  H    2.088647   2.630984   2.986969   4.148408   3.861007
    16  H    2.658647   2.089696   3.146371   4.504615   2.688387
    17  H    4.297226   1.000891   4.872307   6.352390   4.527582
                    6          7          8          9         10
     6  C    0.000000
     7  C    1.301558   0.000000
     8  H    2.472768   3.291943   0.000000
     9  H    3.768288   4.719508   2.935694   0.000000
    10  H    4.179603   5.170801   2.271299   1.789242   0.000000
    11  H    4.428772   5.089002   2.897911   1.805020   1.797952
    12  H    3.787292   3.869945   3.041711   3.188092   3.518144
    13  H    2.575351   2.253985   2.700896   3.964184   4.228670
    14  H    3.664717   3.722046   2.301513   3.992828   3.537883
    15  H    1.101697   2.099628   2.804527   4.238064   4.461988
    16  H    2.089618   1.080011   3.612449   4.750087   5.323843
    17  H    3.142662   1.933734   4.949246   6.632759   6.999563
                   11         12         13         14         15
    11  H    0.000000
    12  H    2.191465   0.000000
    13  H    3.550718   1.808851   0.000000
    14  H    2.942782   1.817832   1.808077   0.000000
    15  H    5.090969   4.759525   3.593825   4.438658   0.000000
    16  H    4.868831   3.279318   1.671393   3.409043   3.075760
    17  H    6.836625   5.286777   3.510834   4.926771   3.585847
                   16         17
    16  H    0.000000
    17  H    2.140846   0.000000
 Stoichiometry    C5H10O2
 Framework group  C1[X(C5H10O2)]
 Deg. of freedom    45
 Full point group                 C1      NOp   1
 Largest Abelian subgroup         C1      NOp   1
 Largest concise Abelian subgroup C1      NOp   1
                         Standard orientation:                         
 ---------------------------------------------------------------------
 Center     Atomic      Atomic             Coordinates (Angstroms)
 Number     Number       Type             X           Y           Z
 ---------------------------------------------------------------------
      1          8           0       -0.411787   -0.855304   -0.403755
      2          8           0        3.052960    0.074840    0.219579
      3          6           0       -1.271099    0.013857    0.303365
      4          6           0       -2.721043   -0.374319    0.013547
      5          6           0       -0.991825    1.449468    0.001542
      6          6           0        0.881174   -0.825166    0.066603
      7          6           0        1.748529    0.091709   -0.251339
      8          1           0       -1.088095   -0.150783    1.401431
      9          1           0       -2.775482   -1.141136   -0.787228
     10          1           0       -3.211856   -0.790354    0.912159
     11          1           0       -3.322428    0.514347   -0.319978
     12          1           0       -1.654454    1.843127   -0.824680
     13          1           0        0.062612    1.586304   -0.317068
     14          1           0       -1.165781    2.095850    0.907903
     15          1           0        1.155077   -1.682126    0.702476
     16          1           0        1.496076    0.934670   -0.877524
     17          1           0        3.500535    0.900529   -0.126392
 ---------------------------------------------------------------------
 Rotational constants (GHZ):           6.6766536           1.3314502           1.1698239
 Leave Link  202 at Fri Sep 27 03:44:20 2019, MaxMem=   671088640 cpu:               3.3 elap:               1.7
 (Enter /shared/centos7/gaussian/g16/l301.exe)
 Standard basis: CC-pVTZ (5D, 7F)
 Ernie: Thresh=  0.10000D-02 Tol=  0.10000D-05 Strict=F.
 Ernie:  21 primitive shells out of 262 were deleted.
 There are   395 symmetry adapted cartesian basis functions of A   symmetry.
 There are   350 symmetry adapted basis functions of A   symmetry.
   350 basis functions,   534 primitive gaussians,   395 cartesian basis functions
    28 alpha electrons       28 beta electrons
       nuclear repulsion energy       313.2722767506 Hartrees.
 IExCor= 4336 DFT=T Ex+Corr=M062X ExCW=0 ScaHFX=  0.540000
 ScaDFX=  1.000000  1.000000  1.000000  1.000000 ScalE2=  1.000000  1.000000
 IRadAn=      5 IRanWt=     -1 IRanGd=            0 ICorTp=0 IEmpDi=  4
 NAtoms=   17 NActive=   17 NUniq=   17 SFac= 1.00D+00 NAtFMM=   60 NAOKFM=F Big=F
 Integral buffers will be    131072 words long.
 Raffenetti 2 integral format.
 Two-electron integral symmetry is turned on.
 Leave Link  301 at Fri Sep 27 03:44:21 2019, MaxMem=   671088640 cpu:               1.7 elap:               0.9
 (Enter /shared/centos7/gaussian/g16/l302.exe)
 NPDir=0 NMtPBC=     1 NCelOv=     1 NCel=       1 NClECP=     1 NCelD=      1
         NCelK=      1 NCelE2=     1 NClLst=     1 CellRange=     0.0.
 One-electron integrals computed using PRISM.
 One-electron integral symmetry used in STVInt
 NBasis=   350 RedAO= T EigKep=  2.62D-04  NBF=   350
 NBsUse=   350 1.00D-06 EigRej= -1.00D+00 NBFU=   350
 Precomputing XC quadrature grid using
 IXCGrd= 4 IRadAn=           5 IRanWt=          -1 IRanGd=           0 AccXCQ= 0.00D+00.
 Generated NRdTot=       0 NPtTot=           0 NUsed=           0 NTot=          32
 NSgBfM=   395   395   395   395   395 MxSgAt=    17 MxSgA2=    17.
 Leave Link  302 at Fri Sep 27 03:45:16 2019, MaxMem=   671088640 cpu:             111.0 elap:              55.5
 (Enter /shared/centos7/gaussian/g16/l303.exe)
 DipDrv:  MaxL=1.
 Leave Link  303 at Fri Sep 27 03:45:21 2019, MaxMem=   671088640 cpu:               9.7 elap:               4.9
 (Enter /shared/centos7/gaussian/g16/l401.exe)
 ExpMin= 1.03D-01 ExpMax= 1.53D+04 ExpMxC= 5.22D+02 IAcc=3 IRadAn=         5 AccDes= 0.00D+00
 Harris functional with IExCor= 1009 and IRadAn=       5 diagonalized for initial guess.
 HarFok:  IExCor= 1009 AccDes= 0.00D+00 IRadAn=         5 IDoV= 1 UseB2=F ITyADJ=14
 ICtDFT=  3500011 ScaDFX=  1.000000  1.000000  1.000000  1.000000
 FoFCou: FMM=F IPFlag=           0 FMFlag=      100000 FMFlg1=           0
         NFxFlg=           0 DoJE=T BraDBF=F KetDBF=T FulRan=T
         wScrn=  0.000000 ICntrl=       500 IOpCl=  0 I1Cent=   200000004 NGrid=           0
         NMat0=    1 NMatS0=      1 NMatT0=    0 NMatD0=    1 NMtDS0=    0 NMtDT0=    0
 Petite list used in FoFCou.
 Harris En= -346.797982996084    
 JPrj=0 DoOrth=F DoCkMO=F.
 Leave Link  401 at Fri Sep 27 03:45:50 2019, MaxMem=   671088640 cpu:              57.5 elap:              28.8
 (Enter /shared/centos7/gaussian/g16/l502.exe)
 Integral symmetry usage will be decided dynamically.
 Closed shell SCF:
 Using DIIS extrapolation, IDIIS=  1040.
 NGot=   671088640 LenX=   670765141 LenY=   670608675
 Requested convergence on RMS density matrix=1.00D-08 within 900 cycles.
 Requested convergence on MAX density matrix=1.00D-06.
 Requested convergence on             energy=1.00D-06.
 No special actions if energy rises.
 Fock matrices will be formed incrementally for  20 cycles.
 Integral accuracy reduced to 1.0D-05 until final iterations.

 Cycle   1  Pass 0  IDiag  1:
 FoFJK:  IHMeth= 1 ICntrl=       0 DoSepK=F KAlg= 0 I1Cent=           0 FoldK=F
 IRaf= 940000000 NMat=       1 IRICut=       1 DoRegI=T DoRafI=F ISym2E= 0 IDoP0=0 IntGTp=1.
 FoFCou: FMM=F IPFlag=           0 FMFlag=      100000 FMFlg1=           0
         NFxFlg=           0 DoJE=F BraDBF=F KetDBF=F FulRan=T
         wScrn=  0.000000 ICntrl=         0 IOpCl=  0 I1Cent=           0 NGrid=           0
         NMat0=    1 NMatS0=      1 NMatT0=    0 NMatD0=    1 NMtDS0=    0 NMtDT0=    0
 Symmetry not used in FoFCou.
 E= -346.682719950312    
 DIIS: error= 1.70D-02 at cycle   1 NSaved=   1.
 NSaved= 1 IEnMin= 1 EnMin= -346.682719950312     IErMin= 1 ErrMin= 1.70D-02
 ErrMax= 1.70D-02  0.00D+00 EMaxC= 1.00D-01 BMatC= 2.87D-01 BMatP= 2.87D-01
 IDIUse=3 WtCom= 8.30D-01 WtEn= 1.70D-01
 Coeff-Com:  0.100D+01
 Coeff-En:   0.100D+01
 Coeff:      0.100D+01
 Gap=     0.352 Goal=   None    Shift=    0.000
 GapD=    0.352 DampG=1.000 DampE=0.500 DampFc=0.5000 IDamp=-1.
 Damping current iteration by 5.00D-01
 RMSDP=2.27D-03 MaxDP=1.28D-01              OVMax= 1.41D-01

 Cycle   2  Pass 0  IDiag  1:
 RMSU=  1.14D-03    CP:  1.00D+00
 E= -346.802230582503     Delta-E=       -0.119510632191 Rises=F Damp=T
 DIIS: error= 6.25D-03 at cycle   2 NSaved=   2.
 NSaved= 2 IEnMin= 2 EnMin= -346.802230582503     IErMin= 2 ErrMin= 6.25D-03
 ErrMax= 6.25D-03  0.00D+00 EMaxC= 1.00D-01 BMatC= 2.09D-02 BMatP= 2.87D-01
 IDIUse=3 WtCom= 9.38D-01 WtEn= 6.25D-02
 Coeff-Com: -0.128D+00 0.113D+01
 Coeff-En:   0.000D+00 0.100D+01
 Coeff:     -0.120D+00 0.112D+01
 Gap=     0.334 Goal=   None    Shift=    0.000
 RMSDP=4.86D-04 MaxDP=1.94D-02 DE=-1.20D-01 OVMax= 6.79D-02

 Cycle   3  Pass 0  IDiag  1:
 RMSU=  4.69D-04    CP:  1.00D+00  8.91D-01
 E= -346.910816896443     Delta-E=       -0.108586313940 Rises=F Damp=F
 DIIS: error= 1.89D-03 at cycle   3 NSaved=   3.
 NSaved= 3 IEnMin= 3 EnMin= -346.910816896443     IErMin= 3 ErrMin= 1.89D-03
 ErrMax= 1.89D-03  0.00D+00 EMaxC= 1.00D-01 BMatC= 2.98D-03 BMatP= 2.09D-02
 IDIUse=3 WtCom= 9.81D-01 WtEn= 1.89D-02
 Coeff-Com: -0.766D-01 0.280D+00 0.796D+00
 Coeff-En:   0.000D+00 0.000D+00 0.100D+01
 Coeff:     -0.751D-01 0.275D+00 0.800D+00
 Gap=     0.334 Goal=   None    Shift=    0.000
 RMSDP=1.35D-04 MaxDP=6.17D-03 DE=-1.09D-01 OVMax= 1.08D-02

 Cycle   4  Pass 0  IDiag  1:
 RMSU=  1.05D-04    CP:  1.00D+00  9.60D-01  9.29D-01
 E= -346.912434897404     Delta-E=       -0.001618000961 Rises=F Damp=F
 DIIS: error= 1.18D-03 at cycle   4 NSaved=   4.
 NSaved= 4 IEnMin= 4 EnMin= -346.912434897404     IErMin= 4 ErrMin= 1.18D-03
 ErrMax= 1.18D-03  0.00D+00 EMaxC= 1.00D-01 BMatC= 8.53D-04 BMatP= 2.98D-03
 IDIUse=3 WtCom= 9.88D-01 WtEn= 1.18D-02
 Coeff-Com: -0.268D-01 0.689D-01 0.396D+00 0.562D+00
 Coeff-En:   0.000D+00 0.000D+00 0.169D+00 0.831D+00
 Coeff:     -0.265D-01 0.681D-01 0.394D+00 0.565D+00
 Gap=     0.331 Goal=   None    Shift=    0.000
 RMSDP=4.98D-05 MaxDP=2.16D-03 DE=-1.62D-03 OVMax= 5.50D-03

 Cycle   5  Pass 0  IDiag  1:
 RMSU=  2.52D-05    CP:  1.00D+00  9.50D-01  9.63D-01  6.40D-01
 E= -346.913066787955     Delta-E=       -0.000631890551 Rises=F Damp=F
 DIIS: error= 1.47D-04 at cycle   5 NSaved=   5.
 NSaved= 5 IEnMin= 5 EnMin= -346.913066787955     IErMin= 5 ErrMin= 1.47D-04
 ErrMax= 1.47D-04  0.00D+00 EMaxC= 1.00D-01 BMatC= 1.63D-05 BMatP= 8.53D-04
 IDIUse=3 WtCom= 9.99D-01 WtEn= 1.47D-03
 Coeff-Com: -0.367D-02 0.660D-02 0.810D-01 0.180D+00 0.736D+00
 Coeff-En:   0.000D+00 0.000D+00 0.000D+00 0.000D+00 0.100D+01
 Coeff:     -0.367D-02 0.659D-02 0.809D-01 0.180D+00 0.737D+00
 Gap=     0.331 Goal=   None    Shift=    0.000
 RMSDP=9.43D-06 MaxDP=2.58D-04 DE=-6.32D-04 OVMax= 6.64D-04

 Initial convergence to 1.0D-05 achieved.  Increase integral accuracy.
 Cycle   6  Pass 1  IDiag  1:
 E= -346.913059821932     Delta-E=        0.000006966023 Rises=F Damp=F
 DIIS: error= 4.50D-05 at cycle   1 NSaved=   1.
 NSaved= 1 IEnMin= 1 EnMin= -346.913059821932     IErMin= 1 ErrMin= 4.50D-05
 ErrMax= 4.50D-05  0.00D+00 EMaxC= 1.00D-01 BMatC= 2.06D-06 BMatP= 2.06D-06
 IDIUse=1 WtCom= 1.00D+00 WtEn= 0.00D+00
 Coeff-Com:  0.100D+01
 Coeff:      0.100D+01
 Gap=     0.332 Goal=   None    Shift=    0.000
 RMSDP=9.43D-06 MaxDP=2.58D-04 DE= 6.97D-06 OVMax= 5.00D-04

 Cycle   7  Pass 1  IDiag  1:
 RMSU=  9.13D-06    CP:  1.00D+00
 E= -346.913060147788     Delta-E=       -0.000000325856 Rises=F Damp=F
 DIIS: error= 4.75D-05 at cycle   2 NSaved=   2.
 NSaved= 2 IEnMin= 2 EnMin= -346.913060147788     IErMin= 1 ErrMin= 4.50D-05
 ErrMax= 4.75D-05  0.00D+00 EMaxC= 1.00D-01 BMatC= 1.78D-06 BMatP= 2.06D-06
 IDIUse=1 WtCom= 1.00D+00 WtEn= 0.00D+00
 Coeff-Com:  0.479D+00 0.521D+00
 Coeff:      0.479D+00 0.521D+00
 Gap=     0.331 Goal=   None    Shift=    0.000
 RMSDP=2.34D-06 MaxDP=1.15D-04 DE=-3.26D-07 OVMax= 2.07D-04

 Cycle   8  Pass 1  IDiag  1:
 RMSU=  2.14D-06    CP:  1.00D+00  8.97D-01
 E= -346.913061548258     Delta-E=       -0.000001400471 Rises=F Damp=F
 DIIS: error= 6.75D-06 at cycle   3 NSaved=   3.
 NSaved= 3 IEnMin= 3 EnMin= -346.913061548258     IErMin= 3 ErrMin= 6.75D-06
 ErrMax= 6.75D-06  0.00D+00 EMaxC= 1.00D-01 BMatC= 2.73D-08 BMatP= 1.78D-06
 IDIUse=1 WtCom= 1.00D+00 WtEn= 0.00D+00
 Coeff-Com:  0.818D-03 0.935D-01 0.906D+00
 Coeff:      0.818D-03 0.935D-01 0.906D+00
 Gap=     0.331 Goal=   None    Shift=    0.000
 RMSDP=6.11D-07 MaxDP=2.87D-05 DE=-1.40D-06 OVMax= 6.25D-05

 Cycle   9  Pass 1  IDiag  1:
 RMSU=  4.98D-07    CP:  1.00D+00  9.35D-01  1.00D+00
 E= -346.913061570075     Delta-E=       -0.000000021817 Rises=F Damp=F
 DIIS: error= 3.76D-06 at cycle   4 NSaved=   4.
 NSaved= 4 IEnMin= 4 EnMin= -346.913061570075     IErMin= 4 ErrMin= 3.76D-06
 ErrMax= 3.76D-06  0.00D+00 EMaxC= 1.00D-01 BMatC= 7.79D-09 BMatP= 2.73D-08
 IDIUse=1 WtCom= 1.00D+00 WtEn= 0.00D+00
 Coeff-Com: -0.244D-01 0.178D-01 0.454D+00 0.552D+00
 Coeff:     -0.244D-01 0.178D-01 0.454D+00 0.552D+00
 Gap=     0.331 Goal=   None    Shift=    0.000
 RMSDP=1.72D-07 MaxDP=6.29D-06 DE=-2.18D-08 OVMax= 1.45D-05

 Cycle  10  Pass 1  IDiag  1:
 RMSU=  1.63D-07    CP:  1.00D+00  9.39D-01  1.00D+00  9.21D-01
 E= -346.913061576146     Delta-E=       -0.000000006071 Rises=F Damp=F
 DIIS: error= 6.38D-07 at cycle   5 NSaved=   5.
 NSaved= 5 IEnMin= 5 EnMin= -346.913061576146     IErMin= 5 ErrMin= 6.38D-07
 ErrMax= 6.38D-07  0.00D+00 EMaxC= 1.00D-01 BMatC= 1.88D-10 BMatP= 7.79D-09
 IDIUse=1 WtCom= 1.00D+00 WtEn= 0.00D+00
 Coeff-Com: -0.338D-02-0.981D-02-0.400D-01 0.511D-01 0.100D+01
 Coeff:     -0.338D-02-0.981D-02-0.400D-01 0.511D-01 0.100D+01
 Gap=     0.331 Goal=   None    Shift=    0.000
 RMSDP=9.44D-08 MaxDP=3.29D-06 DE=-6.07D-09 OVMax= 8.55D-06

 Cycle  11  Pass 1  IDiag  1:
 RMSU=  3.93D-08    CP:  1.00D+00  9.42D-01  1.02D+00  1.06D+00  1.19D+00
 E= -346.913061576474     Delta-E=       -0.000000000327 Rises=F Damp=F
 DIIS: error= 2.04D-07 at cycle   6 NSaved=   6.
 NSaved= 6 IEnMin= 6 EnMin= -346.913061576474     IErMin= 6 ErrMin= 2.04D-07
 ErrMax= 2.04D-07  0.00D+00 EMaxC= 1.00D-01 BMatC= 4.38D-11 BMatP= 1.88D-10
 IDIUse=1 WtCom= 1.00D+00 WtEn= 0.00D+00
 Coeff-Com:  0.106D-02-0.554D-02-0.582D-01-0.381D-01 0.389D+00 0.712D+00
 Coeff:      0.106D-02-0.554D-02-0.582D-01-0.381D-01 0.389D+00 0.712D+00
 Gap=     0.331 Goal=   None    Shift=    0.000
 RMSDP=2.35D-08 MaxDP=7.09D-07 DE=-3.27D-10 OVMax= 3.22D-06

 Cycle  12  Pass 1  IDiag  1:
 RMSU=  1.64D-08    CP:  1.00D+00  9.42D-01  1.02D+00  1.07D+00  1.28D+00
                    CP:  7.88D-01
 E= -346.913061576527     Delta-E=       -0.000000000053 Rises=F Damp=F
 DIIS: error= 6.43D-08 at cycle   7 NSaved=   7.
 NSaved= 7 IEnMin= 7 EnMin= -346.913061576527     IErMin= 7 ErrMin= 6.43D-08
 ErrMax= 6.43D-08  0.00D+00 EMaxC= 1.00D-01 BMatC= 1.84D-12 BMatP= 4.38D-11
 IDIUse=1 WtCom= 1.00D+00 WtEn= 0.00D+00
 Coeff-Com:  0.501D-03-0.128D-02-0.161D-01-0.153D-01 0.692D-01 0.214D+00
 Coeff-Com:  0.749D+00
 Coeff:      0.501D-03-0.128D-02-0.161D-01-0.153D-01 0.692D-01 0.214D+00
 Coeff:      0.749D+00
 Gap=     0.331 Goal=   None    Shift=    0.000
 RMSDP=4.84D-09 MaxDP=1.83D-07 DE=-5.31D-11 OVMax= 5.84D-07

 SCF Done:  E(RM062X) =  -346.913061577     A.U. after   12 cycles
            NFock= 12  Conv=0.48D-08     -V/T= 2.0061
 KE= 3.448119756585D+02 PE=-1.436656675880D+03 EE= 4.316593618941D+02
 Leave Link  502 at Fri Sep 27 03:55:29 2019, MaxMem=   671088640 cpu:            1159.1 elap:             579.6
 (Enter /shared/centos7/gaussian/g16/l801.exe)
 DoSCS=F DFT=T ScalE2(SS,OS)=  1.000000  1.000000
 Range of M.O.s used for correlation:     1   350
 NBasis=   350 NAE=    28 NBE=    28 NFC=     0 NFV=     0
 NROrb=    350 NOA=    28 NOB=    28 NVA=   322 NVB=   322
 Leave Link  801 at Fri Sep 27 03:55:31 2019, MaxMem=   671088640 cpu:               1.7 elap:               0.9
 (Enter /shared/centos7/gaussian/g16/l1101.exe)
 Using compressed storage, NAtomX=    17.
 Will process     18 centers per pass.
 Leave Link 1101 at Fri Sep 27 03:55:58 2019, MaxMem=   671088640 cpu:              55.0 elap:              27.5
 (Enter /shared/centos7/gaussian/g16/l1102.exe)
 Symmetrizing basis deriv contribution to polar:
 IMax=3 JMax=2 DiffMx= 0.00D+00
 Leave Link 1102 at Fri Sep 27 03:56:01 2019, MaxMem=   671088640 cpu:               4.8 elap:               2.4
 (Enter /shared/centos7/gaussian/g16/l1110.exe)
 Forming Gx(P) for the SCF density, NAtomX=    17.
 Integral derivatives from FoFJK, PRISM(SPDF).
 Do as many integral derivatives as possible in FoFJK.
 G2DrvN: MDV=     671087280.
 G2DrvN: will do    18 centers at a time, making    1 passes.
 Calling FoFCou, ICntrl=  3107 FMM=F I1Cent=   0 AccDes= 0.00D+00.
 FoFJK:  IHMeth= 1 ICntrl=    3107 DoSepK=F KAlg= 0 I1Cent=           0 FoldK=F
 IRaf=         0 NMat=       1 IRICut=       1 DoRegI=T DoRafI=F ISym2E= 0 IDoP0=0 IntGTp=1.
 FoFCou: FMM=F IPFlag=           0 FMFlag=      100000 FMFlg1=           0
         NFxFlg=           0 DoJE=F BraDBF=F KetDBF=F FulRan=T
         wScrn=  0.000000 ICntrl=      3107 IOpCl=  0 I1Cent=           0 NGrid=           0
         NMat0=    1 NMatS0=      1 NMatT0=    0 NMatD0=    1 NMtDS0=    0 NMtDT0=    0
 Symmetry not used in FoFCou.
 End of G2Drv F.D. properties file   721 does not exist.
 End of G2Drv F.D. properties file   722 does not exist.
 End of G2Drv F.D. properties file   788 does not exist.
 Leave Link 1110 at Fri Sep 27 04:13:23 2019, MaxMem=   671088640 cpu:            2084.4 elap:            1042.3
 (Enter /shared/centos7/gaussian/g16/l1002.exe)
 Minotr:  Closed shell wavefunction.
          IDoAtm=11111111111111111
          Direct CPHF calculation.
          Differentiating once with respect to nuclear coordinates.
          Requested convergence is 1.0D-08 RMS, and 1.0D-07 maximum.
          Secondary convergence is 1.0D-12 RMS, and 1.0D-12 maximum.
          NewPWx=T KeepS1=F KeepF1=F KeepIn=T MapXYZ=F SortEE=F KeepMc=T.
         5109 words used for storage of precomputed grid.
 Two-electron integrals replicated using symmetry.
          MDV=     671088640 using IRadAn=       1.
          Solving linear equations simultaneously, MaxMat=     380.
 FoF2E skips out because all densities are zero.
 CalDSu exits because no D1Ps are significant.
 FoFJK:  IHMeth= 1 ICntrl=       0 DoSepK=F KAlg= 0 I1Cent=           0 FoldK=F
 IRaf= 920000000 NMat=      51 IRICut=     127 DoRegI=T DoRafI=T ISym2E= 2 IDoP0=3 IntGTp=3.
 FoFCou: FMM=F IPFlag=           0 FMFlag=      100000 FMFlg1=           0
         NFxFlg=           0 DoJE=F BraDBF=F KetDBF=F FulRan=T
         wScrn=  0.000000 ICntrl=         0 IOpCl=  0 I1Cent=           0 NGrid=           0
         NMat0=   51 NMatS0=     51 NMatT0=    0 NMatD0=   51 NMtDS0=    0 NMtDT0=    0
 Integrals replicated using symmetry in FoFCou.
 Raff kept on since  90.50% of shell-pairs survive, threshold=   0.20 IRatSp=90.
          There are    54 degrees of freedom in the 1st order CPHF.  IDoFFX=6 NUNeed=     0.
     48 vectors produced by pass  0 Test12= 1.67D-14 1.85D-09 XBig12= 7.57D-02 5.36D-02.
 AX will form    48 AO Fock derivatives at one time.
     48 vectors produced by pass  1 Test12= 1.67D-14 1.85D-09 XBig12= 6.99D-03 2.52D-02.
     48 vectors produced by pass  2 Test12= 1.67D-14 1.85D-09 XBig12= 1.91D-04 2.45D-03.
     48 vectors produced by pass  3 Test12= 1.67D-14 1.85D-09 XBig12= 2.49D-06 2.83D-04.
     48 vectors produced by pass  4 Test12= 1.67D-14 1.85D-09 XBig12= 1.82D-08 1.68D-05.
     48 vectors produced by pass  5 Test12= 1.67D-14 1.85D-09 XBig12= 1.04D-10 1.05D-06.
     24 vectors produced by pass  6 Test12= 1.67D-14 1.85D-09 XBig12= 4.75D-13 8.70D-08.
      6 vectors produced by pass  7 Test12= 1.67D-14 1.85D-09 XBig12= 1.85D-15 5.32D-09.
 InvSVY:  IOpt=1 It=  1 EMax= 2.50D-16
 Solved reduced A of dimension   318 with    54 vectors.
 End of Minotr F.D. properties file   721 does not exist.
 End of Minotr F.D. properties file   722 does not exist.
 End of Minotr F.D. properties file   788 does not exist.
 Leave Link 1002 at Fri Sep 27 04:43:18 2019, MaxMem=   671088640 cpu:            3590.8 elap:            1795.5
 (Enter /shared/centos7/gaussian/g16/l601.exe)
 Copying SCF densities to generalized density rwf, IOpCl= 0 IROHF=0.

 **********************************************************************

            Population analysis using the SCF density.

 **********************************************************************

 Orbital symmetries:
       Occupied  (A) (A) (A) (A) (A) (A) (A) (A) (A) (A) (A) (A)
                 (A) (A) (A) (A) (A) (A) (A) (A) (A) (A) (A) (A)
                 (A) (A) (A) (A)
       Virtual   (A) (A) (A) (A) (A) (A) (A) (A) (A) (A) (A) (A)
                 (A) (A) (A) (A) (A) (A) (A) (A) (A) (A) (A) (A)
                 (A) (A) (A) (A) (A) (A) (A) (A) (A) (A) (A) (A)
                 (A) (A) (A) (A) (A) (A) (A) (A) (A) (A) (A) (A)
                 (A) (A) (A) (A) (A) (A) (A) (A) (A) (A) (A) (A)
                 (A) (A) (A) (A) (A) (A) (A) (A) (A) (A) (A) (A)
                 (A) (A) (A) (A) (A) (A) (A) (A) (A) (A) (A) (A)
                 (A) (A) (A) (A) (A) (A) (A) (A) (A) (A) (A) (A)
                 (A) (A) (A) (A) (A) (A) (A) (A) (A) (A) (A) (A)
                 (A) (A) (A) (A) (A) (A) (A) (A) (A) (A) (A) (A)
                 (A) (A) (A) (A) (A) (A) (A) (A) (A) (A) (A) (A)
                 (A) (A) (A) (A) (A) (A) (A) (A) (A) (A) (A) (A)
                 (A) (A) (A) (A) (A) (A) (A) (A) (A) (A) (A) (A)
                 (A) (A) (A) (A) (A) (A) (A) (A) (A) (A) (A) (A)
                 (A) (A) (A) (A) (A) (A) (A) (A) (A) (A) (A) (A)
                 (A) (A) (A) (A) (A) (A) (A) (A) (A) (A) (A) (A)
                 (A) (A) (A) (A) (A) (A) (A) (A) (A) (A) (A) (A)
                 (A) (A) (A) (A) (A) (A) (A) (A) (A) (A) (A) (A)
                 (A) (A) (A) (A) (A) (A) (A) (A) (A) (A) (A) (A)
                 (A) (A) (A) (A) (A) (A) (A) (A) (A) (A) (A) (A)
                 (A) (A) (A) (A) (A) (A) (A) (A) (A) (A) (A) (A)
                 (A) (A) (A) (A) (A) (A) (A) (A) (A) (A) (A) (A)
                 (A) (A) (A) (A) (A) (A) (A) (A) (A) (A) (A) (A)
                 (A) (A) (A) (A) (A) (A) (A) (A) (A) (A) (A) (A)
                 (A) (A) (A) (A) (A) (A) (A) (A) (A) (A) (A) (A)
                 (A) (A) (A) (A) (A) (A) (A) (A) (A) (A) (A) (A)
                 (A) (A) (A) (A) (A) (A) (A) (A) (A) (A)
 The electronic state is 1-A.
 Alpha  occ. eigenvalues --  -19.65411 -19.63329 -10.59212 -10.58902 -10.57299
 Alpha  occ. eigenvalues --  -10.53054 -10.52987  -1.17813  -1.16560  -0.89000
 Alpha  occ. eigenvalues --   -0.84272  -0.77686  -0.68932  -0.65482  -0.62003
 Alpha  occ. eigenvalues --   -0.57431  -0.53813  -0.53031  -0.50333  -0.46855
 Alpha  occ. eigenvalues --   -0.45800  -0.45458  -0.44520  -0.43440  -0.39991
 Alpha  occ. eigenvalues --   -0.38240  -0.34046  -0.28736
 Alpha virt. eigenvalues --    0.04413   0.06654   0.07566   0.10040   0.11109
 Alpha virt. eigenvalues --    0.11729   0.12901   0.14544   0.15996   0.17609
 Alpha virt. eigenvalues --    0.17885   0.21152   0.21589   0.22608   0.26361
 Alpha virt. eigenvalues --    0.26890   0.29123   0.30743   0.32595   0.34080
 Alpha virt. eigenvalues --    0.34661   0.35843   0.38025   0.38991   0.41379
 Alpha virt. eigenvalues --    0.41786   0.43340   0.43693   0.45345   0.45720
 Alpha virt. eigenvalues --    0.46255   0.47412   0.48985   0.49283   0.50296
 Alpha virt. eigenvalues --    0.51332   0.52269   0.53297   0.53796   0.54791
 Alpha virt. eigenvalues --    0.56271   0.56977   0.58326   0.60077   0.61407
 Alpha virt. eigenvalues --    0.63474   0.67252   0.67569   0.69139   0.73393
 Alpha virt. eigenvalues --    0.74303   0.76812   0.77576   0.79138   0.81759
 Alpha virt. eigenvalues --    0.84059   0.86454   0.86785   0.89372   0.90971
 Alpha virt. eigenvalues --    0.95207   0.96591   0.97076   0.97961   1.00755
 Alpha virt. eigenvalues --    1.01797   1.03412   1.03903   1.05240   1.07144
 Alpha virt. eigenvalues --    1.07817   1.08151   1.08845   1.10972   1.11768
 Alpha virt. eigenvalues --    1.13835   1.15637   1.16863   1.19328   1.20694
 Alpha virt. eigenvalues --    1.22792   1.23173   1.25958   1.26914   1.27331
 Alpha virt. eigenvalues --    1.30053   1.32389   1.32478   1.33169   1.35159
 Alpha virt. eigenvalues --    1.36349   1.37972   1.38352   1.40400   1.41030
 Alpha virt. eigenvalues --    1.42465   1.43978   1.45799   1.47408   1.49783
 Alpha virt. eigenvalues --    1.53244   1.55261   1.56559   1.57691   1.61495
 Alpha virt. eigenvalues --    1.64607   1.66821   1.72279   1.79105   1.85452
 Alpha virt. eigenvalues --    1.87985   1.90392   2.00763   2.01925   2.03482
 Alpha virt. eigenvalues --    2.04857   2.11396   2.14134   2.17846   2.19787
 Alpha virt. eigenvalues --    2.22125   2.28125   2.29619   2.31696   2.33180
 Alpha virt. eigenvalues --    2.34209   2.34987   2.38979   2.41747   2.45243
 Alpha virt. eigenvalues --    2.47412   2.48250   2.53128   2.54586   2.56150
 Alpha virt. eigenvalues --    2.60268   2.62071   2.63811   2.64226   2.68118
 Alpha virt. eigenvalues --    2.70167   2.74233   2.76708   2.79069   2.79457
 Alpha virt. eigenvalues --    2.81027   2.82592   2.83849   2.84445   2.85442
 Alpha virt. eigenvalues --    2.87766   2.88600   2.90276   2.92732   2.93121
 Alpha virt. eigenvalues --    2.94696   2.96365   2.98704   2.99679   3.00277
 Alpha virt. eigenvalues --    3.01623   3.03462   3.05455   3.06558   3.07180
 Alpha virt. eigenvalues --    3.08702   3.10376   3.11646   3.13907   3.15402
 Alpha virt. eigenvalues --    3.15768   3.16496   3.18696   3.20197   3.23571
 Alpha virt. eigenvalues --    3.26905   3.27766   3.29242   3.30646   3.30767
 Alpha virt. eigenvalues --    3.32673   3.33442   3.34595   3.36016   3.38003
 Alpha virt. eigenvalues --    3.39622   3.40409   3.41092   3.42769   3.43530
 Alpha virt. eigenvalues --    3.45413   3.47216   3.49839   3.50300   3.52625
 Alpha virt. eigenvalues --    3.54473   3.55352   3.57041   3.58912   3.60627
 Alpha virt. eigenvalues --    3.62700   3.64526   3.67094   3.69896   3.72228
 Alpha virt. eigenvalues --    3.72531   3.74042   3.75293   3.76652   3.79163
 Alpha virt. eigenvalues --    3.80423   3.82963   3.83795   3.84076   3.86509
 Alpha virt. eigenvalues --    3.88670   3.90193   3.90557   3.92889   3.93431
 Alpha virt. eigenvalues --    3.95348   3.96667   3.97649   3.99441   4.00927
 Alpha virt. eigenvalues --    4.02487   4.03633   4.04533   4.06471   4.07796
 Alpha virt. eigenvalues --    4.09367   4.11489   4.14138   4.15336   4.17699
 Alpha virt. eigenvalues --    4.18577   4.21676   4.24175   4.26103   4.28309
 Alpha virt. eigenvalues --    4.31818   4.33893   4.36710   4.38573   4.40155
 Alpha virt. eigenvalues --    4.44229   4.45365   4.47577   4.49654   4.52020
 Alpha virt. eigenvalues --    4.54835   4.60308   4.64323   4.68199   4.69443
 Alpha virt. eigenvalues --    4.70790   4.73337   4.75736   4.78926   4.79522
 Alpha virt. eigenvalues --    4.84563   4.88195   4.89885   4.92324   4.93084
 Alpha virt. eigenvalues --    4.94791   4.95955   5.01281   5.05371   5.08574
 Alpha virt. eigenvalues --    5.09378   5.10723   5.12006   5.14301   5.17919
 Alpha virt. eigenvalues --    5.20684   5.21999   5.24381   5.26525   5.27363
 Alpha virt. eigenvalues --    5.29930   5.31169   5.33799   5.41604   5.46028
 Alpha virt. eigenvalues --    5.51156   5.57467   5.58556   5.66278   5.72644
 Alpha virt. eigenvalues --    5.76013   5.78687   5.79776   5.81375   5.83093
 Alpha virt. eigenvalues --    5.94527   5.97415   6.11230   6.22018   6.25654
 Alpha virt. eigenvalues --    6.33151   6.43319   6.56904   6.59621   6.65543
 Alpha virt. eigenvalues --    6.74306   6.76176   6.78842   6.84471   7.02308
 Alpha virt. eigenvalues --    7.09823   7.20447   7.27106   7.28163   7.37100
 Alpha virt. eigenvalues --   10.41593  10.68382  11.63496  11.76395  13.04665
 Alpha virt. eigenvalues --   13.47022  14.35575
          Condensed to atoms (all electrons):
               1          2          3          4          5          6
     1  O    7.889716   0.001650   0.284681  -0.044050  -0.037964   0.353446
     2  O    0.001650   7.780732  -0.000126  -0.000001   0.000404  -0.070407
     3  C    0.284681  -0.000126   4.864858   0.316650   0.304804  -0.056990
     4  C   -0.044050  -0.000001   0.316650   4.986052  -0.057198   0.008252
     5  C   -0.037964   0.000404   0.304804  -0.057198   5.081329  -0.017168
     6  C    0.353446  -0.070407  -0.056990   0.008252  -0.017168   4.977730
     7  C   -0.070049   0.343312   0.005423   0.000178  -0.008186   0.482254
     8  H   -0.056296  -0.000038   0.406432  -0.046319  -0.080783   0.010501
     9  H    0.005127  -0.000001  -0.043957   0.387844   0.002637   0.001802
    10  H    0.002128  -0.000000  -0.036287   0.399048   0.006295  -0.000267
    11  H    0.002648  -0.000000  -0.051471   0.405739  -0.004102  -0.000410
    12  H    0.002325  -0.000007  -0.039485  -0.012917   0.396069   0.002430
    13  H   -0.010353   0.000496  -0.042021   0.008645   0.406109   0.006709
    14  H    0.004951  -0.000002  -0.036225   0.001273   0.387109   0.001234
    15  H   -0.047268   0.005662  -0.000603  -0.000874  -0.002327   0.420035
    16  H    0.005382  -0.048308   0.003241  -0.000525  -0.014008  -0.069933
    17  H   -0.000325   0.328415  -0.000012  -0.000002   0.000166   0.008743
               7          8          9         10         11         12
     1  O   -0.070049  -0.056296   0.005127   0.002128   0.002648   0.002325
     2  O    0.343312  -0.000038  -0.000001  -0.000000  -0.000000  -0.000007
     3  C    0.005423   0.406432  -0.043957  -0.036287  -0.051471  -0.039485
     4  C    0.000178  -0.046319   0.387844   0.399048   0.405739  -0.012917
     5  C   -0.008186  -0.080783   0.002637   0.006295  -0.004102   0.396069
     6  C    0.482254   0.010501   0.001802  -0.000267  -0.000410   0.002430
     7  C    4.958747  -0.010207  -0.000187   0.000054   0.000010  -0.000646
     8  H   -0.010207   0.669903   0.007933  -0.010716   0.003963   0.009894
     9  H   -0.000187   0.007933   0.564216  -0.026602  -0.029028   0.002098
    10  H    0.000054  -0.010716  -0.026602   0.592082  -0.036783   0.000497
    11  H    0.000010   0.003963  -0.029028  -0.036783   0.609578  -0.000972
    12  H   -0.000646   0.009894   0.002098   0.000497  -0.000972   0.604174
    13  H   -0.006723  -0.002278  -0.000590  -0.000530   0.001207  -0.036641
    14  H   -0.001489  -0.004103  -0.000183  -0.000114  -0.001059  -0.031671
    15  H   -0.090460   0.009294   0.000218   0.000063  -0.000013   0.000100
    16  H    0.419262   0.001526   0.000080   0.000013   0.000008   0.001035
    17  H   -0.037616  -0.000022  -0.000000   0.000000   0.000000  -0.000004
              13         14         15         16         17
     1  O   -0.010353   0.004951  -0.047268   0.005382  -0.000325
     2  O    0.000496  -0.000002   0.005662  -0.048308   0.328415
     3  C   -0.042021  -0.036225  -0.000603   0.003241  -0.000012
     4  C    0.008645   0.001273  -0.000874  -0.000525  -0.000002
     5  C    0.406109   0.387109  -0.002327  -0.014008   0.000166
     6  C    0.006709   0.001234   0.420035  -0.069933   0.008743
     7  C   -0.006723  -0.001489  -0.090460   0.419262  -0.037616
     8  H   -0.002278  -0.004103   0.009294   0.001526  -0.000022
     9  H   -0.000590  -0.000183   0.000218   0.000080  -0.000000
    10  H   -0.000530  -0.000114   0.000063   0.000013   0.000000
    11  H    0.001207  -0.001059  -0.000013   0.000008   0.000000
    12  H   -0.036641  -0.031671   0.000100   0.001035  -0.000004
    13  H    0.615633  -0.029531  -0.000542  -0.013279  -0.000206
    14  H   -0.029531   0.596475   0.000378   0.001331  -0.000021
    15  H   -0.000542   0.000378   0.567004   0.008383  -0.000874
    16  H   -0.013279   0.001331   0.008383   0.603339  -0.012318
    17  H   -0.000206  -0.000021  -0.000874  -0.012318   0.448579
 Mulliken charges:
               1
     1  O   -0.285750
     2  O   -0.341780
     3  C    0.121090
     4  C   -0.351795
     5  C   -0.363186
     6  C   -0.057963
     7  C    0.016322
     8  H    0.091316
     9  H    0.128594
    10  H    0.111118
    11  H    0.100683
    12  H    0.103720
    13  H    0.103894
    14  H    0.111648
    15  H    0.131823
    16  H    0.114771
    17  H    0.265494
 Sum of Mulliken charges =  -0.00000
 Mulliken charges with hydrogens summed into heavy atoms:
               1
     1  O   -0.285750
     2  O   -0.076286
     3  C    0.212407
     4  C   -0.011401
     5  C   -0.043923
     6  C    0.073860
     7  C    0.131093
 APT charges:
               1
     1  O   -0.204111
     2  O   -0.633334
     3  C   -0.005789
     4  C   -1.319462
     5  C   -1.014741
     6  C   -0.442206
     7  C   -0.189989
     8  H    0.275460
     9  H    0.347152
    10  H    0.451938
    11  H    0.413030
    12  H    0.408750
    13  H    0.182258
    14  H    0.383606
    15  H    0.396795
    16  H    0.215532
    17  H    0.735113
 Sum of APT charges =  -0.00000
 APT charges with hydrogens summed into heavy atoms:
               1
     1  O   -0.204111
     2  O    0.101778
     3  C    0.269670
     4  C   -0.107342
     5  C   -0.040127
     6  C   -0.045410
     7  C    0.025542
 Electronic spatial extent (au):  <R**2>=           1019.2632
 Charge=              0.0000 electrons
 Dipole moment (field-independent basis, Debye):
    X=              0.1415    Y=              2.2814    Z=              0.0557  Tot=              2.2865
 Quadrupole moment (field-independent basis, Debye-Ang):
   XX=            -40.7935   YY=            -42.7061   ZZ=            -44.9542
   XY=              4.9726   XZ=             -3.2752   YZ=             -2.4366
 Traceless Quadrupole moment (field-independent basis, Debye-Ang):
   XX=              2.0244   YY=              0.1118   ZZ=             -2.1363
   XY=              4.9726   XZ=             -3.2752   YZ=             -2.4366
 Octapole moment (field-independent basis, Debye-Ang**2):
  XXX=             21.1634  YYY=             -2.0864  ZZZ=              0.2146  XYY=             11.4015
  XXY=             19.2679  XXZ=             -9.0450  XZZ=              1.6748  YZZ=             -0.1514
  YYZ=              1.0524  XYZ=             -2.7641
 Hexadecapole moment (field-independent basis, Debye-Ang**3):
 XXXX=           -948.8362 YYYY=           -240.4719 ZZZZ=            -87.8326 XXXY=             80.2994
 XXXZ=            -24.3629 YYYX=              9.9146 YYYZ=             -1.5889 ZZZX=             -0.3371
 ZZZY=             -0.1337 XXYY=           -184.3486 XXZZ=           -182.9625 YYZZ=            -51.6933
 XXYZ=             -8.7137 YYXZ=              1.2303 ZZXY=              3.1182
 N-N= 3.132722767506D+02 E-N=-1.436656691929D+03  KE= 3.448119756585D+02
  Exact polarizability:   0.000   0.000   0.000   0.000   0.000   0.000
 Approx polarizability:  88.874   6.958  79.592  -0.802  -4.624  71.112
 No NMR shielding tensors so no spin-rotation constants.
 Leave Link  601 at Fri Sep 27 04:43:48 2019, MaxMem=   671088640 cpu:              59.1 elap:              29.6
 (Enter /shared/centos7/gaussian/g16/l701.exe)
 SCFChk:  SCF convergence  4.84D-09 required  1.00D-08
 ... and contract with generalized density number  0.
 Compute integral second derivatives.
 Entering OneElI...
 Calculate overlap and kinetic energy integrals
    NBasis = 395  MinDer = 2  MaxDer = 2
 Requested accuracy = 0.1000D-12
 PrmmSu-InSpLW:  IPartL=    0 NPrtUS=   20 NPrtUL=    1 DoSpLW=F IThBeg=    0 IThEnd=   19 NThAct=   20.
 PrsmSu:  NPrtUS=  20 ThrOK=T IAlg=1 NPAlg=1 LenDen=           0 ISkipM=0 DoSpLW=F IThBeg=    0 IThEnd=   19.
 Prism:   IPart=     0 DynPar=F LinDyn=F Incr=           4.
 PRISM was handed    33314694 working-precision words and  8385 shell-pairs
 PRISM was handed    33314694 working-precision words and  8385 shell-pairs
 PRISM was handed    33314694 working-precision words and  8385 shell-pairs
 PRISM was handed    33314694 working-precision words and  8385 shell-pairs
 PRISM was handed    33314694 working-precision words and  8385 shell-pairs
 PRISM was handed    33314694 working-precision words and  8385 shell-pairs
 PRISM was handed    33314694 working-precision words and  8385 shell-pairs
 PRISM was handed    33314694 working-precision words and  8385 shell-pairs
 PRISM was handed    33314694 working-precision words and  8385 shell-pairs
 PRISM was handed    33314694 working-precision words and  8385 shell-pairs
 PRISM was handed    33314694 working-precision words and  8385 shell-pairs
 PRISM was handed    33314694 working-precision words and  8385 shell-pairs
 IPart=  6 NShTot=         428 NBatch=          60 AvBLen=         7.1
 IPart=  1 NShTot=         462 NBatch=          80 AvBLen=         5.8
 IPart=  0 NShTot=         465 NBatch=          82 AvBLen=         5.7
 IPart= 10 NShTot=         416 NBatch=          50 AvBLen=         8.3
 PRISM was handed    33314694 working-precision words and  8385 shell-pairs
 PRISM was handed    33314694 working-precision words and  8385 shell-pairs
 PRISM was handed    33314694 working-precision words and  8385 shell-pairs
 PRISM was handed    33314694 working-precision words and  8385 shell-pairs
 PRISM was handed    33314694 working-precision words and  8385 shell-pairs
 IPart= 13 NShTot=         401 NBatch=          40 AvBLen=        10.0
 PRISM was handed    33314694 working-precision words and  8385 shell-pairs
 IPart=  8 NShTot=         416 NBatch=          50 AvBLen=         8.3
 PRISM was handed    33314694 working-precision words and  8385 shell-pairs
 PRISM was handed    33314694 working-precision words and  8385 shell-pairs
 IPart=  2 NShTot=         454 NBatch=          74 AvBLen=         6.1
 IPart= 14 NShTot=         399 NBatch=          39 AvBLen=        10.2
 IPart= 16 NShTot=         396 NBatch=          38 AvBLen=        10.4
 IPart=  4 NShTot=         437 NBatch=          65 AvBLen=         6.7
 IPart=  5 NShTot=         431 NBatch=          62 AvBLen=         7.0
 IPart= 15 NShTot=         399 NBatch=          39 AvBLen=        10.2
 IPart= 12 NShTot=         405 NBatch=          41 AvBLen=         9.9
 IPart= 11 NShTot=         411 NBatch=          46 AvBLen=         8.9
 IPart=  7 NShTot=         418 NBatch=          51 AvBLen=         8.2
 IPart= 19 NShTot=         394 NBatch=          38 AvBLen=        10.4
 IPart=  9 NShTot=         416 NBatch=          50 AvBLen=         8.3
 IPart=  3 NShTot=         446 NBatch=          70 AvBLen=         6.4
 IPart= 18 NShTot=         395 NBatch=          38 AvBLen=        10.4
 IPart= 17 NShTot=         396 NBatch=          38 AvBLen=        10.4
 PrSmSu:  NxtVal=             81.
 Entering OneElI...
 Calculate potential energy integrals
    NBasis = 395  MinDer = 2  MaxDer = 2
 Requested accuracy = 0.1000D-12
 PrmmSu-InSpLW:  IPartL=    0 NPrtUS=   20 NPrtUL=    1 DoSpLW=F IThBeg=    0 IThEnd=   19 NThAct=   20.
 PrsmSu:  NPrtUS=  20 ThrOK=T IAlg=1 NPAlg=1 LenDen=           0 ISkipM=0 DoSpLW=F IThBeg=    0 IThEnd=   19.
 Prism:   IPart=     0 DynPar=F LinDyn=F Incr=          64.
 PRISM was handed    33357302 working-precision words and  7637 shell-pairs
 PRISM was handed    33357302 working-precision words and  7637 shell-pairs
 PRISM was handed    33357302 working-precision words and  7637 shell-pairs
 PRISM was handed    33357302 working-precision words and  7637 shell-pairs
 PRISM was handed    33357302 working-precision words and  7637 shell-pairs
 PRISM was handed    33357302 working-precision words and  7637 shell-pairs
 PRISM was handed    33357302 working-precision words and  7637 shell-pairs
 PRISM was handed    33357302 working-precision words and  7637 shell-pairs
 PRISM was handed    33357302 working-precision words and  7637 shell-pairs
 PRISM was handed    33357302 working-precision words and  7637 shell-pairs
 PRISM was handed    33357302 working-precision words and  7637 shell-pairs
 PRISM was handed    33357302 working-precision words and  7637 shell-pairs
 PRISM was handed    33357302 working-precision words and  7637 shell-pairs
 PRISM was handed    33357302 working-precision words and  7637 shell-pairs
 PRISM was handed    33357302 working-precision words and  7637 shell-pairs
 PRISM was handed    33357302 working-precision words and  7637 shell-pairs
 PRISM was handed    33357302 working-precision words and  7637 shell-pairs
 PRISM was handed    33357302 working-precision words and  7637 shell-pairs
 PRISM was handed    33357302 working-precision words and  7637 shell-pairs
 PRISM was handed    33357302 working-precision words and  7637 shell-pairs
 IPart= 10 NShTot=        6392 NBatch=         376 AvBLen=        17.0
 IPart=  5 NShTot=        6664 NBatch=         392 AvBLen=        17.0
 IPart= 11 NShTot=        6358 NBatch=         374 AvBLen=        17.0
 IPart= 12 NShTot=        6324 NBatch=         372 AvBLen=        17.0
 IPart=  0 NShTot=        7089 NBatch=         417 AvBLen=        17.0
 IPart=  2 NShTot=        6953 NBatch=         409 AvBLen=        17.0
 IPart=  8 NShTot=        6511 NBatch=         383 AvBLen=        17.0
 IPart=  7 NShTot=        6511 NBatch=         383 AvBLen=        17.0
 IPart= 15 NShTot=        6256 NBatch=         368 AvBLen=        17.0
 IPart= 18 NShTot=        6120 NBatch=         360 AvBLen=        17.0
 IPart= 16 NShTot=        6205 NBatch=         365 AvBLen=        17.0
 IPart=  6 NShTot=        6647 NBatch=         391 AvBLen=        17.0
 IPart= 19 NShTot=        6035 NBatch=         355 AvBLen=        17.0
 IPart=  3 NShTot=        6817 NBatch=         401 AvBLen=        17.0
 IPart=  4 NShTot=        6749 NBatch=         397 AvBLen=        17.0
 IPart=  1 NShTot=        7038 NBatch=         414 AvBLen=        17.0
 IPart=  9 NShTot=        6409 NBatch=         377 AvBLen=        17.0
 IPart= 14 NShTot=        6273 NBatch=         369 AvBLen=        17.0
 IPart= 17 NShTot=        6171 NBatch=         363 AvBLen=        17.0
 IPart= 13 NShTot=        6307 NBatch=         371 AvBLen=        17.0
 PrSmSu:  NxtVal=           1281.
 Polarizability after L701:
                1             2             3 
      1  0.000000D+00
      2  0.000000D+00  0.000000D+00
      3  0.000000D+00  0.000000D+00  0.000000D+00
 Dipole Derivatives after L701:
                 1             2             3             4             5 
      1  -0.266567D+00  0.398490D-01  0.226486D-01 -0.768088D+00 -0.166871D+01
      2   0.177784D+00 -0.183520D+00  0.455084D-01 -0.301078D+00 -0.765834D+00
      3   0.996416D-01  0.553117D-01 -0.162246D+00  0.114772D+00  0.310701D-01
                 6             7             8             9            10 
      1   0.862078D+00  0.381818D+00 -0.747541D-01  0.627150D+00 -0.209876D+01
      2   0.117535D+00  0.130281D+00  0.151199D+00 -0.723315D-02 -0.892058D-01
      3  -0.366081D+00  0.298199D-01  0.625992D-01 -0.550385D+00  0.892280D-01
                11            12            13            14            15 
      1  -0.290150D+00 -0.213985D+00 -0.752479D+00  0.641223D+00 -0.212489D+00
      2  -0.942706D+00 -0.647112D-04 -0.228399D-01 -0.141947D+01  0.628505D-01
      3   0.473234D-01 -0.916918D+00 -0.549618D-01 -0.168633D+00 -0.872279D+00
                16            17            18            19            20 
      1  -0.503268D+00 -0.248416D+00 -0.325635D+00 -0.688231D-01  0.244888D+00
      2  -0.772798D-02 -0.542911D+00  0.440465D+00  0.196777D-01 -0.364525D+00
      3  -0.194556D+00  0.399267D+00 -0.280437D+00 -0.236450D+00  0.244813D+00
                21            22            23            24            25 
      1  -0.693971D-02  0.922687D-01  0.316910D-01 -0.376578D+00  0.241129D+00
      2   0.256748D+00 -0.646992D-02  0.161578D+00 -0.561064D-01  0.559335D-01
      3  -0.136620D+00  0.288253D-01 -0.520331D-01  0.572533D+00  0.389845D-01
                26            27            28            29            30 
      1   0.704097D+00  0.718517D+00  0.689080D+00  0.427288D+00 -0.933391D+00
      2   0.443213D+00  0.352921D+00  0.148960D+00  0.208058D+00 -0.268586D+00
      3   0.257126D+00  0.357114D+00 -0.173612D+00 -0.159894D+00  0.458676D+00
                31            32            33            34            35 
      1   0.785209D+00 -0.941042D+00  0.375815D+00  0.507015D+00 -0.235722D+00
      2  -0.124295D+00  0.329674D+00 -0.875034D-01 -0.400745D+00  0.372437D+00
      3   0.698874D-01 -0.119983D+00  0.124207D+00  0.232696D+00 -0.130466D+00
                36            37            38            39            40 
      1   0.459501D+00  0.234314D+00 -0.218069D-01 -0.467389D-01  0.144737D+00
      2  -0.464617D+00  0.578339D+00  0.169832D+00 -0.220689D+00 -0.113899D+00
      3   0.346799D+00 -0.158929D+00  0.876100D-02  0.142627D+00 -0.562129D-01
                41            42            43            44            45 
      1  -0.257535D+00 -0.353402D+00  0.242387D+00 -0.373955D+00  0.273431D+00
      2   0.564608D+00  0.647892D+00 -0.145242D+00  0.699711D+00 -0.422757D+00
      3   0.225793D+00  0.441472D+00  0.785991D-01 -0.283000D+00  0.248288D+00
                46            47            48            49            50 
      1  -0.756856D-01  0.528667D+00 -0.304523D+00  0.121571D+01  0.149439D+01
      2  -0.122028D+00  0.441848D+00 -0.234159D+00  0.222556D+00  0.676806D+00
      3   0.114560D+00 -0.351797D+00  0.280433D+00 -0.222922D-01 -0.662580D-01
                51 
      1  -0.565460D+00
      2  -0.162205D+00
      3   0.312818D+00
 Hessian after L701:
                1             2             3             4             5 
      1  0.447217D+01
      2  0.279096D+01  0.143627D+02
      3 -0.152555D+00 -0.222661D+01  0.163038D+02
      4  0.415456D+00  0.158113D+00  0.125169D+00  0.388819D+01
      5  0.133168D+00 -0.183601D+00  0.324040D-01 -0.248206D+01  0.110674D+02
      6  0.153570D+00  0.444001D-01 -0.182306D+00 -0.204256D+01  0.122579D+01
      7 -0.462414D+01 -0.347724D+01 -0.244566D+01  0.187199D+00 -0.134707D-01
      8 -0.331517D+01 -0.569734D+01  0.235013D+01 -0.169704D-01 -0.917044D-01
      9 -0.230991D+01  0.229933D+01 -0.725000D+01  0.209613D-01 -0.675383D-02
     10  0.472544D+00 -0.543733D-01 -0.571045D-02  0.595908D-01  0.294258D-02
     11 -0.112662D+00 -0.252368D+00  0.532860D-01  0.341553D-02 -0.414225D-01
     12 -0.755183D-01  0.446864D-01 -0.231977D+00  0.193251D-02  0.153515D-02
     13 -0.334984D+00 -0.294649D-01  0.125856D+00  0.177780D+00 -0.129855D+00
     14  0.242745D-01  0.851748D+00 -0.149947D+00 -0.629197D-01 -0.881953D-01
     15  0.991506D-01 -0.457696D-01 -0.334618D+00  0.664494D-02 -0.677567D-03
     16 -0.510486D+00 -0.671354D-01  0.306625D+01 -0.254491D+00  0.395540D-01
     17 -0.361005D+00 -0.982988D+01  0.373064D+00  0.101498D+00  0.987348D-01
     18  0.283523D+01  0.387160D+00 -0.857936D+01 -0.315608D+00  0.705667D-01
     19  0.428592D-01  0.456509D+00 -0.575642D+00 -0.155662D+00  0.112730D+00
     20  0.526501D+00  0.360833D+00 -0.932319D-01  0.105481D+00 -0.841075D+01
     21 -0.430627D+00 -0.692132D-01  0.557817D-01  0.308960D+01  0.117317D-01
     22  0.887957D-01  0.207535D+00  0.197780D+00  0.232312D-01 -0.126736D-02
     23  0.174102D+00 -0.195129D-01 -0.310667D+00  0.407952D-02 -0.134926D-01
     24  0.188560D+00 -0.350434D+00  0.301820D+00 -0.320513D-01  0.471711D-02
     25  0.100229D+00 -0.116884D-01 -0.596060D-01  0.112107D-01  0.140450D-02
     26  0.511342D-01 -0.833798D-01 -0.636400D-03  0.104676D-01 -0.562328D-02
     27  0.136917D-01  0.192511D-02 -0.950551D-01  0.103049D-01 -0.374732D-03
     28  0.931210D-01  0.173758D-02 -0.765679D-01  0.127635D-01 -0.675538D-03
     29  0.150429D-01 -0.465819D-01 -0.942080D-02  0.516845D-02 -0.517302D-02
     30 -0.883212D-01 -0.256247D-02  0.828638D-02 -0.905190D-02  0.150421D-02
     31  0.921654D-01 -0.899066D-01  0.173377D-02  0.127900D-01 -0.515392D-02
     32 -0.920019D-01  0.167812D-01 -0.250428D-02 -0.834790D-02 -0.179777D-03
     33  0.125736D-01 -0.797594D-02 -0.451401D-01  0.414193D-02 -0.170050D-02
     34 -0.105359D-01 -0.815398D-01  0.776950D-02  0.190014D-01 -0.153797D-01
     35 -0.582690D-01  0.886956D-01 -0.595903D-02 -0.135553D-01 -0.409387D-03
     36  0.154320D-01 -0.313233D-01 -0.424072D-01  0.128485D-01 -0.850189D-02
     37  0.226003D-02  0.602903D-01 -0.731050D-02  0.618067D-02 -0.146014D-01
     38 -0.192849D-01  0.424125D-02 -0.411413D-01 -0.420697D-01 -0.628298D-02
     39 -0.165486D-01 -0.604105D-01 -0.172741D-01  0.295456D-01 -0.176552D-01
     40 -0.398846D-01 -0.472337D-01 -0.297867D-01  0.160716D-01 -0.165857D-01
     41 -0.478027D-01  0.103859D+00  0.104269D+00 -0.207121D-01  0.424694D-02
     42 -0.300558D-01  0.110838D+00  0.165142D-01 -0.159929D-01  0.134578D-01
     43 -0.317847D+00  0.784113D-01 -0.176431D+00  0.819123D-01  0.100083D+00
     44  0.100855D+00  0.270160D+00 -0.582703D-01  0.159818D+00  0.150913D-01
     45 -0.177774D+00 -0.597146D-01  0.180639D+00 -0.408269D-01 -0.293817D-01
     46  0.317987D-01  0.907617D-01  0.276218D-02 -0.137473D+00  0.731115D-01
     47  0.151581D+00  0.459314D-01 -0.173140D-01  0.110234D+00  0.229108D+00
     48 -0.271335D-01 -0.309002D-01 -0.805145D-01 -0.225439D+00  0.128671D-01
     49  0.264770D-01  0.142589D-01  0.194767D-02 -0.436375D+01  0.221606D+01
     50  0.385703D-01  0.773090D-02  0.255008D-02  0.198837D+01 -0.256778D+01
     51 -0.975824D-02 -0.342702D-02 -0.818339D-02 -0.619619D+00 -0.130953D+01
                6             7             8             9            10 
      6  0.133392D+02
      7  0.848806D-02  0.167308D+02
      8 -0.298190D-02  0.213496D+01  0.181240D+02
      9 -0.951348D-01  0.182310D+01 -0.160921D+01  0.206950D+02
     10  0.723934D-02 -0.184993D+01  0.108126D+01  0.675809D+00  0.109727D+02
     11  0.559351D-03  0.104050D+01 -0.557303D+01  0.117225D+00 -0.656023D+00
     12 -0.422076D-01  0.682341D+00  0.129727D+00 -0.570442D+01 -0.239977D+00
     13  0.280953D-01 -0.641868D+01  0.606124D+00 -0.499800D-01  0.806066D-01
     14 -0.131790D-02  0.690462D+00 -0.200169D+01 -0.629245D+00  0.106018D+00
     15 -0.105052D+00 -0.462349D-01 -0.624587D+00 -0.623208D+01  0.101442D-01
     16 -0.355561D+00  0.118379D+00 -0.284212D+00 -0.136344D+00  0.365956D+00
     17  0.787260D-01 -0.218356D+00 -0.220828D-01  0.509893D-01 -0.379254D-01
     18  0.408271D-01 -0.145551D+00  0.581889D-01 -0.416901D-01  0.382313D-01
     19  0.310971D+01  0.346231D+00 -0.751002D-01 -0.106905D+00  0.109209D+00
     20  0.266906D-01  0.521539D-03 -0.219243D+00  0.182971D-01  0.384485D-01
     21 -0.747008D+01 -0.135437D+00  0.130879D-01 -0.163471D+00 -0.279567D-02
     22 -0.102178D-01 -0.469909D+01 -0.476200D-01  0.155417D+00 -0.941475D-01
     23 -0.739002D-03 -0.564766D-01 -0.464699D+01 -0.253682D+00 -0.620484D-01
     24 -0.728203D-02  0.297564D+00 -0.284171D+00 -0.170069D+01 -0.144787D+00
     25  0.403488D-02  0.190305D-01 -0.786740D-01 -0.844066D-01 -0.392842D+01
     26  0.390873D-02 -0.422058D-01  0.814815D-01 -0.241789D-01  0.905172D-01
     27 -0.138277D-02 -0.368887D-01 -0.575878D-02  0.759601D-01  0.103802D+00
     28 -0.347284D-03 -0.505931D-01 -0.372951D-01  0.197535D-01 -0.328750D+01
     29 -0.297999D-04 -0.285344D-01  0.547598D-01 -0.927735D-02  0.421991D+00
     30 -0.426861D-02  0.773424D-03 -0.161614D-01  0.100171D+00 -0.876725D+00
     31  0.324053D-02 -0.114996D+00  0.529085D-01 -0.609516D-01 -0.300413D+01
     32 -0.247969D-02  0.138891D-01  0.150240D+00 -0.255556D-03 -0.106384D+01
     33 -0.329341D-02 -0.363581D-01 -0.299743D-03  0.104264D+00  0.426640D+00
     34  0.982911D-02  0.103619D+00  0.460963D-02  0.240720D-01 -0.612703D-02
     35 -0.466700D-02  0.243935D-01 -0.867442D-01  0.824126D-01 -0.216095D-01
     36 -0.244672D-02  0.189598D-01  0.449216D-01  0.833446D-01  0.169798D-01
     37  0.220911D-03  0.638325D-01 -0.509494D-01  0.365109D-01  0.114796D+00
     38 -0.570793D-02 -0.138841D+00  0.221038D-01  0.583788D-01  0.110419D+00
     39 -0.220308D-01  0.320593D-01  0.165531D-01  0.697939D-01 -0.293086D-01
     40 -0.330395D-02  0.843438D-01  0.518088D-01 -0.234931D-02 -0.105550D-01
     41  0.211064D-02  0.606566D-01 -0.102132D+00 -0.394877D-01  0.410361D-01
     42 -0.872804D-02  0.928431D-02 -0.227579D-01  0.101794D+00  0.199004D-01
     43 -0.848974D-02  0.399046D-01 -0.501781D-01  0.285378D-01  0.228385D-02
     44 -0.135369D-01 -0.737880D-01  0.308985D-01 -0.375378D-01 -0.138271D-01
     45 -0.806941D-01  0.399994D-01 -0.306752D-01 -0.188154D-01  0.821315D-02
     46 -0.171050D+00  0.425681D-01  0.225899D-01 -0.364803D-01 -0.335507D-02
     47  0.104567D-01  0.634635D-01 -0.186756D-01 -0.213876D-01  0.110287D-01
     48  0.890814D-01 -0.579212D-01 -0.151782D-01 -0.164597D-01 -0.573439D-02
     49 -0.732896D+00  0.214843D-01  0.190270D-02  0.316459D-02  0.648947D-02
     50 -0.136119D+01  0.200606D-01 -0.384313D-02  0.438347D-02  0.597956D-02
     51 -0.544417D+01 -0.852174D-02 -0.824093D-03 -0.753752D-02 -0.192241D-02
               11            12            13            14            15 
     11  0.144273D+02
     12 -0.834091D-01  0.148512D+02
     13  0.235895D+00 -0.344844D-01  0.147236D+02
     14  0.628063D-01 -0.329594D-01 -0.152335D+00  0.123346D+02
     15  0.136496D-01 -0.113256D+00  0.111401D+00  0.646263D-01  0.161949D+02
     16 -0.535426D-01  0.155217D-01 -0.998328D-01 -0.147518D+00 -0.377485D-01
     17 -0.158991D+00 -0.653358D-03 -0.236620D+00  0.138027D+00  0.479119D-01
     18 -0.446623D-02 -0.162525D+00 -0.207441D-01  0.393752D-01 -0.163662D+00
     19  0.192801D-01 -0.183780D-01  0.316792D+00 -0.154964D+00 -0.926830D-01
     20 -0.676319D-01 -0.164439D-03 -0.230764D+00 -0.116729D+00  0.638625D-01
     21  0.146040D-02 -0.655224D-01 -0.333328D-01  0.308208D-01 -0.176082D+00
     22 -0.638568D-01 -0.119780D+00  0.291828D+00 -0.151973D-01  0.165355D-01
     23  0.106926D+00 -0.489553D-01  0.119130D-01 -0.150088D+00  0.295283D+00
     24 -0.604596D-01  0.780424D-01 -0.603016D-02  0.373939D+00  0.703081D-01
     25  0.255695D+00  0.276376D+00 -0.311015D-02  0.486679D-01  0.182106D-01
     26 -0.267489D+01  0.124119D+01  0.510412D-01  0.394887D-01  0.350234D-01
     27  0.122558D+01 -0.258774D+01  0.220169D-01  0.301075D-01 -0.170389D-01
     28  0.467505D+00 -0.995206D+00  0.374681D-01  0.822139D-01 -0.399368D-01
     29 -0.346984D+01 -0.711089D+00  0.781005D-01  0.324787D-01 -0.392210D-01
     30 -0.693546D+00 -0.236454D+01 -0.497013D-01 -0.462451D-01 -0.192044D-01
     31 -0.125196D+01  0.490943D+00  0.511044D-01  0.208357D-01  0.217916D-01
     32 -0.239516D+01 -0.576990D+00 -0.152686D-01 -0.318614D-01 -0.287778D-02
     33 -0.594919D+00 -0.357777D+01  0.264085D-01  0.613501D-02 -0.305478D-01
     34 -0.241831D-01  0.235894D-01 -0.311244D+01 -0.589613D+00  0.105657D+01
     35 -0.170441D-01  0.275998D-01 -0.689134D+00 -0.358820D+01 -0.842212D+00
     36  0.499926D-02 -0.379427D-02  0.106220D+01 -0.719816D+00 -0.263111D+01
     37  0.104899D+00 -0.243552D-01 -0.186831D+01  0.336958D+00 -0.847882D+00
     38  0.126641D-01 -0.128042D-01  0.670737D+00 -0.446331D+01 -0.198104D+00
     39 -0.171654D-01 -0.462320D-01 -0.902773D+00 -0.906563D-01 -0.417062D+01
     40  0.401870D-01  0.161913D-01 -0.381118D+01 -0.234584D+00 -0.308655D+00
     41  0.454874D-01  0.335548D-01 -0.230424D+00 -0.301620D+01  0.126242D+01
     42  0.467166D-01 -0.133650D-01 -0.277717D+00  0.115219D+01 -0.226421D+01
     43 -0.760658D-02  0.348966D-02 -0.825621D-02  0.869513D-02  0.156517D-02
     44  0.925241D-03 -0.359204D-02 -0.541448D-02 -0.903204D-02 -0.399381D-02
     45 -0.645290D-02 -0.882692D-02  0.601614D-02 -0.378494D-02 -0.619389D-02
     46  0.944418D-03 -0.148644D-02 -0.556404D-01  0.363989D-01  0.345758D-01
     47 -0.381239D-02 -0.620145D-02  0.464464D-01  0.845756D-02 -0.222144D-01
     48 -0.284903D-02 -0.488509D-02  0.276367D-02 -0.206440D-01  0.541792D-02
     49  0.150503D-02 -0.119934D-02  0.332743D-01  0.260587D-02 -0.344458D-02
     50 -0.188785D-02 -0.147957D-02  0.190224D-01 -0.227590D-02 -0.312046D-02
     51 -0.211609D-03 -0.219151D-02 -0.999784D-02 -0.257765D-02 -0.694484D-02
               16            17            18            19            20 
     16  0.997087D+01
     17 -0.389225D+01  0.189643D+02
     18 -0.283186D+01  0.362426D+01  0.248908D+02
     19 -0.580531D+01  0.552774D+01 -0.185262D+00  0.933901D+01
     20  0.523759D+01 -0.634960D+01 -0.299885D+01 -0.473876D+01  0.182068D+02
     21 -0.217167D+00 -0.305397D+01 -0.124876D+02 -0.301571D+01  0.401470D+01
     22  0.509611D-01  0.104209D-01 -0.759066D-01 -0.780855D-01  0.871867D-02
     23  0.148935D-01 -0.958091D-01 -0.997859D-02  0.107074D-01  0.196676D-01
     24 -0.140275D+00  0.438996D-02  0.209182D-01  0.546930D-01 -0.886508D-02
     25  0.524322D-01  0.120788D-01  0.190379D-01  0.132202D-01  0.832900D-02
     26  0.277743D-01 -0.177849D-01  0.638249D-02  0.163667D-01 -0.843701D-03
     27  0.339636D-01  0.536923D-02 -0.133327D-01  0.143187D-01  0.657816D-02
     28  0.227773D-01 -0.873165D-03 -0.754397D-02  0.192693D-01  0.703187D-02
     29  0.420361D-02 -0.109768D-01 -0.179401D-02  0.780606D-02 -0.397175D-02
     30 -0.179047D-01  0.553062D-03 -0.332625D-02 -0.147519D-01 -0.492581D-02
     31  0.120381D-01 -0.870988D-02  0.840746D-03  0.218751D-01  0.235361D-03
     32 -0.157817D-01 -0.549174D-03  0.202041D-03 -0.128881D-01 -0.631101D-02
     33  0.434713D-02 -0.191827D-02 -0.846610D-02  0.458195D-02  0.481371D-03
     34  0.284675D-01 -0.498330D-01  0.208215D-01  0.285250D-01 -0.121537D-01
     35 -0.502988D-01  0.221783D-01 -0.195218D-01 -0.206614D-01 -0.752871D-02
     36  0.276529D-01 -0.269359D-01 -0.120344D-01  0.195342D-01 -0.508828D-02
     37 -0.766214D-01  0.370078D-02 -0.515304D-03 -0.683184D-01 -0.792029D-02
     38 -0.558164D-01  0.119762D+00 -0.248951D-01 -0.482097D-01 -0.136222D-01
     39  0.926510D-02 -0.494157D-01 -0.680931D-01  0.592023D-01 -0.378653D-01
     40  0.922414D-02 -0.402790D-01 -0.119440D-01  0.669441D-02 -0.500481D-02
     41 -0.439545D-01  0.329687D-01  0.172455D-01 -0.137540D-01 -0.105732D-01
     42 -0.192833D-01  0.285082D-01 -0.856801D-02 -0.221350D-01  0.102922D-01
     43 -0.428253D+01 -0.725811D+00  0.560611D+00  0.343762D+00 -0.158433D+00
     44 -0.710219D+00 -0.265184D+01 -0.147145D+01 -0.202960D+00 -0.315504D+00
     45  0.527563D+00 -0.140470D+01 -0.342794D+01  0.127202D+00  0.373225D+00
     46  0.254749D+00 -0.235460D+00  0.139569D+00 -0.445900D+01 -0.610751D+00
     47 -0.160528D+00 -0.300980D+00  0.338374D+00 -0.847612D+00 -0.305152D+01
     48  0.101687D+00  0.343789D+00  0.776386D-01  0.652242D+00 -0.135046D+01
     49  0.143411D+00  0.151682D+00 -0.194020D-01 -0.210713D-01 -0.169072D+00
     50  0.157234D+00  0.625003D-01 -0.108009D-01 -0.362292D-01 -0.134690D-01
     51 -0.301049D-01 -0.199658D-01 -0.535711D-01 -0.100140D-01 -0.146814D-01
               21            22            23            24            25 
     21  0.239779D+02
     22  0.664674D-01  0.437927D+01
     23 -0.309469D-02 -0.311761D-02  0.479907D+01
     24 -0.280057D-01 -0.287170D+00  0.372740D+00  0.111237D+01
     25  0.547482D-02  0.109659D-01  0.246269D-01  0.685796D-01  0.355925D+01
     26  0.460392D-02  0.278138D-01 -0.136325D-01  0.468824D-01 -0.380331D+00
     27 -0.364641D-02  0.530112D-01  0.304985D-01  0.586313D-01 -0.343028D+00
     28 -0.385070D-02 -0.529636D-01 -0.231763D-01 -0.136010D-01  0.802206D-01
     29 -0.959889D-03 -0.214825D-01  0.189853D-01 -0.272781D-02  0.235056D-01
     30 -0.352204D-02 -0.168344D-01 -0.506810D-02  0.186888D-01  0.581987D-01
     31  0.219284D-02  0.262532D-01 -0.156620D-01  0.461141D-01  0.813683D-01
     32 -0.165596D-02 -0.161412D-01 -0.108337D-01 -0.202067D-01  0.790158D-01
     33 -0.560173D-02  0.309244D-01 -0.115201D-01  0.159046D-01  0.355845D-01
     34  0.160466D-01 -0.293296D-01 -0.266730D-01  0.358601D-01 -0.588197D-02
     35 -0.735148D-02 -0.211449D-01  0.352539D-01 -0.974559D-01  0.173794D-01
     36 -0.515127D-02  0.223675D-01 -0.775694D-01  0.707728D-01 -0.221634D-02
     37  0.423562D-01  0.309706D-02 -0.388408D-02 -0.481650D-02 -0.857132D-03
     38 -0.426545D-01 -0.612372D-02 -0.594663D-02  0.784086D-02 -0.488143D-02
     39 -0.515377D-01  0.460676D-02  0.839221D-02  0.376050D-03 -0.132044D-02
     40 -0.754606D-02  0.801506D-02  0.115011D-02  0.100174D-02 -0.923168D-03
     41  0.603830D-02 -0.363932D-03 -0.315499D-01 -0.123648D-02  0.234466D-02
     42 -0.297424D-02 -0.969606D-03  0.107035D-01  0.305929D-02  0.189047D-02
     43  0.103146D+00  0.591377D-01 -0.585549D-01 -0.413614D-01  0.693070D-02
     44  0.400763D+00 -0.708790D-01  0.969769D-02  0.369251D-01 -0.461394D-02
     45  0.118233D+00 -0.177941D-01  0.120282D-01 -0.308640D-01  0.534585D-02
     46  0.463177D+00  0.100590D-01  0.700945D-02 -0.171061D-01  0.246154D-02
     47 -0.132579D+01  0.104461D-01 -0.210262D-02 -0.161751D-01  0.496097D-02
     48 -0.375316D+01 -0.171262D-01 -0.783485D-02  0.140698D-01 -0.157870D-02
     49  0.580063D-01  0.199869D-02  0.111052D-02 -0.517365D-02  0.187809D-02
     50  0.214854D-01  0.225957D-02  0.355112D-03 -0.570258D-02  0.218030D-02
     51  0.644547D-01 -0.131145D-02 -0.535983D-03  0.188443D-02 -0.577507D-03
               26            27            28            29            30 
     26  0.272270D+01
     27 -0.116471D+01  0.268713D+01
     28  0.233342D-01  0.796215D-01  0.297658D+01
     29  0.999785D-01 -0.683902D-01 -0.535785D+00  0.339457D+01
     30 -0.515545D-01 -0.189703D+00  0.106167D+01  0.647691D+00  0.251039D+01
     31  0.106692D+00  0.376377D-01  0.141513D+00  0.218124D-01 -0.358969D-01
     32 -0.185550D+00 -0.738675D-01  0.948943D-03 -0.781605D-01  0.189461D+00
     33 -0.924136D-01  0.980066D-01 -0.175939D-01  0.205108D+00 -0.549181D-01
     34  0.694865D-02 -0.146114D-02 -0.287171D-02  0.241775D-02 -0.504952D-03
     35  0.333498D-01  0.545737D-02  0.955555D-02  0.898220D-02 -0.107452D-01
     36 -0.767294D-02 -0.119881D-01 -0.840627D-02 -0.116300D-01  0.620376D-02
     37  0.288028D-02  0.442194D-02  0.686594D-04 -0.344571D-03 -0.383664D-02
     38 -0.233417D-02  0.107688D-02 -0.364575D-02 -0.234510D-02 -0.280622D-03
     39 -0.209369D-02 -0.158798D-02 -0.416620D-03 -0.697373D-03  0.186655D-02
     40  0.118006D-02  0.514912D-03  0.502904D-03  0.398741D-02 -0.120282D-02
[...]
   yy         0.579477D+02      0.858697D+01      0.955429D+01
   zx         0.166114D+01      0.246155D+00      0.273885D+00
   zy         0.132805D+01      0.196797D+00      0.218966D+00
   zz         0.590204D+02      0.874593D+01      0.973116D+01

 ----------------------------------------------------------------------

 Test job not archived.
 1\1\GINC-C0201\Freq\RM062X\CC-pVTZ\C5H10O2\HARMS.N\27-Sep-2019\0\\#P G
 eom=AllCheck Guess=TCheck SCRF=Check Test GenChk RM062X/CC-pVTZ Freq\\
 Gaussian input prepared by ASE\\0,1\O,-0.2173544317,-1.1563478644,1.56
 74558286\O,2.7954289755,-0.091196935,-0.0936066897\C,-1.1205973222,-0.
 3656082794,2.3413067966\C,-2.2333904719,-1.2933058503,2.7783617652\C,-
 1.6300388099,0.8135013211,1.5314841187\C,0.985078509,-0.5630813691,1.3
 198901119\C,1.5742296742,-0.6679546156,0.139634137\H,-0.5795205033,0.0
 024275792,3.2220971214\H,-2.7535232834,-1.6814350876,1.9023166527\H,-1
 .8307168327,-2.1329737461,3.3418339508\H,-2.950739853,-0.7601579923,3.
 4011383042\H,-2.1647293083,0.4516488032,0.6522756723\H,-0.805577551,1.
 442868427,1.1978918839\H,-2.3098065621,1.4208073428,2.1288776056\H,1.4
 535990961,-0.0302599974,2.1429654553\H,1.095531983,-1.1935006939,-0.67
 77845881\H,3.2405743917,-0.5637614087,-0.798591952\\Version=EM64L-G16R
 evA.03\State=1-A\HF=-346.940684\RMSD=1.507e-09\RMSF=6.769e-07\ZeroPoin
 t=0.1464582\Thermal=0.1553569\Dipole=-0.1371877,-0.0002214,-0.1877755\
 DipoleDeriv=-1.4557799,0.0308971,0.7058491,-0.1855228,-0.4857805,0.133
 1733,0.4567454,-0.0843733,-0.7062499,-1.2619966,-0.1479313,0.5709731,-
 0.4277486,-0.3429891,0.3625227,0.2408139,0.0763347,-0.5596281,0.776420
 8,-0.1365844,-0.2488446,-0.295029,0.4964575,0.1113779,-0.3636608,0.017
 4851,0.6240846,-0.0362875,-0.0332112,0.0466432,-0.0562683,-0.0029123,0
 .0456987,0.0500521,0.0385608,0.0509869,-0.0314771,0.0088442,0.0270619,
 0.1036603,-0.0964083,0.0451333,0.0093975,0.1222593,-0.0133989,0.849328
 4,0.166524,-0.4721163,0.6082807,-0.0326746,-0.2440116,-0.054349,0.0731
 223,0.2153051,0.883271,0.2836439,-0.5283031,0.5083604,0.0063057,-0.217
 1742,-0.1714431,0.0379927,0.2407686,-0.092914,-0.0482997,-0.1067981,0.
 0147658,-0.0300064,-0.0480572,-0.0315644,-0.0338634,-0.1225487,0.02195
 69,-0.0337599,-0.0329164,-0.0419686,0.0388775,-0.0099939,-0.0914045,-0
 .0589281,-0.0608013,0.0337698,0.0507656,-0.0455888,0.0077328,-0.058841
 8,0.0885723,-0.0253735,0.0781692,0.0218196,-0.0346562,0.0321924,0.0766
 147,0.0666943,0.0038623,-0.06599,0.0799313,-0.0404439,0.0080387,0.0218
 578,-0.0074817,-0.0618113,-0.0541325,0.0195879,-0.0649644,-0.0774799,-
 0.0159735,-0.0479234,-0.0249595,-0.0866701,0.0299498,-0.0782749,0.0021
 803,0.0567004,0.0191186,0.0558494,0.0298538,-0.0242569,0.0817337,0.061
 4152,0.0829221,0.02005,-0.0486583,0.0698993,-0.0688745,0.0012632,0.034
 9234,-0.0548839,0.002689,-0.1454764,0.0979823,-0.0174411,-0.0323129,-0
 .0763233,-0.0269766,0.0152439,-0.084286,-0.022776,-0.1241736,0.1037629
 ,-0.03152,-0.0105942,-0.066176,-0.0007434,0.3255557,-0.0214926,-0.0020
 414,0.0161781,0.2605467,-0.0953678,-0.0677758,-0.0548175,0.3461498\Pol
 ar=78.9306349,0.9908212,57.950084,-16.2091008,0.9227462,72.0736794\Qua
 drupole=0.2895926,-3.424468,3.1348754,-2.3853106,-3.8578868,2.3782797\
 PG=C01 [X(C5H10O2)]\NImag=0\\0.47460998,0.06161584,0.27527476,-0.15341
 024,0.07839324,0.21134349,-0.01464447,-0.00577137,0.01103454,0.4512967
 0,-0.00791205,0.00558275,-0.00099792,0.02920190,0.25025518,0.00980672,
 -0.00240097,-0.00699245,-0.24776824,0.20474853,0.38590442,-0.11307570,
 0.02442891,0.03485508,0.00418195,0.00028216,-0.00106756,0.53191382,0.0
 4735065,-0.13172512,-0.06166690,-0.00384774,-0.00066481,0.00287421,0.0
 5677924,0.51138348,0.04550689,-0.04962862,-0.10966891,-0.00597922,-0.0
 0326555,0.00232006,0.05243698,0.01163812,0.55380475,-0.03324717,-0.011
 84991,0.01599349,-0.00054221,-0.00015863,0.00048670,-0.14482328,-0.059
 78620,0.02150108,0.53872271,0.02150349,0.01235117,-0.00840715,0.000911
 40,0.00035014,-0.00071973,-0.07119171,-0.13617558,0.02650700,-0.048336
 31,0.55674297,0.02877736,0.01031854,-0.01051051,0.00043207,0.00007656,
 -0.00050260,0.01539143,0.01826021,-0.08777845,0.01443629,0.01257086,0.
 57928772,-0.01932831,0.02880153,-0.00336457,-0.00078379,-0.00052631,0.
 00028763,-0.09175083,0.02200125,-0.02456650,0.01111125,-0.02136556,0.0
 1384595,0.57325701,0.02087478,-0.02408041,0.00289582,0.00096122,0.0003
 1048,-0.00039635,0.02291193,-0.14341382,0.05247259,0.00326942,-0.02148
 931,0.01662846,0.02733354,0.52636573,0.01692553,-0.02159996,0.00990782
 ,0.00076506,0.00066750,-0.00047015,-0.02798488,0.06080821,-0.12513062,
 -0.00300139,0.01103165,-0.00683529,-0.02481743,0.04168695,0.55485411,-
 0.25247417,-0.09090974,0.05090090,-0.01976727,0.00305773,0.03914879,-0
 .04806376,-0.00316197,0.01951509,-0.00145935,0.00130844,0.00013523,0.0
 0212602,-0.00054895,-0.00271211,0.58362144,-0.11871784,-0.11960598,0.0
 0002494,-0.00919863,0.00902362,0.01991768,0.01024169,0.01277020,0.0045
 3216,0.00178533,-0.00236142,-0.00211387,0.00442200,-0.00186577,-0.0036
 4646,0.16261344,0.28230324,0.03617533,-0.01503176,-0.08563958,0.012071
 31,0.00701799,0.00146435,0.02781992,0.01132374,-0.01332319,0.00347438,
 -0.00333554,-0.00285071,-0.00168647,-0.00036731,0.00171653,-0.18249460
 ,0.17356644,0.82079678,-0.02074508,0.00147396,0.03539271,-0.26880506,-
 0.09143782,0.06210943,-0.00218251,-0.00338921,0.00261334,-0.00048185,0
 .00071535,0.00086762,0.00072365,-0.00044372,-0.00019321,-0.17971496,-0
 .00154382,0.17466339,0.58705025,-0.01200167,0.00529096,0.02021578,-0.1
 2269319,-0.10367237,-0.00133465,0.00073129,-0.00300422,0.00043343,-0.0
 0028047,0.00048349,0.00064497,-0.00011123,-0.00009882,-0.00014154,-0.0
 0130835,-0.07878785,-0.06838928,0.17395604,0.27366345,0.01441031,0.009
 37649,-0.00138464,0.03414193,-0.02205970,-0.09691419,-0.00350781,-0.00
 029459,0.00145668,-0.00040827,0.00042728,0.00084700,0.00024199,0.00061
 158,0.00014754,0.17211830,-0.07037697,-0.48766053,-0.17568154,0.175085
 93,0.83366043,0.00290520,0.01253389,0.02536659,-0.00022771,0.00015950,
 -0.00005038,-0.11684686,-0.04343951,-0.10390781,-0.01280243,-0.0087570
 7,-0.01954255,-0.00484032,-0.00396373,-0.00947554,0.00501471,0.0034357
 6,0.00261660,-0.00009788,-0.00014097,0.00027597,0.12762833,0.00053564,
 -0.01288779,-0.02551472,0.00039512,0.00009610,-0.00022134,-0.03987370,
 -0.07374993,-0.05837877,-0.01211303,-0.00708935,-0.01529770,0.01397848
 ,0.00788884,0.02279098,-0.00354920,-0.00083372,0.00179582,0.00038560,0
 .00020883,0.00002453,0.04069033,0.08858817,0.00499673,-0.01617474,-0.0
 2288788,0.00053599,0.00010110,-0.00022787,-0.10011110,-0.05865388,-0.2
 0291790,0.00516386,0.00433758,0.00955813,-0.01156851,-0.00387840,-0.01
 459225,-0.00510279,-0.00233541,0.00082676,0.00069136,0.00054712,0.0001
 4203,0.10402684,0.07161709,0.22850843,0.00238718,0.00064318,-0.0003731
 6,0.00007037,-0.00000330,-0.00000495,-0.01490599,-0.01084114,-0.022270
 53,-0.10555710,-0.04340252,-0.10216288,0.00059865,0.00155936,-0.000449
 22,-0.00034762,0.00001166,0.00010530,0.00008626,0.00009535,0.00003839,
 -0.00293235,-0.00287282,0.00225961,0.11414657,0.00150318,0.00087532,0.
 00043878,-0.00008209,-0.00005146,0.00003904,-0.01088028,-0.00982422,-0
 .01911762,-0.04385667,-0.08025138,-0.07481666,0.00011077,0.00084983,-0
 .00153470,0.00014481,0.00002951,0.00005059,0.00010796,0.00007479,0.000
 06160,-0.00309886,-0.00176542,0.00188489,0.05208685,0.08586864,-0.0013
 5555,0.00031038,0.00106103,-0.00012412,-0.00004392,0.00008470,0.004873
 33,0.00353247,0.00696822,-0.10385503,-0.07653333,-0.22410789,0.0005655
 8,-0.00009914,0.00128129,0.00045350,0.00035807,0.00026664,-0.00003975,
 -0.00003769,-0.00006994,0.00178272,0.00127688,0.00048731,0.11278581,0.
 08284204,0.24052133,0.00197364,0.00064153,-0.00138991,0.00020131,0.000
 07191,-0.00010135,0.00975507,-0.02085624,0.01483789,-0.08706302,0.0813
 7606,-0.05552942,-0.00399429,-0.00216039,0.00143827,-0.00017448,-0.000
 21733,-0.00013664,-0.00001994,-0.00002407,0.00000910,0.00114461,0.0007
 2269,-0.00041778,-0.00617523,0.01163599,-0.00631730,0.09166031,0.00084
 444,0.00175036,-0.00124787,-0.00003065,-0.00005247,-0.00000504,0.00987
 900,-0.01755713,0.01065507,0.07822894,-0.20753296,0.10863065,-0.004618
 62,-0.00165204,0.00059493,-0.00022206,0.00019458,-0.00011696,0.0000809
 4,0.00010592,-0.00009894,0.00023043,0.00040105,-0.00056836,-0.00478299
 ,0.01025998,-0.00629542,-0.08451549,0.22561908,-0.00073920,-0.00071782
 ,0.00046884,-0.00012660,-0.00003892,0.00005614,-0.00386494,0.00643291,
 -0.00605052,-0.05400330,0.10828011,-0.12105002,0.00219263,0.00089879,0
 .00009790,0.00035451,-0.00003710,0.00001480,0.00000972,-0.00003503,0.0
 0002498,0.00046342,-0.00047005,0.00044872,-0.00904977,0.02063007,-0.01
 269160,0.05875573,-0.12010451,0.12697011,-0.00598956,-0.00406809,0.001
 99744,-0.00048734,-0.00015374,0.00032449,-0.01259871,0.01618199,0.0120
 6167,-0.16343268,0.08581200,0.10194723,0.00057273,0.00089924,-0.000262
 15,0.00075444,0.00105049,0.00125919,-0.00021378,-0.00014004,-0.0001855
 5,0.00028744,0.00016858,-0.00087043,0.01172518,-0.00816300,-0.00879603
 ,-0.00778999,0.00435445,0.00642972,0.17680336,-0.00469125,-0.00173966,
 0.00186224,-0.00011338,-0.00010897,0.00016585,-0.01055470,0.01093008,0
 .01178680,0.08855082,-0.11439926,-0.07741220,0.00033667,0.00027431,-0.
 00012320,-0.00060872,0.00084090,0.00091565,-0.00022664,-0.00007355,-0.
 00017380,0.00060378,0.00063538,-0.00062869,0.00731945,-0.00608854,-0.0
 0479734,0.01466870,-0.01104438,-0.01546174,-0.09510037,0.12098540,0.00
 242870,0.00163370,0.00025084,0.00022428,0.00012199,-0.00013339,0.00274
 925,-0.00604250,-0.00641985,0.10238168,-0.07555836,-0.13561702,-0.0002
 3818,-0.00052946,0.00005177,-0.00017568,-0.00046588,0.00015587,-0.0000
 3952,-0.00002074,0.00006405,0.00006683,0.00030599,0.00029713,0.0180472
 6,-0.01156342,-0.01379037,-0.01208820,0.00766050,0.01106482,-0.1133847
 4,0.08365194,0.14386891,0.00098889,-0.00080578,0.00101615,-0.00002268,
 -0.00007659,0.00011104,-0.00727258,-0.00349026,-0.01108830,0.00031532,
 -0.00027909,0.00117916,-0.11110845,-0.04553555,-0.10463538,-0.00038023
 ,-0.00019289,0.00003903,0.00011621,0.00005034,-0.00010364,0.00010369,0
 .00209330,-0.00100460,0.00061215,0.00010161,0.00002037,-0.00007807,0.0
 0003430,0.00015314,-0.00000897,0.00009094,0.00010935,0.11668367,-0.002
 37177,0.00189116,-0.00082192,-0.00019770,-0.00012753,0.00010503,0.0138
 1444,0.00809422,0.02365963,0.00101247,0.00182641,0.00011268,-0.0458772
 8,-0.07827347,-0.07503264,0.00032865,0.00028585,-0.00016854,0.00015764
 ,0.00011158,-0.00003801,0.00202630,-0.00388380,0.00302854,-0.00032652,
 -0.00026896,-0.00041055,0.00002139,0.00011606,-0.00028406,-0.00013455,
 -0.00001168,-0.00003023,0.04884975,0.08313024,0.00081427,-0.00017914,0
 .00263653,-0.00008636,-0.00001534,0.00006646,-0.00951064,-0.00716836,-
 0.01858757,-0.00019580,-0.00120912,0.00060640,-0.10464951,-0.07305376,
 -0.21871943,-0.00012134,0.00026243,-0.00014888,-0.00002449,0.00005868,
 -0.00018775,-0.00098247,0.00347665,-0.00068945,0.00058150,0.00078847,0
 .00007361,0.00022113,0.00005484,0.00048398,-0.00005496,0.00006084,-0.0
 0005716,0.11735637,0.07796348,0.23833448,0.00076192,-0.00169609,0.0002
 4062,0.00005916,0.00012865,-0.00009478,0.01031973,0.00771227,-0.003736
 26,-0.00056781,0.00189083,-0.00074937,-0.20508364,-0.11970951,0.061507
 20,-0.00084585,0.00119445,0.00018175,-0.00048281,0.00025655,-0.0000731
 4,0.00062647,-0.00074314,0.00056039,0.00004247,0.00027093,0.00004531,0
 .00053904,0.00054200,-0.00023661,0.00002879,0.00000833,-0.00021698,-0.
 01138340,-0.00738745,0.00521352,0.22046200,-0.00024076,0.00211905,-0.0
 0075948,-0.00046959,-0.00029411,0.00016826,-0.02170132,-0.01547790,0.0
 0690975,0.00360612,-0.00348802,0.00288789,-0.11768418,-0.13572042,0.04
 604041,-0.00010615,-0.00027429,0.00041675,0.00084629,0.00046174,-0.000
 78406,0.00043591,0.00094190,-0.00047012,0.00028864,0.00031174,-0.00005
 042,-0.00126392,-0.00089862,0.00071113,-0.00011692,0.00025632,0.000099
 40,-0.00740650,-0.00647821,0.00352489,0.12900186,0.14685249,0.00011442
 ,-0.00140781,0.00019714,0.00010356,0.00007840,-0.00005334,0.01599239,0
 .00987518,-0.00665173,-0.00239647,0.00255814,-0.00152219,0.06062628,0.
 04667074,-0.07196117,-0.00000715,-0.00010511,0.00062065,-0.00028894,-0
 .00018436,-0.00014961,0.00034777,-0.00065992,0.00031710,0.00018786,0.0
 0029711,0.00013959,0.00087000,0.00099669,0.00013739,-0.00036216,-0.000
 18236,0.00016984,-0.02039357,-0.01511184,0.00921219,-0.06700641,-0.053
 58452,0.07549710,-0.00158123,0.00260674,-0.00095548,-0.00039577,-0.000
 13560,0.00017821,-0.00743613,0.00303841,0.00767414,-0.00004799,-0.0004
 8382,0.00043054,-0.15127393,0.09427351,0.09244519,0.00111804,0.0008146
 1,-0.00010517,0.00030327,0.00005627,-0.00030903,-0.00002048,-0.0003879
 1,-0.00037225,0.00002689,-0.00002988,-0.00012377,-0.00001627,-0.000081
 81,-0.00023830,0.00045691,-0.00026624,0.00001173,0.01133576,-0.0098512
 4,-0.00861866,-0.01437754,0.01450399,0.01241988,0.16192189,0.00538778,
 -0.00532760,0.00260561,0.00043348,0.00026472,-0.00020205,0.01275172,-0
 .01105109,-0.01765001,-0.00013863,0.00077541,-0.00083272,0.09335893,-0
 .12937480,-0.08168276,-0.00243723,-0.00084026,0.00076433,-0.00012341,0
 .00008013,-0.00042512,-0.00005386,0.00092630,0.00041054,0.00005374,-0.
 00008634,0.00004379,-0.00009921,0.00038417,0.00017236,-0.00047819,-0.0
 0043335,0.00069047,0.00639826,-0.00633290,-0.00457714,-0.01132728,0.01
 190710,0.01077602,-0.10393866,0.13907354,-0.00316579,0.00481931,0.0001
 3239,-0.00004699,-0.00007498,0.00008734,-0.01045172,0.00799117,0.01038
 021,0.00023489,-0.00033824,0.00018496,0.09356265,-0.08340019,-0.130267
 63,0.00087522,0.00045755,-0.00032533,-0.00012021,-0.00015545,0.0001876
 5,0.00016208,-0.00112581,0.00036455,0.00012848,0.00000813,-0.00000232,
 -0.00019844,-0.00019102,0.00009192,0.00002082,0.00037988,0.00007179,0.
 01716677,-0.01295824,-0.01299329,0.00444329,-0.00522622,-0.00576964,-0
 .10247595,0.08972565,0.13788288,-0.02320807,-0.01853828,-0.01661679,0.
 00078217,0.00223932,-0.00236131,0.00283529,-0.00415313,-0.00509266,-0.
 00009838,0.00027327,0.00051040,-0.00030856,0.00031170,0.00044911,-0.09
 601863,-0.05808249,-0.08093921,0.01091422,0.00419203,0.00946423,0.0001
 9460,0.00063676,0.00131943,0.00026171,0.00016376,0.00008204,0.00003808
 ,0.00002738,-0.00008561,-0.00010918,0.00000020,0.00013870,0.00018886,-
 0.00008479,0.00009009,-0.00011557,0.00022344,-0.00022237,-0.00003350,0
 .00021788,-0.00007661,0.10469075,-0.01553736,-0.00692096,-0.01025597,0
 .00117821,-0.00444970,0.00218706,0.00245848,-0.00055254,-0.00066836,0.
 00007143,0.00024711,0.00031512,-0.00020412,0.00024042,0.00025099,-0.05
 602750,-0.10437536,-0.10634175,-0.00440419,0.00622459,-0.00124394,-0.0
 0041233,0.00058504,0.00078841,0.00018124,0.00005206,-0.00009262,-0.000
 00563,-0.00006241,-0.00000648,-0.00009461,-0.00003180,0.00006478,0.000
 02319,-0.00012778,0.00005111,0.00000508,-0.00010592,0.00007783,-0.0000
 8513,0.00011248,-0.00001315,0.07520248,0.10350110,0.00325404,0.0024480
 3,0.00857307,-0.00107619,0.00200989,0.00116196,0.00146768,0.00133680,0
 .00284701,0.00013788,0.00035827,0.00024578,-0.00021775,-0.00036095,-0.
 00024775,-0.08088143,-0.10604009,-0.22200177,-0.01440802,-0.01546248,-
 0.01521168,-0.00112984,0.00017524,0.00002225,0.00011529,-0.00000746,-0
 .00018982,0.00002660,0.00003708,-0.00003289,-0.00008098,-0.00005832,-0
 .00001006,0.00003237,0.00004976,-0.00005514,-0.00011353,0.00019452,-0.
 00017176,0.00009160,0.00007212,-0.00002091,0.08917098,0.11767168,0.227
 26105,0.00042856,0.00259093,-0.00210720,-0.02083836,-0.01823826,-0.017
 81499,-0.00020109,0.00009670,0.00029047,-0.00002093,-0.00000708,-0.000
 01406,0.00002741,-0.00005681,0.00005114,0.01143005,0.00421084,0.009944
 99,-0.10160313,-0.06154155,-0.08530638,-0.00008476,-0.00006553,-0.0001
 1974,-0.00003443,-0.00001865,0.00000441,-0.00000273,0.00000639,-0.0000
 0662,0.00000775,-0.00001537,0.00000206,-0.00005658,0.00001713,-0.00003
 205,0.00005955,0.00003286,-0.00000255,0.00000575,0.00001740,-0.0000371
 1,0.00012259,-0.00290024,0.00391024,0.10898902,0.00230583,-0.00449718,
 0.00269620,-0.01161926,-0.00452966,-0.00817892,0.00026130,0.00023429,-
 0.00008589,0.00005663,-0.00004915,-0.00002937,0.00002986,0.00011013,-0
 .00012350,-0.00530403,0.00592807,-0.00189576,-0.06013014,-0.10611287,-
 0.10932083,-0.00026188,-0.00006398,-0.00002379,-0.00000848,0.00000440,
 0.00000088,0.00000771,-0.00002398,0.00001353,0.00000002,0.00003517,-0.
 00002349,0.00012017,0.00003145,-0.00003282,-0.00013795,-0.00013849,-0.
 00006356,-0.00004501,-0.00007642,0.00010081,-0.00277222,0.00587332,-0.
 00272326,0.07708062,0.10311842,-0.00177831,0.00185212,0.00140608,0.005
 91473,0.00626119,0.01063883,0.00021639,-0.00001357,-0.00031337,0.00005
 667,-0.00000517,0.00004461,-0.00011063,0.00001685,0.00004290,-0.014811
 97,-0.01581003,-0.01539816,-0.08588596,-0.10972770,-0.22776795,-0.0000
 0681,0.00016727,0.00030909,0.00006736,0.00001732,-0.00001316,-0.000005
 34,-0.00000119,-0.00001301,0.00000299,0.00000909,0.00000823,0.00007906
 ,-0.00001804,0.00003465,0.00000847,0.00002370,-0.00004433,0.00001287,0
 .00004928,0.00000647,0.00405006,-0.00236028,-0.00249931,0.09303373,0.1
 1946218,0.23160338,0.00023839,-0.00169724,0.00141984,-0.13007699,0.083
 50115,0.15681055,0.00015159,-0.00019511,0.00020373,-0.00000508,0.00003
 234,0.00004502,0.00005540,0.00002397,-0.00005018,-0.00481838,-0.001827
 25,-0.00298908,-0.02484686,0.01890365,0.03487515,-0.00005227,-0.000001
 17,0.00001300,-0.00000473,0.00000357,-0.00000153,0.00000196,0.00002334
 ,-0.00000791,-0.00000640,-0.00000219,-0.00001655,-0.00003362,0.0000035
 1,-0.00000060,-0.00004250,0.00005025,0.00001748,0.00001434,-0.00002273
 ,-0.00002138,-0.00013638,0.00055102,-0.00029896,0.00177134,0.00041683,
 -0.00084331,0.15779021,-0.00044890,0.00164917,0.00053932,0.12094228,-0
 .15193190,-0.21674660,-0.00033846,-0.00021591,0.00020028,-0.00006131,0
 .00005974,0.00005658,0.00001427,-0.00007089,0.00001315,-0.00326917,-0.
 00243132,-0.00020443,-0.01602482,0.00504420,0.01922857,0.00001230,0.00
 000239,0.00001812,-0.00000169,0.00001007,-0.00000408,-0.00000369,-0.00
 000718,0.00001681,-0.00001725,-0.00002634,0.00000529,0.00002481,0.0000
 1738,-0.00000570,-0.00000953,0.00002564,-0.00003064,0.00001178,-0.0000
 0109,0.00000080,0.00014269,-0.00020964,0.00029917,-0.00120936,0.000156
 47,0.00007698,-0.09976396,0.14792922,-0.00276120,-0.00201099,0.0011067
 4,0.18998426,-0.19458683,-0.29649028,0.00069621,-0.00023321,-0.0009348
 3,-0.00000664,0.00003574,0.00000010,-0.00010317,0.00020377,0.00012440,
 0.00280553,0.00181165,0.00148577,0.00033409,-0.00149699,-0.00718406,-0
 .00001344,0.00003786,0.00003385,-0.00000636,-0.00001818,-0.00001861,0.
 00002569,-0.00000045,-0.00002156,-0.00004655,0.00000536,0.00002459,-0.
 00003731,-0.00004506,-0.00000964,0.00002653,-0.00010186,0.00003277,-0.
 00006556,0.00005963,-0.00001105,0.00011953,-0.00042444,0.00032998,-0.0
 0179633,0.00022760,0.00195505,-0.18915529,0.19653638,0.29957678\\-0.00
 000045,-0.00000011,-0.00000073,-0.00000039,0.00000006,-0.00000064,0.00
 000035,-0.00000014,0.00000013,-0.00000015,-0.00000034,-0.00000008,0.00
 000033,0.00000044,0.00000115,0.00000017,-0.00000038,-0.00000034,-0.000
 00029,0.00000028,-0.00000058,0.00000054,-0.00000125,0.00000025,-0.0000
 0032,0.00000050,-0.00000036,-0.00000019,-0.00000087,-0.00000095,0.0000
 0034,-0.00000063,0.00000031,0.00000011,0.00000123,0.00000103,0.0000004
 3,0.00000034,0.00000144,0.00000073,0.00000011,0.00000176,0.00000027,-0
 .00000098,-0.00000033,-0.00000082,0.00000113,-0.00000101,-0.00000068,0
 .00000062,-0.00000104\\\@


 MARY HAD A LITTLE LAMB
      HIS FEET WERE BLACK AS SOOT,
           AND EVERYWHERE THAT MARY WENT
                HIS SOOTY FOOT HE PUT.

                    -- NONAME
 Job cpu time:       0 days  3 hours 26 minutes 41.4 seconds.
 Elapsed time:       0 days  1 hours 43 minutes 22.7 seconds.
 File lengths (MBytes):  RWF=   1392 Int=      0 D2E=      0 Chk=     32 Scr=     32
 Normal termination of Gaussian 16 at Fri Sep 27 12:46:33 2019.
