 Entering Gaussian System, Link 0=g16
 Input=tight/species/COC=CO/conformers/COC=CO_12.com
 Output=tight/species/COC=CO/conformers/COC=CO_12.log
 Initial command:
 /shared/centos7/gaussian/g16/l1.exe "/scratch/harms.n/gauss_scrdir/Gau-21817.inp" -scrdir="/scratch/harms.n/gauss_scrdir/"
 Entering Link 1 = /shared/centos7/gaussian/g16/l1.exe PID=     21818.
  
 Copyright (c) 1988,1990,1992,1993,1995,1998,2003,2009,2016,
            Gaussian, Inc.  All Rights Reserved.
  
 This is part of the Gaussian(R) 16 program.  It is based on
 the Gaussian(R) 09 system (copyright 2009, Gaussian, Inc.),
 the Gaussian(R) 03 system (copyright 2003, Gaussian, Inc.),
 the Gaussian(R) 98 system (copyright 1998, Gaussian, Inc.),
 the Gaussian(R) 94 system (copyright 1995, Gaussian, Inc.),
 the Gaussian 92(TM) system (copyright 1992, Gaussian, Inc.),
 the Gaussian 90(TM) system (copyright 1990, Gaussian, Inc.),
 the Gaussian 88(TM) system (copyright 1988, Gaussian, Inc.),
 the Gaussian 86(TM) system (copyright 1986, Carnegie Mellon
 University), and the Gaussian 82(TM) system (copyright 1983,
 Carnegie Mellon University). Gaussian is a federally registered
 trademark of Gaussian, Inc.
  
 This software contains proprietary and confidential information,
 including trade secrets, belonging to Gaussian, Inc.
  
 This software is provided under written license and may be
 used, copied, transmitted, or stored only in accord with that
 written license.
  
 The following legend is applicable only to US Government
 contracts under FAR:
  
                    RESTRICTED RIGHTS LEGEND
  
 Use, reproduction and disclosure by the US Government is
 subject to restrictions as set forth in subparagraphs (a)
 and (c) of the Commercial Computer Software - Restricted
 Rights clause in FAR 52.227-19.
  
 Gaussian, Inc.
 340 Quinnipiac St., Bldg. 40, Wallingford CT 06492
  
  
 ---------------------------------------------------------------
 Warning -- This program may not be used in any manner that
 competes with the business of Gaussian, Inc. or will provide
 assistance to any competitor of Gaussian, Inc.  The licensee
 of this program is prohibited from giving any competitor of
 Gaussian, Inc. access to this program.  By using this program,
 the user acknowledges that Gaussian, Inc. is engaged in the
 business of creating and licensing software in the field of
 computational chemistry and represents and warrants to the
 licensee that it is not a competitor of Gaussian, Inc. and that
 it will not use this program in any manner prohibited above.
 ---------------------------------------------------------------
  

 Cite this work as:
 Gaussian 16, Revision A.03,
 M. J. Frisch, G. W. Trucks, H. B. Schlegel, G. E. Scuseria, 
 M. A. Robb, J. R. Cheeseman, G. Scalmani, V. Barone, 
 G. A. Petersson, H. Nakatsuji, X. Li, M. Caricato, A. V. Marenich, 
 J. Bloino, B. G. Janesko, R. Gomperts, B. Mennucci, H. P. Hratchian, 
 J. V. Ortiz, A. F. Izmaylov, J. L. Sonnenberg, D. Williams-Young, 
 F. Ding, F. Lipparini, F. Egidi, J. Goings, B. Peng, A. Petrone, 
 T. Henderson, D. Ranasinghe, V. G. Zakrzewski, J. Gao, N. Rega, 
 G. Zheng, W. Liang, M. Hada, M. Ehara, K. Toyota, R. Fukuda, 
 J. Hasegawa, M. Ishida, T. Nakajima, Y. Honda, O. Kitao, H. Nakai, 
 T. Vreven, K. Throssell, J. A. Montgomery, Jr., J. E. Peralta, 
 F. Ogliaro, M. J. Bearpark, J. J. Heyd, E. N. Brothers, K. N. Kudin, 
 V. N. Staroverov, T. A. Keith, R. Kobayashi, J. Normand, 
 K. Raghavachari, A. P. Rendell, J. C. Burant, S. S. Iyengar, 
 J. Tomasi, M. Cossi, J. M. Millam, M. Klene, C. Adamo, R. Cammi, 
 J. W. Ochterski, R. L. Martin, K. Morokuma, O. Farkas, 
 J. B. Foresman, and D. J. Fox, Gaussian, Inc., Wallingford CT, 2016.
 
 ******************************************
 Gaussian 16:  EM64L-G16RevA.03 25-Dec-2016
                 5-Sep-2019 
 ******************************************
 %nprocshared=20
 Will use up to   20 processors via shared memory.
 %mem=5GB
 ----------------------------------------------------------------------
 #p m062x/cc-pVTZ opt=(calcfc,maxcycles=900,Tight) freq IOP(7/33=1,2/16
 =3) scf=(maxcycle=900)
 ----------------------------------------------------------------------
 1/6=900,7=10,10=4,18=20,19=15,26=3,38=1/1,3;
 2/9=110,12=2,16=3,17=6,18=5,40=1/2;
 3/5=16,6=1,11=2,25=1,30=1,71=2,74=-55,140=1/1,2,3;
 4//1;
 5/5=2,7=900,38=5/2;
 8/6=4,10=90,11=11/1;
 11/6=1,8=1,9=11,15=111,16=1/1,2,10;
 10/6=1,13=1/2;
 6/7=2,8=2,9=2,10=2,28=1/1;
 7/10=1,18=20,25=1,33=1/1,2,3,16;
 1/6=900,7=10,10=4,18=20,19=15,26=3/3(2);
 2/9=110,16=3/2;
 99//99;
 2/9=110,16=3/2;
 3/5=16,6=1,11=2,25=1,30=1,71=1,74=-55/1,2,3;
 4/5=5,16=3,69=1/1;
 5/5=2,7=900,38=5/2;
 7/33=1/1,2,3,16;
 1/6=900,7=10,18=20,19=15,26=3/3(-5);
 2/9=110,16=3/2;
 6/7=2,8=2,9=2,10=2,19=2,28=1/1;
 99/9=1/99;
 Leave Link    1 at Thu Sep  5 17:55:37 2019, MaxMem=   671088640 cpu:               4.2 elap:               2.1
 (Enter /shared/centos7/gaussian/g16/l101.exe)
 ------------------------------
 Gaussian input prepared by ASE
 ------------------------------
 Symbolic Z-matrix:
 Charge =  0 Multiplicity = 1
 O                     0.15377  -0.79666   0.49875 
 O                     2.3136    2.1144    0.07645 
 C                    -1.20445  -0.88557   0.93542 
 C                     0.60123   0.51809   0.4702 
 C                     1.82623   0.82711   0.11687 
 H                    -1.62527   0.14097   1.13926 
 H                    -1.82133  -1.38339   0.13396 
 H                    -1.25739  -1.4876    1.84276 
 H                    -0.13352   1.26633   0.76126 
 H                     2.55529   0.10067  -0.17232 
 H                     1.55667   2.72761   0.36808 
 
 ITRead=  0  0  0  0  0  0  0  0  0  0  0
 MicOpt= -1 -1 -1 -1 -1 -1 -1 -1 -1 -1 -1
 NAtoms=     11 NQM=       11 NQMF=       0 NMMI=      0 NMMIF=      0
                NMic=       0 NMicF=      0.
                    Isotopes and Nuclear Properties:
 (Nuclear quadrupole moments (NQMom) in fm**2, nuclear magnetic moments (NMagM)
  in nuclear magnetons)

  Atom         1           2           3           4           5           6           7           8           9          10
 IAtWgt=          16          16          12          12          12           1           1           1           1           1
 AtmWgt=  15.9949146  15.9949146  12.0000000  12.0000000  12.0000000   1.0078250   1.0078250   1.0078250   1.0078250   1.0078250
 NucSpn=           0           0           0           0           0           1           1           1           1           1
 AtZEff=  -0.0000000  -0.0000000  -0.0000000  -0.0000000  -0.0000000  -0.0000000  -0.0000000  -0.0000000  -0.0000000  -0.0000000
 NQMom=    0.0000000   0.0000000   0.0000000   0.0000000   0.0000000   0.0000000   0.0000000   0.0000000   0.0000000   0.0000000
 NMagM=    0.0000000   0.0000000   0.0000000   0.0000000   0.0000000   2.7928460   2.7928460   2.7928460   2.7928460   2.7928460
 AtZNuc=   8.0000000   8.0000000   6.0000000   6.0000000   6.0000000   1.0000000   1.0000000   1.0000000   1.0000000   1.0000000

  Atom        11
 IAtWgt=           1
 AtmWgt=   1.0078250
 NucSpn=           1
 AtZEff=  -0.0000000
 NQMom=    0.0000000
 NMagM=    2.7928460
 AtZNuc=   1.0000000
 Leave Link  101 at Thu Sep  5 17:55:39 2019, MaxMem=   671088640 cpu:               2.4 elap:               1.2
 (Enter /shared/centos7/gaussian/g16/l103.exe)

 GradGradGradGradGradGradGradGradGradGradGradGradGradGradGradGradGradGrad
 Berny optimization.
 Initialization pass.
                           ----------------------------
                           !    Initial Parameters    !
                           ! (Angstroms and Degrees)  !
 --------------------------                            --------------------------
 ! Name  Definition              Value          Derivative Info.                !
 --------------------------------------------------------------------------------
 ! R1    R(1,3)                  1.4295         calculate D2E/DX2 analytically  !
 ! R2    R(1,4)                  1.3891         calculate D2E/DX2 analytically  !
 ! R3    R(2,5)                  1.3771         calculate D2E/DX2 analytically  !
 ! R4    R(2,11)                 1.0169         calculate D2E/DX2 analytically  !
 ! R5    R(3,6)                  1.128          calculate D2E/DX2 analytically  !
 ! R6    R(3,7)                  1.1272         calculate D2E/DX2 analytically  !
 ! R7    R(3,8)                  1.0902         calculate D2E/DX2 analytically  !
 ! R8    R(4,5)                  1.3119         calculate D2E/DX2 analytically  !
 ! R9    R(4,9)                  1.0883         calculate D2E/DX2 analytically  !
 ! R10   R(5,10)                 1.0691         calculate D2E/DX2 analytically  !
 ! A1    A(3,1,4)              111.7908         calculate D2E/DX2 analytically  !
 ! A2    A(5,2,11)             106.9692         calculate D2E/DX2 analytically  !
 ! A3    A(1,3,6)              110.6745         calculate D2E/DX2 analytically  !
 ! A4    A(1,3,7)              109.2837         calculate D2E/DX2 analytically  !
 ! A5    A(1,3,8)              109.5561         calculate D2E/DX2 analytically  !
 ! A6    A(6,3,7)              109.0393         calculate D2E/DX2 analytically  !
 ! A7    A(6,3,8)              109.5139         calculate D2E/DX2 analytically  !
 ! A8    A(7,3,8)              108.7415         calculate D2E/DX2 analytically  !
 ! A9    A(1,4,5)              121.9569         calculate D2E/DX2 analytically  !
 ! A10   A(1,4,9)              115.3253         calculate D2E/DX2 analytically  !
 ! A11   A(5,4,9)              122.7178         calculate D2E/DX2 analytically  !
 ! A12   A(2,5,4)              123.9591         calculate D2E/DX2 analytically  !
 ! A13   A(2,5,10)             112.7009         calculate D2E/DX2 analytically  !
 ! A14   A(4,5,10)             123.34           calculate D2E/DX2 analytically  !
 ! D1    D(4,1,3,6)              1.3373         calculate D2E/DX2 analytically  !
 ! D2    D(4,1,3,7)            121.4316         calculate D2E/DX2 analytically  !
 ! D3    D(4,1,3,8)           -119.5219         calculate D2E/DX2 analytically  !
 ! D4    D(3,1,4,5)            179.0263         calculate D2E/DX2 analytically  !
 ! D5    D(3,1,4,9)             -0.9157         calculate D2E/DX2 analytically  !
 ! D6    D(11,2,5,4)             0.2316         calculate D2E/DX2 analytically  !
 ! D7    D(11,2,5,10)         -179.801          calculate D2E/DX2 analytically  !
 ! D8    D(1,4,5,2)           -179.8671         calculate D2E/DX2 analytically  !
 ! D9    D(1,4,5,10)             0.1689         calculate D2E/DX2 analytically  !
 ! D10   D(9,4,5,2)              0.0705         calculate D2E/DX2 analytically  !
 ! D11   D(9,4,5,10)          -179.8935         calculate D2E/DX2 analytically  !
 --------------------------------------------------------------------------------
 Trust Radius=3.00D-01 FncErr=1.00D-07 GrdErr=1.00D-06 EigMax=2.50D+02 EigMin=1.00D-04
 Number of steps in this run=    100 maximum allowed number of steps=    100.
 GradGradGradGradGradGradGradGradGradGradGradGradGradGradGradGradGradGrad

 Leave Link  103 at Thu Sep  5 17:55:39 2019, MaxMem=   671088640 cpu:               1.4 elap:               0.7
 (Enter /shared/centos7/gaussian/g16/l202.exe)
                          Input orientation:                          
 ---------------------------------------------------------------------
 Center     Atomic      Atomic             Coordinates (Angstroms)
 Number     Number       Type             X           Y           Z
 ---------------------------------------------------------------------
      1          8           0        0.153772   -0.796659    0.498752
      2          8           0        2.313603    2.114405    0.076449
      3          6           0       -1.204454   -0.885575    0.935424
      4          6           0        0.601227    0.518085    0.470204
      5          6           0        1.826229    0.827107    0.116866
      6          1           0       -1.625269    0.140970    1.139261
      7          1           0       -1.821331   -1.383387    0.133963
      8          1           0       -1.257388   -1.487597    1.842759
      9          1           0       -0.133518    1.266327    0.761259
     10          1           0        2.555287    0.100666   -0.172322
     11          1           0        1.556673    2.727611    0.368083
 ---------------------------------------------------------------------
                    Distance matrix (angstroms):
                    1          2          3          4          5
     1  O    0.000000
     2  O    3.649315   0.000000
     3  C    1.429464   4.702600   0.000000
     4  C    1.389094   2.373923   2.333919   0.000000
     5  C    2.362110   1.377063   3.576081   1.311858   0.000000
     6  H    2.110542   4.531967   1.128020   2.355236   3.664548
     7  H    2.092451   5.416228   1.127250   3.097974   4.265122
     8  H    2.067637   5.370870   1.090179   3.059594   4.224364
     9  H    2.099370   2.678918   2.409962   1.088314   2.109209
    10  H    2.650058   2.043390   4.041711   2.098912   1.069052
    11  H    3.795482   1.016866   4.582664   2.409421   1.935894
                    6          7          8          9         10
     6  H    0.000000
     7  H    1.836499   0.000000
     8  H    1.811761   1.802463   0.000000
     9  H    1.906472   3.203622   3.164937   0.000000
    10  H    4.381658   4.631523   4.595609   3.075713   0.000000
    11  H    4.172551   5.325976   5.278408   2.268630   2.861837
                   11
    11  H    0.000000
 Stoichiometry    C3H6O2
 Framework group  C1[X(C3H6O2)]
 Deg. of freedom    27
 Full point group                 C1      NOp   1
 Largest Abelian subgroup         C1      NOp   1
 Largest concise Abelian subgroup C1      NOp   1
                         Standard orientation:                         
 ---------------------------------------------------------------------
 Center     Atomic      Atomic             Coordinates (Angstroms)
 Number     Number       Type             X           Y           Z
 ---------------------------------------------------------------------
      1          8           0       -1.136421   -0.565353   -0.003546
      2          8           0        2.423318    0.238219    0.001757
      3          6           0       -2.278950    0.293624    0.008909
      4          6           0        0.050842    0.155744   -0.006414
      5          6           0        1.222089   -0.435094    0.001543
      6          1           0       -1.963374    1.376421   -0.010922
      7          1           0       -2.915565    0.079497   -0.896388
      8          1           0       -2.869265    0.102717    0.905331
      9          1           0       -0.061925    1.238168   -0.014678
     10          1           0        1.344407   -1.497106    0.008026
     11          1           0        2.206657    1.231730   -0.001276
 ---------------------------------------------------------------------
 Rotational constants (GHZ):          27.4757921           2.2583927           2.1154774
 Leave Link  202 at Thu Sep  5 17:55:41 2019, MaxMem=   671088640 cpu:               4.0 elap:               2.0
 (Enter /shared/centos7/gaussian/g16/l301.exe)
 Standard basis: CC-pVTZ (5D, 7F)
 Ernie: Thresh=  0.10000D-02 Tol=  0.10000D-05 Strict=F.
 Ernie:  15 primitive shells out of 178 were deleted.
 There are   265 symmetry adapted cartesian basis functions of A   symmetry.
 There are   234 symmetry adapted basis functions of A   symmetry.
   234 basis functions,   362 primitive gaussians,   265 cartesian basis functions
    20 alpha electrons       20 beta electrons
       nuclear repulsion energy       171.4983607991 Hartrees.
 IExCor= 4336 DFT=T Ex+Corr=M062X ExCW=0 ScaHFX=  0.540000
 ScaDFX=  1.000000  1.000000  1.000000  1.000000 ScalE2=  1.000000  1.000000
 IRadAn=      5 IRanWt=     -1 IRanGd=            0 ICorTp=0 IEmpDi=  4
 NAtoms=   11 NActive=   11 NUniq=   11 SFac= 1.00D+00 NAtFMM=   60 NAOKFM=F Big=F
 Integral buffers will be    131072 words long.
 Raffenetti 2 integral format.
 Two-electron integral symmetry is turned on.
 Leave Link  301 at Thu Sep  5 17:55:42 2019, MaxMem=   671088640 cpu:               1.5 elap:               0.7
 (Enter /shared/centos7/gaussian/g16/l302.exe)
 NPDir=0 NMtPBC=     1 NCelOv=     1 NCel=       1 NClECP=     1 NCelD=      1
         NCelK=      1 NCelE2=     1 NClLst=     1 CellRange=     0.0.
 One-electron integrals computed using PRISM.
 One-electron integral symmetry used in STVInt
 NBasis=   234 RedAO= T EigKep=  2.59D-04  NBF=   234
 NBsUse=   234 1.00D-06 EigRej= -1.00D+00 NBFU=   234
 Precomputing XC quadrature grid using
 IXCGrd= 4 IRadAn=           5 IRanWt=          -1 IRanGd=           0 AccXCQ= 0.00D+00.
 Generated NRdTot=       0 NPtTot=           0 NUsed=           0 NTot=          32
 NSgBfM=   265   265   265   265   265 MxSgAt=    11 MxSgA2=    11.
 Leave Link  302 at Thu Sep  5 17:56:31 2019, MaxMem=   671088640 cpu:              98.2 elap:              49.1
 (Enter /shared/centos7/gaussian/g16/l303.exe)
 DipDrv:  MaxL=1.
 Leave Link  303 at Thu Sep  5 17:56:36 2019, MaxMem=   671088640 cpu:              10.3 elap:               5.2
 (Enter /shared/centos7/gaussian/g16/l401.exe)
 ExpMin= 1.03D-01 ExpMax= 1.53D+04 ExpMxC= 5.22D+02 IAcc=3 IRadAn=         5 AccDes= 0.00D+00
 Harris functional with IExCor= 1009 and IRadAn=       5 diagonalized for initial guess.
 HarFok:  IExCor= 1009 AccDes= 0.00D+00 IRadAn=         5 IDoV= 1 UseB2=F ITyADJ=14
 ICtDFT=  3500011 ScaDFX=  1.000000  1.000000  1.000000  1.000000
 FoFCou: FMM=F IPFlag=           0 FMFlag=      100000 FMFlg1=           0
         NFxFlg=           0 DoJE=T BraDBF=F KetDBF=T FulRan=T
         wScrn=  0.000000 ICntrl=       500 IOpCl=  0 I1Cent=   200000004 NGrid=           0
         NMat0=    1 NMatS0=      1 NMatT0=    0 NMatD0=    1 NMtDS0=    0 NMtDT0=    0
 Petite list used in FoFCou.
 Harris En= -268.195680568671    
 JPrj=0 DoOrth=F DoCkMO=F.
 Leave Link  401 at Thu Sep  5 17:56:58 2019, MaxMem=   671088640 cpu:              44.2 elap:              22.1
 (Enter /shared/centos7/gaussian/g16/l502.exe)
 Keep R1 ints in memory in canonical form, NReq=399924305.
 FoFCou: FMM=F IPFlag=           0 FMFlag=           0 FMFlg1=           0
         NFxFlg=           0 DoJE=F BraDBF=F KetDBF=F FulRan=T
         wScrn=  0.000000 ICntrl=       600 IOpCl=  0 I1Cent=           0 NGrid=           0
         NMat0=    1 NMatS0=  27495 NMatT0=    0 NMatD0=    1 NMtDS0=    0 NMtDT0=    0
 Symmetry not used in FoFCou.
 Two-electron integral symmetry not used.
 Closed shell SCF:
 Using DIIS extrapolation, IDIIS=  1040.
 NGot=   671088640 LenX=   292939207 LenY=   292868541
 Requested convergence on RMS density matrix=1.00D-08 within 900 cycles.
 Requested convergence on MAX density matrix=1.00D-06.
 Requested convergence on             energy=1.00D-06.
 No special actions if energy rises.
 Integral accuracy reduced to 1.0D-05 until final iterations.

 Cycle   1  Pass 0  IDiag  1:
 E= -268.179846462822    
 DIIS: error= 2.13D-02 at cycle   1 NSaved=   1.
 NSaved= 1 IEnMin= 1 EnMin= -268.179846462822     IErMin= 1 ErrMin= 2.13D-02
 ErrMax= 2.13D-02  0.00D+00 EMaxC= 1.00D-01 BMatC= 1.73D-01 BMatP= 1.73D-01
 IDIUse=3 WtCom= 7.87D-01 WtEn= 2.13D-01
 Coeff-Com:  0.100D+01
 Coeff-En:   0.100D+01
 Coeff:      0.100D+01
 Gap=     0.345 Goal=   None    Shift=    0.000
 GapD=    0.345 DampG=1.000 DampE=0.500 DampFc=0.5000 IDamp=-1.
 Damping current iteration by 5.00D-01
 RMSDP=1.85D-03 MaxDP=6.31D-02              OVMax= 1.15D-01

 Cycle   2  Pass 0  IDiag  1:
 E= -268.245926188690     Delta-E=       -0.066079725868 Rises=F Damp=T
 DIIS: error= 4.91D-03 at cycle   2 NSaved=   2.
 NSaved= 2 IEnMin= 2 EnMin= -268.245926188690     IErMin= 2 ErrMin= 4.91D-03
 ErrMax= 4.91D-03  0.00D+00 EMaxC= 1.00D-01 BMatC= 1.63D-02 BMatP= 1.73D-01
 IDIUse=3 WtCom= 9.51D-01 WtEn= 4.91D-02
 Coeff-Com: -0.171D+00 0.117D+01
 Coeff-En:   0.000D+00 0.100D+01
 Coeff:     -0.163D+00 0.116D+01
 Gap=     0.324 Goal=   None    Shift=    0.000
 RMSDP=3.85D-04 MaxDP=9.54D-03 DE=-6.61D-02 OVMax= 5.40D-02

 Cycle   3  Pass 0  IDiag  1:
 E= -268.303562281834     Delta-E=       -0.057636093144 Rises=F Damp=F
 DIIS: error= 4.02D-03 at cycle   3 NSaved=   3.
 NSaved= 3 IEnMin= 3 EnMin= -268.303562281834     IErMin= 3 ErrMin= 4.02D-03
 ErrMax= 4.02D-03  0.00D+00 EMaxC= 1.00D-01 BMatC= 3.87D-03 BMatP= 1.63D-02
 IDIUse=3 WtCom= 9.60D-01 WtEn= 4.02D-02
 Coeff-Com: -0.116D+00 0.393D+00 0.722D+00
 Coeff-En:   0.000D+00 0.000D+00 0.100D+01
 Coeff:     -0.111D+00 0.378D+00 0.734D+00
 Gap=     0.325 Goal=   None    Shift=    0.000
 RMSDP=1.65D-04 MaxDP=5.92D-03 DE=-5.76D-02 OVMax= 1.94D-02

 Cycle   4  Pass 0  IDiag  1:
 E= -268.305386184930     Delta-E=       -0.001823903096 Rises=F Damp=F
 DIIS: error= 1.71D-03 at cycle   4 NSaved=   4.
 NSaved= 4 IEnMin= 4 EnMin= -268.305386184930     IErMin= 4 ErrMin= 1.71D-03
 ErrMax= 1.71D-03  0.00D+00 EMaxC= 1.00D-01 BMatC= 9.69D-04 BMatP= 3.87D-03
 IDIUse=3 WtCom= 9.83D-01 WtEn= 1.71D-02
 Coeff-Com: -0.365D-01 0.891D-01 0.378D+00 0.570D+00
 Coeff-En:   0.000D+00 0.000D+00 0.211D+00 0.789D+00
 Coeff:     -0.359D-01 0.876D-01 0.375D+00 0.574D+00
 Gap=     0.320 Goal=   None    Shift=    0.000
 RMSDP=7.10D-05 MaxDP=2.93D-03 DE=-1.82D-03 OVMax= 8.40D-03

 Cycle   5  Pass 0  IDiag  1:
 E= -268.306136212805     Delta-E=       -0.000750027875 Rises=F Damp=F
 DIIS: error= 2.13D-04 at cycle   5 NSaved=   5.
 NSaved= 5 IEnMin= 5 EnMin= -268.306136212805     IErMin= 5 ErrMin= 2.13D-04
 ErrMax= 2.13D-04  0.00D+00 EMaxC= 1.00D-01 BMatC= 1.23D-05 BMatP= 9.69D-04
 IDIUse=3 WtCom= 9.98D-01 WtEn= 2.13D-03
 Coeff-Com: -0.566D-02 0.111D-01 0.823D-01 0.178D+00 0.734D+00
 Coeff-En:   0.000D+00 0.000D+00 0.000D+00 0.000D+00 0.100D+01
 Coeff:     -0.565D-02 0.111D-01 0.821D-01 0.178D+00 0.735D+00
 Gap=     0.320 Goal=   None    Shift=    0.000
 RMSDP=1.25D-05 MaxDP=4.52D-04 DE=-7.50D-04 OVMax= 1.86D-03

 Cycle   6  Pass 0  IDiag  1:
 E= -268.306145275064     Delta-E=       -0.000009062259 Rises=F Damp=F
 DIIS: error= 1.02D-04 at cycle   6 NSaved=   6.
 NSaved= 6 IEnMin= 6 EnMin= -268.306145275064     IErMin= 6 ErrMin= 1.02D-04
 ErrMax= 1.02D-04  0.00D+00 EMaxC= 1.00D-01 BMatC= 3.11D-06 BMatP= 1.23D-05
 IDIUse=3 WtCom= 9.99D-01 WtEn= 1.02D-03
 Coeff-Com: -0.592D-03-0.884D-04 0.201D-01 0.619D-01 0.400D+00 0.519D+00
 Coeff-En:   0.000D+00 0.000D+00 0.000D+00 0.000D+00 0.417D-01 0.958D+00
 Coeff:     -0.591D-03-0.883D-04 0.200D-01 0.618D-01 0.399D+00 0.519D+00
 Gap=     0.320 Goal=   None    Shift=    0.000
 RMSDP=4.20D-06 MaxDP=1.49D-04 DE=-9.06D-06 OVMax= 5.58D-04

 Initial convergence to 1.0D-05 achieved.  Increase integral accuracy.
 Cycle   7  Pass 1  IDiag  1:
 E= -268.306169194190     Delta-E=       -0.000023919126 Rises=F Damp=F
 DIIS: error= 2.19D-05 at cycle   1 NSaved=   1.
 NSaved= 1 IEnMin= 1 EnMin= -268.306169194190     IErMin= 1 ErrMin= 2.19D-05
 ErrMax= 2.19D-05  0.00D+00 EMaxC= 1.00D-01 BMatC= 2.67D-07 BMatP= 2.67D-07
 IDIUse=1 WtCom= 1.00D+00 WtEn= 0.00D+00
 Coeff-Com:  0.100D+01
 Coeff:      0.100D+01
 Gap=     0.321 Goal=   None    Shift=    0.000
 RMSDP=4.20D-06 MaxDP=1.49D-04 DE=-2.39D-05 OVMax= 1.99D-04

 Cycle   8  Pass 1  IDiag  1:
 E= -268.306169341504     Delta-E=       -0.000000147314 Rises=F Damp=F
 DIIS: error= 1.81D-05 at cycle   2 NSaved=   2.
 NSaved= 2 IEnMin= 2 EnMin= -268.306169341504     IErMin= 2 ErrMin= 1.81D-05
 ErrMax= 1.81D-05  0.00D+00 EMaxC= 1.00D-01 BMatC= 9.44D-08 BMatP= 2.67D-07
 IDIUse=1 WtCom= 1.00D+00 WtEn= 0.00D+00
 Coeff-Com:  0.307D+00 0.693D+00
 Coeff:      0.307D+00 0.693D+00
 Gap=     0.321 Goal=   None    Shift=    0.000
 RMSDP=1.12D-06 MaxDP=3.14D-05 DE=-1.47D-07 OVMax= 1.33D-04

 Cycle   9  Pass 1  IDiag  1:
 E= -268.306169380159     Delta-E=       -0.000000038656 Rises=F Damp=F
 DIIS: error= 1.43D-05 at cycle   3 NSaved=   3.
 NSaved= 3 IEnMin= 3 EnMin= -268.306169380159     IErMin= 3 ErrMin= 1.43D-05
 ErrMax= 1.43D-05  0.00D+00 EMaxC= 1.00D-01 BMatC= 4.00D-08 BMatP= 9.44D-08
 IDIUse=1 WtCom= 1.00D+00 WtEn= 0.00D+00
 Coeff-Com: -0.330D-01 0.393D+00 0.640D+00
 Coeff:     -0.330D-01 0.393D+00 0.640D+00
 Gap=     0.321 Goal=   None    Shift=    0.000
 RMSDP=5.12D-07 MaxDP=1.77D-05 DE=-3.87D-08 OVMax= 7.37D-05

 Cycle  10  Pass 1  IDiag  1:
 E= -268.306169410408     Delta-E=       -0.000000030249 Rises=F Damp=F
 DIIS: error= 1.34D-06 at cycle   4 NSaved=   4.
 NSaved= 4 IEnMin= 4 EnMin= -268.306169410408     IErMin= 4 ErrMin= 1.34D-06
 ErrMax= 1.34D-06  0.00D+00 EMaxC= 1.00D-01 BMatC= 3.36D-10 BMatP= 4.00D-08
 IDIUse=1 WtCom= 1.00D+00 WtEn= 0.00D+00
 Coeff-Com: -0.134D-01 0.569D-01 0.140D+00 0.816D+00
 Coeff:     -0.134D-01 0.569D-01 0.140D+00 0.816D+00
 Gap=     0.321 Goal=   None    Shift=    0.000
 RMSDP=6.49D-08 MaxDP=2.54D-06 DE=-3.02D-08 OVMax= 9.62D-06

 Cycle  11  Pass 1  IDiag  1:
 E= -268.306169410720     Delta-E=       -0.000000000312 Rises=F Damp=F
 DIIS: error= 4.65D-07 at cycle   5 NSaved=   5.
 NSaved= 5 IEnMin= 5 EnMin= -268.306169410720     IErMin= 5 ErrMin= 4.65D-07
 ErrMax= 4.65D-07  0.00D+00 EMaxC= 1.00D-01 BMatC= 8.78D-11 BMatP= 3.36D-10
 IDIUse=1 WtCom= 1.00D+00 WtEn= 0.00D+00
 Coeff-Com: -0.205D-02-0.245D-01-0.141D-01 0.340D+00 0.701D+00
 Coeff:     -0.205D-02-0.245D-01-0.141D-01 0.340D+00 0.701D+00
 Gap=     0.321 Goal=   None    Shift=    0.000
 RMSDP=3.11D-08 MaxDP=9.46D-07 DE=-3.12D-10 OVMax= 3.99D-06

 Cycle  12  Pass 1  IDiag  1:
 E= -268.306169410790     Delta-E=       -0.000000000070 Rises=F Damp=F
 DIIS: error= 2.36D-07 at cycle   6 NSaved=   6.
 NSaved= 6 IEnMin= 6 EnMin= -268.306169410790     IErMin= 6 ErrMin= 2.36D-07
 ErrMax= 2.36D-07  0.00D+00 EMaxC= 1.00D-01 BMatC= 1.39D-11 BMatP= 8.78D-11
 IDIUse=1 WtCom= 1.00D+00 WtEn= 0.00D+00
 Coeff-Com:  0.170D-02-0.217D-01-0.302D-01 0.885D-02 0.325D+00 0.717D+00
 Coeff:      0.170D-02-0.217D-01-0.302D-01 0.885D-02 0.325D+00 0.717D+00
 Gap=     0.321 Goal=   None    Shift=    0.000
 RMSDP=1.12D-08 MaxDP=3.50D-07 DE=-7.02D-11 OVMax= 1.52D-06

 Cycle  13  Pass 1  IDiag  1:
 E= -268.306169410809     Delta-E=       -0.000000000019 Rises=F Damp=F
 DIIS: error= 2.30D-08 at cycle   7 NSaved=   7.
 NSaved= 7 IEnMin= 7 EnMin= -268.306169410809     IErMin= 7 ErrMin= 2.30D-08
 ErrMax= 2.30D-08  0.00D+00 EMaxC= 1.00D-01 BMatC= 1.81D-13 BMatP= 1.39D-11
 IDIUse=1 WtCom= 1.00D+00 WtEn= 0.00D+00
 Coeff-Com:  0.395D-03-0.357D-02-0.517D-02-0.996D-02 0.434D-01 0.132D+00
 Coeff-Com:  0.843D+00
 Coeff:      0.395D-03-0.357D-02-0.517D-02-0.996D-02 0.434D-01 0.132D+00
 Coeff:      0.843D+00
 Gap=     0.321 Goal=   None    Shift=    0.000
 RMSDP=2.05D-09 MaxDP=5.98D-08 DE=-1.86D-11 OVMax= 1.69D-07

 SCF Done:  E(RM062X) =  -268.306169411     A.U. after   13 cycles
            NFock= 13  Conv=0.20D-08     -V/T= 2.0061
 KE= 2.666871902194D+02 PE=-9.713184320979D+02 EE= 2.648267116685D+02
 Leave Link  502 at Thu Sep  5 18:01:48 2019, MaxMem=   671088640 cpu:             571.2 elap:             289.5
 (Enter /shared/centos7/gaussian/g16/l801.exe)
 DoSCS=F DFT=T ScalE2(SS,OS)=  1.000000  1.000000
 Range of M.O.s used for correlation:     1   234
 NBasis=   234 NAE=    20 NBE=    20 NFC=     0 NFV=     0
 NROrb=    234 NOA=    20 NOB=    20 NVA=   214 NVB=   214

 **** Warning!!: The largest alpha MO coefficient is  0.15012528D+02

 Leave Link  801 at Thu Sep  5 18:01:49 2019, MaxMem=   671088640 cpu:               1.4 elap:               0.7
 (Enter /shared/centos7/gaussian/g16/l1101.exe)
 Using compressed storage, NAtomX=    11.
 Will process     12 centers per pass.
 Leave Link 1101 at Thu Sep  5 18:02:08 2019, MaxMem=   671088640 cpu:              39.3 elap:              19.7
 (Enter /shared/centos7/gaussian/g16/l1102.exe)
 Symmetrizing basis deriv contribution to polar:
 IMax=3 JMax=2 DiffMx= 0.00D+00
 Leave Link 1102 at Thu Sep  5 18:02:11 2019, MaxMem=   671088640 cpu:               4.9 elap:               2.4
 (Enter /shared/centos7/gaussian/g16/l1110.exe)
 Forming Gx(P) for the SCF density, NAtomX=    11.
 Integral derivatives from FoFJK, PRISM(SPDF).
 Do as many integral derivatives as possible in FoFJK.
 G2DrvN: MDV=     671087712.
 G2DrvN: will do    12 centers at a time, making    1 passes.
 Calling FoFCou, ICntrl=  3107 FMM=F I1Cent=   0 AccDes= 0.00D+00.
 FoFJK:  IHMeth= 1 ICntrl=    3107 DoSepK=F KAlg= 0 I1Cent=           0 FoldK=F
 IRaf=         0 NMat=       1 IRICut=       1 DoRegI=T DoRafI=F ISym2E= 0 IDoP0=0 IntGTp=1.
 FoFCou: FMM=F IPFlag=           0 FMFlag=      100000 FMFlg1=           0
         NFxFlg=           0 DoJE=F BraDBF=F KetDBF=F FulRan=T
         wScrn=  0.000000 ICntrl=      3107 IOpCl=  0 I1Cent=           0 NGrid=           0
         NMat0=    1 NMatS0=      1 NMatT0=    0 NMatD0=    1 NMtDS0=    0 NMtDT0=    0
 Symmetry not used in FoFCou.
 End of G2Drv F.D. properties file   721 does not exist.
 End of G2Drv F.D. properties file   722 does not exist.
 End of G2Drv F.D. properties file   788 does not exist.
 Leave Link 1110 at Thu Sep  5 18:06:52 2019, MaxMem=   671088640 cpu:             562.8 elap:             281.5
 (Enter /shared/centos7/gaussian/g16/l1002.exe)
 Minotr:  Closed shell wavefunction.
          IDoAtm=11111111111
          Direct CPHF calculation.
          Differentiating once with respect to nuclear coordinates.
          Requested convergence is 1.0D-08 RMS, and 1.0D-07 maximum.
          Secondary convergence is 1.0D-12 RMS, and 1.0D-12 maximum.
          NewPWx=T KeepS1=F KeepF1=F KeepIn=T MapXYZ=F SortEE=F KeepMc=T.
         3279 words used for storage of precomputed grid.
 Keep R1 ints in memory in canonical form, NReq=399865278.
 FoFCou: FMM=F IPFlag=           0 FMFlag=           0 FMFlg1=           0
         NFxFlg=           0 DoJE=F BraDBF=F KetDBF=F FulRan=T
         wScrn=  0.000000 ICntrl=       600 IOpCl=  0 I1Cent=           0 NGrid=           0
         NMat0=    1 NMatS0=  27495 NMatT0=    0 NMatD0=    1 NMtDS0=    0 NMtDT0=    0
 Symmetry not used in FoFCou.
 Two-electron integral symmetry not used.
          MDV=     671088640 using IRadAn=       1.
          Solving linear equations simultaneously, MaxMat=       0.
          There are    36 degrees of freedom in the 1st order CPHF.  IDoFFX=6 NUNeed=     0.
     30 vectors produced by pass  0 Test12= 1.19D-14 2.78D-09 XBig12= 6.46D-02 8.03D-02.
 AX will form    30 AO Fock derivatives at one time.
     30 vectors produced by pass  1 Test12= 1.19D-14 2.78D-09 XBig12= 1.10D-02 3.44D-02.
     30 vectors produced by pass  2 Test12= 1.19D-14 2.78D-09 XBig12= 4.35D-04 4.65D-03.
     30 vectors produced by pass  3 Test12= 1.19D-14 2.78D-09 XBig12= 4.86D-06 3.96D-04.
     30 vectors produced by pass  4 Test12= 1.19D-14 2.78D-09 XBig12= 4.04D-08 3.25D-05.
     30 vectors produced by pass  5 Test12= 1.19D-14 2.78D-09 XBig12= 1.88D-10 1.95D-06.
     20 vectors produced by pass  6 Test12= 1.19D-14 2.78D-09 XBig12= 8.87D-13 1.53D-07.
      5 vectors produced by pass  7 Test12= 1.19D-14 2.78D-09 XBig12= 3.58D-15 8.68D-09.
 InvSVY:  IOpt=1 It=  1 EMax= 1.11D-15
 Solved reduced A of dimension   205 with    30 vectors.
 End of Minotr F.D. properties file   721 does not exist.
 End of Minotr F.D. properties file   722 does not exist.
 End of Minotr F.D. properties file   788 does not exist.
 Leave Link 1002 at Thu Sep  5 18:14:44 2019, MaxMem=   671088640 cpu:             942.9 elap:             471.5
 (Enter /shared/centos7/gaussian/g16/l601.exe)
 Copying SCF densities to generalized density rwf, IOpCl= 0 IROHF=0.

 **********************************************************************

            Population analysis using the SCF density.

 **********************************************************************

 Orbital symmetries:
       Occupied  (A) (A) (A) (A) (A) (A) (A) (A) (A) (A) (A) (A)
                 (A) (A) (A) (A) (A) (A) (A) (A)
       Virtual   (A) (A) (A) (A) (A) (A) (A) (A) (A) (A) (A) (A)
                 (A) (A) (A) (A) (A) (A) (A) (A) (A) (A) (A) (A)
                 (A) (A) (A) (A) (A) (A) (A) (A) (A) (A) (A) (A)
                 (A) (A) (A) (A) (A) (A) (A) (A) (A) (A) (A) (A)
                 (A) (A) (A) (A) (A) (A) (A) (A) (A) (A) (A) (A)
                 (A) (A) (A) (A) (A) (A) (A) (A) (A) (A) (A) (A)
                 (A) (A) (A) (A) (A) (A) (A) (A) (A) (A) (A) (A)
                 (A) (A) (A) (A) (A) (A) (A) (A) (A) (A) (A) (A)
                 (A) (A) (A) (A) (A) (A) (A) (A) (A) (A) (A) (A)
                 (A) (A) (A) (A) (A) (A) (A) (A) (A) (A) (A) (A)
                 (A) (A) (A) (A) (A) (A) (A) (A) (A) (A) (A) (A)
                 (A) (A) (A) (A) (A) (A) (A) (A) (A) (A) (A) (A)
                 (A) (A) (A) (A) (A) (A) (A) (A) (A) (A) (A) (A)
                 (A) (A) (A) (A) (A) (A) (A) (A) (A) (A) (A) (A)
                 (A) (A) (A) (A) (A) (A) (A) (A) (A) (A) (A) (A)
                 (A) (A) (A) (A) (A) (A) (A) (A) (A) (A) (A) (A)
                 (A) (A) (A) (A) (A) (A) (A) (A) (A) (A) (A) (A)
                 (A) (A) (A) (A) (A) (A) (A) (A) (A) (A)
 The electronic state is 1-A.
 Alpha  occ. eigenvalues --  -19.64933 -19.64747 -10.59716 -10.58147 -10.57979
 Alpha  occ. eigenvalues --   -1.17533  -1.16095  -0.85835  -0.76912  -0.69251
 Alpha  occ. eigenvalues --   -0.60318  -0.58204  -0.53747  -0.50894  -0.48043
 Alpha  occ. eigenvalues --   -0.46941  -0.43685  -0.41830  -0.40273  -0.26292
 Alpha virt. eigenvalues --    0.05764   0.07448   0.08094   0.10303   0.12579
 Alpha virt. eigenvalues --    0.13703   0.14181   0.19211   0.23833   0.27150
 Alpha virt. eigenvalues --    0.27189   0.28872   0.31507   0.35594   0.36221
 Alpha virt. eigenvalues --    0.38636   0.41973   0.43338   0.44381   0.45972
 Alpha virt. eigenvalues --    0.47280   0.48425   0.48644   0.49446   0.52935
 Alpha virt. eigenvalues --    0.56614   0.57501   0.57801   0.61230   0.62467
 Alpha virt. eigenvalues --    0.63827   0.65335   0.70194   0.73268   0.73780
 Alpha virt. eigenvalues --    0.77736   0.77835   0.83033   0.83292   0.88892
 Alpha virt. eigenvalues --    0.90338   0.91249   0.91639   0.99276   0.99417
 Alpha virt. eigenvalues --    0.99951   1.05107   1.06945   1.07531   1.08774
 Alpha virt. eigenvalues --    1.12347   1.14430   1.18979   1.22023   1.26610
 Alpha virt. eigenvalues --    1.27209   1.28826   1.28944   1.33219   1.34420
 Alpha virt. eigenvalues --    1.35941   1.37876   1.42125   1.45172   1.46485
 Alpha virt. eigenvalues --    1.51624   1.56205   1.58571   1.73386   1.79423
 Alpha virt. eigenvalues --    1.80982   1.88360   1.90821   1.98808   1.99055
 Alpha virt. eigenvalues --    2.02301   2.11294   2.11580   2.14235   2.20446
 Alpha virt. eigenvalues --    2.20499   2.24309   2.30434   2.33690   2.35061
 Alpha virt. eigenvalues --    2.37645   2.46579   2.50693   2.55784   2.57678
 Alpha virt. eigenvalues --    2.59726   2.62118   2.67203   2.74655   2.75803
 Alpha virt. eigenvalues --    2.77236   2.80552   2.83053   2.84573   2.87296
 Alpha virt. eigenvalues --    2.88413   2.90085   2.92172   2.94137   2.96208
 Alpha virt. eigenvalues --    2.99359   3.00756   3.03129   3.07945   3.08562
 Alpha virt. eigenvalues --    3.10942   3.17558   3.17863   3.18410   3.20339
 Alpha virt. eigenvalues --    3.21375   3.23778   3.26890   3.27382   3.29072
 Alpha virt. eigenvalues --    3.29753   3.32444   3.37637   3.39181   3.39371
 Alpha virt. eigenvalues --    3.41235   3.44481   3.46785   3.47361   3.54326
 Alpha virt. eigenvalues --    3.54636   3.59140   3.61934   3.68475   3.69297
 Alpha virt. eigenvalues --    3.72472   3.72692   3.75362   3.79564   3.80906
 Alpha virt. eigenvalues --    3.81058   3.85199   3.88233   3.89880   3.91021
 Alpha virt. eigenvalues --    3.95556   3.98943   3.99612   4.02243   4.04232
 Alpha virt. eigenvalues --    4.10143   4.13635   4.16996   4.19794   4.20714
 Alpha virt. eigenvalues --    4.25624   4.31681   4.42942   4.43795   4.49016
 Alpha virt. eigenvalues --    4.53810   4.57573   4.59060   4.60334   4.71748
 Alpha virt. eigenvalues --    4.79414   4.81501   4.82858   4.85001   4.87548
 Alpha virt. eigenvalues --    4.89696   4.94330   5.01044   5.01934   5.02932
 Alpha virt. eigenvalues --    5.05391   5.08981   5.17857   5.25874   5.26704
 Alpha virt. eigenvalues --    5.40693   5.44786   5.47699   5.51202   5.57055
 Alpha virt. eigenvalues --    5.69798   5.75622   5.78851   5.80575   5.88177
 Alpha virt. eigenvalues --    5.91420   5.95613   6.11767   6.27116   6.36697
 Alpha virt. eigenvalues --    6.39530   6.47575   6.58344   6.64583   6.70988
 Alpha virt. eigenvalues --    6.75940   6.76528   6.78403   6.90856   7.04168
 Alpha virt. eigenvalues --    7.11726   7.21055   7.27272   7.35740  10.31251
 Alpha virt. eigenvalues --   10.91618  11.61106  12.89599  14.16854
          Condensed to atoms (all electrons):
               1          2          3          4          5          6
     1  O    7.863396   0.002308   0.303212   0.319376  -0.065423  -0.040907
     2  O    0.002308   7.797774  -0.000081  -0.078761   0.353052  -0.000134
     3  C    0.303212  -0.000081   4.686834  -0.064523   0.005065   0.396635
     4  C    0.319376  -0.078761  -0.064523   4.926810   0.636118  -0.026318
     5  C   -0.065423   0.353052   0.005065   0.636118   4.782093  -0.000005
     6  H   -0.040907  -0.000134   0.396635  -0.026318  -0.000005   0.674314
     7  H   -0.038845   0.000005   0.396507   0.004174   0.000205  -0.039301
     8  H   -0.039139   0.000003   0.399494   0.004376   0.000338  -0.043273
     9  H   -0.047542  -0.001816  -0.018146   0.397836  -0.062591   0.014503
    10  H    0.005132  -0.029833  -0.000223  -0.062612   0.401957   0.000182
    11  H   -0.000031   0.325755   0.000024  -0.005453  -0.055976  -0.000022
               7          8          9         10         11
     1  O   -0.038845  -0.039139  -0.047542   0.005132  -0.000031
     2  O    0.000005   0.000003  -0.001816  -0.029833   0.325755
     3  C    0.396507   0.399494  -0.018146  -0.000223   0.000024
     4  C    0.004174   0.004376   0.397836  -0.062612  -0.005453
     5  C    0.000205   0.000338  -0.062591   0.401957  -0.055976
     6  H   -0.039301  -0.043273   0.014503   0.000182  -0.000022
     7  H    0.631263  -0.050326   0.000158  -0.000010   0.000001
     8  H   -0.050326   0.621883   0.000069  -0.000006   0.000001
     9  H    0.000158   0.000069   0.611446   0.006531   0.007915
    10  H   -0.000010  -0.000006   0.006531   0.511613   0.007226
    11  H    0.000001   0.000001   0.007915   0.007226   0.458856
 Mulliken charges:
               1
     1  O   -0.261536
     2  O   -0.368273
     3  C   -0.104798
     4  C   -0.051022
     5  C    0.005169
     6  H    0.064326
     7  H    0.096168
     8  H    0.106580
     9  H    0.091638
    10  H    0.160043
    11  H    0.261705
 Sum of Mulliken charges =  -0.00000
 Mulliken charges with hydrogens summed into heavy atoms:
               1
     1  O   -0.261536
     2  O   -0.106568
     3  C    0.162276
     4  C    0.040616
     5  C    0.165212
 APT charges:
               1
     1  O   -0.160791
     2  O   -0.372319
     3  C   -0.950570
     4  C   -0.339408
     5  C   -0.301081
     6  H    0.202847
     7  H    0.432505
     8  H    0.433788
     9  H    0.240237
    10  H    0.384032
    11  H    0.430760
 Sum of APT charges =  -0.00000
 APT charges with hydrogens summed into heavy atoms:
               1
     1  O   -0.160791
     2  O    0.058442
     3  C    0.118569
     4  C   -0.099171
     5  C    0.082951
 Electronic spatial extent (au):  <R**2>=            561.1610
 Charge=             -0.0000 electrons
 Dipole moment (field-independent basis, Debye):
    X=             -1.5156    Y=              2.2255    Z=              0.0241  Tot=              2.6926
 Quadrupole moment (field-independent basis, Debye-Ang):
   XX=            -31.2156   YY=            -26.7935   ZZ=            -32.2232
   XY=              0.0725   XZ=             -0.0717   YZ=             -0.0266
 Traceless Quadrupole moment (field-independent basis, Debye-Ang):
   XX=             -1.1381   YY=              3.2839   ZZ=             -2.1458
   XY=              0.0725   XZ=             -0.0717   YZ=             -0.0266
 Octapole moment (field-independent basis, Debye-Ang**2):
  XXX=            -21.4059  YYY=              3.1189  ZZZ=              0.1251  XYY=             10.6736
  XXY=              5.9635  XXZ=              0.1333  XZZ=             -1.1226  YZZ=             -0.4077
  YYZ=              0.0147  XYZ=             -0.0518
 Hexadecapole moment (field-independent basis, Debye-Ang**3):
 XXXX=           -607.3568 YYYY=            -69.5907 ZZZZ=            -39.1318 XXXY=             16.3669
 XXXZ=             -0.4263 YYYX=              9.2127 YYYZ=             -0.0839 ZZZX=             -0.2770
 ZZZY=              0.0238 XXYY=            -96.3539 XXZZ=           -102.6469 YYZZ=            -21.0179
 XXYZ=              0.0776 YYXZ=             -0.0567 ZZXY=              2.7118
 N-N= 1.714983607991D+02 E-N=-9.713184259974D+02  KE= 2.666871902194D+02
  Exact polarizability:   0.000   0.000   0.000   0.000   0.000   0.000
 Approx polarizability:  66.633  -4.485  51.521   0.359  -0.016  38.046
 No NMR shielding tensors so no spin-rotation constants.
 Leave Link  601 at Thu Sep  5 18:15:10 2019, MaxMem=   671088640 cpu:              52.2 elap:              26.1
 (Enter /shared/centos7/gaussian/g16/l701.exe)
 SCFChk:  SCF convergence  2.05D-09 required  1.00D-08
 ... and contract with generalized density number  0.
 Compute integral second derivatives.
 Entering OneElI...
 Calculate overlap and kinetic energy integrals
    NBasis = 265  MinDer = 2  MaxDer = 2
 Requested accuracy = 0.1000D-12
 PrmmSu-InSpLW:  IPartL=    0 NPrtUS=   20 NPrtUL=    1 DoSpLW=F IThBeg=    0 IThEnd=   19 NThAct=   20.
 PrsmSu:  NPrtUS=  20 ThrOK=T IAlg=1 NPAlg=1 LenDen=           0 ISkipM=0 DoSpLW=F IThBeg=    0 IThEnd=   19.
 Prism:   IPart=     0 DynPar=F LinDyn=F Incr=           1.
 PRISM was handed    33440927 working-precision words and  3710 shell-pairs
 PRISM was handed    33440927 working-precision words and  3710 shell-pairs
 PRISM was handed    33440927 working-precision words and  3710 shell-pairs
 PRISM was handed    33440927 working-precision words and  3710 shell-pairs
 PRISM was handed    33440927 working-precision words and  3710 shell-pairs
 PRISM was handed    33440927 working-precision words and  3710 shell-pairs
 PRISM was handed    33440927 working-precision words and  3710 shell-pairs
 PRISM was handed    33440927 working-precision words and  3710 shell-pairs
 PRISM was handed    33440927 working-precision words and  3710 shell-pairs
 PRISM was handed    33440927 working-precision words and  3710 shell-pairs
 PRISM was handed    33440927 working-precision words and  3710 shell-pairs
 IPart= 10 NShTot=         178 NBatch=          27 AvBLen=         6.6
 IPart=  0 NShTot=         228 NBatch=          68 AvBLen=         3.4
 PRISM was handed    33440927 working-precision words and  3710 shell-pairs
 PRISM was handed    33440927 working-precision words and  3710 shell-pairs
 IPart=  4 NShTot=         202 NBatch=          48 AvBLen=         4.2
 PRISM was handed    33440927 working-precision words and  3710 shell-pairs
 PRISM was handed    33440927 working-precision words and  3710 shell-pairs
 PRISM was handed    33440927 working-precision words and  3710 shell-pairs
 PRISM was handed    33440927 working-precision words and  3710 shell-pairs
 PRISM was handed    33440927 working-precision words and  3710 shell-pairs
 IPart=  9 NShTot=         179 NBatch=          28 AvBLen=         6.4
 IPart= 12 NShTot=         177 NBatch=          27 AvBLen=         6.6
 IPart=  5 NShTot=         196 NBatch=          42 AvBLen=         4.7
 PRISM was handed    33440927 working-precision words and  3710 shell-pairs
 IPart=  1 NShTot=         222 NBatch=          62 AvBLen=         3.6
 IPart=  8 NShTot=         180 NBatch=          28 AvBLen=         6.4
 IPart= 17 NShTot=         165 NBatch=          25 AvBLen=         6.6
 PRISM was handed    33440927 working-precision words and  3710 shell-pairs
 IPart= 16 NShTot=         166 NBatch=          25 AvBLen=         6.6
 IPart= 15 NShTot=         167 NBatch=          25 AvBLen=         6.7
 IPart=  3 NShTot=         209 NBatch=          50 AvBLen=         4.2
 IPart= 13 NShTot=         177 NBatch=          27 AvBLen=         6.6
 IPart= 18 NShTot=         164 NBatch=          25 AvBLen=         6.6
 IPart=  7 NShTot=         186 NBatch=          34 AvBLen=         5.5
 IPart= 11 NShTot=         177 NBatch=          27 AvBLen=         6.6
 IPart= 19 NShTot=         163 NBatch=          25 AvBLen=         6.5
 IPart=  6 NShTot=         191 NBatch=          37 AvBLen=         5.2
 IPart= 14 NShTot=         171 NBatch=          27 AvBLen=         6.3
 IPart=  2 NShTot=         212 NBatch=          52 AvBLen=         4.1
 PrSmSu:  NxtVal=             21.
 Entering OneElI...
 Calculate potential energy integrals
    NBasis = 265  MinDer = 2  MaxDer = 2
 Requested accuracy = 0.1000D-12
 PrmmSu-InSpLW:  IPartL=    0 NPrtUS=   20 NPrtUL=    1 DoSpLW=F IThBeg=    0 IThEnd=   19 NThAct=   20.
 PrsmSu:  NPrtUS=  20 ThrOK=T IAlg=1 NPAlg=1 LenDen=           0 ISkipM=0 DoSpLW=F IThBeg=    0 IThEnd=   19.
 Prism:   IPart=     0 DynPar=F LinDyn=F Incr=          18.
 PRISM was handed    33457923 working-precision words and  3448 shell-pairs
 PRISM was handed    33457923 working-precision words and  3448 shell-pairs
 PRISM was handed    33457923 working-precision words and  3448 shell-pairs
 PRISM was handed    33457923 working-precision words and  3448 shell-pairs
 PRISM was handed    33457923 working-precision words and  3448 shell-pairs
 PRISM was handed    33457923 working-precision words and  3448 shell-pairs
 PRISM was handed    33457923 working-precision words and  3448 shell-pairs
 PRISM was handed    33457923 working-precision words and  3448 shell-pairs
 PRISM was handed    33457923 working-precision words and  3448 shell-pairs
 PRISM was handed    33457923 working-precision words and  3448 shell-pairs
 PRISM was handed    33457923 working-precision words and  3448 shell-pairs
 PRISM was handed    33457923 working-precision words and  3448 shell-pairs
 PRISM was handed    33457923 working-precision words and  3448 shell-pairs
 PRISM was handed    33457923 working-precision words and  3448 shell-pairs
 PRISM was handed    33457923 working-precision words and  3448 shell-pairs
 PRISM was handed    33457923 working-precision words and  3448 shell-pairs
 PRISM was handed    33457923 working-precision words and  3448 shell-pairs
 PRISM was handed    33457923 working-precision words and  3448 shell-pairs
 PRISM was handed    33457923 working-precision words and  3448 shell-pairs
 PRISM was handed    33457923 working-precision words and  3448 shell-pairs
 IPart=  8 NShTot=        1881 NBatch=         171 AvBLen=        11.0
 IPart= 12 NShTot=        1793 NBatch=         163 AvBLen=        11.0
 IPart= 16 NShTot=        1749 NBatch=         159 AvBLen=        11.0
 IPart=  0 NShTot=        2343 NBatch=         213 AvBLen=        11.0
 IPart= 17 NShTot=        1738 NBatch=         158 AvBLen=        11.0
 IPart=  4 NShTot=        2002 NBatch=         182 AvBLen=        11.0
 IPart= 10 NShTot=        1848 NBatch=         168 AvBLen=        11.0
 IPart=  9 NShTot=        1859 NBatch=         169 AvBLen=        11.0
 IPart= 18 NShTot=        1716 NBatch=         156 AvBLen=        11.0
 IPart=  1 NShTot=        2233 NBatch=         203 AvBLen=        11.0
 IPart=  5 NShTot=        1914 NBatch=         174 AvBLen=        11.0
 IPart=  2 NShTot=        2178 NBatch=         198 AvBLen=        11.0
 IPart=  6 NShTot=        1903 NBatch=         173 AvBLen=        11.0
 IPart=  7 NShTot=        1881 NBatch=         171 AvBLen=        11.0
 IPart= 14 NShTot=        1771 NBatch=         161 AvBLen=        11.0
 IPart= 11 NShTot=        1826 NBatch=         166 AvBLen=        11.0
 IPart= 19 NShTot=        1694 NBatch=         154 AvBLen=        11.0
 IPart= 13 NShTot=        1782 NBatch=         162 AvBLen=        11.0
 IPart=  3 NShTot=        2057 NBatch=         187 AvBLen=        11.0
 IPart= 15 NShTot=        1760 NBatch=         160 AvBLen=        11.0
 PrSmSu:  NxtVal=            361.
 Polarizability after L701:
                1             2             3 
      1  0.000000D+00
      2  0.000000D+00  0.000000D+00
      3  0.000000D+00  0.000000D+00  0.000000D+00
 Dipole Derivatives after L701:
                 1             2             3             4             5 
      1  -0.158282D+00  0.146600D+00  0.212013D-02  0.370287D+00 -0.102245D+01
      2   0.187235D-01 -0.727324D-01  0.745003D-03  0.570547D-01 -0.108738D+01
      3   0.377160D-02  0.221360D-02 -0.251359D+00 -0.452368D-04  0.174409D-03
                 6             7             8             9            10 
      1   0.641644D-02 -0.133766D+01  0.329775D+00 -0.150758D-01 -0.397923D+00
      2   0.178743D-02  0.645789D-01 -0.750426D+00  0.425730D-02 -0.987806D-01
      3  -0.399862D+00 -0.399361D-03  0.522192D-03 -0.763627D+00  0.911509D-05
                11            12            13            14            15 
      1  -0.182481D-01  0.938282D-03 -0.407599D+00  0.394452D+00 -0.759820D-02
      2  -0.651886D+00  0.454501D-02  0.110098D+00 -0.567030D+00  0.304258D-02
      3   0.461146D-02  0.315850D-01 -0.569177D-02  0.541821D-02  0.713875D-01
                16            17            18            19            20 
      1  -0.290936D-01 -0.598653D+00  0.153491D-02  0.769845D+00  0.162954D+00
      2   0.152631D+00  0.578655D+00 -0.739216D-02 -0.299821D-01  0.112530D+00
      3  -0.392403D-02 -0.666508D-02  0.589787D-01  0.199757D+00  0.102433D+00
                21            22            23            24            25 
      1   0.826687D+00  0.740675D+00  0.125379D+00 -0.814091D+00  0.972592D-01
      2   0.254259D-01 -0.324377D-01  0.123818D+00 -0.235489D-01 -0.580859D-01
      3   0.415139D+00 -0.195897D+00 -0.968889D-01  0.436870D+00  0.115132D-02
                26            27            28            29            30 
      1  -0.343734D-01  0.797592D-03  0.222701D+00 -0.599846D+00  0.184009D-02
      2   0.594057D+00 -0.423463D-02 -0.983686D-01  0.833009D+00 -0.293358D-02
      3  -0.647568D-02  0.293947D-01  0.115034D-02 -0.493664D-02  0.963866D-01
                31            32            33 
      1   0.129786D+00  0.111441D+01 -0.356915D-02
      2  -0.854312D-01  0.887389D+00 -0.169389D-02
      3   0.118233D-03 -0.406619D-03  0.275106D+00
 Hessian after L701:
                1             2             3             4             5 
      1  0.199943D+01
      2 -0.339215D+00  0.103099D+02
      3  0.708822D-01 -0.314073D-01  0.144231D+02
      4  0.457307D+00  0.176734D+00  0.542846D-03  0.492726D+01
      5  0.118224D+00 -0.202165D+00  0.757655D-04 -0.288848D+01  0.649970D+01
      6  0.159950D-02  0.572928D-03 -0.212270D+00 -0.123309D-01  0.820914D-02
      7 -0.147587D+01 -0.392611D+01 -0.511490D-01  0.136711D+00 -0.134014D-01
      8 -0.374018D+01 -0.429350D+01  0.478636D-01  0.329596D-02 -0.875661D-01
      9 -0.497967D-01  0.486635D-01 -0.715526D+01 -0.562568D-03  0.281591D-03
     10 -0.100559D+01  0.392662D+01 -0.294760D-01  0.313302D+00 -0.170221D+00
     11  0.387800D+01 -0.582498D+01 -0.488330D-02 -0.857536D-01 -0.200122D+00
     12 -0.300410D-01 -0.696685D-02 -0.788752D+01  0.176621D-03  0.104354D-02
     13  0.171596D+00 -0.102273D+00  0.540463D-02 -0.990810D+00  0.366740D+01
     14 -0.124776D+00 -0.169611D+00  0.295632D-02  0.382279D+01 -0.564280D+01
     15  0.413931D-02  0.228623D-02  0.104411D+00  0.892262D-02  0.629747D-02
     16 -0.995527D-02  0.176322D+00  0.434523D-02  0.142559D-01 -0.904927D-02
     17  0.127571D+00  0.175710D+00 -0.139728D-01 -0.294724D-01  0.115439D-02
     18  0.247353D-02 -0.109755D-01  0.888252D-01  0.321897D-03 -0.200860D-03
     19 -0.124453D+00  0.145447D+00  0.158176D+00  0.244325D-01 -0.474941D-02
     20  0.160271D+00 -0.183209D-01  0.144314D-01  0.437203D-02 -0.778186D-02
     21  0.147486D+00 -0.133420D-02  0.284029D+00  0.169475D-01 -0.322797D-02
     22 -0.131918D+00  0.158777D+00 -0.160827D+00  0.242061D-01 -0.476065D-02
     23  0.168095D+00 -0.260759D-01 -0.130713D-01  0.369043D-02 -0.766006D-02
     24 -0.148993D+00  0.330434D-03  0.304551D+00 -0.171900D-01  0.322740D-02
     25 -0.268245D-01 -0.205952D+00  0.595730D-03  0.445557D-01 -0.589915D-01
     26 -0.205843D+00  0.765940D-01 -0.122489D-02 -0.933633D-01  0.127552D-01
     27  0.105382D-02 -0.686173D-03  0.142624D+00  0.681819D-03 -0.645212D-03
     28  0.131374D+00 -0.298832D-01  0.151150D-02 -0.771552D-01 -0.174410D+00
     29 -0.105359D+00 -0.470765D-01 -0.794307D-03 -0.127795D+00  0.600209D-02
     30  0.132554D-02 -0.409178D-03 -0.754704D-01 -0.716427D-04 -0.125139D-02
     31  0.149057D-01  0.195338D-01 -0.603159D-05 -0.487406D+01 -0.461567D+00
     32  0.632129D-01  0.195114D-01  0.267437D-04 -0.786020D+00 -0.371516D+00
     33 -0.129676D-03 -0.739287D-04 -0.170186D-01  0.256173D-02 -0.138095D-01
                6             7             8             9            10 
      6  0.131131D+02
      7 -0.223575D-03  0.906598D+01
      8  0.488891D-04  0.310682D+01  0.122517D+02
      9 -0.722847D-01  0.179616D-01 -0.532438D-01  0.148128D+02
     10  0.182355D-02  0.239907D+00 -0.140601D-01 -0.512108D-02  0.604010D+01
     11  0.158865D-02  0.193156D-01 -0.172099D+00 -0.471300D-03 -0.821384D+00
     12  0.188407D+00 -0.356071D-02 -0.476048D-03 -0.123189D+00 -0.163610D-01
     13  0.713463D-02  0.312002D+00 -0.100161D+00 -0.211727D-02 -0.177631D+01
     14  0.681276D-02 -0.106027D+00 -0.129792D+00  0.287529D-03 -0.316654D+01
     15 -0.777568D+01 -0.141666D-02  0.209216D-03 -0.133962D+00  0.547496D-01
     16  0.166380D-03 -0.333361D+01  0.342175D+00 -0.718749D-02 -0.775861D-01
     17 -0.160262D-03  0.584648D+00 -0.103839D+01 -0.388100D-01  0.178748D-01
     18 -0.125016D-01 -0.944369D-02 -0.347349D-01 -0.341415D+01 -0.131772D-02
     19  0.566377D-02 -0.233983D+01  0.223433D+00  0.116998D+01  0.105354D+00
     20  0.675912D-03  0.178370D+00 -0.319016D+01  0.214486D+00  0.816760D-02
     21 -0.382846D-02  0.106031D+01  0.246115D+00 -0.186171D+01  0.621320D-01
     22 -0.572792D-02 -0.259720D+01  0.182036D+00 -0.112168D+01  0.103550D+00
     23 -0.603193D-03  0.139960D+00 -0.337687D+01 -0.169843D+00  0.608697D-02
     24 -0.383094D-02 -0.101110D+01 -0.205003D+00 -0.203128D+01 -0.631018D-01
     25  0.462282D-03 -0.295928D-01  0.419730D-02 -0.132380D-02 -0.392921D+01
     26 -0.707603D-03  0.216840D-01  0.332316D-01 -0.128647D-02 -0.818153D-01
     27 -0.562477D-01 -0.120887D-02 -0.785521D-03  0.214198D-03  0.512132D-03
     28 -0.229411D-03  0.121987D-01 -0.124254D-01 -0.936823D-04  0.215168D-02
     29 -0.198201D-02 -0.246083D-01  0.161312D-02  0.751289D-04  0.255894D+00
     30  0.340968D-01 -0.863360D-04  0.346786D-04 -0.137821D-01 -0.373588D-02
     31  0.166168D-02  0.930186D-02  0.486214D-02 -0.619110D-04 -0.156662D-01
     32 -0.144552D-01  0.193499D-01  0.183473D-02 -0.138554D-03  0.393717D-01
     33 -0.519893D+01 -0.844160D-04 -0.283544D-04 -0.736935D-02 -0.103734D-03
               11            12            13            14            15 
     11  0.151733D+02
     12  0.651185D-01  0.242855D+02
     13 -0.322170D+01  0.563273D-01  0.592599D+01
     14 -0.744134D+01 -0.467116D-01 -0.325123D+00  0.150022D+02
     15 -0.468458D-01 -0.126240D+02 -0.622427D-01  0.424725D-01  0.240515D+02
     16  0.376668D-01 -0.223062D-02  0.173101D-01 -0.149392D-01 -0.690971D-03
     17  0.346775D-01  0.109221D-02 -0.451698D-01  0.383503D-02  0.302783D-03
     18  0.281636D-03  0.253127D-01 -0.148269D-03  0.510136D-04 -0.173463D-01
     19  0.156475D-01  0.358525D-01  0.375088D-01 -0.646388D-02  0.278880D-02
     20 -0.411207D-01  0.984556D-02 -0.534471D-04 -0.969621D-02  0.180651D-02
     21  0.955708D-02 -0.181930D-01  0.209139D-01 -0.323914D-03 -0.807477D-02
     22  0.146730D-01 -0.368803D-01  0.396363D-01 -0.690594D-02 -0.310781D-02
     23 -0.424504D-01 -0.978436D-02 -0.126516D-02 -0.100996D-01 -0.180281D-02
     24 -0.942846D-02 -0.178643D-01 -0.216424D-01  0.401248D-03 -0.839465D-02
     25 -0.637665D-01  0.368320D-03  0.114068D-01  0.295565D+00 -0.340011D-02
     26 -0.132526D+01 -0.180839D-01  0.295802D+00 -0.194878D+00  0.454110D-02
     27 -0.194971D-01 -0.398930D+01 -0.362211D-02  0.458041D-02  0.177829D+00
     28  0.283369D+00 -0.382040D-02 -0.387714D+01 -0.268100D+00  0.505630D-03
     29 -0.120514D+00  0.483400D-02 -0.199589D+00 -0.143152D+01 -0.877684D-02
     30  0.464391D-02  0.174591D+00  0.556674D-03 -0.979153D-02 -0.387356D+01
     31 -0.560667D-01  0.169277D-03  0.128799D+00 -0.994820D-01 -0.247747D-03
     32 -0.401367D-01  0.889661D-04  0.321239D-01  0.237497D-01 -0.490394D-03
     33 -0.638016D-04 -0.136957D-01 -0.564417D-03 -0.734731D-03  0.107275D+00
               16            17            18            19            20 
     16  0.321864D+01
     17 -0.300738D+00  0.101261D+01
     18 -0.666642D-02  0.236026D-01  0.333498D+01
     19  0.204601D-01 -0.144831D+00 -0.942583D-01  0.210220D+01
     20 -0.115047D+00 -0.539534D-01 -0.129798D+00 -0.245284D+00  0.317669D+01
     21 -0.728548D-01 -0.128993D+00  0.341832D-01 -0.125055D+01 -0.115516D+00
     22  0.319050D-01 -0.162861D+00  0.109185D+00  0.163015D+00  0.548648D-02
     23 -0.126274D+00 -0.604602D-01  0.151730D+00  0.456978D-02  0.142984D+00
     24  0.859170D-01  0.156742D+00  0.311454D-01 -0.324415D-01  0.226253D-02
     25  0.115376D+00 -0.390567D-01 -0.216423D-03  0.659059D-02  0.409244D-02
     26  0.121423D-01 -0.774960D-01  0.709273D-04  0.129450D-01  0.133785D-02
     27 -0.793392D-03  0.232165D-03 -0.673133D-01  0.373368D-02  0.138822D-02
     28  0.204121D-02 -0.672789D-02  0.485894D-04  0.338577D-02 -0.840096D-03
     29 -0.433325D-02  0.971557D-02 -0.927487D-04 -0.687181D-02 -0.724550D-03
     30 -0.596971D-05 -0.503295D-04 -0.189461D-02  0.659207D-03  0.267167D-03
     31  0.116107D-02 -0.123727D-02  0.218397D-04  0.133274D-02  0.465113D-03
     32  0.207513D-02 -0.740508D-02  0.651311D-04  0.615684D-02  0.740241D-03
     33  0.000000D+00  0.152831D-04 -0.124401D-02  0.398010D-03  0.151081D-03
               21            22            23            24            25 
     21  0.187016D+01
     22  0.763605D-02  0.235663D+01
     23 -0.142684D-01 -0.197844D+00  0.337961D+01
     24 -0.293634D+00  0.121623D+01  0.594139D-01  0.202184D+01
     25  0.443335D-02  0.547408D-02  0.352699D-02 -0.409874D-02  0.374406D+01
     26  0.846490D-02  0.121612D-01  0.987682D-03 -0.843218D-02  0.848277D-01
     27 -0.190917D-02 -0.372321D-02 -0.134503D-02 -0.154550D-02  0.242452D-02
     28  0.280326D-02  0.337285D-02 -0.987342D-03 -0.283191D-02 -0.581508D-02
     29 -0.518366D-02 -0.679537D-02 -0.491510D-03  0.521153D-02 -0.433642D-01
     30 -0.622572D-03 -0.658875D-03 -0.269888D-03 -0.626857D-03  0.304900D-03
     31  0.747405D-03  0.132327D-02  0.441583D-03 -0.754210D-03  0.639818D-01
     32  0.471055D-02  0.603379D-02  0.529206D-03 -0.472496D-02  0.189220D-01
     33 -0.401576D-03 -0.450577D-03 -0.155992D-03 -0.363291D-03  0.449970D-03
               26            27            28            29            30 
     26  0.143975D+01
     27  0.173490D-01  0.383867D+01
     28 -0.445586D-01  0.336082D-03  0.382552D+01
     29  0.779667D-01 -0.773151D-03  0.228692D+00  0.139232D+01
     30 -0.648321D-03 -0.124193D-01  0.185950D-02  0.793189D-02  0.379104D+01
     31 -0.139821D-01  0.605531D-03 -0.199332D-01  0.341302D-01 -0.147115D-03
     32 -0.449909D-01  0.182459D-03  0.258722D-01  0.112708D+00 -0.457004D-03
     33 -0.425110D-04 -0.305973D-01 -0.891636D-04 -0.449841D-03 -0.213569D-01
               31            32            33 
     31  0.468886D+01
     32  0.572902D+00  0.304976D+00
     33 -0.198871D-02  0.151923D-01  0.518370D+01
 Leave Link  701 at Thu Sep  5 18:15:29 2019, MaxMem=   671088640 cpu:              37.8 elap:              18.9
 (Enter /shared/centos7/gaussian/g16/l702.exe)
 L702 exits ... SP integral derivatives will be done elsewhere.
 Leave Link  702 at Thu Sep  5 18:15:30 2019, MaxMem=   671088640 cpu:               1.5 elap:               0.7
 (Enter /shared/centos7/gaussian/g16/l703.exe)
 Integral derivatives from FoFJK, PRISM(SPDF).
 Compute integral second derivatives, UseDBF=F ICtDFT=           0.
 ICntrl=    100147.
 Calling FoFJK, ICntrl=    100147 FMM=F ISym2X=0 I1Cent= 0 IOpClX= 0 NMat=1 NMatS=1 NMatT=0.
 FoFJK:  IHMeth= 1 ICntrl=  100147 DoSepK=F KAlg= 0 I1Cent=           0 FoldK=F
 IRaf=         0 NMat=       1 IRICut=       1 DoRegI=T DoRafI=F ISym2E= 0 IDoP0=0 IntGTp=1.
 FoFCou: FMM=F IPFlag=           0 FMFlag=      100000 FMFlg1=         800
         NFxFlg=           0 DoJE=F BraDBF=F KetDBF=F FulRan=T
         wScrn=  0.000000 ICntrl=    100147 IOpCl=  0 I1Cent=           0 NGrid=           0
         NMat0=    1 NMatS0=      1 NMatT0=    0 NMatD0=    1 NMtDS0=    0 NMtDT0=    0
 Symmetry not used in FoFCou.
 FoFCou:  KetSym=F NOpSet=  1 NOpAb=1 NOp=  1.
 FoFCou:  CnvScl= 1.00D+00 Thresh= 1.00D-08 IAcrcy=      12.
 PrismS was handed   670746243 working-precision words and  3560 shell-pairs
 FoFCou: LinMIO=F DoNuc=F BraDBF=F KetDBF=F HaveP=T PDBF=F HaveZ=T HaveW=F
         NIJTC =      10 NIJTAt=       0 NIJTCD=       0 NIJTT =      10
         IJTBeg=       1 IJTEnd=      10 KLTBeg=       1 KLTEnd=      10
         IPTBeg=       1 IPTEnd=      10 IPTBCv=       1 IPTECv=      10
         IZTBeg=       1 IZTEnd=      10 IZTBCv=       1 IZTECv=      10
         IWTBeg=      11 IWTEnd=      10 IWTBCv=      11 IWTECv=      10
         INTBeg=       1 INTEnd=       0 IFTBCv=       1 IFTECv=      10
 NCel replicated for PrismC:     1
 CoulSu-InSpLW:  IPartL=    0 NPrtUS=   20 NPrtUL=    1 DoSpLW=F IThBeg=    0 IThEnd=   19 NThAct=   20.
 CoulSu:  IncDef=  1024 NBBP=        6338580 NTPThr=   100 NPartT=   20 Incr=        1024 LDynOK=F GPUOK=T.
 CoulSu:  NPrtUS=  20 ThrOK=T IAlg=1 NPAlg=1 LenDen=           0 LWGrdD=           0 DoCopy=F ISkipM=0
          DoSpLW=F IThBeg=    0 IThEnd=   19.
 Enter PrismC:  IPart=  0 JobTyp=22 DoJE=F Cont=F.
 PrismC:  IPart=     0 DynPar=T LinDyn=F Incr=        1024 UseFst=F UseS4=T ISplat=2.
 PrismC was handed    33458937 working-precision words and  3560 shell-pairs
 Enter PrismC:  IPart=  8 JobTyp=22 DoJE=F Cont=F.
 Enter PrismC:  IPart= 14 JobTyp=22 DoJE=F Cont=F.
 PrismC:  IPart=     8 DynPar=T LinDyn=F Incr=        1024 UseFst=F UseS4=T ISplat=2.
 PrismC was handed    33458937 working-precision words and  3560 shell-pairs
 Enter PrismC:  IPart= 10 JobTyp=22 DoJE=F Cont=F.
 PrismC:  IPart=    14 DynPar=T LinDyn=F Incr=        1024 UseFst=F UseS4=T ISplat=2.
 PrismC was handed    33458937 working-precision words and  3560 shell-pairs
 PrismC:  IPart=    10 DynPar=T LinDyn=F Incr=        1024 UseFst=F UseS4=T ISplat=2.
 PrismC was handed    33458937 working-precision words and  3560 shell-pairs
 Enter PrismC:  IPart=  1 JobTyp=22 DoJE=F Cont=F.
 Enter PrismC:  IPart= 18 JobTyp=22 DoJE=F Cont=F.
 Enter PrismC:  IPart= 17 JobTyp=22 DoJE=F Cont=F.
 PrismC:  IPart=    18 DynPar=T LinDyn=F Incr=        1024 UseFst=F UseS4=T ISplat=2.
 PrismC:  IPart=    17 DynPar=T LinDyn=F Incr=        1024 UseFst=F UseS4=T ISplat=2.
 PrismC was handed    33458937 working-precision words and  3560 shell-pairs
 PrismC was handed    33458937 working-precision words and  3560 shell-pairs
 PrismC:  IPart=     1 DynPar=T LinDyn=F Incr=        1024 UseFst=F UseS4=T ISplat=2.
 PrismC was handed    33458937 working-precision words and  3560 shell-pairs
 Enter PrismC:  IPart=  4 JobTyp=22 DoJE=F Cont=F.
 PrismC:  IPart=     4 DynPar=T LinDyn=F Incr=        1024 UseFst=F UseS4=T ISplat=2.
 PrismC was handed    33458937 working-precision words and  3560 shell-pairs
 Enter PrismC:  IPart=  3 JobTyp=22 DoJE=F Cont=F.
 PrismC:  IPart=     3 DynPar=T LinDyn=F Incr=        1024 UseFst=F UseS4=T ISplat=2.
 PrismC was handed    33458937 working-precision words and  3560 shell-pairs
 Enter PrismC:  IPart= 12 JobTyp=22 DoJE=F Cont=F.
 PrismC:  IPart=    12 DynPar=T LinDyn=F Incr=        1024 UseFst=F UseS4=T ISplat=2.
 PrismC was handed    33458937 working-precision words and  3560 shell-pairs
 Enter PrismC:  IPart=  9 JobTyp=22 DoJE=F Cont=F.
 PrismC:  IPart=     9 DynPar=T LinDyn=F Incr=        1024 UseFst=F UseS4=T ISplat=2.
 PrismC was handed    33458937 working-precision words and  3560 shell-pairs
 Enter PrismC:  IPart= 13 JobTyp=22 DoJE=F Cont=F.
 PrismC:  IPart=    13 DynPar=T LinDyn=F Incr=        1024 UseFst=F UseS4=T ISplat=2.
 PrismC was handed    33458937 working-precision words and  3560 shell-pairs
 Enter PrismC:  IPart=  6 JobTyp=22 DoJE=F Cont=F.
 PrismC:  IPart=     6 DynPar=T LinDyn=F Incr=        1024 UseFst=F UseS4=T ISplat=2.
 PrismC was handed    33458937 working-precision words and  3560 shell-pairs
 Enter PrismC:  IPart=  7 JobTyp=22 DoJE=F Cont=F.
 Enter PrismC:  IPart= 11 JobTyp=22 DoJE=F Cont=F.
 PrismC:  IPart=     7 DynPar=T LinDyn=F Incr=        1024 UseFst=F UseS4=T ISplat=2.
 PrismC was handed    33458937 working-precision words and  3560 shell-pairs
 PrismC:  IPart=    11 DynPar=T LinDyn=F Incr=        1024 UseFst=F UseS4=T ISplat=2.
 PrismC was handed    33458937 working-precision words and  3560 shell-pairs
 Enter PrismC:  IPart=  2 JobTyp=22 DoJE=F Cont=F.
 PrismC:  IPart=     2 DynPar=T LinDyn=F Incr=        1024 UseFst=F UseS4=T ISplat=2.
 PrismC was handed    33458937 working-precision words and  3560 shell-pairs
 Enter PrismC:  IPart= 15 JobTyp=22 DoJE=F Cont=F.
 PrismC:  IPart=    15 DynPar=T LinDyn=F Incr=        1024 UseFst=F UseS4=T ISplat=2.
 PrismC was handed    33458937 working-precision words and  3560 shell-pairs
 Enter PrismC:  IPart= 16 JobTyp=22 DoJE=F Cont=F.
 PrismC:  IPart=    16 DynPar=T LinDyn=F Incr=        1024 UseFst=F UseS4=T ISplat=2.
 PrismC was handed    33458937 working-precision words and  3560 shell-pairs
 Enter PrismC:  IPart=  5 JobTyp=22 DoJE=F Cont=F.
 PrismC:  IPart=     5 DynPar=T LinDyn=F Incr=        1024 UseFst=F UseS4=T ISplat=2.
 PrismC was handed    33458937 working-precision words and  3560 shell-pairs
 Enter PrismC:  IPart= 19 JobTyp=22 DoJE=F Cont=F.
 PrismC:  IPart=    19 DynPar=T LinDyn=F Incr=        1024 UseFst=F UseS4=T ISplat=2.
 PrismC was handed    33458937 working-precision words and  3560 shell-pairs
 IPart=  9 NShTot=      207698 NShNF=      207698 NShFF=           0 MinMC=       7
           NShCPU=      207698 NBCPU=        9009 AvBCPU=        23.1
           NShGPU=           0 NBGPU=           0 AvBGPU=         0.0
 IPart= 14 NShTot=      203394 NShNF=      203394 NShFF=           0 MinMC=       7
           NShCPU=      203394 NBCPU=        8491 AvBCPU=        24.0
           NShGPU=           0 NBGPU=           0 AvBGPU=         0.0
 IPart=  6 NShTot=      210243 NShNF=      210243 NShFF=           0 MinMC=       7
           NShCPU=      210243 NBCPU=        8757 AvBCPU=        24.0
           NShGPU=           0 NBGPU=           0 AvBGPU=         0.0
 IPart= 15 NShTot=      208975 NShNF=      208975 NShFF=           0 MinMC=       7
           NShCPU=      208975 NBCPU=        8765 AvBCPU=        23.8
           NShGPU=           0 NBGPU=           0 AvBGPU=         0.0
 IPart=  1 NShTot=      207647 NShNF=      207647 NShFF=           0 MinMC=       7
           NShCPU=      207647 NBCPU=        8321 AvBCPU=        25.0
           NShGPU=           0 NBGPU=           0 AvBGPU=         0.0
 IPart=  2 NShTot=      216608 NShNF=      216608 NShFF=           0 MinMC=       7
           NShCPU=      216608 NBCPU=        8843 AvBCPU=        24.5
           NShGPU=           0 NBGPU=           0 AvBGPU=         0.0
 IPart= 16 NShTot=      206739 NShNF=      206739 NShFF=           0 MinMC=       7
           NShCPU=      206739 NBCPU=        9039 AvBCPU=        22.9
           NShGPU=           0 NBGPU=           0 AvBGPU=         0.0
 IPart= 12 NShTot=      207964 NShNF=      207964 NShFF=           0 MinMC=       7
           NShCPU=      207964 NBCPU=        8757 AvBCPU=        23.7
           NShGPU=           0 NBGPU=           0 AvBGPU=         0.0
 IPart= 11 NShTot=      217684 NShNF=      217684 NShFF=           0 MinMC=       7
           NShCPU=      217684 NBCPU=        8734 AvBCPU=        24.9
           NShGPU=           0 NBGPU=           0 AvBGPU=         0.0
 IPart= 13 NShTot=      205374 NShNF=      205374 NShFF=           0 MinMC=       7
           NShCPU=      205374 NBCPU=        8171 AvBCPU=        25.1
           NShGPU=           0 NBGPU=           0 AvBGPU=         0.0
 IPart=  7 NShTot=      205302 NShNF=      205302 NShFF=           0 MinMC=       7
           NShCPU=      205302 NBCPU=        8644 AvBCPU=        23.8
           NShGPU=           0 NBGPU=           0 AvBGPU=         0.0
 IPart=  4 NShTot=      203899 NShNF=      203899 NShFF=           0 MinMC=       7
           NShCPU=      203899 NBCPU=        8602 AvBCPU=        23.7
           NShGPU=           0 NBGPU=           0 AvBGPU=         0.0
 IPart=  3 NShTot=      213093 NShNF=      213093 NShFF=           0 MinMC=       7
           NShCPU=      213093 NBCPU=        8729 AvBCPU=        24.4
           NShGPU=           0 NBGPU=           0 AvBGPU=         0.0
 IPart= 19 NShTot=      203764 NShNF=      203764 NShFF=           0 MinMC=       7
           NShCPU=      203764 NBCPU=        8871 AvBCPU=        23.0
           NShGPU=           0 NBGPU=           0 AvBGPU=         0.0
 IPart= 17 NShTot=      207459 NShNF=      207459 NShFF=           0 MinMC=       7
           NShCPU=      207459 NBCPU=        8592 AvBCPU=        24.1
           NShGPU=           0 NBGPU=           0 AvBGPU=         0.0
 IPart= 10 NShTot=      201953 NShNF=      201953 NShFF=           0 MinMC=       7
           NShCPU=      201953 NBCPU=        8763 AvBCPU=        23.0
           NShGPU=           0 NBGPU=           0 AvBGPU=         0.0
 IPart=  8 NShTot=      198203 NShNF=      198203 NShFF=           0 MinMC=       7
           NShCPU=      198203 NBCPU=        9024 AvBCPU=        22.0
           NShGPU=           0 NBGPU=           0 AvBGPU=         0.0
 IPart=  0 NShTot=      197123 NShNF=      197123 NShFF=           0 MinMC=       7
           NShCPU=      197123 NBCPU=        7966 AvBCPU=        24.7
           NShGPU=           0 NBGPU=           0 AvBGPU=         0.0
 IPart=  5 NShTot=      206928 NShNF=      206928 NShFF=           0 MinMC=       7
           NShCPU=      206928 NBCPU=        8908 AvBCPU=        23.2
           NShGPU=           0 NBGPU=           0 AvBGPU=         0.0
 IPart= 18 NShTot=      202345 NShNF=      202345 NShFF=           0 MinMC=       7
           NShCPU=      202345 NBCPU=        8271 AvBCPU=        24.5
           NShGPU=           0 NBGPU=           0 AvBGPU=         0.0
 CoulSu:  NxtVal=        6767617 LenVP=       33458938 MinMC=       7.
 ReadGW:  IGet=0 IStart=           1 Next=           1 LGW=           0.
 Remaining memory in FofDFT      639.93 Mw
 CkSvGd:  ISavGI=        -1 IRadAn=       5 IRASav=       5 ISavGd=        -1.
 CalDSu-InSpLW:  IPartL=    0 NPrtUS=   20 NPrtUL=    1 DoSpLW=F IThBeg=    0 IThEnd=   19 NThAct=   20.
 CalDSu:  NPrtUS=  20 ThrOK=T IAlg=1 NPAlg=2 DoDPD=T LenP=       35245 LenD1P=             0 GPUOK=F
          ISkipM=0 DoSpLW=F IThBeg=    0 IThEnd=   19.
 IPart=  0 IRanGd=          0 ScrnBf=T ScrnGd=T RCrit=4.00D+00 DoMicB=T.
 IPart=  9        13443 of        15444 points in      18 batches and       57 microbatches, Max-NSigAt=      11 Max-NSgAt2=      11
 IPart=  7        11227 of        12912 points in      14 batches and      101 microbatches, Max-NSigAt=      11 Max-NSgAt2=      11
 IPart=  0        10636 of        11304 points in      11 batches and       62 microbatches, Max-NSigAt=      11 Max-NSgAt2=      11
 IPart=  5        12148 of        13640 points in      14 batches and       54 microbatches, Max-NSigAt=      11 Max-NSgAt2=      11
 IPart= 14        10212 of        11044 points in      12 batches and       59 microbatches, Max-NSigAt=      11 Max-NSgAt2=      11
 IPart=  2        12592 of        14504 points in      15 batches and       62 microbatches, Max-NSigAt=      11 Max-NSgAt2=      11
 IPart= 15        11113 of        12284 points in      13 batches and       96 microbatches, Max-NSigAt=      11 Max-NSgAt2=      11
 IPart=  4        10846 of        11430 points in      11 batches and       57 microbatches, Max-NSigAt=      11 Max-NSgAt2=      11
 IPart= 13        10821 of        11814 points in      12 batches and       89 microbatches, Max-NSigAt=      11 Max-NSgAt2=      11
 IPart=  3        10737 of        11292 points in      11 batches and       54 microbatches, Max-NSigAt=      11 Max-NSgAt2=      11
 IPart= 17        12100 of        13712 points in      14 batches and       77 microbatches, Max-NSigAt=      11 Max-NSgAt2=      11
 IPart= 19        11853 of        12878 points in      13 batches and       72 microbatches, Max-NSigAt=      11 Max-NSgAt2=      11
 IPart=  1        10551 of        11044 points in      11 batches and       60 microbatches, Max-NSigAt=      11 Max-NSgAt2=      11
 IPart=  6        10445 of        11294 points in      12 batches and       64 microbatches, Max-NSigAt=      11 Max-NSgAt2=      11
 IPart= 18         9880 of        10676 points in      11 batches and       74 microbatches, Max-NSigAt=      11 Max-NSgAt2=      11
 IPart= 12        11637 of        12606 points in      13 batches and       80 microbatches, Max-NSigAt=      11 Max-NSgAt2=      11
 IPart= 11        10660 of        11302 points in      12 batches and       61 microbatches, Max-NSigAt=      11 Max-NSgAt2=      11
 IPart= 10        11010 of        12182 points in      13 batches and       54 microbatches, Max-NSigAt=      11 Max-NSgAt2=      11
 IPart=  8        12015 of        12872 points in      13 batches and       58 microbatches, Max-NSigAt=      11 Max-NSgAt2=      11
 IPart= 16        11461 of        12468 points in      13 batches and       71 microbatches, Max-NSigAt=      11 Max-NSgAt2=      11
 Polarizability after L703:
                1             2             3 
      1  0.000000D+00
      2  0.000000D+00  0.000000D+00
      3  0.000000D+00  0.000000D+00  0.000000D+00
 Dipole Derivatives after L703:
                 1             2             3             4             5 
      1  -0.158282D+00  0.146600D+00  0.212013D-02  0.370287D+00 -0.102245D+01
      2   0.187235D-01 -0.727324D-01  0.745003D-03  0.570547D-01 -0.108738D+01
      3   0.377160D-02  0.221360D-02 -0.251359D+00 -0.452368D-04  0.174409D-03
                 6             7             8             9            10 
      1   0.641644D-02 -0.133766D+01  0.329775D+00 -0.150758D-01 -0.397923D+00
      2   0.178743D-02  0.645789D-01 -0.750426D+00  0.425730D-02 -0.987806D-01
      3  -0.399862D+00 -0.399361D-03  0.522192D-03 -0.763627D+00  0.911509D-05
                11            12            13            14            15 
      1  -0.182481D-01  0.938282D-03 -0.407599D+00  0.394452D+00 -0.759820D-02
      2  -0.651886D+00  0.454501D-02  0.110098D+00 -0.567030D+00  0.304258D-02
      3   0.461146D-02  0.315850D-01 -0.569177D-02  0.541821D-02  0.713875D-01
                16            17            18            19            20 
      1  -0.290936D-01 -0.598653D+00  0.153491D-02  0.769845D+00  0.162954D+00
      2   0.152631D+00  0.578655D+00 -0.739216D-02 -0.299821D-01  0.112530D+00
      3  -0.392403D-02 -0.666508D-02  0.589787D-01  0.199757D+00  0.102433D+00
                21            22            23            24            25 
      1   0.826687D+00  0.740675D+00  0.125379D+00 -0.814091D+00  0.972592D-01
      2   0.254259D-01 -0.324377D-01  0.123818D+00 -0.235489D-01 -0.580859D-01
      3   0.415139D+00 -0.195897D+00 -0.968889D-01  0.436870D+00  0.115132D-02
                26            27            28            29            30 
      1  -0.343734D-01  0.797592D-03  0.222701D+00 -0.599846D+00  0.184009D-02
      2   0.594057D+00 -0.423463D-02 -0.983686D-01  0.833009D+00 -0.293358D-02
      3  -0.647568D-02  0.293947D-01  0.115034D-02 -0.493664D-02  0.963866D-01
                31            32            33 
      1   0.129786D+00  0.111441D+01 -0.356915D-02
      2  -0.854312D-01  0.887389D+00 -0.169389D-02
      3   0.118233D-03 -0.406619D-03  0.275106D+00
 Hessian after L703:
                1             2             3             4             5 
      1  0.514587D+00
      2 -0.388483D-02  0.308655D+00
      3 -0.271101D-02  0.801915D-03  0.507657D-01
      4 -0.227368D-01 -0.275471D-02 -0.499307D-04  0.400818D+00
      5 -0.906323D-02 -0.581488D-02  0.192153D-04  0.424386D-01  0.484379D+00
      6  0.681402D-04  0.203272D-03  0.812995D-02  0.573822D-03 -0.112887D-02
      7 -0.168842D+00  0.439224D-01  0.945281D-03  0.619162D-02  0.381111D-02
      8  0.868357D-01 -0.136685D+00 -0.394240D-03 -0.580222D-02 -0.164611D-02
      9  0.322679D-02 -0.121004D-02 -0.548056D-01  0.792305D-04  0.926862D-04
     10 -0.224046D+00 -0.545254D-01  0.312092D-03 -0.389074D-01  0.884131D-02
     11 -0.999432D-01 -0.149581D+00  0.408432D-03 -0.223224D-01  0.180651D-01
     12  0.169949D-03  0.271744D-03 -0.264376D-01 -0.910657D-05 -0.732592D-04
     13 -0.308393D-01  0.123680D-01 -0.204439D-03 -0.265578D+00 -0.105431D+00
     14 -0.211875D-01  0.239990D-01 -0.611597D-04 -0.583899D-01 -0.149531D+00
     15  0.640356D-05 -0.105697D-03  0.630199D-02 -0.272212D-03  0.306541D-03
     16 -0.445619D-02  0.277144D-01 -0.309745D-03  0.591704D-04 -0.228361D-03
     17  0.931715D-02 -0.255512D-01  0.235909D-03  0.685181D-03  0.295139D-03
     18 -0.112719D-03 -0.411439D-03  0.530954D-03 -0.320616D-04 -0.175470D-04
     19 -0.275638D-01  0.185874D-02 -0.180787D-01 -0.123759D-02 -0.382926D-03
     20  0.211165D-01  0.280889D-02  0.139145D-01  0.633405D-03  0.185017D-03
     21 -0.258365D-02  0.415994D-02  0.904556D-02 -0.459924D-03 -0.280722D-03
     22 -0.273592D-01  0.229981D-02  0.198521D-01 -0.118931D-02 -0.378273D-03
     23  0.220468D-01  0.233691D-02 -0.151386D-01  0.674975D-03  0.223086D-03
     24  0.190553D-02 -0.365607D-02  0.913648D-02  0.399372D-03  0.254735D-03
     25 -0.113625D-01 -0.269571D-01  0.235946D-03  0.329086D-02  0.193035D-02
     26 -0.758251D-02 -0.203804D-01  0.228984D-03 -0.275469D-03  0.313779D-02
     27  0.619721D-04  0.137365D-04  0.234081D-02  0.317260D-04 -0.515229D-04
     28  0.242260D-02 -0.579643D-03  0.213410D-04  0.823093D-03 -0.359190D-01
     29 -0.590431D-03  0.112025D-03 -0.274147D-04 -0.369252D-02 -0.168498D-01
     30 -0.205842D-05 -0.452694D-04 -0.430039D-02 -0.229776D-04 -0.206912D-04
     31  0.197308D-03  0.538152D-03 -0.128368D-04 -0.815337D-01  0.943819D-01
     32  0.293554D-02  0.100862D-03  0.125331D-04  0.488051D-01 -0.332443D+00
     33 -0.293345D-04 -0.220977D-04 -0.707927D-03 -0.237938D-03  0.899435D-03
                6             7             8             9            10 
      6  0.534535D-01
      7 -0.498616D-04  0.522159D+00
      8 -0.365155D-04  0.546359D-01  0.485378D+00
      9  0.317579D-02 -0.358680D-01 -0.123570D-01  0.546276D+00
     10 -0.285268D-03 -0.564173D-01 -0.464654D-02 -0.425164D-04  0.863456D+00
     11 -0.249415D-03  0.129129D-01  0.105687D-01 -0.240752D-03 -0.182161D+00
     12  0.521794D-02  0.471293D-03  0.127040D-03 -0.668067D-02  0.284886D-02
     13 -0.173416D-03 -0.472486D-02 -0.937782D-03 -0.363835D-04 -0.490281D+00
     14  0.324721D-03 -0.279829D-02 -0.424739D-02 -0.675370D-04  0.208583D+00
     15 -0.361393D-01  0.556440D-04  0.297964D-04 -0.789628D-03 -0.272367D-02
     16  0.234828D-04 -0.765643D-01 -0.680781D-01  0.194828D-02  0.207830D-03
     17  0.000000D+00 -0.550044D-01 -0.225674D+00  0.415803D-02 -0.835994D-02
[...]
     Eigenvalues ---    0.13604   0.15635   0.17816   0.18082   0.18948
     Eigenvalues ---    0.21695   0.23493   0.32984   0.33422   0.34683
     Eigenvalues ---    0.35055   0.36978   0.39795   0.43896   0.46229
     Eigenvalues ---    0.54047   0.65356
 Angle between quadratic step and forces=  73.02 degrees.
 Linear search not attempted -- first point.
 Iteration  1 RMS(Cart)=  0.00001544 RMS(Int)=  0.00000000
 Iteration  2 RMS(Cart)=  0.00000000 RMS(Int)=  0.00000000
 ITry= 1 IFail=0 DXMaxC= 3.58D-05 DCOld= 1.00D+10 DXMaxT= 3.00D-01 DXLimC= 3.00D+00 Rises=F
 Variable       Old X    -DE/DX   Delta X   Delta X   Delta X     New X
                                 (Linear)    (Quad)   (Total)
    R1        2.66968  -0.00000   0.00000  -0.00000  -0.00000   2.66967
    R2        2.58409   0.00000   0.00000   0.00000   0.00000   2.58409
    R3        2.57254   0.00000   0.00000   0.00000   0.00000   2.57255
    R4        1.81729  -0.00000   0.00000  -0.00000  -0.00000   1.81729
    R5        2.06849   0.00000   0.00000   0.00000   0.00000   2.06849
    R6        2.05367   0.00000   0.00000   0.00000   0.00000   2.05367
    R7        2.06548   0.00000   0.00000   0.00000   0.00000   2.06548
    R8        2.50350   0.00000   0.00000  -0.00000  -0.00000   2.50350
    R9        2.05853   0.00000   0.00000   0.00000   0.00000   2.05853
   R10        2.04186   0.00000   0.00000  -0.00000  -0.00000   2.04186
    A1        1.97247  -0.00000   0.00000  -0.00000  -0.00000   1.97247
    A2        1.91328   0.00000   0.00000   0.00000   0.00000   1.91328
    A3        1.93549  -0.00000   0.00000  -0.00000  -0.00000   1.93549
    A4        1.87134  -0.00000   0.00000  -0.00000  -0.00000   1.87134
    A5        1.93602   0.00000   0.00000   0.00000   0.00000   1.93602
    A6        1.90571   0.00000   0.00000   0.00000   0.00000   1.90571
    A7        1.90058   0.00000   0.00000   0.00000   0.00000   1.90058
    A8        1.91438   0.00000   0.00000   0.00000   0.00000   1.91438
    A9        2.11248   0.00000   0.00000   0.00000   0.00000   2.11248
   A10        2.03048  -0.00000   0.00000  -0.00000  -0.00000   2.03047
   A11        2.13941   0.00000   0.00000   0.00000   0.00000   2.13941
   A12        2.19770  -0.00000   0.00000  -0.00000  -0.00000   2.19770
   A13        1.96888   0.00000   0.00000   0.00000   0.00000   1.96888
   A14        2.11635  -0.00000   0.00000   0.00000   0.00000   2.11635
    D1        1.00893   0.00000   0.00000   0.00000   0.00000   1.00893
    D2        3.08799  -0.00000   0.00000  -0.00000  -0.00000   3.08799
    D3       -1.10531   0.00000   0.00000   0.00000   0.00000  -1.10531
    D4        2.27480   0.00000   0.00000   0.00003   0.00003   2.27483
    D5       -0.90919   0.00000   0.00000   0.00003   0.00003  -0.90916
    D6       -0.00003   0.00000   0.00000   0.00001   0.00001  -0.00001
    D7        3.11726   0.00000   0.00000   0.00001   0.00001   3.11727
    D8        3.06124   0.00000   0.00000   0.00000   0.00000   3.06125
    D9       -0.05414   0.00000   0.00000   0.00000   0.00000  -0.05414
   D10       -0.03525   0.00000   0.00000   0.00000   0.00000  -0.03525
   D11        3.13255   0.00000   0.00000   0.00000   0.00000   3.13255
         Item               Value     Threshold  Converged?
 Maximum Force            0.000001     0.000015     YES
 RMS     Force            0.000000     0.000010     YES
 Maximum Displacement     0.000036     0.000060     YES
 RMS     Displacement     0.000015     0.000040     YES
 Predicted change in Energy=-9.814517D-12
 Optimization completed.
    -- Stationary point found.
                           ----------------------------
                           !   Optimized Parameters   !
                           ! (Angstroms and Degrees)  !
 --------------------------                            --------------------------
 ! Name  Definition              Value          Derivative Info.                !
 --------------------------------------------------------------------------------
 ! R1    R(1,3)                  1.4127         -DE/DX =    0.0                 !
 ! R2    R(1,4)                  1.3674         -DE/DX =    0.0                 !
 ! R3    R(2,5)                  1.3613         -DE/DX =    0.0                 !
 ! R4    R(2,11)                 0.9617         -DE/DX =    0.0                 !
 ! R5    R(3,6)                  1.0946         -DE/DX =    0.0                 !
 ! R6    R(3,7)                  1.0868         -DE/DX =    0.0                 !
 ! R7    R(3,8)                  1.093          -DE/DX =    0.0                 !
 ! R8    R(4,5)                  1.3248         -DE/DX =    0.0                 !
 ! R9    R(4,9)                  1.0893         -DE/DX =    0.0                 !
 ! R10   R(5,10)                 1.0805         -DE/DX =    0.0                 !
 ! A1    A(3,1,4)              113.0143         -DE/DX =    0.0                 !
 ! A2    A(5,2,11)             109.6226         -DE/DX =    0.0                 !
 ! A3    A(1,3,6)              110.8953         -DE/DX =    0.0                 !
 ! A4    A(1,3,7)              107.22           -DE/DX =    0.0                 !
 ! A5    A(1,3,8)              110.9257         -DE/DX =    0.0                 !
 ! A6    A(6,3,7)              109.189          -DE/DX =    0.0                 !
 ! A7    A(6,3,8)              108.8952         -DE/DX =    0.0                 !
 ! A8    A(7,3,8)              109.686          -DE/DX =    0.0                 !
 ! A9    A(1,4,5)              121.0364         -DE/DX =    0.0                 !
 ! A10   A(1,4,9)              116.3377         -DE/DX =    0.0                 !
 ! A11   A(5,4,9)              122.579          -DE/DX =    0.0                 !
 ! A12   A(2,5,4)              125.9188         -DE/DX =    0.0                 !
 ! A13   A(2,5,10)             112.8087         -DE/DX =    0.0                 !
 ! A14   A(4,5,10)             121.2577         -DE/DX =    0.0                 !
 ! D1    D(4,1,3,6)             57.8077         -DE/DX =    0.0                 !
 ! D2    D(4,1,3,7)            176.9287         -DE/DX =    0.0                 !
 ! D3    D(4,1,3,8)            -63.3297         -DE/DX =    0.0                 !
 ! D4    D(3,1,4,5)            130.3366         -DE/DX =    0.0                 !
 ! D5    D(3,1,4,9)            -52.0928         -DE/DX =    0.0                 !
 ! D6    D(11,2,5,4)            -0.0015         -DE/DX =    0.0                 !
 ! D7    D(11,2,5,10)          178.6059         -DE/DX =    0.0                 !
 ! D8    D(1,4,5,2)            175.3963         -DE/DX =    0.0                 !
 ! D9    D(1,4,5,10)            -3.102          -DE/DX =    0.0                 !
 ! D10   D(9,4,5,2)             -2.0198         -DE/DX =    0.0                 !
 ! D11   D(9,4,5,10)           179.4819         -DE/DX =    0.0                 !
 --------------------------------------------------------------------------------
 GradGradGradGradGradGradGradGradGradGradGradGradGradGradGradGradGradGrad

 Leave Link  103 at Thu Sep  5 20:04:50 2019, MaxMem=   671088640 cpu:              99.4 elap:              49.9
 (Enter /shared/centos7/gaussian/g16/l9999.exe)

 ----------------------------------------------------------------------

 Electric dipole moment (input orientation):
 (Debye = 10**-18 statcoulomb cm , SI units = C m)
                  (au)            (Debye)         (10**-30 SI)
   Tot        0.850850D+00      0.216264D+01      0.721380D+01
   x         -0.634086D+00     -0.161169D+01     -0.537601D+01
   y          0.264609D+00      0.672568D+00      0.224345D+01
   z          0.501859D+00      0.127560D+01      0.425494D+01

 Dipole polarizability, Alpha (input orientation).
 (esu units = cm**3 , SI units = C**2 m**2 J**-1)
 Alpha(0;0):
               (au)            (10**-24 esu)      (10**-40 SI)
   iso        0.451719D+02      0.669379D+01      0.744785D+01
   aniso      0.264872D+02      0.392500D+01      0.436715D+01
   xx         0.569740D+02      0.844268D+01      0.939375D+01
   yx         0.862463D+01      0.127804D+01      0.142201D+01
   yy         0.459443D+02      0.680825D+01      0.757520D+01
   zx        -0.323541D+01     -0.479439D+00     -0.533447D+00
   zy         0.619592D-01      0.918141D-02      0.102157D-01
   zz         0.325975D+02      0.483044D+01      0.537459D+01

 ----------------------------------------------------------------------

 Dipole orientation:
     8         -0.50470400         -0.87849120         -0.05018972
     8          4.10005103          3.86084337         -1.87844677
     6         -0.38818854         -2.43276179          2.11725893
     6          1.03978164          1.18750755          0.10392848
     6          2.60772549          1.76878057         -1.75917716
     1         -0.88335390         -1.36501874          3.81824888
     1         -1.74804573         -3.94869565          1.85213500
     1          1.50324174         -3.22822408          2.35379479
     1          0.84570530          2.34895760          1.79239939
     1          2.77947362          0.57884752         -3.40955773
     1          3.84954746          4.87477401         -0.39125623

 Electric dipole moment (dipole orientation):
 (Debye = 10**-18 statcoulomb cm , SI units = C m)
                  (au)            (Debye)         (10**-30 SI)
   Tot        0.850850D+00      0.216264D+01      0.721380D+01
   x          0.000000D+00      0.000000D+00      0.000000D+00
   y          0.000000D+00      0.000000D+00      0.000000D+00
   z          0.850850D+00      0.216264D+01      0.721380D+01

 Dipole polarizability, Alpha (dipole orientation).
 (esu units = cm**3 , SI units = C**2 m**2 J**-1)
 Alpha(0;0):
               (au)            (10**-24 esu)      (10**-40 SI)
   iso        0.451719D+02      0.669379D+01      0.744785D+01
   aniso      0.264872D+02      0.392500D+01      0.436715D+01
   xx         0.417133D+02      0.618127D+01      0.687759D+01
   yx         0.993696D+01      0.147251D+01      0.163838D+01
   yy         0.475066D+02      0.703976D+01      0.783279D+01
   zx        -0.983204D+01     -0.145696D+01     -0.162109D+01
   zy        -0.539511D+01     -0.799472D+00     -0.889533D+00
   zz         0.462959D+02      0.686035D+01      0.763317D+01

 ----------------------------------------------------------------------

 Test job not archived.
 1\1\GINC-C0294\Freq\RM062X\CC-pVTZ\C3H6O2\HARMS.N\05-Sep-2019\0\\#P Ge
 om=AllCheck Guess=TCheck SCRF=Check Test GenChk RM062X/CC-pVTZ Freq\\G
 aussian input prepared by ASE\\0,1\O,-0.2217552532,-0.4837909753,-0.07
 01283757\O,2.450349902,1.9259337168,0.3952160263\C,-1.1563000315,-0.89
 05532094,0.908125401\C,0.4086381143,0.6874887277,0.2470615886\C,1.7280
 914385,0.7907159699,0.1882169083\H,-1.915233638,-0.1181665511,1.068054
 3643\H,-1.6369122268,-1.7924844703,0.5385738091\H,-0.6596913485,-1.101
 0485673,1.8587747731\H,-0.234459144,1.5276129839,0.5064000654\H,2.3462
 819968,-0.0590178186,-0.0633505497\H,1.8558212153,2.6552652531,0.59375
 4207\\Version=EM64L-G16RevA.03\State=1-A\HF=-268.3171465\RMSD=3.222e-0
 9\RMSF=2.028e-06\ZeroPoint=0.0903548\Thermal=0.0964586\Dipole=-0.63408
 61,0.2646087,0.5018589\DipoleDeriv=-1.0248925,-0.3795847,0.18929,-0.68
 78883,-0.9141993,0.0739872,0.068365,-0.014516,-0.4866606,-0.7135936,-0
 .3700061,-0.0105003,-0.8569263,-0.9825533,-0.0230482,-0.1567202,-0.100
 9106,-0.3647546,0.6994635,0.1747514,-0.1884085,0.0711595,0.3747917,-0.
 1088181,-0.3313206,-0.233768,0.530762,0.3032165,0.0652573,0.0203099,0.
 6023484,0.682277,0.0652932,0.2344528,0.277411,-0.1946441,0.6420705,0.3
 399409,-0.0206657,0.7215419,0.7415268,0.1348679,0.1135395,0.1568709,-0
 .0479048,-0.0766219,0.0436824,0.0430493,0.1428574,-0.077197,-0.0279456
 ,0.0461349,0.0432621,0.0186321,-0.0022208,-0.0770698,0.0071187,-0.1050
 654,-0.0646802,-0.0242256,-0.0149229,-0.0568677,0.0341446,-0.0347113,0
 .0191326,-0.1097187,0.0082184,0.0370544,0.0184555,0.029991,0.0943289,-
 0.1201522,-0.0140628,0.0711518,0.0286431,0.0087004,-0.1036389,-0.04928
 89,-0.0356125,-0.1048607,0.1533237,0.0574981,0.0271923,0.0127081,0.009
 8647,-0.0093789,-0.0417974,0.0159783,-0.0509153,0.1590118,0.1638543,0.
 0855518,0.0281741,0.0851893,0.3159977,-0.0174801,0.0301146,-0.0100347,
 0.3182422\Polar=56.9740223,8.6246323,45.9443374,-3.2354118,0.0619592,3
 2.5974563\Quadrupole=-1.0473549,2.9231535,-1.8757986,-0.7597118,-1.245
 736,-0.1060037\PG=C01 [X(C3H6O2)]\NImag=0\\0.32249202,0.18886593,0.384
 37117,-0.11371394,0.03599002,0.26956176,-0.01185726,-0.00700434,0.0018
 4099,0.42994958,-0.01334093,-0.01015818,-0.00457164,-0.08597737,0.6066
 3389,0.00138785,-0.00132877,0.01362462,-0.04346650,0.13307177,0.061179
 78,-0.14027295,-0.03879449,0.07664771,0.00282293,0.00588900,-0.0006644
 6,0.53864141,-0.02321943,-0.08799167,0.00884148,-0.00049733,0.00071453
 ,-0.00229927,0.00480459,0.60411075,0.09729744,0.03401196,-0.16575268,-
 0.00417724,-0.00418836,-0.00041378,0.05179802,0.03578293,0.53482735,-0
 .13051981,-0.08514166,-0.00104503,-0.01767782,-0.01326430,-0.00371212,
 -0.02924076,-0.03609718,-0.00389913,0.90869754,-0.10032377,-0.24937746
 ,-0.05078786,-0.04401889,-0.00418051,0.00021241,-0.02281418,-0.0265307
 8,0.00631784,0.02396605,0.58298948,-0.02257780,-0.07918949,-0.07548744
 ,-0.00740400,0.00136378,0.00416598,0.01194861,0.02460222,0.00635175,-0
 .06762019,0.11694411,0.16580309,-0.01691726,-0.01324901,-0.00347944,-0
 .17766104,-0.12537750,-0.01706317,0.00053767,0.00229071,-0.00004721,-0
 .56483024,-0.00875431,0.03280063,0.91992531,-0.04111633,-0.00361114,0.
 00392811,-0.07805430,-0.26192701,-0.04468392,-0.00427691,-0.00201279,-
 0.00306177,-0.01049495,-0.12005306,-0.01790790,-0.00826879,0.64726270,
 -0.01486016,-0.00482012,-0.00036816,-0.00895594,-0.04180245,-0.0471525
 3,0.00224730,0.00123469,-0.00079540,0.03711101,-0.01393495,-0.05768131
 ,-0.05844951,0.12372596,0.15804906,-0.02579044,0.00726870,0.01616246,-
 0.00034096,-0.00049022,0.00006983,-0.16327182,0.12159942,0.01604085,0.
 00211079,0.00611991,0.00103446,-0.00016113,-0.00076400,-0.00044454,0.1
 8483831,-0.01029738,0.01040971,0.00111683,0.00019663,0.00015619,0.0002
 5633,0.12540058,-0.18881652,-0.02204938,-0.00184820,0.00415640,0.00115
 983,-0.00017146,-0.00016238,-0.00012340,-0.13603423,0.19502544,0.02945
 799,-0.01340413,-0.01093522,0.00030814,0.00037446,-0.00009001,0.014752
 01,-0.01803128,-0.05327408,-0.00215786,-0.00398789,-0.00059054,0.00011
 408,0.00050106,0.00008879,-0.03119947,0.02264431,0.05970105,-0.0159521
 4,-0.02493997,-0.00359388,-0.00087552,-0.00069437,-0.00053300,-0.09743
 852,-0.09095682,-0.04151662,-0.00269533,0.00094322,0.00376093,0.000937
 59,-0.00078076,0.00018308,0.01171839,0.01831305,0.00784528,0.10968798,
 -0.00723653,-0.00918061,-0.00019186,-0.00052342,-0.00058612,-0.0002660
 5,-0.09693696,-0.23885463,-0.08073669,-0.00154159,0.00148265,0.0020031
 2,0.00039165,0.00002441,0.00027139,-0.00948728,-0.01723514,-0.00900745
 ,0.11126042,0.25657280,0.01676414,0.02715361,0.00645709,0.00054771,0.0
 0015074,0.00036462,-0.04903251,-0.09120423,-0.08879208,0.00337874,0.00
 061045,-0.00205165,0.00031212,0.00113314,0.00024884,-0.00192960,-0.001
 20953,-0.00056950,0.04003050,0.08607160,0.09212013,0.00761467,-0.01110
 929,0.03087176,0.00014352,0.00022181,-0.00011512,-0.11535859,0.0242624
 9,-0.11368486,0.00438688,0.00294827,0.00198536,-0.00084083,0.00057981,
 -0.00060376,-0.00921255,0.00295030,-0.01874734,-0.00542393,0.00395429,
 -0.00993896,0.11915505,-0.00238676,-0.00210094,0.01315893,0.00017153,0
 .00030321,-0.00008660,0.02299572,-0.06243516,0.03698332,0.00303322,0.0
 0208147,0.00137552,-0.00089259,-0.00010921,-0.00037535,0.01304850,-0.0
 0379912,0.02022142,-0.01280803,0.00736658,-0.02300464,-0.02352264,0.05
 914693,0.00373961,0.01168747,-0.03066871,0.00085233,0.00129620,-0.0000
 7039,-0.10761521,0.03903874,-0.23254203,-0.00192538,-0.00455549,0.0005
 5268,0.00019059,-0.00008057,0.00055280,0.00060853,-0.00135225,0.005206
 03,-0.00619299,0.00195877,-0.00747295,0.11023668,-0.04849993,0.2646312
 5,0.00985938,-0.01690378,-0.00315505,0.00260974,0.00100950,-0.00053637
 ,0.00392496,-0.00174995,-0.00211446,-0.16097922,0.12152331,0.03962658,
 -0.01209473,0.02607463,0.00736763,-0.00008775,0.00159968,-0.00023318,0
 .00005073,0.00012669,-0.00014441,-0.00051086,0.00030395,0.00011905,0.1
 6275101,0.00658167,-0.03453245,-0.00913952,0.00050482,0.00354714,0.001
 85332,0.00459449,0.00186928,-0.00398718,0.12257375,-0.19879445,-0.0498
 2766,-0.00332928,0.00195143,-0.00080337,-0.00130816,0.00044466,0.00073
 694,-0.00046892,0.00030154,0.00036978,-0.00027460,-0.00039099,0.000629
 78,-0.12914402,0.22504953,0.00337410,-0.01241450,0.00059403,-0.0009319
 6,0.00051858,-0.00492279,-0.00026127,0.00141062,-0.00000166,0.03964953
 ,-0.04833264,-0.05002811,-0.00031704,-0.00166129,0.00650875,-0.0003933
 2,-0.00018010,0.00043964,-0.00017853,-0.00014122,-0.00007882,-0.000218
 28,0.00008864,-0.00008185,-0.04167537,0.06240974,0.03970701,0.00297083
 ,0.00047087,-0.00033813,0.01353338,-0.01917634,-0.00535708,-0.00050527
 ,-0.00019146,0.00012859,-0.01088426,0.02528575,0.00774899,-0.16337387,
 0.13824750,0.04191061,0.00027219,-0.00006189,-0.00013479,0.00001947,-0
 .00003382,0.00001566,0.00002224,0.00002313,-0.00004355,-0.00466874,-0.
 00138305,0.00060078,0.16352203,0.00058514,0.00037194,0.00151900,0.0123
 6650,-0.02900137,-0.00804119,-0.00017285,0.00000363,0.00017526,-0.0017
 5764,0.00507156,-0.00122543,0.13266572,-0.22313745,-0.05322063,-0.0000
 1379,-0.00010573,0.00002039,-0.00001999,0.00000394,0.00000101,-0.00001
 556,-0.00001054,0.00001254,-0.00153862,0.00072674,-0.00177518,-0.13861
 132,0.24840956,-0.00143807,0.00219759,-0.00578193,0.00213932,-0.004892
 84,0.00041602,0.00028101,0.00041450,-0.00002703,-0.00000889,-0.0038522
 0,0.00874002,0.04171917,-0.05436386,-0.05697215,0.00002826,-0.00024671
 ,0.00001401,0.00011465,-0.00000828,-0.00014948,0.00025893,0.00008027,-
 0.00002234,0.00095910,-0.00214438,0.00770832,-0.04376393,0.06373994,0.
 04332867,-0.00162702,0.00053704,-0.00019745,-0.24064656,0.25120072,0.0
 6999014,0.00016094,-0.00024504,0.00017462,0.00163222,-0.00487534,-0.00
 130358,0.01447852,-0.02114590,-0.00550573,-0.00007504,-0.00004708,-0.0
 0000486,-0.00002872,0.00002655,-0.00000338,0.00002440,0.00003396,0.000
 03034,-0.00085452,0.00165330,0.00035135,-0.00090801,-0.00348760,-0.000
 28956,0.22784379,0.00188839,0.00179963,0.00013652,0.20283618,-0.305501
 79,-0.07868804,-0.00068900,-0.00005664,0.00075207,0.00057251,0.0031547
 1,0.00070190,0.02469487,-0.03822550,-0.01015177,0.00006113,-0.00007350
 ,-0.00006782,0.00015217,0.00010458,-0.00007192,0.00000511,-0.00005223,
 -0.00013525,-0.00130139,-0.00017243,0.00007735,-0.00456936,-0.00233228
 ,-0.00092402,-0.22365061,0.34135546,0.00056884,0.00011636,-0.00124335,
 0.05924716,-0.08132025,-0.02710150,-0.00010122,0.00020959,0.00041964,0
 .00022933,0.00136621,0.00022554,0.00421976,-0.00752895,-0.00247870,0.0
 0002254,-0.00001591,0.00000984,0.00008057,0.00004667,-0.00007620,-0.00
 004440,0.00005841,-0.00008448,-0.00021352,-0.00009744,0.00015548,-0.00
 076716,-0.00120570,0.00274588,-0.06324190,0.08837100,0.02742786\\0.000
 00198,-0.00000106,0.00000140,0.00000051,-0.00000056,0.00000051,-0.0000
 0159,0.00000084,-0.00000033,0.00000056,-0.00000122,-0.00000114,0.00000
 079,-0.00000107,0.00000210,-0.00000090,0.00000076,-0.00000394,0.000000
 23,0.00000027,0.00000167,-0.00000306,0.00000363,0.00000146,0.00000024,
 -0.00000013,-0.00000468,0.00000150,-0.00000170,0.00000590,-0.00000025,
 0.00000024,-0.00000296\\\@


 KNOWLEDGE IS OF TWO KINDS:  WE KNOW A SUBJECT OURSELVES OR WE KNOW 
 WHERE WE CAN FIND INFORMATION UPON IT.

                                    -- SAMUEL JOHNSON
 Job cpu time:       0 days  0 hours 49 minutes 58.2 seconds.
 Elapsed time:       0 days  0 hours 24 minutes 60.0 seconds.
 File lengths (MBytes):  RWF=   1312 Int=      0 D2E=      0 Chk=     32 Scr=     32
 Normal termination of Gaussian 16 at Thu Sep  5 20:04:51 2019.
