 Entering Gaussian System, Link 0=g16
 Input=loose/species/CCCCCCC/conformers/CCCCCCC_344.com
 Output=loose/species/CCCCCCC/conformers/CCCCCCC_344.log
 Initial command:
 /shared/centos7/gaussian/g16/l1.exe "/scratch/harms.n/gauss_scrdir/Gau-23166.inp" -scrdir="/scratch/harms.n/gauss_scrdir/"
 Entering Link 1 = /shared/centos7/gaussian/g16/l1.exe PID=     23167.
  
 Copyright (c) 1988,1990,1992,1993,1995,1998,2003,2009,2016,
            Gaussian, Inc.  All Rights Reserved.
  
 This is part of the Gaussian(R) 16 program.  It is based on
 the Gaussian(R) 09 system (copyright 2009, Gaussian, Inc.),
 the Gaussian(R) 03 system (copyright 2003, Gaussian, Inc.),
 the Gaussian(R) 98 system (copyright 1998, Gaussian, Inc.),
 the Gaussian(R) 94 system (copyright 1995, Gaussian, Inc.),
 the Gaussian 92(TM) system (copyright 1992, Gaussian, Inc.),
 the Gaussian 90(TM) system (copyright 1990, Gaussian, Inc.),
 the Gaussian 88(TM) system (copyright 1988, Gaussian, Inc.),
 the Gaussian 86(TM) system (copyright 1986, Carnegie Mellon
 University), and the Gaussian 82(TM) system (copyright 1983,
 Carnegie Mellon University). Gaussian is a federally registered
 trademark of Gaussian, Inc.
  
 This software contains proprietary and confidential information,
 including trade secrets, belonging to Gaussian, Inc.
  
 This software is provided under written license and may be
 used, copied, transmitted, or stored only in accord with that
 written license.
  
 The following legend is applicable only to US Government
 contracts under FAR:
  
                    RESTRICTED RIGHTS LEGEND
  
 Use, reproduction and disclosure by the US Government is
 subject to restrictions as set forth in subparagraphs (a)
 and (c) of the Commercial Computer Software - Restricted
 Rights clause in FAR 52.227-19.
  
 Gaussian, Inc.
 340 Quinnipiac St., Bldg. 40, Wallingford CT 06492
  
  
 ---------------------------------------------------------------
 Warning -- This program may not be used in any manner that
 competes with the business of Gaussian, Inc. or will provide
 assistance to any competitor of Gaussian, Inc.  The licensee
 of this program is prohibited from giving any competitor of
 Gaussian, Inc. access to this program.  By using this program,
 the user acknowledges that Gaussian, Inc. is engaged in the
 business of creating and licensing software in the field of
 computational chemistry and represents and warrants to the
 licensee that it is not a competitor of Gaussian, Inc. and that
 it will not use this program in any manner prohibited above.
 ---------------------------------------------------------------
  

 Cite this work as:
 Gaussian 16, Revision A.03,
 M. J. Frisch, G. W. Trucks, H. B. Schlegel, G. E. Scuseria, 
 M. A. Robb, J. R. Cheeseman, G. Scalmani, V. Barone, 
 G. A. Petersson, H. Nakatsuji, X. Li, M. Caricato, A. V. Marenich, 
 J. Bloino, B. G. Janesko, R. Gomperts, B. Mennucci, H. P. Hratchian, 
 J. V. Ortiz, A. F. Izmaylov, J. L. Sonnenberg, D. Williams-Young, 
 F. Ding, F. Lipparini, F. Egidi, J. Goings, B. Peng, A. Petrone, 
 T. Henderson, D. Ranasinghe, V. G. Zakrzewski, J. Gao, N. Rega, 
 G. Zheng, W. Liang, M. Hada, M. Ehara, K. Toyota, R. Fukuda, 
 J. Hasegawa, M. Ishida, T. Nakajima, Y. Honda, O. Kitao, H. Nakai, 
 T. Vreven, K. Throssell, J. A. Montgomery, Jr., J. E. Peralta, 
 F. Ogliaro, M. J. Bearpark, J. J. Heyd, E. N. Brothers, K. N. Kudin, 
 V. N. Staroverov, T. A. Keith, R. Kobayashi, J. Normand, 
 K. Raghavachari, A. P. Rendell, J. C. Burant, S. S. Iyengar, 
 J. Tomasi, M. Cossi, J. M. Millam, M. Klene, C. Adamo, R. Cammi, 
 J. W. Ochterski, R. L. Martin, K. Morokuma, O. Farkas, 
 J. B. Foresman, and D. J. Fox, Gaussian, Inc., Wallingford CT, 2016.
 
 ******************************************
 Gaussian 16:  EM64L-G16RevA.03 25-Dec-2016
                27-Sep-2019 
 ******************************************
 %nprocshared=20
 Will use up to   20 processors via shared memory.
 %mem=5GB
 ----------------------------------------------------------------------
 #p m062x/cc-pVTZ opt=(calcfc,maxcycles=900,Tight) freq IOP(7/33=1,2/16
 =3) scf=(maxcycle=900)
 ----------------------------------------------------------------------
 1/6=900,7=10,10=4,18=20,19=15,26=3,38=1/1,3;
 2/9=110,12=2,16=3,17=6,18=5,40=1/2;
 3/5=16,6=1,11=2,25=1,30=1,71=2,74=-55,140=1/1,2,3;
 4//1;
 5/5=2,7=900,38=5/2;
 8/6=4,10=90,11=11/1;
 11/6=1,8=1,9=11,15=111,16=1/1,2,10;
 10/6=1,13=1/2;
 6/7=2,8=2,9=2,10=2,28=1/1;
 7/10=1,18=20,25=1,33=1/1,2,3,16;
 1/6=900,7=10,10=4,18=20,19=15,26=3/3(2);
 2/9=110,16=3/2;
 99//99;
 2/9=110,16=3/2;
 3/5=16,6=1,11=2,25=1,30=1,71=1,74=-55/1,2,3;
 4/5=5,16=3,69=1/1;
 5/5=2,7=900,38=5/2;
 7/33=1/1,2,3,16;
 1/6=900,7=10,18=20,19=15,26=3/3(-5);
 2/9=110,16=3/2;
 6/7=2,8=2,9=2,10=2,19=2,28=1/1;
 99/9=1/99;
 Leave Link    1 at Fri Sep 27 09:56:15 2019, MaxMem=   671088640 cpu:               4.2 elap:               2.1
 (Enter /shared/centos7/gaussian/g16/l101.exe)
 ------------------------------
 Gaussian input prepared by ASE
 ------------------------------
 Symbolic Z-matrix:
 Charge =  0 Multiplicity = 1
 C                     1.36975  -1.15213   0.50807 
 C                     0.11901  -0.43988   0.89577 
 C                    -0.1096    0.88659   0.2152 
 C                     2.1637   -0.49375  -0.56952 
 C                    -1.40546   1.52487   0.65682 
 C                     1.47551  -0.31003  -1.8588 
 C                    -1.43814   1.80623   2.13659 
 H                     3.10401  -1.09174  -0.73493 
 H                     2.50882   0.50147  -0.20049 
 H                     1.10899  -2.18658   0.19906 
 H                     2.02235  -1.27772   1.39632 
 H                     0.09741  -0.25125   1.9805 
 H                    -0.74939  -1.10176   0.69315 
 H                    -0.10434   0.74273  -0.8786 
 H                     0.737     1.56841   0.43777 
 H                    -1.55942   2.47846   0.08718 
 H                    -2.2407    0.85102   0.40078 
 H                     0.44455  -0.71123  -1.86401 
 H                     1.39531   0.78349  -2.13326 
 H                     2.01597  -0.81414  -2.68781 
 H                    -0.44382   2.06416   2.50315 
 H                    -1.76992   0.89194   2.70215 
 H                    -2.14557   2.65674   2.35581 
 
 ITRead=  0  0  0  0  0  0  0  0  0  0  0  0  0  0  0  0  0  0  0  0
 ITRead=  0  0  0
 MicOpt= -1 -1 -1 -1 -1 -1 -1 -1 -1 -1 -1 -1 -1 -1 -1 -1 -1 -1 -1 -1
 MicOpt= -1 -1 -1
 NAtoms=     23 NQM=       23 NQMF=       0 NMMI=      0 NMMIF=      0
                NMic=       0 NMicF=      0.
                    Isotopes and Nuclear Properties:
 (Nuclear quadrupole moments (NQMom) in fm**2, nuclear magnetic moments (NMagM)
  in nuclear magnetons)

  Atom         1           2           3           4           5           6           7           8           9          10
 IAtWgt=          12          12          12          12          12          12          12           1           1           1
 AtmWgt=  12.0000000  12.0000000  12.0000000  12.0000000  12.0000000  12.0000000  12.0000000   1.0078250   1.0078250   1.0078250
 NucSpn=           0           0           0           0           0           0           0           1           1           1
 AtZEff=  -0.0000000  -0.0000000  -0.0000000  -0.0000000  -0.0000000  -0.0000000  -0.0000000  -0.0000000  -0.0000000  -0.0000000
 NQMom=    0.0000000   0.0000000   0.0000000   0.0000000   0.0000000   0.0000000   0.0000000   0.0000000   0.0000000   0.0000000
 NMagM=    0.0000000   0.0000000   0.0000000   0.0000000   0.0000000   0.0000000   0.0000000   2.7928460   2.7928460   2.7928460
 AtZNuc=   6.0000000   6.0000000   6.0000000   6.0000000   6.0000000   6.0000000   6.0000000   1.0000000   1.0000000   1.0000000

  Atom        11          12          13          14          15          16          17          18          19          20
 IAtWgt=           1           1           1           1           1           1           1           1           1           1
 AtmWgt=   1.0078250   1.0078250   1.0078250   1.0078250   1.0078250   1.0078250   1.0078250   1.0078250   1.0078250   1.0078250
 NucSpn=           1           1           1           1           1           1           1           1           1           1
 AtZEff=  -0.0000000  -0.0000000  -0.0000000  -0.0000000  -0.0000000  -0.0000000  -0.0000000  -0.0000000  -0.0000000  -0.0000000
 NQMom=    0.0000000   0.0000000   0.0000000   0.0000000   0.0000000   0.0000000   0.0000000   0.0000000   0.0000000   0.0000000
 NMagM=    2.7928460   2.7928460   2.7928460   2.7928460   2.7928460   2.7928460   2.7928460   2.7928460   2.7928460   2.7928460
 AtZNuc=   1.0000000   1.0000000   1.0000000   1.0000000   1.0000000   1.0000000   1.0000000   1.0000000   1.0000000   1.0000000

  Atom        21          22          23
 IAtWgt=           1           1           1
 AtmWgt=   1.0078250   1.0078250   1.0078250
 NucSpn=           1           1           1
 AtZEff=  -0.0000000  -0.0000000  -0.0000000
 NQMom=    0.0000000   0.0000000   0.0000000
 NMagM=    2.7928460   2.7928460   2.7928460
 AtZNuc=   1.0000000   1.0000000   1.0000000
 Leave Link  101 at Fri Sep 27 09:56:16 2019, MaxMem=   671088640 cpu:               2.5 elap:               1.3
 (Enter /shared/centos7/gaussian/g16/l103.exe)

 GradGradGradGradGradGradGradGradGradGradGradGradGradGradGradGradGradGrad
 Berny optimization.
 Initialization pass.
                           ----------------------------
                           !    Initial Parameters    !
                           ! (Angstroms and Degrees)  !
 --------------------------                            --------------------------
 ! Name  Definition              Value          Derivative Info.                !
 --------------------------------------------------------------------------------
 ! R1    R(1,2)                  1.4906         calculate D2E/DX2 analytically  !
 ! R2    R(1,4)                  1.4917         calculate D2E/DX2 analytically  !
 ! R3    R(1,10)                 1.1107         calculate D2E/DX2 analytically  !
 ! R4    R(1,11)                 1.1093         calculate D2E/DX2 analytically  !
 ! R5    R(2,3)                  1.5083         calculate D2E/DX2 analytically  !
 ! R6    R(2,12)                 1.1012         calculate D2E/DX2 analytically  !
 ! R7    R(2,13)                 1.1105         calculate D2E/DX2 analytically  !
 ! R8    R(3,5)                  1.5105         calculate D2E/DX2 analytically  !
 ! R9    R(3,14)                 1.1032         calculate D2E/DX2 analytically  !
 ! R10   R(3,15)                 1.1096         calculate D2E/DX2 analytically  !
 ! R11   R(4,6)                  1.473          calculate D2E/DX2 analytically  !
 ! R12   R(4,8)                  1.1266         calculate D2E/DX2 analytically  !
 ! R13   R(4,9)                  1.1161         calculate D2E/DX2 analytically  !
 ! R14   R(5,7)                  1.5066         calculate D2E/DX2 analytically  !
 ! R15   R(5,16)                 1.1214         calculate D2E/DX2 analytically  !
 ! R16   R(5,17)                 1.1033         calculate D2E/DX2 analytically  !
 ! R17   R(6,18)                 1.1063         calculate D2E/DX2 analytically  !
 ! R18   R(6,19)                 1.1303         calculate D2E/DX2 analytically  !
 ! R19   R(6,20)                 1.1106         calculate D2E/DX2 analytically  !
 ! R20   R(7,21)                 1.0907         calculate D2E/DX2 analytically  !
 ! R21   R(7,22)                 1.1251         calculate D2E/DX2 analytically  !
 ! R22   R(7,23)                 1.1278         calculate D2E/DX2 analytically  !
 ! A1    A(2,1,4)              115.0624         calculate D2E/DX2 analytically  !
 ! A2    A(2,1,10)             108.6866         calculate D2E/DX2 analytically  !
 ! A3    A(2,1,11)             109.8426         calculate D2E/DX2 analytically  !
 ! A4    A(4,1,10)             109.5763         calculate D2E/DX2 analytically  !
 ! A5    A(4,1,11)             108.3785         calculate D2E/DX2 analytically  !
 ! A6    A(10,1,11)            104.8002         calculate D2E/DX2 analytically  !
 ! A7    A(1,2,3)              115.4694         calculate D2E/DX2 analytically  !
 ! A8    A(1,2,12)             110.7629         calculate D2E/DX2 analytically  !
 ! A9    A(1,2,13)             108.8988         calculate D2E/DX2 analytically  !
 ! A10   A(3,2,12)             106.9083         calculate D2E/DX2 analytically  !
 ! A11   A(3,2,13)             108.8631         calculate D2E/DX2 analytically  !
 ! A12   A(12,2,13)            105.4553         calculate D2E/DX2 analytically  !
 ! A13   A(2,3,5)              111.6983         calculate D2E/DX2 analytically  !
 ! A14   A(2,3,14)             109.3875         calculate D2E/DX2 analytically  !
 ! A15   A(2,3,15)             109.5273         calculate D2E/DX2 analytically  !
 ! A16   A(5,3,14)             110.4296         calculate D2E/DX2 analytically  !
 ! A17   A(5,3,15)             109.6491         calculate D2E/DX2 analytically  !
 ! A18   A(14,3,15)            105.9848         calculate D2E/DX2 analytically  !
 ! A19   A(1,4,6)              116.0211         calculate D2E/DX2 analytically  !
 ! A20   A(1,4,8)              108.4239         calculate D2E/DX2 analytically  !
 ! A21   A(1,4,9)              108.6196         calculate D2E/DX2 analytically  !
 ! A22   A(6,4,8)              109.1271         calculate D2E/DX2 analytically  !
 ! A23   A(6,4,9)              108.8236         calculate D2E/DX2 analytically  !
 ! A24   A(8,4,9)              105.2938         calculate D2E/DX2 analytically  !
 ! A25   A(3,5,7)              112.6234         calculate D2E/DX2 analytically  !
 ! A26   A(3,5,16)             109.183          calculate D2E/DX2 analytically  !
 ! A27   A(3,5,17)             108.876          calculate D2E/DX2 analytically  !
 ! A28   A(7,5,16)             109.7032         calculate D2E/DX2 analytically  !
 ! A29   A(7,5,17)             108.9998         calculate D2E/DX2 analytically  !
 ! A30   A(16,5,17)            107.3104         calculate D2E/DX2 analytically  !
 ! A31   A(4,6,18)             113.222          calculate D2E/DX2 analytically  !
 ! A32   A(4,6,19)             111.492          calculate D2E/DX2 analytically  !
 ! A33   A(4,6,20)             111.6776         calculate D2E/DX2 analytically  !
 ! A34   A(18,6,19)            106.4743         calculate D2E/DX2 analytically  !
 ! A35   A(18,6,20)            106.5808         calculate D2E/DX2 analytically  !
 ! A36   A(19,6,20)            107.0022         calculate D2E/DX2 analytically  !
 ! A37   A(5,7,21)             110.7616         calculate D2E/DX2 analytically  !
 ! A38   A(5,7,22)             110.3868         calculate D2E/DX2 analytically  !
 ! A39   A(5,7,23)             110.2038         calculate D2E/DX2 analytically  !
 ! A40   A(21,7,22)            106.9819         calculate D2E/DX2 analytically  !
 ! A41   A(21,7,23)            109.1585         calculate D2E/DX2 analytically  !
 ! A42   A(22,7,23)            109.2779         calculate D2E/DX2 analytically  !
 ! D1    D(4,1,2,3)             -4.1904         calculate D2E/DX2 analytically  !
 ! D2    D(4,1,2,12)          -125.8658         calculate D2E/DX2 analytically  !
 ! D3    D(4,1,2,13)           118.6013         calculate D2E/DX2 analytically  !
 ! D4    D(10,1,2,3)          -127.4639         calculate D2E/DX2 analytically  !
 ! D5    D(10,1,2,12)          110.8607         calculate D2E/DX2 analytically  !
 ! D6    D(10,1,2,13)           -4.6722         calculate D2E/DX2 analytically  !
 ! D7    D(11,1,2,3)           118.4107         calculate D2E/DX2 analytically  !
 ! D8    D(11,1,2,12)           -3.2648         calculate D2E/DX2 analytically  !
 ! D9    D(11,1,2,13)         -118.7976         calculate D2E/DX2 analytically  !
 ! D10   D(2,1,4,6)            -59.7727         calculate D2E/DX2 analytically  !
 ! D11   D(2,1,4,8)            177.0693         calculate D2E/DX2 analytically  !
 ! D12   D(2,1,4,9)             63.1401         calculate D2E/DX2 analytically  !
 ! D13   D(10,1,4,6)            63.0261         calculate D2E/DX2 analytically  !
 ! D14   D(10,1,4,8)           -60.1319         calculate D2E/DX2 analytically  !
 ! D15   D(10,1,4,9)          -174.0611         calculate D2E/DX2 analytically  !
 ! D16   D(11,1,4,6)           176.8448         calculate D2E/DX2 analytically  !
 ! D17   D(11,1,4,8)            53.6868         calculate D2E/DX2 analytically  !
 ! D18   D(11,1,4,9)           -60.2424         calculate D2E/DX2 analytically  !
 ! D19   D(1,2,3,5)            179.3183         calculate D2E/DX2 analytically  !
 ! D20   D(1,2,3,14)            56.7511         calculate D2E/DX2 analytically  !
 ! D21   D(1,2,3,15)           -59.0062         calculate D2E/DX2 analytically  !
 ! D22   D(12,2,3,5)           -56.9575         calculate D2E/DX2 analytically  !
 ! D23   D(12,2,3,14)         -179.5247         calculate D2E/DX2 analytically  !
 ! D24   D(12,2,3,15)           64.718          calculate D2E/DX2 analytically  !
 ! D25   D(13,2,3,5)            56.5077         calculate D2E/DX2 analytically  !
 ! D26   D(13,2,3,14)          -66.0594         calculate D2E/DX2 analytically  !
 ! D27   D(13,2,3,15)          178.1833         calculate D2E/DX2 analytically  !
 ! D28   D(2,3,5,7)             60.841          calculate D2E/DX2 analytically  !
 ! D29   D(2,3,5,16)          -177.0378         calculate D2E/DX2 analytically  !
 ! D30   D(2,3,5,17)           -60.1723         calculate D2E/DX2 analytically  !
 ! D31   D(14,3,5,7)          -177.1895         calculate D2E/DX2 analytically  !
 ! D32   D(14,3,5,16)          -55.0684         calculate D2E/DX2 analytically  !
 ! D33   D(14,3,5,17)           61.7971         calculate D2E/DX2 analytically  !
 ! D34   D(15,3,5,7)           -60.7642         calculate D2E/DX2 analytically  !
 ! D35   D(15,3,5,16)           61.3569         calculate D2E/DX2 analytically  !
 ! D36   D(15,3,5,17)          178.2225         calculate D2E/DX2 analytically  !
 ! D37   D(1,4,6,18)            -1.1507         calculate D2E/DX2 analytically  !
 ! D38   D(1,4,6,19)           118.8881         calculate D2E/DX2 analytically  !
 ! D39   D(1,4,6,20)          -121.4625         calculate D2E/DX2 analytically  !
 ! D40   D(8,4,6,18)           121.6388         calculate D2E/DX2 analytically  !
 ! D41   D(8,4,6,19)          -118.3224         calculate D2E/DX2 analytically  !
 ! D42   D(8,4,6,20)             1.327          calculate D2E/DX2 analytically  !
 ! D43   D(9,4,6,18)          -123.9565         calculate D2E/DX2 analytically  !
 ! D44   D(9,4,6,19)            -3.9176         calculate D2E/DX2 analytically  !
 ! D45   D(9,4,6,20)           115.7317         calculate D2E/DX2 analytically  !
 ! D46   D(3,5,7,21)            33.4363         calculate D2E/DX2 analytically  !
 ! D47   D(3,5,7,22)           -84.8653         calculate D2E/DX2 analytically  !
 ! D48   D(3,5,7,23)           154.3331         calculate D2E/DX2 analytically  !
 ! D49   D(16,5,7,21)          -88.3907         calculate D2E/DX2 analytically  !
 ! D50   D(16,5,7,22)          153.3078         calculate D2E/DX2 analytically  !
 ! D51   D(16,5,7,23)           32.5062         calculate D2E/DX2 analytically  !
 ! D52   D(17,5,7,21)          154.3788         calculate D2E/DX2 analytically  !
 ! D53   D(17,5,7,22)           36.0773         calculate D2E/DX2 analytically  !
 ! D54   D(17,5,7,23)          -84.7243         calculate D2E/DX2 analytically  !
 --------------------------------------------------------------------------------
 Trust Radius=3.00D-01 FncErr=1.00D-07 GrdErr=1.00D-06 EigMax=2.50D+02 EigMin=1.00D-04
 Number of steps in this run=    138 maximum allowed number of steps=    138.
 GradGradGradGradGradGradGradGradGradGradGradGradGradGradGradGradGradGrad

 Leave Link  103 at Fri Sep 27 09:56:17 2019, MaxMem=   671088640 cpu:               1.5 elap:               0.7
 (Enter /shared/centos7/gaussian/g16/l202.exe)
                          Input orientation:                          
 ---------------------------------------------------------------------
 Center     Atomic      Atomic             Coordinates (Angstroms)
 Number     Number       Type             X           Y           Z
 ---------------------------------------------------------------------
      1          6           0        1.369752   -1.152128    0.508070
      2          6           0        0.119008   -0.439884    0.895771
      3          6           0       -0.109596    0.886592    0.215195
      4          6           0        2.163702   -0.493749   -0.569523
      5          6           0       -1.405459    1.524875    0.656825
      6          6           0        1.475514   -0.310026   -1.858798
      7          6           0       -1.438141    1.806226    2.136588
      8          1           0        3.104009   -1.091744   -0.734931
      9          1           0        2.508820    0.501471   -0.200488
     10          1           0        1.108986   -2.186579    0.199058
     11          1           0        2.022345   -1.277716    1.396323
     12          1           0        0.097413   -0.251245    1.980499
     13          1           0       -0.749391   -1.101761    0.693147
     14          1           0       -0.104342    0.742726   -0.878605
     15          1           0        0.737000    1.568412    0.437774
     16          1           0       -1.559416    2.478458    0.087179
     17          1           0       -2.240696    0.851019    0.400785
     18          1           0        0.444548   -0.711225   -1.864011
     19          1           0        1.395313    0.783488   -2.133261
     20          1           0        2.015973   -0.814140   -2.687813
     21          1           0       -0.443817    2.064158    2.503150
     22          1           0       -1.769921    0.891938    2.702149
     23          1           0       -2.145569    2.656738    2.355814
 ---------------------------------------------------------------------
                    Distance matrix (angstroms):
                    1          2          3          4          5
     1  C    0.000000
     2  C    1.490625   0.000000
     3  C    2.535868   1.508304   0.000000
     4  C    1.491652   2.516100   2.772906   0.000000
     5  C    3.858791   2.498274   1.510531   4.279916   0.000000
     6  C    2.514436   3.073211   2.871571   1.472952   4.242079
     7  C    4.391833   3.001558   2.510480   5.058280   1.506627
     8  H    2.134560   3.463285   3.891505   1.126559   5.396201
     9  H    2.129300   2.792693   2.679032   1.116134   4.135689
    10  H    1.110665   2.125184   3.305992   2.137479   4.506315
    11  H    1.109344   2.138973   3.259519   2.121117   4.489011
    12  H    2.144407   1.101220   2.110408   3.291044   2.676815
    13  H    2.127806   1.110520   2.142737   3.232665   2.707575
    14  H    2.772417   2.144029   1.103233   2.601620   2.159214
    15  H    2.794039   2.150565   1.109570   2.702338   2.154068
    16  H    4.683837   3.462319   2.156943   4.809041   1.121392
    17  H    4.130308   2.734894   2.139462   4.706232   1.103295
    18  H    2.584021   2.792132   2.680148   2.162981   3.844123
    19  H    3.274736   3.507225   2.791170   2.160331   4.022258
    20  H    3.278035   4.071931   3.979698   2.147470   5.325767
    21  H    4.196888   3.028310   2.594822   4.773191   2.150465
    22  H    4.341628   2.933394   2.990259   5.300693   2.171818
    23  H    5.502645   4.104766   3.443959   6.087116   2.171507
                    6          7          8          9         10
     6  C    0.000000
     7  C    5.378757   0.000000
     8  H    2.127477   6.105324   0.000000
     9  H    2.115713   4.768943   1.782754   0.000000
    10  H    2.809015   5.117067   2.459901   3.056924   0.000000
    11  H    3.439661   4.694002   2.397254   2.439666   1.758892
    12  H    4.079562   2.572057   4.137586   3.337390   2.818214
    13  H    3.476992   3.318778   4.109525   3.739636   2.207831
    14  H    2.136589   3.464309   3.698573   2.710473   3.348783
    15  H    3.057479   2.770156   3.748919   2.164506   3.780914
    16  H    4.557771   2.160251   5.930408   4.532304   5.375449
    17  H    4.501551   2.137646   5.799142   4.800169   4.526374
    18  H    1.106291   5.087914   2.914164   2.915332   2.621908
    19  H    1.130281   5.225521   2.896802   2.248342   3.787214
    20  H    1.110627   6.486299   2.252695   2.856662   3.322686
    21  H    5.324206   1.090678   5.747343   4.297641   5.078267
    22  H    5.725365   1.125104   6.285197   5.185112   4.902125
    23  H    6.298960   1.127778   7.152754   5.730899   6.221048
                   11         12         13         14         15
    11  H    0.000000
    12  H    2.258377   0.000000
    13  H    2.864950   1.760037   0.000000
    14  H    3.712181   3.033671   2.507713   0.000000
    15  H    3.266707   2.469863   3.066659   1.767050   0.000000
    16  H    5.352730   3.712280   3.720391   2.462264   2.494921
    17  H    4.867867   3.029396   2.474432   2.492503   3.063119
    18  H    3.666079   3.887459   2.849046   1.840185   3.252766
    19  H    4.135178   4.436016   4.017773   1.955707   2.767616
    20  H    4.110367   5.078471   4.377312   3.192617   4.132992
    21  H    4.298271   2.434581   3.659580   3.646600   2.430200
    22  H    4.560028   2.305338   3.008722   3.951989   3.445238
    23  H    5.811373   3.691638   4.340517   4.276858   3.629399
                   16         17         18         19         20
    16  H    0.000000
    17  H    1.791941   0.000000
    18  H    4.242298   3.844534   0.000000
    19  H    4.066165   4.432439   1.791820   0.000000
    20  H    5.596891   5.516469   1.777251   1.801434   0.000000
    21  H    2.693162   3.020004   5.250146   5.149643   6.425050
    22  H    3.065849   2.349379   5.322013   5.780282   6.804072
    23  H    2.349908   2.663046   5.988222   6.016536   7.402946
                   21         22         23
    21  H    0.000000
    22  H    1.781082   0.000000
    23  H    1.807988   1.837274   0.000000
 Stoichiometry    C7H16
 Framework group  C1[X(C7H16)]
 Deg. of freedom    63
 Full point group                 C1      NOp   1
 Largest Abelian subgroup         C1      NOp   1
 Largest concise Abelian subgroup C1      NOp   1
                         Standard orientation:                         
 ---------------------------------------------------------------------
 Center     Atomic      Atomic             Coordinates (Angstroms)
 Number     Number       Type             X           Y           Z
 ---------------------------------------------------------------------
      1          6           0        1.315109    1.218672    0.143710
      2          6           0       -0.102029    0.855599    0.429821
      3          6           0       -0.548815   -0.483016   -0.102603
      4          6           0        2.111954    0.161273   -0.543292
      5          6           0       -1.989328   -0.771278    0.248862
      6          6           0        2.237673   -1.120232    0.171920
      7          6           0       -2.941086    0.243981   -0.328488
      8          1           0        3.140797    0.569973   -0.752058
      9          1           0        1.661567   -0.028959   -1.546646
     10          1           0        1.810690    1.497187    1.097862
     11          1           0        1.350591    2.139805   -0.473460
     12          1           0       -0.789413    1.610238    0.016652
     13          1           0       -0.264203    0.877402    1.528220
     14          1           0        0.110137   -1.273624    0.294696
     15          1           0       -0.422104   -0.504854   -1.204697
     16          1           0       -2.260427   -1.795468   -0.118644
     17          1           0       -2.094280   -0.778147    1.347133
     18          1           0        1.729936   -1.122858    1.154811
     19          1           0        1.790574   -1.971579   -0.422089
     20          1           0        3.300220   -1.380673    0.363381
     21          1           0       -2.581031    0.607501   -1.291707
     22          1           0       -3.020806    1.137237    0.350922
     23          1           0       -3.963116   -0.213168   -0.463961
 ---------------------------------------------------------------------
 Rotational constants (GHZ):           5.0462819           1.2989198           1.1370083
 Leave Link  202 at Fri Sep 27 09:56:19 2019, MaxMem=   671088640 cpu:               3.3 elap:               1.7
 (Enter /shared/centos7/gaussian/g16/l301.exe)
 Standard basis: CC-pVTZ (5D, 7F)
 Ernie: Thresh=  0.10000D-02 Tol=  0.10000D-05 Strict=F.
 Ernie:  21 primitive shells out of 310 were deleted.
 There are   485 symmetry adapted cartesian basis functions of A   symmetry.
 There are   434 symmetry adapted basis functions of A   symmetry.
   434 basis functions,   636 primitive gaussians,   485 cartesian basis functions
    29 alpha electrons       29 beta electrons
       nuclear repulsion energy       331.5225386871 Hartrees.
 IExCor= 4336 DFT=T Ex+Corr=M062X ExCW=0 ScaHFX=  0.540000
 ScaDFX=  1.000000  1.000000  1.000000  1.000000 ScalE2=  1.000000  1.000000
 IRadAn=      5 IRanWt=     -1 IRanGd=            0 ICorTp=0 IEmpDi=  4
 NAtoms=   23 NActive=   23 NUniq=   23 SFac= 1.00D+00 NAtFMM=   60 NAOKFM=F Big=F
 Integral buffers will be    131072 words long.
 Raffenetti 2 integral format.
 Two-electron integral symmetry is turned on.
 Leave Link  301 at Fri Sep 27 09:56:19 2019, MaxMem=   671088640 cpu:               1.4 elap:               0.7
 (Enter /shared/centos7/gaussian/g16/l302.exe)
 NPDir=0 NMtPBC=     1 NCelOv=     1 NCel=       1 NClECP=     1 NCelD=      1
         NCelK=      1 NCelE2=     1 NClLst=     1 CellRange=     0.0.
 One-electron integrals computed using PRISM.
 One-electron integral symmetry used in STVInt
 NBasis=   434 RedAO= T EigKep=  1.74D-04  NBF=   434
 NBsUse=   434 1.00D-06 EigRej= -1.00D+00 NBFU=   434
 Precomputing XC quadrature grid using
 IXCGrd= 4 IRadAn=           5 IRanWt=          -1 IRanGd=           0 AccXCQ= 0.00D+00.
 Generated NRdTot=       0 NPtTot=           0 NUsed=           0 NTot=          32
 NSgBfM=   485   485   485   485   485 MxSgAt=    23 MxSgA2=    23.
 Leave Link  302 at Fri Sep 27 09:57:30 2019, MaxMem=   671088640 cpu:             141.0 elap:              70.5
 (Enter /shared/centos7/gaussian/g16/l303.exe)
 DipDrv:  MaxL=1.
 Leave Link  303 at Fri Sep 27 09:57:35 2019, MaxMem=   671088640 cpu:               9.6 elap:               4.8
 (Enter /shared/centos7/gaussian/g16/l401.exe)
 ExpMin= 1.03D-01 ExpMax= 8.24D+03 ExpMxC= 2.81D+02 IAcc=3 IRadAn=         5 AccDes= 0.00D+00
 Harris functional with IExCor= 1009 and IRadAn=       5 diagonalized for initial guess.
 HarFok:  IExCor= 1009 AccDes= 0.00D+00 IRadAn=         5 IDoV= 1 UseB2=F ITyADJ=14
 ICtDFT=  3500011 ScaDFX=  1.000000  1.000000  1.000000  1.000000
 FoFCou: FMM=F IPFlag=           0 FMFlag=      100000 FMFlg1=           0
         NFxFlg=           0 DoJE=T BraDBF=F KetDBF=T FulRan=T
         wScrn=  0.000000 ICntrl=       500 IOpCl=  0 I1Cent=   200000004 NGrid=           0
         NMat0=    1 NMatS0=      1 NMatT0=    0 NMatD0=    1 NMtDS0=    0 NMtDT0=    0
 Petite list used in FoFCou.
 Harris En= -276.311900060068    
 JPrj=0 DoOrth=F DoCkMO=F.
 Leave Link  401 at Fri Sep 27 09:58:33 2019, MaxMem=   671088640 cpu:             117.5 elap:              58.8
 (Enter /shared/centos7/gaussian/g16/l502.exe)
 Integral symmetry usage will be decided dynamically.
 Closed shell SCF:
 Using DIIS extrapolation, IDIIS=  1040.
 NGot=   671088640 LenX=   670604095 LenY=   670368385
 Requested convergence on RMS density matrix=1.00D-08 within 900 cycles.
 Requested convergence on MAX density matrix=1.00D-06.
 Requested convergence on             energy=1.00D-06.
 No special actions if energy rises.
 Fock matrices will be formed incrementally for  20 cycles.
 Integral accuracy reduced to 1.0D-05 until final iterations.

 Cycle   1  Pass 0  IDiag  1:
 FoFJK:  IHMeth= 1 ICntrl=       0 DoSepK=F KAlg= 0 I1Cent=           0 FoldK=F
 IRaf= 940000000 NMat=       1 IRICut=       1 DoRegI=T DoRafI=F ISym2E= 0 IDoP0=0 IntGTp=1.
 FoFCou: FMM=F IPFlag=           0 FMFlag=      100000 FMFlg1=           0
         NFxFlg=           0 DoJE=F BraDBF=F KetDBF=F FulRan=T
         wScrn=  0.000000 ICntrl=         0 IOpCl=  0 I1Cent=           0 NGrid=           0
         NMat0=    1 NMatS0=      1 NMatT0=    0 NMatD0=    1 NMtDS0=    0 NMtDT0=    0
 Symmetry not used in FoFCou.
 E= -275.945438761953    
 DIIS: error= 2.32D-02 at cycle   1 NSaved=   1.
 NSaved= 1 IEnMin= 1 EnMin= -275.945438761953     IErMin= 1 ErrMin= 2.32D-02
 ErrMax= 2.32D-02  0.00D+00 EMaxC= 1.00D-01 BMatC= 3.76D-01 BMatP= 3.76D-01
 IDIUse=3 WtCom= 7.68D-01 WtEn= 2.32D-01
 Coeff-Com:  0.100D+01
 Coeff-En:   0.100D+01
 Coeff:      0.100D+01
 Gap=     0.358 Goal=   None    Shift=    0.000
 GapD=    0.358 DampG=1.000 DampE=0.500 DampFc=0.5000 IDamp=-1.
 Damping current iteration by 5.00D-01
 RMSDP=1.95D-03 MaxDP=7.38D-02              OVMax= 1.65D-01

 Cycle   2  Pass 0  IDiag  1:
 RMSU=  9.73D-04    CP:  9.90D-01
 E= -276.123109508765     Delta-E=       -0.177670746812 Rises=F Damp=T
 DIIS: error= 3.92D-03 at cycle   2 NSaved=   2.
 NSaved= 2 IEnMin= 2 EnMin= -276.123109508765     IErMin= 2 ErrMin= 3.92D-03
 ErrMax= 3.92D-03  0.00D+00 EMaxC= 1.00D-01 BMatC= 1.89D-02 BMatP= 3.76D-01
 IDIUse=3 WtCom= 9.61D-01 WtEn= 3.92D-02
 Coeff-Com: -0.451D-01 0.105D+01
 Coeff-En:   0.000D+00 0.100D+01
 Coeff:     -0.433D-01 0.104D+01
 Gap=     0.447 Goal=   None    Shift=    0.000
 RMSDP=5.69D-04 MaxDP=1.80D-02 DE=-1.78D-01 OVMax= 8.92D-02

 Cycle   3  Pass 0  IDiag  1:
 RMSU=  5.58D-04    CP:  9.98D-01  9.01D-01
 E= -276.303664834350     Delta-E=       -0.180555325586 Rises=F Damp=F
 DIIS: error= 2.30D-03 at cycle   3 NSaved=   3.
 NSaved= 3 IEnMin= 3 EnMin= -276.303664834350     IErMin= 3 ErrMin= 2.30D-03
 ErrMax= 2.30D-03  0.00D+00 EMaxC= 1.00D-01 BMatC= 2.94D-03 BMatP= 1.89D-02
 IDIUse=3 WtCom= 9.77D-01 WtEn= 2.30D-02
 Coeff-Com: -0.517D-01 0.249D+00 0.803D+00
 Coeff-En:   0.000D+00 0.000D+00 0.100D+01
 Coeff:     -0.505D-01 0.243D+00 0.807D+00
 Gap=     0.406 Goal=   None    Shift=    0.000
 RMSDP=9.83D-05 MaxDP=3.17D-03 DE=-1.81D-01 OVMax= 1.04D-02

 Cycle   4  Pass 0  IDiag  1:
 RMSU=  7.63D-05    CP:  9.97D-01  9.48D-01  9.27D-01
 E= -276.306191481715     Delta-E=       -0.002526647365 Rises=F Damp=F
 DIIS: error= 7.14D-04 at cycle   4 NSaved=   4.
 NSaved= 4 IEnMin= 4 EnMin= -276.306191481715     IErMin= 4 ErrMin= 7.14D-04
 ErrMax= 7.14D-04  0.00D+00 EMaxC= 1.00D-01 BMatC= 3.06D-04 BMatP= 2.94D-03
 IDIUse=3 WtCom= 9.93D-01 WtEn= 7.14D-03
 Coeff-Com: -0.147D-01 0.421D-01 0.283D+00 0.689D+00
 Coeff-En:   0.000D+00 0.000D+00 0.000D+00 0.100D+01
 Coeff:     -0.146D-01 0.418D-01 0.281D+00 0.691D+00
 Gap=     0.407 Goal=   None    Shift=    0.000
 RMSDP=3.34D-05 MaxDP=1.32D-03 DE=-2.53D-03 OVMax= 3.16D-03

 Cycle   5  Pass 0  IDiag  1:
 RMSU=  2.14D-05    CP:  9.97D-01  9.41D-01  9.58D-01  7.66D-01
 E= -276.306464327067     Delta-E=       -0.000272845352 Rises=F Damp=F
 DIIS: error= 2.11D-04 at cycle   5 NSaved=   5.
 NSaved= 5 IEnMin= 5 EnMin= -276.306464327067     IErMin= 5 ErrMin= 2.11D-04
 ErrMax= 2.11D-04  0.00D+00 EMaxC= 1.00D-01 BMatC= 2.51D-05 BMatP= 3.06D-04
 IDIUse=3 WtCom= 9.98D-01 WtEn= 2.11D-03
 Coeff-Com: -0.205D-02 0.157D-02 0.585D-01 0.272D+00 0.670D+00
 Coeff-En:   0.000D+00 0.000D+00 0.000D+00 0.000D+00 0.100D+01
 Coeff:     -0.204D-02 0.157D-02 0.583D-01 0.272D+00 0.670D+00
 Gap=     0.407 Goal=   None    Shift=    0.000
 RMSDP=7.80D-06 MaxDP=3.38D-04 DE=-2.73D-04 OVMax= 8.34D-04

 Initial convergence to 1.0D-05 achieved.  Increase integral accuracy.
 Cycle   6  Pass 1  IDiag  1:
 E= -276.306410382803     Delta-E=        0.000053944264 Rises=F Damp=F
 DIIS: error= 5.69D-05 at cycle   1 NSaved=   1.
 NSaved= 1 IEnMin= 1 EnMin= -276.306410382803     IErMin= 1 ErrMin= 5.69D-05
 ErrMax= 5.69D-05  0.00D+00 EMaxC= 1.00D-01 BMatC= 1.43D-06 BMatP= 1.43D-06
 IDIUse=1 WtCom= 1.00D+00 WtEn= 0.00D+00
 Coeff-Com:  0.100D+01
 Coeff:      0.100D+01
 Gap=     0.407 Goal=   None    Shift=    0.000
 RMSDP=7.80D-06 MaxDP=3.38D-04 DE= 5.39D-05 OVMax= 2.22D-04

 Cycle   7  Pass 1  IDiag  1:
 RMSU=  1.38D-05    CP:  1.00D+00
 E= -276.306411190058     Delta-E=       -0.000000807255 Rises=F Damp=F
 DIIS: error= 2.03D-05 at cycle   2 NSaved=   2.
 NSaved= 2 IEnMin= 2 EnMin= -276.306411190058     IErMin= 2 ErrMin= 2.03D-05
 ErrMax= 2.03D-05  0.00D+00 EMaxC= 1.00D-01 BMatC= 3.19D-07 BMatP= 1.43D-06
 IDIUse=1 WtCom= 1.00D+00 WtEn= 0.00D+00
 Coeff-Com:  0.263D+00 0.737D+00
 Coeff:      0.263D+00 0.737D+00
 Gap=     0.407 Goal=   None    Shift=    0.000
 RMSDP=1.21D-06 MaxDP=5.91D-05 DE=-8.07D-07 OVMax= 1.25D-04

 Cycle   8  Pass 1  IDiag  1:
 RMSU=  1.19D-06    CP:  1.00D+00  1.02D+00
 E= -276.306411430691     Delta-E=       -0.000000240633 Rises=F Damp=F
 DIIS: error= 1.13D-05 at cycle   3 NSaved=   3.
 NSaved= 3 IEnMin= 3 EnMin= -276.306411430691     IErMin= 3 ErrMin= 1.13D-05
 ErrMax= 1.13D-05  0.00D+00 EMaxC= 1.00D-01 BMatC= 7.31D-08 BMatP= 3.19D-07
 IDIUse=1 WtCom= 1.00D+00 WtEn= 0.00D+00
 Coeff-Com: -0.488D-02 0.315D+00 0.690D+00
 Coeff:     -0.488D-02 0.315D+00 0.690D+00
 Gap=     0.407 Goal=   None    Shift=    0.000
 RMSDP=4.52D-07 MaxDP=1.87D-05 DE=-2.41D-07 OVMax= 4.60D-05

 Cycle   9  Pass 1  IDiag  1:
 RMSU=  3.19D-07    CP:  1.00D+00  1.03D+00  7.84D-01
 E= -276.306411500510     Delta-E=       -0.000000069819 Rises=F Damp=F
 DIIS: error= 1.81D-06 at cycle   4 NSaved=   4.
 NSaved= 4 IEnMin= 4 EnMin= -276.306411500510     IErMin= 4 ErrMin= 1.81D-06
 ErrMax= 1.81D-06  0.00D+00 EMaxC= 1.00D-01 BMatC= 1.59D-09 BMatP= 7.31D-08
 IDIUse=1 WtCom= 1.00D+00 WtEn= 0.00D+00
 Coeff-Com: -0.114D-01 0.737D-01 0.217D+00 0.721D+00
 Coeff:     -0.114D-01 0.737D-01 0.217D+00 0.721D+00
 Gap=     0.407 Goal=   None    Shift=    0.000
 RMSDP=7.70D-08 MaxDP=2.51D-06 DE=-6.98D-08 OVMax= 7.86D-06

 Cycle  10  Pass 1  IDiag  1:
 RMSU=  7.22D-08    CP:  1.00D+00  1.03D+00  7.99D-01  9.72D-01
 E= -276.306411502059     Delta-E=       -0.000000001549 Rises=F Damp=F
 DIIS: error= 3.34D-07 at cycle   5 NSaved=   5.
 NSaved= 5 IEnMin= 5 EnMin= -276.306411502059     IErMin= 5 ErrMin= 3.34D-07
 ErrMax= 3.34D-07  0.00D+00 EMaxC= 1.00D-01 BMatC= 7.83D-11 BMatP= 1.59D-09
 IDIUse=1 WtCom= 1.00D+00 WtEn= 0.00D+00
 Coeff-Com: -0.136D-02-0.120D-01-0.185D-01 0.111D+00 0.920D+00
 Coeff:     -0.136D-02-0.120D-01-0.185D-01 0.111D+00 0.920D+00
 Gap=     0.407 Goal=   None    Shift=    0.000
 RMSDP=3.36D-08 MaxDP=1.23D-06 DE=-1.55D-09 OVMax= 2.57D-06

 Cycle  11  Pass 1  IDiag  1:
 RMSU=  1.95D-08    CP:  1.00D+00  1.03D+00  8.03D-01  1.05D+00  1.11D+00
 E= -276.306411502137     Delta-E=       -0.000000000079 Rises=F Damp=F
 DIIS: error= 1.88D-07 at cycle   6 NSaved=   6.
 NSaved= 6 IEnMin= 6 EnMin= -276.306411502137     IErMin= 6 ErrMin= 1.88D-07
 ErrMax= 1.88D-07  0.00D+00 EMaxC= 1.00D-01 BMatC= 2.06D-11 BMatP= 7.83D-11
 IDIUse=1 WtCom= 1.00D+00 WtEn= 0.00D+00
 Coeff-Com:  0.446D-03-0.122D-01-0.284D-01-0.206D-01 0.405D+00 0.656D+00
 Coeff:      0.446D-03-0.122D-01-0.284D-01-0.206D-01 0.405D+00 0.656D+00
 Gap=     0.407 Goal=   None    Shift=    0.000
 RMSDP=8.04D-09 MaxDP=3.87D-07 DE=-7.88D-11 OVMax= 8.00D-07

 SCF Done:  E(RM062X) =  -276.306411502     A.U. after   11 cycles
            NFock= 11  Conv=0.80D-08     -V/T= 2.0064
 KE= 2.745538582328D+02 PE=-1.301533126085D+03 EE= 4.191503176633D+02
 Leave Link  502 at Fri Sep 27 10:14:03 2019, MaxMem=   671088640 cpu:            1858.2 elap:             929.3
 (Enter /shared/centos7/gaussian/g16/l801.exe)
 DoSCS=F DFT=T ScalE2(SS,OS)=  1.000000  1.000000
 Range of M.O.s used for correlation:     1   434
 NBasis=   434 NAE=    29 NBE=    29 NFC=     0 NFV=     0
 NROrb=    434 NOA=    29 NOB=    29 NVA=   405 NVB=   405

 **** Warning!!: The largest alpha MO coefficient is  0.10943563D+02

 Leave Link  801 at Fri Sep 27 10:14:03 2019, MaxMem=   671088640 cpu:               1.4 elap:               0.7
 (Enter /shared/centos7/gaussian/g16/l1101.exe)
 Using compressed storage, NAtomX=    23.
 Will process     24 centers per pass.
 Leave Link 1101 at Fri Sep 27 10:14:37 2019, MaxMem=   671088640 cpu:              66.8 elap:              33.4
 (Enter /shared/centos7/gaussian/g16/l1102.exe)
 Symmetrizing basis deriv contribution to polar:
 IMax=3 JMax=2 DiffMx= 0.00D+00
 Leave Link 1102 at Fri Sep 27 10:14:39 2019, MaxMem=   671088640 cpu:               4.8 elap:               2.4
 (Enter /shared/centos7/gaussian/g16/l1110.exe)
 Forming Gx(P) for the SCF density, NAtomX=    23.
 Integral derivatives from FoFJK, PRISM(SPDF).
 Do as many integral derivatives as possible in FoFJK.
 G2DrvN: MDV=     671086848.
 G2DrvN: will do    24 centers at a time, making    1 passes.
 Calling FoFCou, ICntrl=  3107 FMM=F I1Cent=   0 AccDes= 0.00D+00.
 FoFJK:  IHMeth= 1 ICntrl=    3107 DoSepK=F KAlg= 0 I1Cent=           0 FoldK=F
 IRaf=         0 NMat=       1 IRICut=       1 DoRegI=T DoRafI=F ISym2E= 0 IDoP0=0 IntGTp=1.
 FoFCou: FMM=F IPFlag=           0 FMFlag=      100000 FMFlg1=           0
         NFxFlg=           0 DoJE=F BraDBF=F KetDBF=F FulRan=T
         wScrn=  0.000000 ICntrl=      3107 IOpCl=  0 I1Cent=           0 NGrid=           0
         NMat0=    1 NMatS0=      1 NMatT0=    0 NMatD0=    1 NMtDS0=    0 NMtDT0=    0
 Symmetry not used in FoFCou.
 End of G2Drv F.D. properties file   721 does not exist.
 End of G2Drv F.D. properties file   722 does not exist.
 End of G2Drv F.D. properties file   788 does not exist.
 Leave Link 1110 at Fri Sep 27 11:03:44 2019, MaxMem=   671088640 cpu:            5889.0 elap:            2944.9
 (Enter /shared/centos7/gaussian/g16/l1002.exe)
 Minotr:  Closed shell wavefunction.
          IDoAtm=11111111111111111111111
          Direct CPHF calculation.
          Differentiating once with respect to nuclear coordinates.
          Requested convergence is 1.0D-08 RMS, and 1.0D-07 maximum.
          Secondary convergence is 1.0D-12 RMS, and 1.0D-12 maximum.
          NewPWx=T KeepS1=F KeepF1=F KeepIn=T MapXYZ=F SortEE=F KeepMc=T.
         6925 words used for storage of precomputed grid.
 Two-electron integrals replicated using symmetry.
          MDV=     671088640 using IRadAn=       1.
          Solving linear equations simultaneously, MaxMat=     380.
 FoF2E skips out because all densities are zero.
 CalDSu exits because no D1Ps are significant.
 FoFJK:  IHMeth= 1 ICntrl=       0 DoSepK=F KAlg= 0 I1Cent=           0 FoldK=F
 IRaf= 920000000 NMat=      69 IRICut=     172 DoRegI=T DoRafI=T ISym2E= 2 IDoP0=3 IntGTp=3.
 FoFCou: FMM=F IPFlag=           0 FMFlag=      100000 FMFlg1=           0
         NFxFlg=           0 DoJE=F BraDBF=F KetDBF=F FulRan=T
         wScrn=  0.000000 ICntrl=         0 IOpCl=  0 I1Cent=           0 NGrid=           0
         NMat0=   69 NMatS0=     69 NMatT0=    0 NMatD0=   69 NMtDS0=    0 NMtDT0=    0
 Integrals replicated using symmetry in FoFCou.
 Raff kept on since  88.67% of shell-pairs survive, threshold=   0.20 IRatSp=89.
          There are    72 degrees of freedom in the 1st order CPHF.  IDoFFX=6 NUNeed=     0.
     66 vectors produced by pass  0 Test12= 1.63D-14 1.39D-09 XBig12= 5.42D-02 4.35D-02.
 AX will form    66 AO Fock derivatives at one time.
     66 vectors produced by pass  1 Test12= 1.63D-14 1.39D-09 XBig12= 3.33D-03 7.05D-03.
     66 vectors produced by pass  2 Test12= 1.63D-14 1.39D-09 XBig12= 6.26D-05 8.83D-04.
     66 vectors produced by pass  3 Test12= 1.63D-14 1.39D-09 XBig12= 5.12D-07 8.81D-05.
     66 vectors produced by pass  4 Test12= 1.63D-14 1.39D-09 XBig12= 2.19D-09 4.64D-06.
     66 vectors produced by pass  5 Test12= 1.63D-14 1.39D-09 XBig12= 1.18D-11 3.80D-07.
     25 vectors produced by pass  6 Test12= 1.63D-14 1.39D-09 XBig12= 4.39D-14 1.62D-08.
 InvSVY:  IOpt=1 It=  1 EMax= 3.89D-16
 Solved reduced A of dimension   421 with    72 vectors.
 End of Minotr F.D. properties file   721 does not exist.
 End of Minotr F.D. properties file   722 does not exist.
 End of Minotr F.D. properties file   788 does not exist.
 Leave Link 1002 at Fri Sep 27 12:37:51 2019, MaxMem=   671088640 cpu:           11291.4 elap:            5646.5
 (Enter /shared/centos7/gaussian/g16/l601.exe)
 Copying SCF densities to generalized density rwf, IOpCl= 0 IROHF=0.

 **********************************************************************

            Population analysis using the SCF density.

 **********************************************************************

 Orbital symmetries:
       Occupied  (A) (A) (A) (A) (A) (A) (A) (A) (A) (A) (A) (A)
                 (A) (A) (A) (A) (A) (A) (A) (A) (A) (A) (A) (A)
                 (A) (A) (A) (A) (A)
       Virtual   (A) (A) (A) (A) (A) (A) (A) (A) (A) (A) (A) (A)
                 (A) (A) (A) (A) (A) (A) (A) (A) (A) (A) (A) (A)
                 (A) (A) (A) (A) (A) (A) (A) (A) (A) (A) (A) (A)
                 (A) (A) (A) (A) (A) (A) (A) (A) (A) (A) (A) (A)
                 (A) (A) (A) (A) (A) (A) (A) (A) (A) (A) (A) (A)
                 (A) (A) (A) (A) (A) (A) (A) (A) (A) (A) (A) (A)
                 (A) (A) (A) (A) (A) (A) (A) (A) (A) (A) (A) (A)
                 (A) (A) (A) (A) (A) (A) (A) (A) (A) (A) (A) (A)
                 (A) (A) (A) (A) (A) (A) (A) (A) (A) (A) (A) (A)
                 (A) (A) (A) (A) (A) (A) (A) (A) (A) (A) (A) (A)
                 (A) (A) (A) (A) (A) (A) (A) (A) (A) (A) (A) (A)
                 (A) (A) (A) (A) (A) (A) (A) (A) (A) (A) (A) (A)
                 (A) (A) (A) (A) (A) (A) (A) (A) (A) (A) (A) (A)
                 (A) (A) (A) (A) (A) (A) (A) (A) (A) (A) (A) (A)
                 (A) (A) (A) (A) (A) (A) (A) (A) (A) (A) (A) (A)
                 (A) (A) (A) (A) (A) (A) (A) (A) (A) (A) (A) (A)
                 (A) (A) (A) (A) (A) (A) (A) (A) (A) (A) (A) (A)
                 (A) (A) (A) (A) (A) (A) (A) (A) (A) (A) (A) (A)
                 (A) (A) (A) (A) (A) (A) (A) (A) (A) (A) (A) (A)
                 (A) (A) (A) (A) (A) (A) (A) (A) (A) (A) (A) (A)
                 (A) (A) (A) (A) (A) (A) (A) (A) (A) (A) (A) (A)
                 (A) (A) (A) (A) (A) (A) (A) (A) (A) (A) (A) (A)
                 (A) (A) (A) (A) (A) (A) (A) (A) (A) (A) (A) (A)
                 (A) (A) (A) (A) (A) (A) (A) (A) (A) (A) (A) (A)
                 (A) (A) (A) (A) (A) (A) (A) (A) (A) (A) (A) (A)
                 (A) (A) (A) (A) (A) (A) (A) (A) (A) (A) (A) (A)
                 (A) (A) (A) (A) (A) (A) (A) (A) (A) (A) (A) (A)
                 (A) (A) (A) (A) (A) (A) (A) (A) (A) (A) (A) (A)
                 (A) (A) (A) (A) (A) (A) (A) (A) (A) (A) (A) (A)
                 (A) (A) (A) (A) (A) (A) (A) (A) (A) (A) (A) (A)
                 (A) (A) (A) (A) (A) (A) (A) (A) (A) (A) (A) (A)
                 (A) (A) (A) (A) (A) (A) (A) (A) (A) (A) (A) (A)
                 (A) (A) (A) (A) (A) (A) (A) (A) (A) (A) (A) (A)
                 (A) (A) (A) (A) (A) (A) (A) (A) (A)
 The electronic state is 1-A.
 Alpha  occ. eigenvalues --  -10.52609 -10.52572 -10.52409 -10.52377 -10.52260
 Alpha  occ. eigenvalues --  -10.52069 -10.51888  -0.92631  -0.88043  -0.82131
 Alpha  occ. eigenvalues --   -0.77090  -0.70772  -0.65770  -0.62219  -0.54988
 Alpha  occ. eigenvalues --   -0.53922  -0.51136  -0.49787  -0.47840  -0.46220
 Alpha  occ. eigenvalues --   -0.44465  -0.43587  -0.41839  -0.39863  -0.39306
 Alpha  occ. eigenvalues --   -0.38689  -0.36282  -0.35719  -0.34420
 Alpha virt. eigenvalues --    0.06251   0.08000   0.08243   0.08775   0.10270
 Alpha virt. eigenvalues --    0.12203   0.12685   0.13100   0.13727   0.15063
 Alpha virt. eigenvalues --    0.16228   0.17268   0.18160   0.19000   0.20045
 Alpha virt. eigenvalues --    0.20965   0.21782   0.23701   0.25294   0.26599
 Alpha virt. eigenvalues --    0.27903   0.28135   0.29736   0.30902   0.31850
 Alpha virt. eigenvalues --    0.32121   0.32977   0.34970   0.35846   0.35942
 Alpha virt. eigenvalues --    0.38298   0.40211   0.42944   0.43323   0.44597
 Alpha virt. eigenvalues --    0.45463   0.46794   0.47191   0.48159   0.48585
 Alpha virt. eigenvalues --    0.49048   0.49663   0.49793   0.50948   0.51508
 Alpha virt. eigenvalues --    0.51971   0.52669   0.52727   0.53258   0.54324
 Alpha virt. eigenvalues --    0.54472   0.55585   0.55693   0.56711   0.56991
 Alpha virt. eigenvalues --    0.57696   0.58842   0.59805   0.62590   0.62945
 Alpha virt. eigenvalues --    0.66344   0.69079   0.72026   0.75082   0.76770
 Alpha virt. eigenvalues --    0.78973   0.79758   0.82349   0.85397   0.86709
 Alpha virt. eigenvalues --    0.87359   0.87624   0.90502   0.91138   0.92579
 Alpha virt. eigenvalues --    0.93495   0.93871   0.97973   0.98279   1.00275
 Alpha virt. eigenvalues --    1.00993   1.02480   1.02777   1.03761   1.05567
 Alpha virt. eigenvalues --    1.06130   1.07436   1.08493   1.09323   1.10104
 Alpha virt. eigenvalues --    1.11417   1.11765   1.13652   1.14583   1.16422
 Alpha virt. eigenvalues --    1.17579   1.17625   1.18248   1.19643   1.20489
 Alpha virt. eigenvalues --    1.21659   1.22565   1.23470   1.24629   1.25465
 Alpha virt. eigenvalues --    1.25917   1.27188   1.28083   1.28690   1.29837
 Alpha virt. eigenvalues --    1.30041   1.31564   1.31861   1.32074   1.33282
 Alpha virt. eigenvalues --    1.34558   1.35570   1.36192   1.37289   1.38798
 Alpha virt. eigenvalues --    1.40934   1.41243   1.42229   1.43504   1.44947
 Alpha virt. eigenvalues --    1.46526   1.47570   1.49698   1.50432   1.51380
 Alpha virt. eigenvalues --    1.52911   1.53215   1.54442   1.55313   1.56138
 Alpha virt. eigenvalues --    1.57699   1.58795   1.59843   1.62716   1.63569
 Alpha virt. eigenvalues --    1.65610   1.68738   1.71409   1.73986   1.74449
 Alpha virt. eigenvalues --    1.79378   1.81650   1.88791   1.90472   2.21964
 Alpha virt. eigenvalues --    2.25463   2.28284   2.32008   2.32555   2.37335
 Alpha virt. eigenvalues --    2.38036   2.40423   2.40962   2.44452   2.46111
 Alpha virt. eigenvalues --    2.47102   2.48846   2.50327   2.53370   2.54577
 Alpha virt. eigenvalues --    2.55934   2.59130   2.59687   2.60806   2.62059
 Alpha virt. eigenvalues --    2.62480   2.64427   2.65647   2.66440   2.67433
 Alpha virt. eigenvalues --    2.69181   2.69827   2.72831   2.73443   2.74931
 Alpha virt. eigenvalues --    2.75875   2.77028   2.78318   2.79312   2.80976
 Alpha virt. eigenvalues --    2.81961   2.83717   2.84374   2.85184   2.85754
 Alpha virt. eigenvalues --    2.86425   2.89024   2.89905   2.90499   2.92850
 Alpha virt. eigenvalues --    2.94727   2.96846   2.98283   2.98717   3.00163
 Alpha virt. eigenvalues --    3.01312   3.02242   3.04065   3.04343   3.05320
 Alpha virt. eigenvalues --    3.06025   3.06872   3.07731   3.08824   3.09838
 Alpha virt. eigenvalues --    3.10076   3.11029   3.12041   3.12883   3.14304
 Alpha virt. eigenvalues --    3.14955   3.16185   3.16897   3.16986   3.18630
 Alpha virt. eigenvalues --    3.19964   3.21707   3.22227   3.22693   3.23011
 Alpha virt. eigenvalues --    3.24143   3.26365   3.27531   3.28682   3.30019
 Alpha virt. eigenvalues --    3.30411   3.31901   3.32634   3.35345   3.36384
 Alpha virt. eigenvalues --    3.36976   3.38615   3.39670   3.41389   3.42996
 Alpha virt. eigenvalues --    3.43865   3.45500   3.46993   3.48116   3.49721
 Alpha virt. eigenvalues --    3.50208   3.51475   3.53424   3.54462   3.55646
 Alpha virt. eigenvalues --    3.56126   3.56698   3.58913   3.59648   3.60382
 Alpha virt. eigenvalues --    3.62492   3.63378   3.64941   3.67540   3.67677
 Alpha virt. eigenvalues --    3.68304   3.68978   3.70493   3.72781   3.73675
 Alpha virt. eigenvalues --    3.74382   3.77556   3.78686   3.80054   3.80317
 Alpha virt. eigenvalues --    3.81587   3.81952   3.83415   3.83960   3.84891
 Alpha virt. eigenvalues --    3.85733   3.87955   3.89369   3.90670   3.92221
 Alpha virt. eigenvalues --    3.92766   3.94024   3.94277   3.96767   3.98599
 Alpha virt. eigenvalues --    3.98883   3.99575   4.00659   4.01553   4.02268
 Alpha virt. eigenvalues --    4.03921   4.04504   4.05581   4.06996   4.07524
 Alpha virt. eigenvalues --    4.08591   4.09465   4.10436   4.11450   4.12717
 Alpha virt. eigenvalues --    4.15939   4.16390   4.16992   4.18772   4.19018
 Alpha virt. eigenvalues --    4.19794   4.20445   4.21424   4.22339   4.23234
 Alpha virt. eigenvalues --    4.26331   4.26743   4.27793   4.29996   4.30402
 Alpha virt. eigenvalues --    4.33622   4.35180   4.36616   4.38147   4.39349
 Alpha virt. eigenvalues --    4.42290   4.44376   4.45687   4.46898   4.48828
 Alpha virt. eigenvalues --    4.49552   4.52710   4.53643   4.55676   4.58026
 Alpha virt. eigenvalues --    4.58656   4.61986   4.64883   4.65675   4.69254
 Alpha virt. eigenvalues --    4.70255   4.72019   4.73148   4.73862   4.76417
 Alpha virt. eigenvalues --    4.77928   4.80418   4.80792   4.81920   4.82863
 Alpha virt. eigenvalues --    4.84648   4.86850   4.87565   4.90297   4.92220
 Alpha virt. eigenvalues --    4.94375   4.96212   4.97668   4.98761   5.00773
 Alpha virt. eigenvalues --    5.04568   5.04639   5.05851   5.07407   5.09093
 Alpha virt. eigenvalues --    5.11099   5.12334   5.13372   5.15642   5.17832
 Alpha virt. eigenvalues --    5.20070   5.24683   5.25049   5.27160   5.27498
 Alpha virt. eigenvalues --    5.28333   5.29720   5.31118   5.32437   5.35055
 Alpha virt. eigenvalues --    5.36896   5.39370   5.43135   5.45223   5.45557
 Alpha virt. eigenvalues --    5.47845   5.48830   5.52287   5.53954   5.58820
 Alpha virt. eigenvalues --    5.62124   5.66438   5.71333   5.78773   5.81240
 Alpha virt. eigenvalues --    5.82561   5.84966   5.86955   5.91864   5.93784
 Alpha virt. eigenvalues --    5.98020   6.02812   6.09041  11.52200  12.08280
 Alpha virt. eigenvalues --   12.20562  13.15097  13.43276  13.55673  14.05971
          Condensed to atoms (all electrons):
               1          2          3          4          5          6
     1  C    5.051492   0.304528  -0.057992   0.315062   0.006904  -0.041740
     2  C    0.304528   5.190221   0.272725  -0.052323  -0.058909  -0.002689
     3  C   -0.057992   0.272725   5.193815  -0.012634   0.320635  -0.017184
     4  C    0.315062  -0.052323  -0.012634   5.063125  -0.000073   0.275894
     5  C    0.006904  -0.058909   0.320635  -0.000073   5.046237   0.000775
     6  C   -0.041740  -0.002689  -0.017184   0.275894   0.000775   5.036270
     7  C   -0.000278  -0.002001  -0.055386  -0.000033   0.297829  -0.000113
     8  H   -0.040639   0.009361   0.000608   0.411071   0.000036  -0.043073
     9  H   -0.040112  -0.007847  -0.001482   0.415262   0.000477  -0.052175
    10  H    0.423178  -0.060065   0.007194  -0.044511  -0.000440  -0.005739
    11  H    0.420531  -0.049571   0.005282  -0.046374  -0.000357   0.009515
    12  H   -0.038824   0.412465  -0.041591   0.006450  -0.011708  -0.000596
    13  H   -0.042312   0.408737  -0.056083   0.006164   0.002852   0.000122
    14  H   -0.002445  -0.040714   0.436188  -0.006461  -0.041650  -0.018387
    15  H   -0.001407  -0.051491   0.398387  -0.004096  -0.018522  -0.000567
    16  H   -0.000444   0.009974  -0.047559   0.000042   0.415609   0.000106
    17  H    0.000006  -0.009338  -0.041127  -0.000007   0.410322   0.000119
    18  H   -0.000052   0.001564  -0.012886  -0.061446   0.000769   0.415199
    19  H    0.006046   0.000689  -0.007028  -0.049841   0.000913   0.415826
    20  H    0.005727  -0.001396   0.002515  -0.040017  -0.000052   0.398181
    21  H   -0.000258  -0.007081   0.007492  -0.000025  -0.059652   0.000012
    22  H    0.000366   0.001931  -0.004671  -0.000013  -0.037504   0.000004
    23  H    0.000024   0.000257   0.008446   0.000003  -0.041570   0.000003
               7          8          9         10         11         12
     1  C   -0.000278  -0.040639  -0.040112   0.423178   0.420531  -0.038824
     2  C   -0.002001   0.009361  -0.007847  -0.060065  -0.049571   0.412465
     3  C   -0.055386   0.000608  -0.001482   0.007194   0.005282  -0.041591
     4  C   -0.000033   0.411071   0.415262  -0.044511  -0.046374   0.006450
     5  C    0.297829   0.000036   0.000477  -0.000440  -0.000357  -0.011708
     6  C   -0.000113  -0.043073  -0.052175  -0.005739   0.009515  -0.000596
     7  C    4.994333  -0.000001   0.000021   0.000028   0.000010   0.006151
     8  H   -0.000001   0.605284  -0.034914  -0.008117  -0.006398  -0.000499
     9  H    0.000021  -0.034914   0.613948   0.009142  -0.007687   0.001236
    10  H    0.000028  -0.008117   0.009142   0.602405  -0.034844   0.006690
    11  H    0.000010  -0.006398  -0.007687  -0.034844   0.598840  -0.017357
    12  H    0.006151  -0.000499   0.001236   0.006690  -0.017357   0.576658
    13  H   -0.003124  -0.000417  -0.000450  -0.018689   0.007185  -0.035028
    14  H    0.009453  -0.000226   0.000047   0.000771  -0.000658   0.007286
    15  H   -0.011390   0.000350  -0.003851  -0.000535   0.001173  -0.006618
    16  H   -0.042705  -0.000002   0.000019   0.000024   0.000035  -0.000233
    17  H   -0.046083   0.000008  -0.000044  -0.000053  -0.000012   0.000014
    18  H   -0.000099   0.005546   0.006988   0.000730   0.000524  -0.000265
    19  H   -0.000062   0.006531  -0.019606  -0.000373  -0.000546  -0.000076
    20  H    0.000006  -0.021234   0.006667   0.001531  -0.000565   0.000087
    21  H    0.406027   0.000003   0.000018   0.000001   0.000071  -0.000007
    22  H    0.401492   0.000000  -0.000011  -0.000025   0.000061  -0.006713
    23  H    0.405733  -0.000000   0.000002   0.000001  -0.000008   0.000375
              13         14         15         16         17         18
     1  C   -0.042312  -0.002445  -0.001407  -0.000444   0.000006  -0.000052
     2  C    0.408737  -0.040714  -0.051491   0.009974  -0.009338   0.001564
     3  C   -0.056083   0.436188   0.398387  -0.047559  -0.041127  -0.012886
     4  C    0.006164  -0.006461  -0.004096   0.000042  -0.000007  -0.061446
     5  C    0.002852  -0.041650  -0.018522   0.415609   0.410322   0.000769
     6  C    0.000122  -0.018387  -0.000567   0.000106   0.000119   0.415199
     7  C   -0.003124   0.009453  -0.011390  -0.042705  -0.046083  -0.000099
     8  H   -0.000417  -0.000226   0.000350  -0.000002   0.000008   0.005546
     9  H   -0.000450   0.000047  -0.003851   0.000019  -0.000044   0.006988
    10  H   -0.018689   0.000771  -0.000535   0.000024  -0.000053   0.000730
    11  H    0.007185  -0.000658   0.001173   0.000035  -0.000012   0.000524
    12  H   -0.035028   0.007286  -0.006618  -0.000233   0.000014  -0.000265
    13  H    0.590430  -0.006073   0.008397   0.000174   0.003801  -0.001190
    14  H   -0.006073   0.562647  -0.035921  -0.006953  -0.004832  -0.013355
    15  H    0.008397  -0.035921   0.571961  -0.004979   0.007894   0.001344
    16  H    0.000174  -0.006953  -0.004979   0.601945  -0.032647   0.000028
    17  H    0.003801  -0.004832   0.007894  -0.032647   0.593071   0.000173
    18  H   -0.001190  -0.013355   0.001344   0.000028   0.000173   0.619017
    19  H    0.000051  -0.010008  -0.000179   0.000075   0.000030  -0.040967
    20  H   -0.000015   0.003700  -0.000241  -0.000006  -0.000007  -0.035688
    21  H    0.000688   0.000459   0.003275   0.000543   0.008116  -0.000001
    22  H    0.000522  -0.000720   0.000395   0.007563  -0.013050   0.000004
    23  H   -0.000121  -0.000357   0.000144  -0.013411   0.001130   0.000002
              19         20         21         22         23
     1  C    0.006046   0.005727  -0.000258   0.000366   0.000024
     2  C    0.000689  -0.001396  -0.007081   0.001931   0.000257
     3  C   -0.007028   0.002515   0.007492  -0.004671   0.008446
     4  C   -0.049841  -0.040017  -0.000025  -0.000013   0.000003
     5  C    0.000913  -0.000052  -0.059652  -0.037504  -0.041570
     6  C    0.415826   0.398181   0.000012   0.000004   0.000003
     7  C   -0.000062   0.000006   0.406027   0.401492   0.405733
     8  H    0.006531  -0.021234   0.000003   0.000000  -0.000000
     9  H   -0.019606   0.006667   0.000018  -0.000011   0.000002
    10  H   -0.000373   0.001531   0.000001  -0.000025   0.000001
    11  H   -0.000546  -0.000565   0.000071   0.000061  -0.000008
    12  H   -0.000076   0.000087  -0.000007  -0.006713   0.000375
    13  H    0.000051  -0.000015   0.000688   0.000522  -0.000121
    14  H   -0.010008   0.003700   0.000459  -0.000720  -0.000357
    15  H   -0.000179  -0.000241   0.003275   0.000395   0.000144
    16  H    0.000075  -0.000006   0.000543   0.007563  -0.013411
    17  H    0.000030  -0.000007   0.008116  -0.013050   0.001130
    18  H   -0.040967  -0.035688  -0.000001   0.000004   0.000002
    19  H    0.617373  -0.029746  -0.000005   0.000002   0.000002
    20  H   -0.029746   0.600903   0.000000  -0.000000  -0.000000
    21  H   -0.000005   0.000000   0.592115  -0.042940  -0.029321
    22  H    0.000002  -0.000000  -0.042940   0.610816  -0.027671
    23  H    0.000002  -0.000000  -0.029321  -0.027671   0.590216
 Mulliken charges:
               1
     1  C   -0.267361
     2  C   -0.269029
     3  C   -0.297664
     4  C   -0.175222
     5  C   -0.232923
     6  C   -0.369763
     7  C   -0.359806
     8  H    0.116723
     9  H    0.114354
    10  H    0.121696
    11  H    0.121149
    12  H    0.142102
    13  H    0.134379
    14  H    0.168209
    15  H    0.146477
    16  H    0.112802
    17  H    0.122517
    18  H    0.114062
    19  H    0.110899
    20  H    0.109649
    21  H    0.120471
    22  H    0.110162
    23  H    0.106120
 Sum of Mulliken charges =  -0.00000
 Mulliken charges with hydrogens summed into heavy atoms:
               1
     1  C   -0.024517
     2  C    0.007452
     3  C    0.017021
     4  C    0.055855
     5  C    0.002395
     6  C   -0.035153
     7  C   -0.023053
 APT charges:
               1
     1  C   -0.937756
     2  C   -0.568068
     3  C   -0.465863
     4  C   -0.658706
     5  C   -0.720361
     6  C   -1.079253
     7  C   -1.214756
     8  H    0.535150
     9  H    0.222509
    10  H    0.398488
    11  H    0.395039
    12  H    0.357995
    13  H    0.341588
    14  H    0.347514
    15  H    0.305336
    16  H    0.417543
    17  H    0.330580
    18  H    0.158452
    19  H    0.227389
    20  H    0.551064
    21  H    0.200928
    22  H    0.268658
    23  H    0.586531
 Sum of APT charges =  -0.00000
 APT charges with hydrogens summed into heavy atoms:
               1
     1  C   -0.144229
     2  C    0.131515
     3  C    0.186987
     4  C    0.098953
     5  C    0.027761
     6  C   -0.142347
     7  C   -0.158640
 Electronic spatial extent (au):  <R**2>=           1148.0809
 Charge=             -0.0000 electrons
 Dipole moment (field-independent basis, Debye):
    X=              0.1691    Y=             -0.0380    Z=             -0.0080  Tot=              0.1735
 Quadrupole moment (field-independent basis, Debye-Ang):
   XX=            -49.8905   YY=            -49.4669   ZZ=            -48.6439
   XY=              0.3625   XZ=              0.1111   YZ=              0.1770
 Traceless Quadrupole moment (field-independent basis, Debye-Ang):
   XX=             -0.5567   YY=             -0.1331   ZZ=              0.6899
   XY=              0.3625   XZ=              0.1111   YZ=              0.1770
 Octapole moment (field-independent basis, Debye-Ang**2):
  XXX=              4.7733  YYY=              0.3511  ZZZ=              0.9508  XYY=             -0.9260
  XXY=             -1.3140  XXZ=              0.6560  XZZ=             -0.2328  YZZ=              0.3900
  YYZ=             -1.2766  XYZ=             -0.5711
 Hexadecapole moment (field-independent basis, Debye-Ang**3):
 XXXX=          -1174.7528 YYYY=           -313.8318 ZZZZ=           -138.9855 XXXY=             12.7109
 XXXZ=              0.5469 YYYX=              2.5180 YYYZ=              0.4062 ZZZX=              0.0935
 ZZZY=              0.7130 XXYY=           -252.6608 XXZZ=           -225.4301 YYZZ=            -75.8887
 XXYZ=              3.0441 YYXZ=             -0.4413 ZZXY=              0.3948
 N-N= 3.315225386871D+02 E-N=-1.301533059966D+03  KE= 2.745538582328D+02
  Exact polarizability:   0.000   0.000   0.000   0.000   0.000   0.000
 Approx polarizability:  99.025   0.962  97.180   0.145   0.877  98.423
 No NMR shielding tensors so no spin-rotation constants.
 Leave Link  601 at Fri Sep 27 12:38:18 2019, MaxMem=   671088640 cpu:              53.5 elap:              26.8
 (Enter /shared/centos7/gaussian/g16/l701.exe)
 SCFChk:  SCF convergence  8.04D-09 required  1.00D-08
 ... and contract with generalized density number  0.
 Compute integral second derivatives.
 Entering OneElI...
 Calculate overlap and kinetic energy integrals
    NBasis = 485  MinDer = 2  MaxDer = 2
 Requested accuracy = 0.1000D-12
 PrmmSu-InSpLW:  IPartL=    0 NPrtUS=   20 NPrtUL=    1 DoSpLW=F IThBeg=    0 IThEnd=   19 NThAct=   20.
 PrsmSu:  NPrtUS=  20 ThrOK=T IAlg=1 NPAlg=1 LenDen=           0 ISkipM=0 DoSpLW=F IThBeg=    0 IThEnd=   19.
 Prism:   IPart=     0 DynPar=F LinDyn=F Incr=           6.
 PRISM was handed    33200873 working-precision words and 13642 shell-pairs
 PRISM was handed    33200873 working-precision words and 13642 shell-pairs
 PRISM was handed    33200873 working-precision words and 13642 shell-pairs
 PRISM was handed    33200873 working-precision words and 13642 shell-pairs
 PRISM was handed    33200873 working-precision words and 13642 shell-pairs
 PRISM was handed    33200873 working-precision words and 13642 shell-pairs
 PRISM was handed    33200873 working-precision words and 13642 shell-pairs
 PRISM was handed    33200873 working-precision words and 13642 shell-pairs
 PRISM was handed    33200873 working-precision words and 13642 shell-pairs
 PRISM was handed    33200873 working-precision words and 13642 shell-pairs
 PRISM was handed    33200873 working-precision words and 13642 shell-pairs
 PRISM was handed    33200873 working-precision words and 13642 shell-pairs
 PRISM was handed    33200873 working-precision words and 13642 shell-pairs
 PRISM was handed    33200873 working-precision words and 13642 shell-pairs
 PRISM was handed    33200873 working-precision words and 13642 shell-pairs
 PRISM was handed    33200873 working-precision words and 13642 shell-pairs
 PRISM was handed    33200873 working-precision words and 13642 shell-pairs
 PRISM was handed    33200873 working-precision words and 13642 shell-pairs
 PRISM was handed    33200873 working-precision words and 13642 shell-pairs
 PRISM was handed    33200873 working-precision words and 13642 shell-pairs
 IPart=  1 NShTot=         715 NBatch=          79 AvBLen=         9.1
 IPart= 18 NShTot=         655 NBatch=          47 AvBLen=        13.9
 IPart=  0 NShTot=         717 NBatch=          80 AvBLen=         9.0
 IPart= 13 NShTot=         664 NBatch=          51 AvBLen=        13.0
 IPart=  9 NShTot=         679 NBatch=          58 AvBLen=        11.7
 IPart= 16 NShTot=         660 NBatch=          49 AvBLen=        13.5
 IPart=  2 NShTot=         713 NBatch=          78 AvBLen=         9.1
 IPart=  5 NShTot=         703 NBatch=          71 AvBLen=         9.9
 IPart= 14 NShTot=         664 NBatch=          51 AvBLen=        13.0
 IPart= 12 NShTot=         670 NBatch=          54 AvBLen=        12.4
 IPart=  8 NShTot=         682 NBatch=          59 AvBLen=        11.6
 IPart=  4 NShTot=         707 NBatch=          75 AvBLen=         9.4
 IPart= 15 NShTot=         662 NBatch=          51 AvBLen=        13.0
 IPart= 17 NShTot=         656 NBatch=          48 AvBLen=        13.7
 IPart=  7 NShTot=         686 NBatch=          61 AvBLen=        11.2
 IPart=  6 NShTot=         698 NBatch=          67 AvBLen=        10.4
 IPart= 19 NShTot=         654 NBatch=          47 AvBLen=        13.9
 IPart= 11 NShTot=         673 NBatch=          57 AvBLen=        11.8
 IPart=  3 NShTot=         709 NBatch=          76 AvBLen=         9.3
 IPart= 10 NShTot=         675 NBatch=          57 AvBLen=        11.8
 PrSmSu:  NxtVal=            121.
 Entering OneElI...
 Calculate potential energy integrals
    NBasis = 485  MinDer = 2  MaxDer = 2
 Requested accuracy = 0.1000D-12
 PrmmSu-InSpLW:  IPartL=    0 NPrtUS=   20 NPrtUL=    1 DoSpLW=F IThBeg=    0 IThEnd=   19 NThAct=   20.
 PrsmSu:  NPrtUS=  20 ThrOK=T IAlg=1 NPAlg=1 LenDen=           0 ISkipM=0 DoSpLW=F IThBeg=    0 IThEnd=   19.
 Prism:   IPart=     0 DynPar=F LinDyn=F Incr=         141.
 PRISM was handed    33262365 working-precision words and 12309 shell-pairs
 PRISM was handed    33262365 working-precision words and 12309 shell-pairs
 PRISM was handed    33262365 working-precision words and 12309 shell-pairs
 PRISM was handed    33262365 working-precision words and 12309 shell-pairs
 PRISM was handed    33262365 working-precision words and 12309 shell-pairs
 PRISM was handed    33262365 working-precision words and 12309 shell-pairs
 PRISM was handed    33262365 working-precision words and 12309 shell-pairs
 PRISM was handed    33262365 working-precision words and 12309 shell-pairs
 PRISM was handed    33262365 working-precision words and 12309 shell-pairs
 PRISM was handed    33262365 working-precision words and 12309 shell-pairs
 PRISM was handed    33262365 working-precision words and 12309 shell-pairs
 PRISM was handed    33262365 working-precision words and 12309 shell-pairs
 PRISM was handed    33262365 working-precision words and 12309 shell-pairs
 PRISM was handed    33262365 working-precision words and 12309 shell-pairs
 PRISM was handed    33262365 working-precision words and 12309 shell-pairs
 PRISM was handed    33262365 working-precision words and 12309 shell-pairs
 PRISM was handed    33262365 working-precision words and 12309 shell-pairs
 PRISM was handed    33262365 working-precision words and 12309 shell-pairs
 PRISM was handed    33262365 working-precision words and 12309 shell-pairs
 PRISM was handed    33262365 working-precision words and 12309 shell-pairs
 IPart=  8 NShTot=       14076 NBatch=         613 AvBLen=        23.0
 IPart= 16 NShTot=       13731 NBatch=         598 AvBLen=        23.0
 IPart=  9 NShTot=       14053 NBatch=         612 AvBLen=        23.0
 IPart=  0 NShTot=       14835 NBatch=         647 AvBLen=        22.9
 IPart= 18 NShTot=       13570 NBatch=         591 AvBLen=        23.0
 IPart= 13 NShTot=       13869 NBatch=         604 AvBLen=        23.0
 IPart=  5 NShTot=       14605 NBatch=         637 AvBLen=        22.9
 IPart= 10 NShTot=       13961 NBatch=         608 AvBLen=        23.0
 IPart= 17 NShTot=       13662 NBatch=         595 AvBLen=        23.0
 IPart= 11 NShTot=       13961 NBatch=         608 AvBLen=        23.0
 IPart= 12 NShTot=       13915 NBatch=         606 AvBLen=        23.0
 IPart= 19 NShTot=       13570 NBatch=         591 AvBLen=        23.0
 IPart=  6 NShTot=       14375 NBatch=         626 AvBLen=        23.0
 IPart=  7 NShTot=       14214 NBatch=         619 AvBLen=        23.0
 IPart= 14 NShTot=       13846 NBatch=         603 AvBLen=        23.0
 IPart=  1 NShTot=       14789 NBatch=         645 AvBLen=        22.9
 IPart=  2 NShTot=       14766 NBatch=         644 AvBLen=        22.9
 IPart= 15 NShTot=       13800 NBatch=         601 AvBLen=        23.0
 IPart=  4 NShTot=       14743 NBatch=         643 AvBLen=        22.9
 IPart=  3 NShTot=       14766 NBatch=         644 AvBLen=        22.9
 PrSmSu:  NxtVal=           2821.
 Polarizability after L701:
                1             2             3 
      1  0.000000D+00
      2  0.000000D+00  0.000000D+00
      3  0.000000D+00  0.000000D+00  0.000000D+00
 Dipole Derivatives after L701:
                 1             2             3             4             5 
      1  -0.679915D+00 -0.883461D+00 -0.509633D+00 -0.219907D+00  0.394478D+00
      2  -0.491322D+00 -0.138560D+01 -0.427074D-01  0.703927D+00 -0.632454D+00
      3  -0.333516D+00  0.941829D-01 -0.747753D+00  0.147362D+00  0.329246D-02
                 6             7             8             9            10 
      1   0.222222D-01 -0.456268D-01  0.201042D-01 -0.313763D+00 -0.123196D+01
      2  -0.123234D+00  0.330814D+00 -0.575885D+00  0.626650D-01 -0.231249D+00
      3  -0.851842D+00 -0.146257D+00  0.143969D+00 -0.776078D+00  0.403295D-01
                11            12            13            14            15 
      1  -0.595806D+00  0.130231D+01 -0.455283D+00 -0.127711D+01  0.820834D+00
      2   0.913507D-01 -0.360638D-01 -0.294895D+00 -0.887116D+00  0.868998D-02
      3  -0.344606D-01 -0.835510D+00  0.156883D+00 -0.115296D+00 -0.818684D+00
                16            17            18            19            20 
      1  -0.105884D+01  0.133337D+01 -0.768819D+00 -0.183802D+01  0.100202D+01
      2   0.636646D-01 -0.130474D+01  0.151637D+00 -0.153346D+00 -0.851157D+00
      3   0.894078D-02 -0.139307D+00 -0.874182D+00 -0.644925D-02 -0.598708D-02
                21            22            23            24            25 
      1  -0.559818D+00  0.122129D+01  0.358222D+00 -0.164972D+00 -0.131437D+00
      2  -0.978397D-01  0.181311D+00  0.224605D+00 -0.424288D-01  0.166854D-01
      3  -0.955093D+00 -0.238865D+00 -0.977453D-01  0.159551D+00  0.281926D+00
                26            27            28            29            30 
      1  -0.136024D+00 -0.495131D+00  0.420039D+00  0.173315D+00  0.545573D+00
      2   0.173083D+00  0.123290D-01  0.214124D+00  0.250661D+00  0.451918D+00
      3   0.137714D+00  0.625880D+00  0.152597D+00  0.101571D+00  0.524765D+00
                31            32            33            34            35 
      1   0.160842D+00  0.381656D+00 -0.259514D+00  0.360462D+00 -0.188314D+00
      2  -0.199908D-01  0.783590D+00 -0.439770D+00 -0.370860D+00  0.557735D+00
      3  -0.337158D-02 -0.169955D+00  0.240685D+00  0.604897D-02 -0.326352D-01
                36            37            38            39            40 
      1   0.111783D+00  0.161326D+00  0.560827D-02 -0.750398D-01  0.278818D+00
      2  -0.248241D+00 -0.979033D-03  0.152604D+00  0.288336D+00 -0.390009D+00
      3   0.155787D+00 -0.145599D-01  0.244358D-01  0.710834D+00  0.105573D+00
                41            42            43            44            45 
      1  -0.426441D-01  0.331192D-01  0.140652D+00  0.170110D-01  0.152323D+00
      2   0.537582D+00 -0.179616D+00 -0.173883D-01  0.161816D+00  0.154435D+00
      3  -0.103291D+00  0.226142D+00 -0.610324D-01  0.696915D-02  0.613540D+00
                46            47            48            49            50 
      1   0.381932D+00  0.735888D+00  0.285743D+00  0.217080D+00 -0.568265D-01
      2   0.172104D+00  0.734433D+00  0.242549D+00  0.128027D-01  0.121684D+00
      3   0.241481D-01  0.636473D-01  0.136264D+00 -0.530739D-01  0.309679D-01
                51            52            53            54            55 
      1  -0.730947D+00 -0.192238D+00 -0.865595D-01  0.434476D+00 -0.202270D+00
      2  -0.265853D+00  0.206837D+00  0.159487D+00 -0.274131D+00  0.367495D+00
      3   0.652975D+00 -0.262978D+00 -0.954213D-02  0.508108D+00  0.103872D+00
                56            57            58            59            60 
      1  -0.424448D+00 -0.293753D+00  0.131882D+01 -0.208318D+00  0.197791D+00
      2   0.628542D+00  0.383510D+00 -0.469387D+00  0.216250D+00 -0.108921D+00
      3   0.130273D+00  0.255897D+00  0.117887D+00 -0.467929D-01  0.118120D+00
                61            62            63            64            65 
      1  -0.160169D+00 -0.395886D+00  0.662950D+00  0.781769D-01 -0.867610D+00
      2   0.733380D-01  0.195770D+00 -0.175225D+00  0.608625D-02  0.473122D+00
      3  -0.188411D+00 -0.204372D+00  0.567182D+00  0.398389D-02  0.141521D+00
                66            67            68            69 
      1  -0.598020D+00  0.147621D+01  0.741336D+00  0.200291D+00
      2   0.270532D+00  0.902379D-01  0.174642D+00  0.742785D-02
      3   0.254674D+00  0.158963D+00  0.808410D-01  0.108736D+00
 Hessian after L701:
                1             2             3             4             5 
      1  0.154566D+02
      2  0.170982D+00  0.159734D+02
      3  0.469584D+00 -0.352330D+00  0.177562D+02
      4 -0.275900D+01  0.796462D+00 -0.725389D+00  0.150348D+02
      5  0.811535D+00 -0.606668D+01 -0.279722D+00 -0.637453D+00  0.169717D+02
      6 -0.693554D+00 -0.275571D+00 -0.590293D+01 -0.409400D-02 -0.290635D+00
      7  0.214238D+00  0.185786D+00  0.165293D-01 -0.558566D+01  0.139004D+01
      8  0.164043D+00  0.926968D-01  0.558436D-01  0.136857D+01 -0.310715D+01
      9 -0.519178D-02  0.416148D-01 -0.719236D-01  0.538398D+00  0.102399D+01
     10 -0.489324D+01 -0.167834D+01 -0.104338D+01  0.343293D+00 -0.935142D-01
     11 -0.164724D+01 -0.426916D+01  0.125803D+01 -0.122479D+00 -0.147532D-01
     12 -0.100660D+01  0.124863D+01 -0.542189D+01 -0.985604D-01  0.278364D-01
     13  0.168248D+00  0.169321D+00 -0.193220D-01  0.215866D+00  0.198708D+00
     14  0.163914D+00 -0.281588D-01 -0.104076D-01  0.233806D+00  0.117999D+00
     15 -0.532892D-02 -0.100319D-01 -0.137127D+00  0.138517D+00  0.110051D+00
     16 -0.801379D-01 -0.166847D+00  0.467402D-01  0.794918D-01 -0.213793D+00
     17 -0.216974D+00  0.352997D+00 -0.126765D+00 -0.187666D+00 -0.835527D-03
     18 -0.633566D-02 -0.459416D-01 -0.155766D+00 -0.733475D-01  0.606219D-01
     19  0.966748D-01  0.173779D-01  0.192151D-01  0.312108D+00  0.588081D-01
     20  0.533037D-01 -0.749930D-01  0.494751D-02  0.196888D+00 -0.188378D+00
     21  0.742733D-02  0.305456D-02 -0.735640D-01  0.830876D-01  0.774543D-02
     22  0.290785D-01  0.895212D-01  0.546414D-01  0.155992D+00 -0.130047D-01
     23  0.900258D-01  0.653316D-01 -0.341968D-01 -0.440029D-02 -0.510914D-01
     24  0.576298D-01 -0.367431D-01  0.359551D-01 -0.756025D-01  0.458995D-02
     25  0.975474D-01  0.499183D-01  0.777741D-01 -0.214617D-02  0.327647D-02
     26  0.445613D-02 -0.216265D-01 -0.892880D-01 -0.361764D-02  0.239994D-02
     27  0.171472D-01 -0.113085D+00  0.485181D-01  0.270745D-02 -0.334160D-02
     28 -0.381851D+01  0.375112D+00  0.101845D+01 -0.128098D+00 -0.108240D+00
     29  0.412815D+00 -0.409588D+01  0.723943D+00 -0.144115D+00  0.119899D+00
     30  0.994736D+00  0.637532D+00 -0.252213D+01 -0.406309D-01 -0.659898D-02
     31 -0.432414D+01  0.156493D+00 -0.777345D-01 -0.603652D-01 -0.108711D+00
     32  0.111165D+00 -0.240662D+01 -0.114452D+01 -0.130906D+00  0.127445D+00
     33 -0.504260D-01 -0.109751D+01 -0.364781D+01  0.772176D-01 -0.688145D-02
     34 -0.101100D+00 -0.410306D-01  0.635995D-01 -0.357613D+01 -0.112799D+01
     35 -0.152781D-01  0.142102D+00 -0.314256D-01 -0.126847D+01 -0.338350D+01
     36  0.773730D-01 -0.340183D-01  0.108219D+00  0.535269D+00 -0.556532D+00
     37 -0.933701D-01 -0.403917D-01  0.943668D-01 -0.445603D+01 -0.674979D-01
     38 -0.161074D-01  0.104440D+00  0.553603D-02 -0.815334D-01 -0.448868D+01
     39  0.989242D-01  0.252772D-01  0.151122D+00 -0.407673D+00  0.155595D+00
     40 -0.670210D-02 -0.910430D-03  0.645344D-02  0.139414D+00 -0.626157D-01
     41  0.329033D-01  0.179351D-01  0.912391D-04  0.876039D-02 -0.953072D-01
     42 -0.280260D-02 -0.380836D-02 -0.208751D-01  0.229569D-01 -0.739148D-01
     43 -0.470683D-02  0.249878D-01  0.141052D-03  0.153347D+00 -0.375833D-01
     44  0.292090D-01  0.939566D-02  0.102709D-01 -0.149587D-01 -0.347819D-01
     45  0.214640D-01  0.228847D-01 -0.133674D-01 -0.132386D-01 -0.185707D+00
     46  0.612832D-03  0.211502D-02 -0.126350D-02  0.447339D-01  0.117451D+00
     47  0.102593D-01 -0.962577D-03 -0.622954D-03  0.138952D+00  0.953437D-01
     48  0.221375D-02  0.179175D-02 -0.633406D-02  0.319150D-01  0.329775D-01
     49  0.987258D-02  0.115393D-01 -0.112690D-01 -0.876415D-03 -0.129663D-01
     50  0.117051D-01 -0.480713D-02 -0.566419D-02 -0.408221D-02 -0.123412D-01
[...]
   A21        1.91756  -0.00000  -0.00002   0.00022   0.00020   1.91776
   A22        1.90907  -0.00005   0.00007  -0.00021  -0.00013   1.90893
   A23        1.91207  -0.00002  -0.00001  -0.00003  -0.00004   1.91204
   A24        1.85005   0.00002   0.00001   0.00006   0.00006   1.85011
   A25        1.98571  -0.00002  -0.00007   0.00015   0.00009   1.98579
   A26        1.89961   0.00002   0.00007   0.00005   0.00012   1.89973
   A27        1.90307  -0.00001  -0.00005  -0.00006  -0.00011   1.90296
   A28        1.90359   0.00000   0.00007   0.00000   0.00007   1.90367
   A29        1.91172   0.00001  -0.00003  -0.00008  -0.00012   1.91161
   A30        1.85564  -0.00001   0.00001  -0.00008  -0.00006   1.85557
   A31        1.94571   0.00003  -0.00002   0.00004   0.00002   1.94573
   A32        1.94242   0.00001   0.00006  -0.00004   0.00002   1.94244
   A33        1.93388  -0.00000   0.00002  -0.00002  -0.00001   1.93387
   A34        1.87773  -0.00002  -0.00002   0.00003   0.00001   1.87775
   A35        1.87740  -0.00001  -0.00005   0.00015   0.00009   1.87749
   A36        1.88387  -0.00001   0.00002  -0.00015  -0.00014   1.88373
   A37        1.93154   0.00002   0.00002   0.00010   0.00012   1.93166
   A38        1.95047  -0.00001  -0.00005  -0.00008  -0.00013   1.95033
   A39        1.94019  -0.00000   0.00003  -0.00008  -0.00005   1.94015
   A40        1.88064  -0.00001  -0.00002   0.00000  -0.00002   1.88062
   A41        1.88209  -0.00000   0.00001   0.00002   0.00004   1.88213
   A42        1.87606   0.00001   0.00001   0.00004   0.00005   1.87611
    D1       -1.00154  -0.00005  -0.00093   0.00002  -0.00091  -1.00245
    D2       -3.13116  -0.00004  -0.00092  -0.00007  -0.00098  -3.13215
    D3        1.13662   0.00000  -0.00087   0.00010  -0.00077   1.13585
    D4       -3.13058  -0.00005  -0.00076  -0.00014  -0.00091  -3.13148
    D5        1.02299  -0.00005  -0.00075  -0.00023  -0.00098   1.02201
    D6       -0.99241  -0.00000  -0.00071  -0.00006  -0.00077  -0.99318
    D7        1.13513  -0.00000  -0.00076   0.00012  -0.00064   1.13449
    D8       -0.99449   0.00000  -0.00076   0.00004  -0.00072  -0.99521
    D9       -3.00990   0.00005  -0.00071   0.00021  -0.00050  -3.01040
   D10       -0.97065  -0.00004   0.00011  -0.00025  -0.00014  -0.97079
   D11       -3.09405  -0.00001   0.00004   0.00007   0.00011  -3.09395
   D12        1.17353   0.00000  -0.00000   0.00003   0.00003   1.17356
   D13        1.15868  -0.00001  -0.00004  -0.00010  -0.00014   1.15854
   D14       -0.96472   0.00002  -0.00012   0.00022   0.00011  -0.96461
   D15       -2.98032   0.00003  -0.00015   0.00018   0.00003  -2.98029
   D16       -3.10670  -0.00005  -0.00003  -0.00030  -0.00033  -3.10703
   D17        1.05308  -0.00002  -0.00010   0.00002  -0.00008   1.05300
   D18       -0.96252  -0.00001  -0.00014  -0.00002  -0.00016  -0.96268
   D19       -3.12102   0.00001  -0.00148   0.00003  -0.00145  -3.12248
   D20        1.03856   0.00001  -0.00150  -0.00009  -0.00159   1.03698
   D21       -0.98434  -0.00001  -0.00160   0.00009  -0.00151  -0.98585
   D22       -1.00482   0.00002  -0.00138  -0.00003  -0.00141  -1.00623
   D23       -3.12842   0.00002  -0.00139  -0.00015  -0.00154  -3.12996
   D24        1.13185  -0.00000  -0.00149   0.00004  -0.00146   1.13040
   D25        1.01535  -0.00001  -0.00146   0.00000  -0.00146   1.01390
   D26       -1.10824  -0.00001  -0.00147  -0.00012  -0.00159  -1.10984
   D27       -3.13115  -0.00003  -0.00158   0.00007  -0.00151  -3.13266
   D28        1.11612  -0.00001  -0.00041  -0.00011  -0.00052   1.11559
   D29       -3.04064  -0.00000  -0.00031   0.00003  -0.00028  -3.04093
   D30       -1.02333  -0.00000  -0.00028  -0.00007  -0.00035  -1.02368
   D31       -3.03671   0.00001  -0.00035   0.00000  -0.00035  -3.03706
   D32       -0.91029   0.00002  -0.00025   0.00015  -0.00011  -0.91040
   D33        1.10702   0.00002  -0.00023   0.00005  -0.00018   1.10685
   D34       -1.01858  -0.00001  -0.00033  -0.00018  -0.00051  -1.01909
   D35        1.10784  -0.00000  -0.00023  -0.00003  -0.00027   1.10757
   D36        3.12515  -0.00000  -0.00020  -0.00013  -0.00033   3.12482
   D37        1.15023   0.00003  -0.00008   0.00033   0.00025   1.15048
   D38       -3.03642   0.00003  -0.00007   0.00037   0.00029  -3.03613
   D39       -0.94010   0.00002  -0.00001   0.00013   0.00013  -0.93998
   D40       -3.01785   0.00000  -0.00001  -0.00002  -0.00002  -3.01787
   D41       -0.92132   0.00001   0.00000   0.00002   0.00002  -0.92130
   D42        1.17500  -0.00001   0.00007  -0.00021  -0.00015   1.17485
   D43       -0.99699  -0.00002   0.00004  -0.00008  -0.00004  -0.99703
   D44        1.09954  -0.00001   0.00005  -0.00005   0.00000   1.09954
   D45       -3.08732  -0.00003   0.00011  -0.00028  -0.00017  -3.08749
   D46        0.95085   0.00001   0.00115   0.00005   0.00120   0.95205
   D47       -1.14517   0.00002   0.00120   0.00003   0.00124  -1.14393
   D48        3.04190   0.00002   0.00120   0.00009   0.00130   3.04319
   D49       -1.17337  -0.00001   0.00105  -0.00012   0.00094  -1.17243
   D50        3.01380   0.00000   0.00110  -0.00013   0.00097   3.01477
   D51        0.91768  -0.00000   0.00110  -0.00008   0.00103   0.91871
   D52        3.08553  -0.00000   0.00101   0.00002   0.00103   3.08657
   D53        0.98952   0.00000   0.00106   0.00000   0.00107   0.99058
   D54       -1.10660   0.00000   0.00106   0.00006   0.00113  -1.10548
         Item               Value     Threshold  Converged?
 Maximum Force            0.000265     0.000015     NO 
 RMS     Force            0.000044     0.000010     NO 
 Maximum Displacement     0.005107     0.000060     NO 
 RMS     Displacement     0.001492     0.000040     NO 
 Predicted change in Energy=-3.616898D-07
 Lowest energy point so far.  Saving SCF results.
 GradGradGradGradGradGradGradGradGradGradGradGradGradGradGradGradGradGrad

 Leave Link  103 at Sat Sep 28 09:46:37 2019, MaxMem=   671088640 cpu:             258.3 elap:             131.1
 (Enter /shared/centos7/gaussian/g16/l202.exe)
                          Input orientation:                          
 ---------------------------------------------------------------------
 Center     Atomic      Atomic             Coordinates (Angstroms)
 Number     Number       Type             X           Y           Z
 ---------------------------------------------------------------------
      1          6           0        1.618291   -0.813829    0.456631
      2          6           0        0.207382   -0.285204    0.717447
      3          6           0        0.090335    1.230757    0.599703
      4          6           0        2.199761   -0.446076   -0.909042
      5          6           0       -1.311838    1.765811    0.885457
      6          6           0        1.318059   -0.879142   -2.074728
      7          6           0       -1.781653    1.526078    2.316396
      8          1           0        3.181876   -0.912845   -1.004933
      9          1           0        2.371918    0.631042   -0.961501
     10          1           0        1.608016   -1.903060    0.551257
     11          1           0        2.285611   -0.441534    1.238517
     12          1           0       -0.095579   -0.599547    1.717844
     13          1           0       -0.499706   -0.752537    0.025436
     14          1           0        0.383211    1.539104   -0.406664
     15          1           0        0.804218    1.700175    1.285427
     16          1           0       -1.329089    2.837715    0.679188
     17          1           0       -2.017644    1.307204    0.187328
     18          1           0        0.371426   -0.337393   -2.082321
     19          1           0        1.808648   -0.698042   -3.030459
     20          1           0        1.087665   -1.944463   -2.011735
     21          1           0       -1.061151    1.928313    3.031151
     22          1           0       -1.903040    0.464458    2.528863
     23          1           0       -2.740683    2.008918    2.501633
 ---------------------------------------------------------------------
                    Distance matrix (angstroms):
                    1          2          3          4          5
     1  C    0.000000
     2  C    1.529096   0.000000
     3  C    2.556454   1.525025   0.000000
     4  C    1.529186   2.576998   3.088326   0.000000
     5  C    3.927352   2.557913   1.527753   4.521504   0.000000
     6  C    2.549938   3.063104   3.620990   1.524392   4.761810
     7  C    4.526976   3.129479   2.557066   5.490400   1.525052
     8  H    2.142609   3.494015   4.089928   1.091613   5.562575
     9  H    2.160256   2.888527   2.828893   1.092051   4.274226
    10  H    1.093381   2.146358   3.482314   2.146028   4.700835
    11  H    1.093282   2.148252   2.832645   2.149279   4.235406
    12  H    2.138674   1.091508   2.152862   3.491799   2.786946
    13  H    2.162313   1.094191   2.147414   2.873027   2.782314
    14  H    2.794101   2.150033   1.092533   2.737367   2.143400
    15  H    2.769447   2.149545   1.095536   3.371888   2.154526
    16  H    4.697910   3.480637   2.145553   5.075287   1.091707
    17  H    4.217978   2.787030   2.149296   4.697076   1.093557
    18  H    2.868439   2.805055   3.119513   2.175133   4.008061
    19  H    3.494201   4.096497   4.455440   2.171835   5.580538
    20  H    2.766356   3.313076   4.230402   2.167453   5.283698
    21  H    4.618107   3.444134   2.779288   5.638828   2.166392
    22  H    4.281114   2.880470   2.877919   5.429663   2.178032
    23  H    5.581272   4.139735   3.498219   6.485961   2.170881
                    6          7          8          9         10
     6  C    0.000000
     7  C    5.888571   0.000000
     8  H    2.149282   6.451061   0.000000
     9  H    2.151872   5.366362   1.743992   0.000000
    10  H    2.833422   5.134643   2.424725   3.048550   0.000000
    11  H    3.479261   4.644993   2.461401   2.449070   1.751434
    12  H    4.057111   2.778379   4.272398   3.844707   2.441783
    13  H    2.780465   3.476201   3.826409   3.336849   2.458187
    14  H    3.082904   3.478773   3.768622   2.255521   3.777069
    15  H    4.267031   2.789254   4.210330   2.940988   3.764094
    16  H    5.329773   2.146079   6.103423   4.610718   5.578342
    17  H    4.585185   2.153260   5.777985   4.587511   4.856300
    18  H    1.090717   5.239941   3.064399   2.489191   3.303967
    19  H    1.089448   6.813650   2.456552   2.522762   3.784311
    20  H    1.091768   6.245827   2.542362   3.063580   2.615608
    21  H    6.293842   1.091692   6.508873   5.423111   5.287130
    22  H    5.777006   1.089456   6.343584   5.521382   4.673712
    23  H    6.764419   1.089580   7.477260   6.326968   6.165932
                   11         12         13         14         15
    11  H    0.000000
    12  H    2.434089   0.000000
    13  H    3.053896   1.746702   0.000000
    14  H    3.201355   3.052310   2.493566   0.000000
    15  H    2.604543   2.507058   3.050179   1.751104   0.000000
    16  H    4.912472   3.796725   3.742349   2.407787   2.492494
    17  H    4.762467   3.110066   2.563763   2.484091   3.053385
    18  H    3.834438   3.837717   2.318157   2.515791   3.959889
    19  H    4.303190   5.116851   3.830139   3.731085   5.038571
    20  H    3.775977   4.137465   2.844380   3.899711   4.922906
    21  H    4.475548   3.007853   4.066509   3.749164   2.564995
    22  H    4.475557   2.248727   3.117302   3.872870   3.225272
    23  H    5.732696   3.796708   4.333493   4.293906   3.760426
                   16         17         18         19         20
    16  H    0.000000
    17  H    1.748856   0.000000
    18  H    4.538612   3.682888   0.000000
    19  H    6.009032   5.386620   1.759159   0.000000
    20  H    5.995915   5.005214   1.760868   1.763854   0.000000
    21  H    2.535849   3.063982   5.773499   7.202541   6.711669
    22  H    3.063179   2.491214   5.203766   6.784844   5.946785
    23  H    2.449655   2.524123   6.016896   7.656898   7.117300
                   21         22         23
    21  H    0.000000
    22  H    1.761800   0.000000
    23  H    1.762871   1.757197   0.000000
 Stoichiometry    C7H16
 Framework group  C1[X(C7H16)]
 Deg. of freedom    63
 Full point group                 C1      NOp   1
 RotChk:  IX=2 Diff= 8.75D-04
 Largest Abelian subgroup         C1      NOp   1
 Largest concise Abelian subgroup C1      NOp   1
                         Standard orientation:                         
 ---------------------------------------------------------------------
 Center     Atomic      Atomic             Coordinates (Angstroms)
 Number     Number       Type             X           Y           Z
 ---------------------------------------------------------------------
      1          6           0        1.274404    1.160149   -0.003920
      2          6           0       -0.049942    0.564332    0.474874
      3          6           0       -0.779574   -0.243065   -0.593513
      4          6           0        2.284255    0.140139   -0.531358
      5          6           0       -2.116035   -0.818169   -0.127513
      6          6           0        2.605764   -0.962043    0.471436
      7          6           0       -3.152848    0.243284    0.224792
      8          1           0        3.202627    0.666911   -0.797294
      9          1           0        1.913549   -0.304867   -1.457167
     10          1           0        1.731314    1.709992    0.823357
     11          1           0        1.069131    1.894343   -0.787558
     12          1           0       -0.688220    1.381183    0.816554
     13          1           0        0.121681   -0.072249    1.348123
     14          1           0       -0.141473   -1.066164   -0.923606
     15          1           0       -0.944055    0.390320   -1.472131
     16          1           0       -2.516633   -1.461066   -0.913660
     17          1           0       -1.944126   -1.462964    0.738831
     18          1           0        1.735860   -1.590272    0.667034
     19          1           0        3.403298   -1.608426    0.106710
     20          1           0        2.926722   -0.537415    1.424660
     21          1           0       -3.298131    0.932118   -0.609588
     22          1           0       -2.851034    0.830350    1.091496
     23          1           0       -4.116651   -0.209557    0.455455
 ---------------------------------------------------------------------
 Rotational constants (GHZ):           5.5199152           1.0928980           1.0193820
 Leave Link  202 at Sat Sep 28 09:46:39 2019, MaxMem=   671088640 cpu:               2.7 elap:               1.4
 (Enter /shared/centos7/gaussian/g16/l301.exe)
 Standard basis: CC-pVTZ (5D, 7F)
 Ernie: Thresh=  0.10000D-02 Tol=  0.10000D-05 Strict=F.
 Ernie:  21 primitive shells out of 310 were deleted.
 There are   485 symmetry adapted cartesian basis functions of A   symmetry.
 There are   434 symmetry adapted basis functions of A   symmetry.
   434 basis functions,   636 primitive gaussians,   485 cartesian basis functions
    29 alpha electrons       29 beta electrons
       nuclear repulsion energy       322.8179894417 Hartrees.
 IExCor= 4336 DFT=T Ex+Corr=M062X ExCW=0 ScaHFX=  0.540000
 ScaDFX=  1.000000  1.000000  1.000000  1.000000 ScalE2=  1.000000  1.000000
 IRadAn=      5 IRanWt=     -1 IRanGd=            0 ICorTp=0 IEmpDi=  4
 NAtoms=   23 NActive=   23 NUniq=   23 SFac= 1.00D+00 NAtFMM=   60 NAOKFM=F Big=F
 Integral buffers will be    131072 words long.
 Raffenetti 2 integral format.
 Two-electron integral symmetry is turned on.
 Leave Link  301 at Sat Sep 28 09:46:40 2019, MaxMem=   671088640 cpu:               1.8 elap:               0.9
 (Enter /shared/centos7/gaussian/g16/l302.exe)
 NPDir=0 NMtPBC=     1 NCelOv=     1 NCel=       1 NClECP=     1 NCelD=      1
         NCelK=      1 NCelE2=     1 NClLst=     1 CellRange=     0.0.
 One-electron integrals computed using PRISM.
 One-electron integral symmetry used in STVInt
 NBasis=   434 RedAO= T EigKep=  3.09D-04  NBF=   434
 NBsUse=   434 1.00D-06 EigRej= -1.00D+00 NBFU=   434
 Precomputing XC quadrature grid using
 IXCGrd= 4 IRadAn=           5 IRanWt=          -1 IRanGd=           0 AccXCQ= 0.00D+00.
 Generated NRdTot=       0 NPtTot=           0 NUsed=           0 NTot=          32
 NSgBfM=   485   485   485   485   485 MxSgAt=    23 MxSgA2=    23.
 Leave Link  302 at Sat Sep 28 09:48:18 2019, MaxMem=   671088640 cpu:             196.3 elap:              98.2
 (Enter /shared/centos7/gaussian/g16/l303.exe)
 DipDrv:  MaxL=1.
 Leave Link  303 at Sat Sep 28 09:48:22 2019, MaxMem=   671088640 cpu:               8.4 elap:               4.2
 (Enter /shared/centos7/gaussian/g16/l401.exe)
 Initial guess from the checkpoint file:  "/scratch/harms.n/gauss_scrdir/Gau-23167.chk"
 B after Tr=     0.000000    0.000000   -0.000000
         Rot=    1.000000   -0.000268   -0.000013    0.000006 Ang=  -0.03 deg.
 Guess basis will be translated and rotated to current coordinates.
 JPrj=2 DoOrth=T DoCkMO=T.
 Leave Link  401 at Sat Sep 28 09:48:51 2019, MaxMem=   671088640 cpu:              57.1 elap:              28.6
 (Enter /shared/centos7/gaussian/g16/l502.exe)
 Integral symmetry usage will be decided dynamically.
 Closed shell SCF:
 Using DIIS extrapolation, IDIIS=  1040.
 NGot=   671088640 LenX=   670604095 LenY=   670368385
 Requested convergence on RMS density matrix=1.00D-08 within 900 cycles.
 Requested convergence on MAX density matrix=1.00D-06.
 Requested convergence on             energy=1.00D-06.
 No special actions if energy rises.
 Fock matrices will be formed incrementally for  20 cycles.

 Cycle   1  Pass 1  IDiag  1:
 FoFJK:  IHMeth= 1 ICntrl=       0 DoSepK=F KAlg= 0 I1Cent=           0 FoldK=F
 IRaf= 930000000 NMat=       1 IRICut=       1 DoRegI=T DoRafI=F ISym2E= 0 IDoP0=0 IntGTp=1.
 FoFCou: FMM=F IPFlag=           0 FMFlag=      100000 FMFlg1=           0
         NFxFlg=           0 DoJE=F BraDBF=F KetDBF=F FulRan=T
         wScrn=  0.000000 ICntrl=         0 IOpCl=  0 I1Cent=           0 NGrid=           0
         NMat0=    1 NMatS0=      1 NMatT0=    0 NMatD0=    1 NMtDS0=    0 NMtDT0=    0
 Symmetry not used in FoFCou.
 E= -276.339121196271    
 DIIS: error= 5.43D-05 at cycle   1 NSaved=   1.
 NSaved= 1 IEnMin= 1 EnMin= -276.339121196271     IErMin= 1 ErrMin= 5.43D-05
 ErrMax= 5.43D-05  0.00D+00 EMaxC= 1.00D-01 BMatC= 1.78D-06 BMatP= 1.78D-06
 IDIUse=1 WtCom= 1.00D+00 WtEn= 0.00D+00
 Coeff-Com:  0.100D+01
 Coeff:      0.100D+01
 Gap=     0.813 Goal=   None    Shift=    0.000
 RMSDP=2.40D-06 MaxDP=1.02D-04              OVMax= 3.18D-04

 Cycle   2  Pass 1  IDiag  1:
 RMSU=  2.40D-06    CP:  1.00D+00
 E= -276.339123341008     Delta-E=       -0.000002144737 Rises=F Damp=F
 DIIS: error= 7.59D-06 at cycle   2 NSaved=   2.
 NSaved= 2 IEnMin= 2 EnMin= -276.339123341008     IErMin= 2 ErrMin= 7.59D-06
 ErrMax= 7.59D-06  0.00D+00 EMaxC= 1.00D-01 BMatC= 3.68D-08 BMatP= 1.78D-06
 IDIUse=1 WtCom= 1.00D+00 WtEn= 0.00D+00
 Coeff-Com: -0.121D+00 0.112D+01
 Coeff:     -0.121D+00 0.112D+01
 Gap=     0.425 Goal=   None    Shift=    0.000
 RMSDP=6.05D-07 MaxDP=2.63D-05 DE=-2.14D-06 OVMax= 7.64D-05

 Cycle   3  Pass 1  IDiag  1:
 RMSU=  3.46D-07    CP:  1.00D+00  1.21D+00
 E= -276.339123425842     Delta-E=       -0.000000084834 Rises=F Damp=F
 DIIS: error= 1.45D-06 at cycle   3 NSaved=   3.
 NSaved= 3 IEnMin= 3 EnMin= -276.339123425842     IErMin= 3 ErrMin= 1.45D-06
 ErrMax= 1.45D-06  0.00D+00 EMaxC= 1.00D-01 BMatC= 1.25D-09 BMatP= 3.68D-08
 IDIUse=1 WtCom= 1.00D+00 WtEn= 0.00D+00
 Coeff-Com: -0.713D-02-0.182D-01 0.103D+01
 Coeff:     -0.713D-02-0.182D-01 0.103D+01
 Gap=     0.425 Goal=   None    Shift=    0.000
 RMSDP=1.41D-07 MaxDP=5.47D-06 DE=-8.48D-08 OVMax= 1.23D-05

 Cycle   4  Pass 1  IDiag  1:
 RMSU=  9.93D-08    CP:  1.00D+00  1.24D+00  1.19D+00
