 Entering Gaussian System, Link 0=g16
 Input=loose/species/CCCCCCC/conformers/CCCCCCC_343.com
 Output=loose/species/CCCCCCC/conformers/CCCCCCC_343.log
 Initial command:
 /shared/centos7/gaussian/g16/l1.exe "/scratch/harms.n/gauss_scrdir/Gau-40401.inp" -scrdir="/scratch/harms.n/gauss_scrdir/"
 Entering Link 1 = /shared/centos7/gaussian/g16/l1.exe PID=     40402.
  
 Copyright (c) 1988,1990,1992,1993,1995,1998,2003,2009,2016,
            Gaussian, Inc.  All Rights Reserved.
  
 This is part of the Gaussian(R) 16 program.  It is based on
 the Gaussian(R) 09 system (copyright 2009, Gaussian, Inc.),
 the Gaussian(R) 03 system (copyright 2003, Gaussian, Inc.),
 the Gaussian(R) 98 system (copyright 1998, Gaussian, Inc.),
 the Gaussian(R) 94 system (copyright 1995, Gaussian, Inc.),
 the Gaussian 92(TM) system (copyright 1992, Gaussian, Inc.),
 the Gaussian 90(TM) system (copyright 1990, Gaussian, Inc.),
 the Gaussian 88(TM) system (copyright 1988, Gaussian, Inc.),
 the Gaussian 86(TM) system (copyright 1986, Carnegie Mellon
 University), and the Gaussian 82(TM) system (copyright 1983,
 Carnegie Mellon University). Gaussian is a federally registered
 trademark of Gaussian, Inc.
  
 This software contains proprietary and confidential information,
 including trade secrets, belonging to Gaussian, Inc.
  
 This software is provided under written license and may be
 used, copied, transmitted, or stored only in accord with that
 written license.
  
 The following legend is applicable only to US Government
 contracts under FAR:
  
                    RESTRICTED RIGHTS LEGEND
  
 Use, reproduction and disclosure by the US Government is
 subject to restrictions as set forth in subparagraphs (a)
 and (c) of the Commercial Computer Software - Restricted
 Rights clause in FAR 52.227-19.
  
 Gaussian, Inc.
 340 Quinnipiac St., Bldg. 40, Wallingford CT 06492
  
  
 ---------------------------------------------------------------
 Warning -- This program may not be used in any manner that
 competes with the business of Gaussian, Inc. or will provide
 assistance to any competitor of Gaussian, Inc.  The licensee
 of this program is prohibited from giving any competitor of
 Gaussian, Inc. access to this program.  By using this program,
 the user acknowledges that Gaussian, Inc. is engaged in the
 business of creating and licensing software in the field of
 computational chemistry and represents and warrants to the
 licensee that it is not a competitor of Gaussian, Inc. and that
 it will not use this program in any manner prohibited above.
 ---------------------------------------------------------------
  

 Cite this work as:
 Gaussian 16, Revision A.03,
 M. J. Frisch, G. W. Trucks, H. B. Schlegel, G. E. Scuseria, 
 M. A. Robb, J. R. Cheeseman, G. Scalmani, V. Barone, 
 G. A. Petersson, H. Nakatsuji, X. Li, M. Caricato, A. V. Marenich, 
 J. Bloino, B. G. Janesko, R. Gomperts, B. Mennucci, H. P. Hratchian, 
 J. V. Ortiz, A. F. Izmaylov, J. L. Sonnenberg, D. Williams-Young, 
 F. Ding, F. Lipparini, F. Egidi, J. Goings, B. Peng, A. Petrone, 
 T. Henderson, D. Ranasinghe, V. G. Zakrzewski, J. Gao, N. Rega, 
 G. Zheng, W. Liang, M. Hada, M. Ehara, K. Toyota, R. Fukuda, 
 J. Hasegawa, M. Ishida, T. Nakajima, Y. Honda, O. Kitao, H. Nakai, 
 T. Vreven, K. Throssell, J. A. Montgomery, Jr., J. E. Peralta, 
 F. Ogliaro, M. J. Bearpark, J. J. Heyd, E. N. Brothers, K. N. Kudin, 
 V. N. Staroverov, T. A. Keith, R. Kobayashi, J. Normand, 
 K. Raghavachari, A. P. Rendell, J. C. Burant, S. S. Iyengar, 
 J. Tomasi, M. Cossi, J. M. Millam, M. Klene, C. Adamo, R. Cammi, 
 J. W. Ochterski, R. L. Martin, K. Morokuma, O. Farkas, 
 J. B. Foresman, and D. J. Fox, Gaussian, Inc., Wallingford CT, 2016.
 
 ******************************************
 Gaussian 16:  EM64L-G16RevA.03 25-Dec-2016
                27-Sep-2019 
 ******************************************
 %nprocshared=20
 Will use up to   20 processors via shared memory.
 %mem=5GB
 ----------------------------------------------------------------------
 #p m062x/cc-pVTZ opt=(calcfc,maxcycles=900,Tight) freq IOP(7/33=1,2/16
 =3) scf=(maxcycle=900)
 ----------------------------------------------------------------------
 1/6=900,7=10,10=4,18=20,19=15,26=3,38=1/1,3;
 2/9=110,12=2,16=3,17=6,18=5,40=1/2;
 3/5=16,6=1,11=2,25=1,30=1,71=2,74=-55,140=1/1,2,3;
 4//1;
 5/5=2,7=900,38=5/2;
 8/6=4,10=90,11=11/1;
 11/6=1,8=1,9=11,15=111,16=1/1,2,10;
 10/6=1,13=1/2;
 6/7=2,8=2,9=2,10=2,28=1/1;
 7/10=1,18=20,25=1,33=1/1,2,3,16;
 1/6=900,7=10,10=4,18=20,19=15,26=3/3(2);
 2/9=110,16=3/2;
 99//99;
 2/9=110,16=3/2;
 3/5=16,6=1,11=2,25=1,30=1,71=1,74=-55/1,2,3;
 4/5=5,16=3,69=1/1;
 5/5=2,7=900,38=5/2;
 7/33=1/1,2,3,16;
 1/6=900,7=10,18=20,19=15,26=3/3(-5);
 2/9=110,16=3/2;
 6/7=2,8=2,9=2,10=2,19=2,28=1/1;
 99/9=1/99;
 Leave Link    1 at Fri Sep 27 08:07:07 2019, MaxMem=   671088640 cpu:               4.1 elap:               2.1
 (Enter /shared/centos7/gaussian/g16/l101.exe)
 ------------------------------
 Gaussian input prepared by ASE
 ------------------------------
 Symbolic Z-matrix:
 Charge =  0 Multiplicity = 1
 C                     1.37602  -1.14139   0.50544 
 C                     0.14823  -0.4222    0.94958 
 C                    -0.60483  -1.17973   2.01448 
 C                     2.14215  -0.48728  -0.59466 
 C                     0.04668  -2.49912   2.35575 
 C                     3.37149  -1.17428  -1.02632 
 C                    -0.67026  -3.28996   3.419 
 H                     2.39799   0.5622   -0.27487 
 H                     1.45604  -0.3795   -1.46838 
 H                     1.09705  -2.17005   0.19303 
 H                     2.0154   -1.27834   1.4016 
 H                    -0.51386  -0.21466   0.09445 
 H                     0.43201   0.57433   1.34914 
 H                    -1.64429  -1.36323   1.6936 
 H                    -0.68285  -0.55224   2.92624 
 H                     0.11949  -3.11415   1.42089 
 H                     1.08391  -2.30314   2.67666 
 H                     3.60223  -2.08924  -0.44884 
 H                     3.3057   -1.48342  -2.11151 
 H                     4.25913  -0.51298  -0.93535 
 H                    -1.74839  -3.13992   3.3504 
 H                    -0.33818  -2.94376   4.43671 
 H                    -0.43913  -4.3878    3.30413 
 
 ITRead=  0  0  0  0  0  0  0  0  0  0  0  0  0  0  0  0  0  0  0  0
 ITRead=  0  0  0
 MicOpt= -1 -1 -1 -1 -1 -1 -1 -1 -1 -1 -1 -1 -1 -1 -1 -1 -1 -1 -1 -1
 MicOpt= -1 -1 -1
 NAtoms=     23 NQM=       23 NQMF=       0 NMMI=      0 NMMIF=      0
                NMic=       0 NMicF=      0.
                    Isotopes and Nuclear Properties:
 (Nuclear quadrupole moments (NQMom) in fm**2, nuclear magnetic moments (NMagM)
  in nuclear magnetons)

  Atom         1           2           3           4           5           6           7           8           9          10
 IAtWgt=          12          12          12          12          12          12          12           1           1           1
 AtmWgt=  12.0000000  12.0000000  12.0000000  12.0000000  12.0000000  12.0000000  12.0000000   1.0078250   1.0078250   1.0078250
 NucSpn=           0           0           0           0           0           0           0           1           1           1
 AtZEff=  -0.0000000  -0.0000000  -0.0000000  -0.0000000  -0.0000000  -0.0000000  -0.0000000  -0.0000000  -0.0000000  -0.0000000
 NQMom=    0.0000000   0.0000000   0.0000000   0.0000000   0.0000000   0.0000000   0.0000000   0.0000000   0.0000000   0.0000000
 NMagM=    0.0000000   0.0000000   0.0000000   0.0000000   0.0000000   0.0000000   0.0000000   2.7928460   2.7928460   2.7928460
 AtZNuc=   6.0000000   6.0000000   6.0000000   6.0000000   6.0000000   6.0000000   6.0000000   1.0000000   1.0000000   1.0000000

  Atom        11          12          13          14          15          16          17          18          19          20
 IAtWgt=           1           1           1           1           1           1           1           1           1           1
 AtmWgt=   1.0078250   1.0078250   1.0078250   1.0078250   1.0078250   1.0078250   1.0078250   1.0078250   1.0078250   1.0078250
 NucSpn=           1           1           1           1           1           1           1           1           1           1
 AtZEff=  -0.0000000  -0.0000000  -0.0000000  -0.0000000  -0.0000000  -0.0000000  -0.0000000  -0.0000000  -0.0000000  -0.0000000
 NQMom=    0.0000000   0.0000000   0.0000000   0.0000000   0.0000000   0.0000000   0.0000000   0.0000000   0.0000000   0.0000000
 NMagM=    2.7928460   2.7928460   2.7928460   2.7928460   2.7928460   2.7928460   2.7928460   2.7928460   2.7928460   2.7928460
 AtZNuc=   1.0000000   1.0000000   1.0000000   1.0000000   1.0000000   1.0000000   1.0000000   1.0000000   1.0000000   1.0000000

  Atom        21          22          23
 IAtWgt=           1           1           1
 AtmWgt=   1.0078250   1.0078250   1.0078250
 NucSpn=           1           1           1
 AtZEff=  -0.0000000  -0.0000000  -0.0000000
 NQMom=    0.0000000   0.0000000   0.0000000
 NMagM=    2.7928460   2.7928460   2.7928460
 AtZNuc=   1.0000000   1.0000000   1.0000000
 Leave Link  101 at Fri Sep 27 08:07:11 2019, MaxMem=   671088640 cpu:               7.0 elap:               3.6
 (Enter /shared/centos7/gaussian/g16/l103.exe)

 GradGradGradGradGradGradGradGradGradGradGradGradGradGradGradGradGradGrad
 Berny optimization.
 Initialization pass.
                           ----------------------------
                           !    Initial Parameters    !
                           ! (Angstroms and Degrees)  !
 --------------------------                            --------------------------
 ! Name  Definition              Value          Derivative Info.                !
 --------------------------------------------------------------------------------
 ! R1    R(1,2)                  1.4906         calculate D2E/DX2 analytically  !
 ! R2    R(1,4)                  1.4917         calculate D2E/DX2 analytically  !
 ! R3    R(1,10)                 1.1107         calculate D2E/DX2 analytically  !
 ! R4    R(1,11)                 1.1093         calculate D2E/DX2 analytically  !
 ! R5    R(2,3)                  1.5083         calculate D2E/DX2 analytically  !
 ! R6    R(2,12)                 1.1012         calculate D2E/DX2 analytically  !
 ! R7    R(2,13)                 1.1105         calculate D2E/DX2 analytically  !
 ! R8    R(3,5)                  1.5105         calculate D2E/DX2 analytically  !
 ! R9    R(3,14)                 1.1032         calculate D2E/DX2 analytically  !
 ! R10   R(3,15)                 1.1096         calculate D2E/DX2 analytically  !
 ! R11   R(4,6)                  1.473          calculate D2E/DX2 analytically  !
 ! R12   R(4,8)                  1.1266         calculate D2E/DX2 analytically  !
 ! R13   R(4,9)                  1.1161         calculate D2E/DX2 analytically  !
 ! R14   R(5,7)                  1.5066         calculate D2E/DX2 analytically  !
 ! R15   R(5,16)                 1.1214         calculate D2E/DX2 analytically  !
 ! R16   R(5,17)                 1.1033         calculate D2E/DX2 analytically  !
 ! R17   R(6,18)                 1.1063         calculate D2E/DX2 analytically  !
 ! R18   R(6,19)                 1.1303         calculate D2E/DX2 analytically  !
 ! R19   R(6,20)                 1.1106         calculate D2E/DX2 analytically  !
 ! R20   R(7,21)                 1.0907         calculate D2E/DX2 analytically  !
 ! R21   R(7,22)                 1.1251         calculate D2E/DX2 analytically  !
 ! R22   R(7,23)                 1.1278         calculate D2E/DX2 analytically  !
 ! A1    A(2,1,4)              115.5445         calculate D2E/DX2 analytically  !
 ! A2    A(2,1,10)             108.8914         calculate D2E/DX2 analytically  !
 ! A3    A(2,1,11)             107.0734         calculate D2E/DX2 analytically  !
 ! A4    A(4,1,10)             109.1291         calculate D2E/DX2 analytically  !
 ! A5    A(4,1,11)             110.7255         calculate D2E/DX2 analytically  !
 ! A6    A(10,1,11)            104.931          calculate D2E/DX2 analytically  !
 ! A7    A(1,2,3)              112.2892         calculate D2E/DX2 analytically  !
 ! A8    A(1,2,12)             110.7803         calculate D2E/DX2 analytically  !
 ! A9    A(1,2,13)             109.2491         calculate D2E/DX2 analytically  !
 ! A10   A(3,2,12)             110.0428         calculate D2E/DX2 analytically  !
 ! A11   A(3,2,13)             108.9196         calculate D2E/DX2 analytically  !
 ! A12   A(12,2,13)            105.3027         calculate D2E/DX2 analytically  !
 ! A13   A(2,3,5)              112.5107         calculate D2E/DX2 analytically  !
 ! A14   A(2,3,14)             110.4014         calculate D2E/DX2 analytically  !
 ! A15   A(2,3,15)             109.3438         calculate D2E/DX2 analytically  !
 ! A16   A(5,3,14)             109.0753         calculate D2E/DX2 analytically  !
 ! A17   A(5,3,15)             109.7949         calculate D2E/DX2 analytically  !
 ! A18   A(14,3,15)            105.4746         calculate D2E/DX2 analytically  !
 ! A19   A(1,4,6)              116.121          calculate D2E/DX2 analytically  !
 ! A20   A(1,4,8)              108.4093         calculate D2E/DX2 analytically  !
 ! A21   A(1,4,9)              107.6948         calculate D2E/DX2 analytically  !
 ! A22   A(6,4,8)              109.1562         calculate D2E/DX2 analytically  !
 ! A23   A(6,4,9)              109.1887         calculate D2E/DX2 analytically  !
 ! A24   A(8,4,9)              105.775          calculate D2E/DX2 analytically  !
 ! A25   A(3,5,7)              114.3734         calculate D2E/DX2 analytically  !
 ! A26   A(3,5,16)             108.5853         calculate D2E/DX2 analytically  !
 ! A27   A(3,5,17)             108.4235         calculate D2E/DX2 analytically  !
 ! A28   A(7,5,16)             109.3502         calculate D2E/DX2 analytically  !
 ! A29   A(7,5,17)             109.5929         calculate D2E/DX2 analytically  !
 ! A30   A(16,5,17)            106.1925         calculate D2E/DX2 analytically  !
 ! A31   A(4,6,18)             114.0068         calculate D2E/DX2 analytically  !
 ! A32   A(4,6,19)             111.122          calculate D2E/DX2 analytically  !
 ! A33   A(4,6,20)             111.4275         calculate D2E/DX2 analytically  !
 ! A34   A(18,6,19)            106.6846         calculate D2E/DX2 analytically  !
 ! A35   A(18,6,20)            106.4397         calculate D2E/DX2 analytically  !
 ! A36   A(19,6,20)            106.7391         calculate D2E/DX2 analytically  !
 ! A37   A(5,7,21)             110.7189         calculate D2E/DX2 analytically  !
 ! A38   A(5,7,22)             109.6571         calculate D2E/DX2 analytically  !
 ! A39   A(5,7,23)             109.9722         calculate D2E/DX2 analytically  !
 ! A40   A(21,7,22)            107.8381         calculate D2E/DX2 analytically  !
 ! A41   A(21,7,23)            109.2743         calculate D2E/DX2 analytically  !
 ! A42   A(22,7,23)            109.3403         calculate D2E/DX2 analytically  !
 ! D1    D(4,1,2,3)            177.1743         calculate D2E/DX2 analytically  !
 ! D2    D(4,1,2,12)            53.6892         calculate D2E/DX2 analytically  !
 ! D3    D(4,1,2,13)           -61.8741         calculate D2E/DX2 analytically  !
 ! D4    D(10,1,2,3)            53.9833         calculate D2E/DX2 analytically  !
 ! D5    D(10,1,2,12)          -69.5017         calculate D2E/DX2 analytically  !
 ! D6    D(10,1,2,13)          174.935          calculate D2E/DX2 analytically  !
 ! D7    D(11,1,2,3)           -58.9701         calculate D2E/DX2 analytically  !
 ! D8    D(11,1,2,12)          177.5449         calculate D2E/DX2 analytically  !
 ! D9    D(11,1,2,13)           61.9816         calculate D2E/DX2 analytically  !
 ! D10   D(2,1,4,6)            178.8965         calculate D2E/DX2 analytically  !
 ! D11   D(2,1,4,8)             55.6399         calculate D2E/DX2 analytically  !
 ! D12   D(2,1,4,9)            -58.3729         calculate D2E/DX2 analytically  !
 ! D13   D(10,1,4,6)           -58.038          calculate D2E/DX2 analytically  !
 ! D14   D(10,1,4,8)           178.7054         calculate D2E/DX2 analytically  !
 ! D15   D(10,1,4,9)            64.6926         calculate D2E/DX2 analytically  !
 ! D16   D(11,1,4,6)            56.975          calculate D2E/DX2 analytically  !
 ! D17   D(11,1,4,8)           -66.2817         calculate D2E/DX2 analytically  !
 ! D18   D(11,1,4,9)           179.7055         calculate D2E/DX2 analytically  !
 ! D19   D(1,2,3,5)             -1.2516         calculate D2E/DX2 analytically  !
 ! D20   D(1,2,3,14)          -123.3637         calculate D2E/DX2 analytically  !
 ! D21   D(1,2,3,15)           121.025          calculate D2E/DX2 analytically  !
 ! D22   D(12,2,3,5)           122.6451         calculate D2E/DX2 analytically  !
 ! D23   D(12,2,3,14)            0.533          calculate D2E/DX2 analytically  !
 ! D24   D(12,2,3,15)         -115.0783         calculate D2E/DX2 analytically  !
 ! D25   D(13,2,3,5)          -122.3926         calculate D2E/DX2 analytically  !
 ! D26   D(13,2,3,14)          115.4952         calculate D2E/DX2 analytically  !
 ! D27   D(13,2,3,15)           -0.1161         calculate D2E/DX2 analytically  !
 ! D28   D(2,3,5,7)            179.8554         calculate D2E/DX2 analytically  !
 ! D29   D(2,3,5,16)           -57.7249         calculate D2E/DX2 analytically  !
 ! D30   D(2,3,5,17)            57.243          calculate D2E/DX2 analytically  !
 ! D31   D(14,3,5,7)           -57.2852         calculate D2E/DX2 analytically  !
 ! D32   D(14,3,5,16)           65.1345         calculate D2E/DX2 analytically  !
 ! D33   D(14,3,5,17)         -179.8976         calculate D2E/DX2 analytically  !
 ! D34   D(15,3,5,7)            57.834          calculate D2E/DX2 analytically  !
 ! D35   D(15,3,5,16)         -179.7463         calculate D2E/DX2 analytically  !
 ! D36   D(15,3,5,17)          -64.7784         calculate D2E/DX2 analytically  !
 ! D37   D(1,4,6,18)            -2.0991         calculate D2E/DX2 analytically  !
 ! D38   D(1,4,6,19)           118.4967         calculate D2E/DX2 analytically  !
 ! D39   D(1,4,6,20)          -122.6028         calculate D2E/DX2 analytically  !
 ! D40   D(8,4,6,18)           120.7674         calculate D2E/DX2 analytically  !
 ! D41   D(8,4,6,19)          -118.6369         calculate D2E/DX2 analytically  !
 ! D42   D(8,4,6,20)             0.2637         calculate D2E/DX2 analytically  !
 ! D43   D(9,4,6,18)          -124.0427         calculate D2E/DX2 analytically  !
 ! D44   D(9,4,6,19)            -3.4469         calculate D2E/DX2 analytically  !
 ! D45   D(9,4,6,20)           115.4536         calculate D2E/DX2 analytically  !
 ! D46   D(3,5,7,21)            33.9523         calculate D2E/DX2 analytically  !
 ! D47   D(3,5,7,22)           -84.9219         calculate D2E/DX2 analytically  !
 ! D48   D(3,5,7,23)           154.8135         calculate D2E/DX2 analytically  !
 ! D49   D(16,5,7,21)          -88.0501         calculate D2E/DX2 analytically  !
 ! D50   D(16,5,7,22)          153.0757         calculate D2E/DX2 analytically  !
 ! D51   D(16,5,7,23)           32.8112         calculate D2E/DX2 analytically  !
 ! D52   D(17,5,7,21)          155.9273         calculate D2E/DX2 analytically  !
 ! D53   D(17,5,7,22)           37.0531         calculate D2E/DX2 analytically  !
 ! D54   D(17,5,7,23)          -83.2114         calculate D2E/DX2 analytically  !
 --------------------------------------------------------------------------------
 Trust Radius=3.00D-01 FncErr=1.00D-07 GrdErr=1.00D-06 EigMax=2.50D+02 EigMin=1.00D-04
 Number of steps in this run=    138 maximum allowed number of steps=    138.
 GradGradGradGradGradGradGradGradGradGradGradGradGradGradGradGradGradGrad

 Leave Link  103 at Fri Sep 27 08:07:11 2019, MaxMem=   671088640 cpu:               1.5 elap:               0.8
 (Enter /shared/centos7/gaussian/g16/l202.exe)
                          Input orientation:                          
 ---------------------------------------------------------------------
 Center     Atomic      Atomic             Coordinates (Angstroms)
 Number     Number       Type             X           Y           Z
 ---------------------------------------------------------------------
      1          6           0        1.376025   -1.141390    0.505445
      2          6           0        0.148232   -0.422199    0.949577
      3          6           0       -0.604826   -1.179733    2.014484
      4          6           0        2.142147   -0.487279   -0.594656
      5          6           0        0.046676   -2.499122    2.355748
      6          6           0        3.371492   -1.174276   -1.026318
      7          6           0       -0.670261   -3.289957    3.419001
      8          1           0        2.397991    0.562204   -0.274868
      9          1           0        1.456037   -0.379504   -1.468379
     10          1           0        1.097054   -2.170055    0.193035
     11          1           0        2.015396   -1.278338    1.401600
     12          1           0       -0.513862   -0.214662    0.094448
     13          1           0        0.432010    0.574331    1.349144
     14          1           0       -1.644290   -1.363227    1.693598
     15          1           0       -0.682853   -0.552235    2.926243
     16          1           0        0.119494   -3.114151    1.420891
     17          1           0        1.083914   -2.303136    2.676665
     18          1           0        3.602230   -2.089241   -0.448842
     19          1           0        3.305703   -1.483417   -2.111509
     20          1           0        4.259130   -0.512977   -0.935350
     21          1           0       -1.748389   -3.139922    3.350396
     22          1           0       -0.338181   -2.943762    4.436710
     23          1           0       -0.439126   -4.387802    3.304127
 ---------------------------------------------------------------------
                    Distance matrix (angstroms):
                    1          2          3          4          5
     1  C    0.000000
     2  C    1.490625   0.000000
     3  C    2.490470   1.508304   0.000000
     4  C    1.491652   2.522813   3.851359   0.000000
     5  C    2.652211   2.510227   1.510531   4.140458   0.000000
     6  C    2.515804   3.854762   5.005758   1.472952   4.924225
     7  C    4.158417   3.871953   2.535743   5.645714   1.506627
     8  H    2.134370   2.744036   4.158412   1.126559   4.671246
     9  H    2.117274   2.749306   4.125270   1.116134   4.593802
    10  H    1.110665   2.127820   2.682314   2.131763   2.426707
    11  H    1.109344   2.103235   2.692752   2.151018   2.505308
    12  H    2.144625   1.101220   2.150854   2.757457   3.262887
    13  H    2.132297   1.110520   2.143466   2.798204   3.256968
    14  H    3.253186   2.156905   1.103233   4.510044   2.141977
    15  H    3.232080   2.148213   1.109570   4.514595   2.155932
    16  H    2.511712   2.733052   2.149178   3.879950   1.121392
    17  H    2.479754   2.719606   2.133626   3.888281   1.103295
    18  H    2.600976   4.082243   4.959284   2.172415   4.547053
    19  H    3.269417   4.523942   5.692827   2.155690   5.622214
    20  H    3.283761   4.523347   5.727491   2.144376   5.702706
    21  H    4.674381   4.092325   2.633389   6.142982   2.149933
    22  H    4.652085   4.330702   3.008334   6.123805   2.162458
    23  H    4.654738   4.649183   3.461552   6.089135   2.168534
                    6          7          8          9         10
     6  C    0.000000
     7  C    6.369673   0.000000
     8  H    2.127850   6.156134   0.000000
     9  H    2.120389   6.072755   1.788452   0.000000
    10  H    2.766129   3.845054   3.062126   2.468853   0.000000
    11  H    2.782914   3.915261   2.518833   3.059013   1.760437
    12  H    4.156075   4.531506   3.036249   2.519941   2.535415
    13  H    4.164254   4.520180   2.550029   3.145929   3.051315
    14  H    5.708916   2.763699   4.891031   4.536280   3.227635
    15  H    5.696261   2.781742   4.580468   4.890540   3.640856
    16  H    4.508596   2.155705   4.645723   4.196728   1.831549
    17  H    4.496601   2.145229   4.318393   4.584781   2.487227
    18  H    1.106291   5.886944   2.917297   2.927252   2.587363
    19  H    1.130281   7.046873   2.895127   2.248000   3.265046
    20  H    1.110627   7.139389   2.248575   2.856443   3.744047
    21  H    7.016593   1.090678   6.636321   6.411618   4.359600
    22  H    6.836479   1.125104   6.478998   6.683166   4.546131
    23  H    6.603054   1.127778   6.735058   6.514208   4.117906
                   11         12         13         14         15
    11  H    0.000000
    12  H    3.039276   0.000000
    13  H    2.437672   1.758251   0.000000
    14  H    3.672297   2.270319   2.860734   0.000000
    15  H    3.183128   2.856847   2.235913   1.761102   0.000000
    16  H    2.639133   3.250789   3.702393   2.500208   3.077866
    17  H    1.882461   3.685438   3.235290   3.048433   2.499881
    18  H    2.568996   4.555373   4.514163   5.713416   5.667056
    19  H    3.748184   4.589669   4.946571   6.244655   6.492659
    20  H    3.328882   4.891925   4.587810   6.518026   6.271892
    21  H    4.629188   4.547790   4.749192   2.431555   2.830441
    22  H    4.186270   5.131675   4.743757   3.424715   2.849511
    23  H    4.394662   5.265237   5.404036   3.632392   3.861836
                   16         17         18         19         20
    16  H    0.000000
    17  H    1.778994   0.000000
    18  H    4.083600   4.019510   0.000000
    19  H    5.028824   5.341806   1.794272   0.000000
    20  H    5.427206   5.131599   1.775617   1.798368   0.000000
    21  H    2.685636   3.029202   6.645846   7.623665   7.833182
    22  H    3.055104   2.351705   6.334483   7.634768   7.476832
    23  H    2.341115   2.656915   5.975008   7.196410   7.420313
                   21         22         23
    21  H    0.000000
    22  H    1.790878   0.000000
    23  H    1.809286   1.837985   0.000000
 Stoichiometry    C7H16
 Framework group  C1[X(C7H16)]
 Deg. of freedom    63
 Full point group                 C1      NOp   1
 Largest Abelian subgroup         C1      NOp   1
 Largest concise Abelian subgroup C1      NOp   1
                         Standard orientation:                         
 ---------------------------------------------------------------------
 Center     Atomic      Atomic             Coordinates (Angstroms)
 Number     Number       Type             X           Y           Z
 ---------------------------------------------------------------------
      1          6           0        0.857192    0.047660    0.027072
      2          6           0        0.016909    1.278614    0.001786
      3          6           0       -1.458282    0.964311   -0.000669
      4          6           0        2.330387    0.273113   -0.035337
      5          6           0       -1.733111   -0.520993   -0.007439
      6          6           0        3.173760   -0.933473    0.014258
      7          6           0       -3.195677   -0.882692   -0.006630
      8          1           0        2.620876    0.962078    0.807324
      9          1           0        2.548152    0.834536   -0.975091
     10          1           0        0.554019   -0.612026   -0.813450
     11          1           0        0.584494   -0.514062    0.943995
     12          1           0        0.270372    1.906916   -0.866360
     13          1           0        0.251163    1.900148    0.891772
     14          1           0       -1.948333    1.425642   -0.874825
     15          1           0       -1.934884    1.430598    0.886219
     16          1           0       -1.239384   -0.971720   -0.907772
     17          1           0       -1.240268   -0.970795    0.871221
     18          1           0        2.605341   -1.875474    0.130068
     19          1           0        3.788944   -1.039424   -0.928004
     20          1           0        3.890729   -0.892814    0.861486
     21          1           0       -3.774405   -0.151093   -0.571798
     22          1           0       -3.583738   -0.887668    1.049420
     23          1           0       -3.340147   -1.904084   -0.462449
 ---------------------------------------------------------------------
 Rotational constants (GHZ):           5.5257622           1.0308581           0.9036141
 Leave Link  202 at Fri Sep 27 08:07:13 2019, MaxMem=   671088640 cpu:               4.1 elap:               2.1
 (Enter /shared/centos7/gaussian/g16/l301.exe)
 Standard basis: CC-pVTZ (5D, 7F)
 Ernie: Thresh=  0.10000D-02 Tol=  0.10000D-05 Strict=F.
 Ernie:  21 primitive shells out of 310 were deleted.
 There are   485 symmetry adapted cartesian basis functions of A   symmetry.
 There are   434 symmetry adapted basis functions of A   symmetry.
   434 basis functions,   636 primitive gaussians,   485 cartesian basis functions
    29 alpha electrons       29 beta electrons
       nuclear repulsion energy       320.4640948753 Hartrees.
 IExCor= 4336 DFT=T Ex+Corr=M062X ExCW=0 ScaHFX=  0.540000
 ScaDFX=  1.000000  1.000000  1.000000  1.000000 ScalE2=  1.000000  1.000000
 IRadAn=      5 IRanWt=     -1 IRanGd=            0 ICorTp=0 IEmpDi=  4
 NAtoms=   23 NActive=   23 NUniq=   23 SFac= 1.00D+00 NAtFMM=   60 NAOKFM=F Big=F
 Integral buffers will be    131072 words long.
 Raffenetti 2 integral format.
 Two-electron integral symmetry is turned on.
 Leave Link  301 at Fri Sep 27 08:07:15 2019, MaxMem=   671088640 cpu:               2.3 elap:               1.2
 (Enter /shared/centos7/gaussian/g16/l302.exe)
 NPDir=0 NMtPBC=     1 NCelOv=     1 NCel=       1 NClECP=     1 NCelD=      1
         NCelK=      1 NCelE2=     1 NClLst=     1 CellRange=     0.0.
 One-electron integrals computed using PRISM.
 One-electron integral symmetry used in STVInt
 NBasis=   434 RedAO= T EigKep=  1.31D-04  NBF=   434
 NBsUse=   434 1.00D-06 EigRej= -1.00D+00 NBFU=   434
 Precomputing XC quadrature grid using
 IXCGrd= 4 IRadAn=           5 IRanWt=          -1 IRanGd=           0 AccXCQ= 0.00D+00.
 Generated NRdTot=       0 NPtTot=           0 NUsed=           0 NTot=          32
 NSgBfM=   485   485   485   485   485 MxSgAt=    23 MxSgA2=    23.
 Leave Link  302 at Fri Sep 27 08:08:36 2019, MaxMem=   671088640 cpu:             162.7 elap:              81.4
 (Enter /shared/centos7/gaussian/g16/l303.exe)
 DipDrv:  MaxL=1.
 Leave Link  303 at Fri Sep 27 08:08:41 2019, MaxMem=   671088640 cpu:               9.2 elap:               4.6
 (Enter /shared/centos7/gaussian/g16/l401.exe)
 ExpMin= 1.03D-01 ExpMax= 8.24D+03 ExpMxC= 2.81D+02 IAcc=3 IRadAn=         5 AccDes= 0.00D+00
 Harris functional with IExCor= 1009 and IRadAn=       5 diagonalized for initial guess.
 HarFok:  IExCor= 1009 AccDes= 0.00D+00 IRadAn=         5 IDoV= 1 UseB2=F ITyADJ=14
 ICtDFT=  3500011 ScaDFX=  1.000000  1.000000  1.000000  1.000000
 FoFCou: FMM=F IPFlag=           0 FMFlag=      100000 FMFlg1=           0
         NFxFlg=           0 DoJE=T BraDBF=F KetDBF=T FulRan=T
         wScrn=  0.000000 ICntrl=       500 IOpCl=  0 I1Cent=   200000004 NGrid=           0
         NMat0=    1 NMatS0=      1 NMatT0=    0 NMatD0=    1 NMtDS0=    0 NMtDT0=    0
 Petite list used in FoFCou.
 Harris En= -276.317494509949    
 JPrj=0 DoOrth=F DoCkMO=F.
 Leave Link  401 at Fri Sep 27 08:09:41 2019, MaxMem=   671088640 cpu:             120.0 elap:              60.0
 (Enter /shared/centos7/gaussian/g16/l502.exe)
 Integral symmetry usage will be decided dynamically.
 Closed shell SCF:
 Using DIIS extrapolation, IDIIS=  1040.
 NGot=   671088640 LenX=   670604095 LenY=   670368385
 Requested convergence on RMS density matrix=1.00D-08 within 900 cycles.
 Requested convergence on MAX density matrix=1.00D-06.
 Requested convergence on             energy=1.00D-06.
 No special actions if energy rises.
 Fock matrices will be formed incrementally for  20 cycles.
 Integral accuracy reduced to 1.0D-05 until final iterations.

 Cycle   1  Pass 0  IDiag  1:
 FoFJK:  IHMeth= 1 ICntrl=       0 DoSepK=F KAlg= 0 I1Cent=           0 FoldK=F
 IRaf= 910000000 NMat=       1 IRICut=       1 DoRegI=T DoRafI=F ISym2E= 0 IDoP0=0 IntGTp=1.
 FoFCou: FMM=F IPFlag=           0 FMFlag=      100000 FMFlg1=           0
         NFxFlg=           0 DoJE=F BraDBF=F KetDBF=F FulRan=T
         wScrn=  0.000000 ICntrl=         0 IOpCl=  0 I1Cent=           0 NGrid=           0
         NMat0=    1 NMatS0=      1 NMatT0=    0 NMatD0=    1 NMtDS0=    0 NMtDT0=    0
 Symmetry not used in FoFCou.
 E= -275.950100557719    
 DIIS: error= 3.50D-02 at cycle   1 NSaved=   1.
 NSaved= 1 IEnMin= 1 EnMin= -275.950100557719     IErMin= 1 ErrMin= 3.50D-02
 ErrMax= 3.50D-02  0.00D+00 EMaxC= 1.00D-01 BMatC= 3.71D-01 BMatP= 3.71D-01
 IDIUse=3 WtCom= 6.50D-01 WtEn= 3.50D-01
 Coeff-Com:  0.100D+01
 Coeff-En:   0.100D+01
 Coeff:      0.100D+01
 Gap=     0.355 Goal=   None    Shift=    0.000
 GapD=    0.355 DampG=1.000 DampE=0.500 DampFc=0.5000 IDamp=-1.
 Damping current iteration by 5.00D-01
 RMSDP=1.93D-03 MaxDP=7.90D-02              OVMax= 1.63D-01

 Cycle   2  Pass 0  IDiag  1:
 RMSU=  9.63D-04    CP:  9.91D-01
 E= -276.130525245244     Delta-E=       -0.180424687525 Rises=F Damp=T
 DIIS: error= 4.67D-03 at cycle   2 NSaved=   2.
 NSaved= 2 IEnMin= 2 EnMin= -276.130525245244     IErMin= 2 ErrMin= 4.67D-03
 ErrMax= 4.67D-03  0.00D+00 EMaxC= 1.00D-01 BMatC= 1.76D-02 BMatP= 3.71D-01
 IDIUse=3 WtCom= 9.53D-01 WtEn= 4.67D-02
 Coeff-Com: -0.694D-01 0.107D+01
 Coeff-En:   0.000D+00 0.100D+01
 Coeff:     -0.661D-01 0.107D+01
 Gap=     0.449 Goal=   None    Shift=    0.000
 RMSDP=5.32D-04 MaxDP=1.98D-02 DE=-1.80D-01 OVMax= 8.75D-02

 Cycle   3  Pass 0  IDiag  1:
 RMSU=  5.23D-04    CP:  9.97D-01  9.10D-01
 E= -276.305959245062     Delta-E=       -0.175433999818 Rises=F Damp=F
 DIIS: error= 3.41D-03 at cycle   3 NSaved=   3.
 NSaved= 3 IEnMin= 3 EnMin= -276.305959245062     IErMin= 3 ErrMin= 3.41D-03
 ErrMax= 3.41D-03  0.00D+00 EMaxC= 1.00D-01 BMatC= 1.71D-03 BMatP= 1.76D-02
 IDIUse=3 WtCom= 9.66D-01 WtEn= 3.41D-02
 Coeff-Com: -0.470D-01 0.196D+00 0.851D+00
 Coeff-En:   0.000D+00 0.000D+00 0.100D+01
 Coeff:     -0.454D-01 0.189D+00 0.856D+00
 Gap=     0.402 Goal=   None    Shift=    0.000
 RMSDP=7.92D-05 MaxDP=2.85D-03 DE=-1.75D-01 OVMax= 8.33D-03

 Cycle   4  Pass 0  IDiag  1:
 RMSU=  6.34D-05    CP:  9.96D-01  9.52D-01  9.56D-01
 E= -276.307398903466     Delta-E=       -0.001439658403 Rises=F Damp=F
 DIIS: error= 7.69D-04 at cycle   4 NSaved=   4.
 NSaved= 4 IEnMin= 4 EnMin= -276.307398903466     IErMin= 4 ErrMin= 7.69D-04
 ErrMax= 7.69D-04  0.00D+00 EMaxC= 1.00D-01 BMatC= 2.67D-04 BMatP= 1.71D-03
 IDIUse=3 WtCom= 9.92D-01 WtEn= 7.69D-03
 Coeff-Com: -0.136D-01 0.384D-01 0.327D+00 0.649D+00
 Coeff-En:   0.000D+00 0.000D+00 0.000D+00 0.100D+01
 Coeff:     -0.135D-01 0.381D-01 0.324D+00 0.651D+00
 Gap=     0.403 Goal=   None    Shift=    0.000
 RMSDP=2.87D-05 MaxDP=1.40D-03 DE=-1.44D-03 OVMax= 3.32D-03

 Cycle   5  Pass 0  IDiag  1:
 RMSU=  1.81D-05    CP:  9.96D-01  9.44D-01  9.84D-01  7.66D-01
 E= -276.307641253335     Delta-E=       -0.000242349869 Rises=F Damp=F
 DIIS: error= 1.55D-04 at cycle   5 NSaved=   5.
 NSaved= 5 IEnMin= 5 EnMin= -276.307641253335     IErMin= 5 ErrMin= 1.55D-04
 ErrMax= 1.55D-04  0.00D+00 EMaxC= 1.00D-01 BMatC= 1.50D-05 BMatP= 2.67D-04
 IDIUse=3 WtCom= 9.98D-01 WtEn= 1.55D-03
 Coeff-Com: -0.472D-03-0.145D-02 0.447D-01 0.222D+00 0.735D+00
 Coeff-En:   0.000D+00 0.000D+00 0.000D+00 0.000D+00 0.100D+01
 Coeff:     -0.471D-03-0.145D-02 0.447D-01 0.221D+00 0.736D+00
 Gap=     0.403 Goal=   None    Shift=    0.000
 RMSDP=6.32D-06 MaxDP=3.03D-04 DE=-2.42D-04 OVMax= 7.34D-04

 Initial convergence to 1.0D-05 achieved.  Increase integral accuracy.
 Cycle   6  Pass 1  IDiag  1:
 E= -276.307570249377     Delta-E=        0.000071003958 Rises=F Damp=F
 DIIS: error= 5.00D-05 at cycle   1 NSaved=   1.
 NSaved= 1 IEnMin= 1 EnMin= -276.307570249377     IErMin= 1 ErrMin= 5.00D-05
 ErrMax= 5.00D-05  0.00D+00 EMaxC= 1.00D-01 BMatC= 1.46D-06 BMatP= 1.46D-06
 IDIUse=1 WtCom= 1.00D+00 WtEn= 0.00D+00
 Coeff-Com:  0.100D+01
 Coeff:      0.100D+01
 Gap=     0.403 Goal=   None    Shift=    0.000
 RMSDP=6.32D-06 MaxDP=3.03D-04 DE= 7.10D-05 OVMax= 2.55D-04

 Cycle   7  Pass 1  IDiag  1:
 RMSU=  1.73D-05    CP:  1.00D+00
 E= -276.307571029051     Delta-E=       -0.000000779674 Rises=F Damp=F
 DIIS: error= 2.84D-05 at cycle   2 NSaved=   2.
 NSaved= 2 IEnMin= 2 EnMin= -276.307571029051     IErMin= 2 ErrMin= 2.84D-05
 ErrMax= 2.84D-05  0.00D+00 EMaxC= 1.00D-01 BMatC= 2.98D-07 BMatP= 1.46D-06
 IDIUse=1 WtCom= 1.00D+00 WtEn= 0.00D+00
 Coeff-Com:  0.245D+00 0.755D+00
 Coeff:      0.245D+00 0.755D+00
 Gap=     0.403 Goal=   None    Shift=    0.000
 RMSDP=1.16D-06 MaxDP=5.12D-05 DE=-7.80D-07 OVMax= 1.44D-04

 Cycle   8  Pass 1  IDiag  1:
 RMSU=  1.12D-06    CP:  1.00D+00  1.02D+00
 E= -276.307571234404     Delta-E=       -0.000000205354 Rises=F Damp=F
 DIIS: error= 1.47D-05 at cycle   3 NSaved=   3.
 NSaved= 3 IEnMin= 3 EnMin= -276.307571234404     IErMin= 3 ErrMin= 1.47D-05
 ErrMax= 1.47D-05  0.00D+00 EMaxC= 1.00D-01 BMatC= 8.85D-08 BMatP= 2.98D-07
 IDIUse=1 WtCom= 1.00D+00 WtEn= 0.00D+00
 Coeff-Com: -0.104D-01 0.347D+00 0.664D+00
 Coeff:     -0.104D-01 0.347D+00 0.664D+00
 Gap=     0.403 Goal=   None    Shift=    0.000
 RMSDP=4.76D-07 MaxDP=2.08D-05 DE=-2.05D-07 OVMax= 5.45D-05

 Cycle   9  Pass 1  IDiag  1:
 RMSU=  2.92D-07    CP:  1.00D+00  1.03D+00  7.45D-01
 E= -276.307571318447     Delta-E=       -0.000000084043 Rises=F Damp=F
 DIIS: error= 1.57D-06 at cycle   4 NSaved=   4.
 NSaved= 4 IEnMin= 4 EnMin= -276.307571318447     IErMin= 4 ErrMin= 1.57D-06
 ErrMax= 1.57D-06  0.00D+00 EMaxC= 1.00D-01 BMatC= 7.81D-10 BMatP= 8.85D-08
 IDIUse=1 WtCom= 1.00D+00 WtEn= 0.00D+00
 Coeff-Com: -0.850D-02 0.759D-01 0.176D+00 0.757D+00
 Coeff:     -0.850D-02 0.759D-01 0.176D+00 0.757D+00
 Gap=     0.403 Goal=   None    Shift=    0.000
 RMSDP=6.31D-08 MaxDP=2.19D-06 DE=-8.40D-08 OVMax= 5.56D-06

 Cycle  10  Pass 1  IDiag  1:
 RMSU=  5.97D-08    CP:  1.00D+00  1.03D+00  7.51D-01  1.02D+00
 E= -276.307571319256     Delta-E=       -0.000000000809 Rises=F Damp=F
 DIIS: error= 3.50D-07 at cycle   5 NSaved=   5.
 NSaved= 5 IEnMin= 5 EnMin= -276.307571319256     IErMin= 5 ErrMin= 3.50D-07
 ErrMax= 3.50D-07  0.00D+00 EMaxC= 1.00D-01 BMatC= 4.09D-11 BMatP= 7.81D-10
 IDIUse=1 WtCom= 1.00D+00 WtEn= 0.00D+00
 Coeff-Com: -0.107D-03-0.192D-01-0.338D-01 0.793D-01 0.974D+00
 Coeff:     -0.107D-03-0.192D-01-0.338D-01 0.793D-01 0.974D+00
 Gap=     0.403 Goal=   None    Shift=    0.000
 RMSDP=2.84D-08 MaxDP=1.06D-06 DE=-8.09D-10 OVMax= 2.40D-06

 Cycle  11  Pass 1  IDiag  1:
 RMSU=  1.50D-08    CP:  1.00D+00  1.03D+00  7.56D-01  1.10D+00  1.07D+00
 E= -276.307571319298     Delta-E=       -0.000000000041 Rises=F Damp=F
 DIIS: error= 1.28D-07 at cycle   6 NSaved=   6.
 NSaved= 6 IEnMin= 6 EnMin= -276.307571319298     IErMin= 6 ErrMin= 1.28D-07
 ErrMax= 1.28D-07  0.00D+00 EMaxC= 1.00D-01 BMatC= 9.50D-12 BMatP= 4.09D-11
 IDIUse=1 WtCom= 1.00D+00 WtEn= 0.00D+00
 Coeff-Com:  0.453D-03-0.128D-01-0.250D-01-0.124D-01 0.417D+00 0.632D+00
 Coeff:      0.453D-03-0.128D-01-0.250D-01-0.124D-01 0.417D+00 0.632D+00
 Gap=     0.403 Goal=   None    Shift=    0.000
 RMSDP=4.99D-09 MaxDP=2.61D-07 DE=-4.14D-11 OVMax= 5.20D-07

 SCF Done:  E(RM062X) =  -276.307571319     A.U. after   11 cycles
            NFock= 11  Conv=0.50D-08     -V/T= 2.0065
 KE= 2.745255195831D+02 PE=-1.279403131500D+03 EE= 4.081059457220D+02
 Leave Link  502 at Fri Sep 27 08:30:20 2019, MaxMem=   671088640 cpu:            2477.1 elap:            1238.8
 (Enter /shared/centos7/gaussian/g16/l801.exe)
 DoSCS=F DFT=T ScalE2(SS,OS)=  1.000000  1.000000
 Range of M.O.s used for correlation:     1   434
 NBasis=   434 NAE=    29 NBE=    29 NFC=     0 NFV=     0
 NROrb=    434 NOA=    29 NOB=    29 NVA=   405 NVB=   405

 **** Warning!!: The largest alpha MO coefficient is  0.15393269D+02

 Leave Link  801 at Fri Sep 27 08:30:21 2019, MaxMem=   671088640 cpu:               2.2 elap:               1.1
 (Enter /shared/centos7/gaussian/g16/l1101.exe)
 Using compressed storage, NAtomX=    23.
 Will process     24 centers per pass.
 Leave Link 1101 at Fri Sep 27 08:31:03 2019, MaxMem=   671088640 cpu:              84.5 elap:              42.3
 (Enter /shared/centos7/gaussian/g16/l1102.exe)
 Symmetrizing basis deriv contribution to polar:
 IMax=3 JMax=2 DiffMx= 0.00D+00
 Leave Link 1102 at Fri Sep 27 08:31:06 2019, MaxMem=   671088640 cpu:               5.1 elap:               2.6
 (Enter /shared/centos7/gaussian/g16/l1110.exe)
 Forming Gx(P) for the SCF density, NAtomX=    23.
 Integral derivatives from FoFJK, PRISM(SPDF).
 Do as many integral derivatives as possible in FoFJK.
 G2DrvN: MDV=     671086848.
 G2DrvN: will do    24 centers at a time, making    1 passes.
 Calling FoFCou, ICntrl=  3107 FMM=F I1Cent=   0 AccDes= 0.00D+00.
 FoFJK:  IHMeth= 1 ICntrl=    3107 DoSepK=F KAlg= 0 I1Cent=           0 FoldK=F
 IRaf=         0 NMat=       1 IRICut=       1 DoRegI=T DoRafI=F ISym2E= 0 IDoP0=0 IntGTp=1.
 FoFCou: FMM=F IPFlag=           0 FMFlag=      100000 FMFlg1=           0
         NFxFlg=           0 DoJE=F BraDBF=F KetDBF=F FulRan=T
         wScrn=  0.000000 ICntrl=      3107 IOpCl=  0 I1Cent=           0 NGrid=           0
         NMat0=    1 NMatS0=      1 NMatT0=    0 NMatD0=    1 NMtDS0=    0 NMtDT0=    0
 Symmetry not used in FoFCou.
 End of G2Drv F.D. properties file   721 does not exist.
 End of G2Drv F.D. properties file   722 does not exist.
 End of G2Drv F.D. properties file   788 does not exist.
 Leave Link 1110 at Fri Sep 27 09:23:05 2019, MaxMem=   671088640 cpu:            6236.9 elap:            3118.9
 (Enter /shared/centos7/gaussian/g16/l1002.exe)
 Minotr:  Closed shell wavefunction.
          IDoAtm=11111111111111111111111
          Direct CPHF calculation.
          Differentiating once with respect to nuclear coordinates.
          Requested convergence is 1.0D-08 RMS, and 1.0D-07 maximum.
          Secondary convergence is 1.0D-12 RMS, and 1.0D-12 maximum.
          NewPWx=T KeepS1=F KeepF1=F KeepIn=T MapXYZ=F SortEE=F KeepMc=T.
         6925 words used for storage of precomputed grid.
 Two-electron integrals replicated using symmetry.
          MDV=     671088640 using IRadAn=       1.
          Solving linear equations simultaneously, MaxMat=     380.
 FoF2E skips out because all densities are zero.
 CalDSu exits because no D1Ps are significant.
 FoFJK:  IHMeth= 1 ICntrl=       0 DoSepK=F KAlg= 0 I1Cent=           0 FoldK=F
 IRaf= 890000000 NMat=      69 IRICut=     172 DoRegI=T DoRafI=T ISym2E= 2 IDoP0=3 IntGTp=3.
 FoFCou: FMM=F IPFlag=           0 FMFlag=      100000 FMFlg1=           0
         NFxFlg=           0 DoJE=F BraDBF=F KetDBF=F FulRan=T
         wScrn=  0.000000 ICntrl=         0 IOpCl=  0 I1Cent=           0 NGrid=           0
         NMat0=   69 NMatS0=     69 NMatT0=    0 NMatD0=   69 NMtDS0=    0 NMtDT0=    0
 Integrals replicated using symmetry in FoFCou.
 Raff kept on since  85.06% of shell-pairs survive, threshold=   0.20 IRatSp=85.
          There are    72 degrees of freedom in the 1st order CPHF.  IDoFFX=6 NUNeed=     0.
     66 vectors produced by pass  0 Test12= 1.63D-14 1.39D-09 XBig12= 5.67D-02 3.97D-02.
 AX will form    66 AO Fock derivatives at one time.
     66 vectors produced by pass  1 Test12= 1.63D-14 1.39D-09 XBig12= 3.51D-03 7.86D-03.
     66 vectors produced by pass  2 Test12= 1.63D-14 1.39D-09 XBig12= 5.57D-05 1.52D-03.
     66 vectors produced by pass  3 Test12= 1.63D-14 1.39D-09 XBig12= 4.97D-07 1.15D-04.
     66 vectors produced by pass  4 Test12= 1.63D-14 1.39D-09 XBig12= 2.61D-09 7.12D-06.
     66 vectors produced by pass  5 Test12= 1.63D-14 1.39D-09 XBig12= 1.41D-11 5.72D-07.
     22 vectors produced by pass  6 Test12= 1.63D-14 1.39D-09 XBig12= 5.20D-14 2.86D-08.
 InvSVY:  IOpt=1 It=  1 EMax= 3.61D-16
 Solved reduced A of dimension   418 with    72 vectors.
 End of Minotr F.D. properties file   721 does not exist.
 End of Minotr F.D. properties file   722 does not exist.
 End of Minotr F.D. properties file   788 does not exist.
 Leave Link 1002 at Fri Sep 27 10:50:55 2019, MaxMem=   671088640 cpu:           10540.0 elap:            5270.9
 (Enter /shared/centos7/gaussian/g16/l601.exe)
 Copying SCF densities to generalized density rwf, IOpCl= 0 IROHF=0.

 **********************************************************************

            Population analysis using the SCF density.

 **********************************************************************

 Orbital symmetries:
       Occupied  (A) (A) (A) (A) (A) (A) (A) (A) (A) (A) (A) (A)
                 (A) (A) (A) (A) (A) (A) (A) (A) (A) (A) (A) (A)
                 (A) (A) (A) (A) (A)
       Virtual   (A) (A) (A) (A) (A) (A) (A) (A) (A) (A) (A) (A)
                 (A) (A) (A) (A) (A) (A) (A) (A) (A) (A) (A) (A)
                 (A) (A) (A) (A) (A) (A) (A) (A) (A) (A) (A) (A)
                 (A) (A) (A) (A) (A) (A) (A) (A) (A) (A) (A) (A)
                 (A) (A) (A) (A) (A) (A) (A) (A) (A) (A) (A) (A)
                 (A) (A) (A) (A) (A) (A) (A) (A) (A) (A) (A) (A)
                 (A) (A) (A) (A) (A) (A) (A) (A) (A) (A) (A) (A)
                 (A) (A) (A) (A) (A) (A) (A) (A) (A) (A) (A) (A)
                 (A) (A) (A) (A) (A) (A) (A) (A) (A) (A) (A) (A)
                 (A) (A) (A) (A) (A) (A) (A) (A) (A) (A) (A) (A)
                 (A) (A) (A) (A) (A) (A) (A) (A) (A) (A) (A) (A)
                 (A) (A) (A) (A) (A) (A) (A) (A) (A) (A) (A) (A)
                 (A) (A) (A) (A) (A) (A) (A) (A) (A) (A) (A) (A)
                 (A) (A) (A) (A) (A) (A) (A) (A) (A) (A) (A) (A)
                 (A) (A) (A) (A) (A) (A) (A) (A) (A) (A) (A) (A)
                 (A) (A) (A) (A) (A) (A) (A) (A) (A) (A) (A) (A)
                 (A) (A) (A) (A) (A) (A) (A) (A) (A) (A) (A) (A)
                 (A) (A) (A) (A) (A) (A) (A) (A) (A) (A) (A) (A)
                 (A) (A) (A) (A) (A) (A) (A) (A) (A) (A) (A) (A)
                 (A) (A) (A) (A) (A) (A) (A) (A) (A) (A) (A) (A)
                 (A) (A) (A) (A) (A) (A) (A) (A) (A) (A) (A) (A)
                 (A) (A) (A) (A) (A) (A) (A) (A) (A) (A) (A) (A)
                 (A) (A) (A) (A) (A) (A) (A) (A) (A) (A) (A) (A)
                 (A) (A) (A) (A) (A) (A) (A) (A) (A) (A) (A) (A)
                 (A) (A) (A) (A) (A) (A) (A) (A) (A) (A) (A) (A)
                 (A) (A) (A) (A) (A) (A) (A) (A) (A) (A) (A) (A)
                 (A) (A) (A) (A) (A) (A) (A) (A) (A) (A) (A) (A)
                 (A) (A) (A) (A) (A) (A) (A) (A) (A) (A) (A) (A)
                 (A) (A) (A) (A) (A) (A) (A) (A) (A) (A) (A) (A)
                 (A) (A) (A) (A) (A) (A) (A) (A) (A) (A) (A) (A)
                 (A) (A) (A) (A) (A) (A) (A) (A) (A) (A) (A) (A)
                 (A) (A) (A) (A) (A) (A) (A) (A) (A) (A) (A) (A)
                 (A) (A) (A) (A) (A) (A) (A) (A) (A) (A) (A) (A)
                 (A) (A) (A) (A) (A) (A) (A) (A) (A)
 The electronic state is 1-A.
 Alpha  occ. eigenvalues --  -10.52508 -10.52448 -10.52442 -10.52401 -10.52248
 Alpha  occ. eigenvalues --  -10.52244 -10.52078  -0.92401  -0.88045  -0.82898
 Alpha  occ. eigenvalues --   -0.76173  -0.69983  -0.66850  -0.62078  -0.56085
 Alpha  occ. eigenvalues --   -0.52110  -0.50815  -0.50051  -0.48162  -0.46210
 Alpha  occ. eigenvalues --   -0.44488  -0.43890  -0.41507  -0.40393  -0.38806
 Alpha  occ. eigenvalues --   -0.37514  -0.37286  -0.36262  -0.34305
 Alpha virt. eigenvalues --    0.05990   0.08108   0.08283   0.08912   0.10626
 Alpha virt. eigenvalues --    0.11613   0.11954   0.13247   0.14731   0.15446
 Alpha virt. eigenvalues --    0.15850   0.17593   0.17926   0.18340   0.20790
 Alpha virt. eigenvalues --    0.21652   0.23078   0.23168   0.24382   0.25658
 Alpha virt. eigenvalues --    0.27591   0.28931   0.29549   0.30905   0.31514
 Alpha virt. eigenvalues --    0.32902   0.35418   0.35774   0.36640   0.37341
 Alpha virt. eigenvalues --    0.37815   0.38876   0.40654   0.41306   0.41596
 Alpha virt. eigenvalues --    0.42956   0.43442   0.47369   0.47712   0.48146
 Alpha virt. eigenvalues --    0.49065   0.49376   0.50327   0.50707   0.50857
 Alpha virt. eigenvalues --    0.51824   0.52239   0.52629   0.53789   0.54110
 Alpha virt. eigenvalues --    0.55111   0.56606   0.57158   0.57310   0.57919
 Alpha virt. eigenvalues --    0.58365   0.59300   0.61270   0.61990   0.64881
 Alpha virt. eigenvalues --    0.67537   0.68257   0.72689   0.73911   0.77276
 Alpha virt. eigenvalues --    0.79156   0.79585   0.79883   0.82263   0.86017
 Alpha virt. eigenvalues --    0.87037   0.87717   0.89278   0.90982   0.91782
 Alpha virt. eigenvalues --    0.92397   0.93177   0.94698   0.97303   0.97935
 Alpha virt. eigenvalues --    1.00880   1.01346   1.03168   1.04093   1.04838
 Alpha virt. eigenvalues --    1.05897   1.06445   1.08857   1.10150   1.10362
 Alpha virt. eigenvalues --    1.11065   1.11525   1.12083   1.12460   1.14812
 Alpha virt. eigenvalues --    1.15289   1.16026   1.16877   1.17030   1.17976
 Alpha virt. eigenvalues --    1.19267   1.20172   1.20835   1.22324   1.23435
 Alpha virt. eigenvalues --    1.24775   1.26166   1.26479   1.27704   1.29292
 Alpha virt. eigenvalues --    1.30778   1.32091   1.32705   1.34085   1.34396
 Alpha virt. eigenvalues --    1.34859   1.35289   1.36218   1.37234   1.37555
 Alpha virt. eigenvalues --    1.39071   1.39678   1.40498   1.41333   1.43150
 Alpha virt. eigenvalues --    1.44122   1.45886   1.47873   1.48447   1.48787
 Alpha virt. eigenvalues --    1.50496   1.51499   1.51983   1.54096   1.55565
 Alpha virt. eigenvalues --    1.55984   1.57394   1.59328   1.61725   1.64178
 Alpha virt. eigenvalues --    1.65981   1.68250   1.69647   1.70526   1.73524
 Alpha virt. eigenvalues --    1.75014   1.76582   1.88554   2.00508   2.16039
 Alpha virt. eigenvalues --    2.23110   2.26435   2.27903   2.31062   2.32758
 Alpha virt. eigenvalues --    2.34305   2.37133   2.39190   2.40608   2.42613
 Alpha virt. eigenvalues --    2.45711   2.47666   2.49335   2.50470   2.51997
 Alpha virt. eigenvalues --    2.54601   2.55241   2.57574   2.58679   2.59901
 Alpha virt. eigenvalues --    2.60918   2.61830   2.64502   2.65263   2.65929
 Alpha virt. eigenvalues --    2.68755   2.70089   2.71284   2.72256   2.73157
 Alpha virt. eigenvalues --    2.74167   2.75044   2.76444   2.78170   2.78947
 Alpha virt. eigenvalues --    2.79388   2.81922   2.83431   2.84012   2.85803
 Alpha virt. eigenvalues --    2.86888   2.87410   2.88334   2.89841   2.93962
 Alpha virt. eigenvalues --    2.94534   2.95715   2.96988   2.98229   2.98726
 Alpha virt. eigenvalues --    3.00174   3.00922   3.01154   3.02894   3.05324
 Alpha virt. eigenvalues --    3.05697   3.06433   3.07897   3.08482   3.09181
 Alpha virt. eigenvalues --    3.09791   3.10428   3.11446   3.13057   3.13478
 Alpha virt. eigenvalues --    3.14504   3.15238   3.15923   3.17033   3.17955
 Alpha virt. eigenvalues --    3.19048   3.20137   3.20264   3.20695   3.21156
 Alpha virt. eigenvalues --    3.24258   3.25400   3.26352   3.27802   3.28570
 Alpha virt. eigenvalues --    3.30082   3.30318   3.32507   3.34045   3.34481
 Alpha virt. eigenvalues --    3.35645   3.36666   3.37002   3.37070   3.39578
 Alpha virt. eigenvalues --    3.41143   3.42075   3.43338   3.43609   3.45255
 Alpha virt. eigenvalues --    3.47743   3.49980   3.50705   3.52396   3.53099
 Alpha virt. eigenvalues --    3.54016   3.56670   3.59359   3.60268   3.61001
 Alpha virt. eigenvalues --    3.61846   3.62193   3.65778   3.66487   3.67661
 Alpha virt. eigenvalues --    3.68087   3.69054   3.70173   3.71364   3.72871
 Alpha virt. eigenvalues --    3.73565   3.75380   3.76073   3.78356   3.78686
 Alpha virt. eigenvalues --    3.81639   3.82697   3.83323   3.84511   3.85519
 Alpha virt. eigenvalues --    3.86693   3.86884   3.87792   3.88938   3.89730
 Alpha virt. eigenvalues --    3.90550   3.91419   3.93242   3.95021   3.95593
 Alpha virt. eigenvalues --    3.96283   3.96814   3.97472   3.99317   4.00765
 Alpha virt. eigenvalues --    4.01404   4.02956   4.03248   4.04200   4.04837
 Alpha virt. eigenvalues --    4.05867   4.08113   4.10607   4.11031   4.12531
 Alpha virt. eigenvalues --    4.13210   4.14368   4.15311   4.15669   4.16394
 Alpha virt. eigenvalues --    4.18419   4.19156   4.20426   4.20981   4.22543
 Alpha virt. eigenvalues --    4.22881   4.24304   4.25314   4.26812   4.28708
 Alpha virt. eigenvalues --    4.30309   4.32632   4.33748   4.36926   4.37776
 Alpha virt. eigenvalues --    4.41433   4.42167   4.43783   4.44928   4.48218
 Alpha virt. eigenvalues --    4.51563   4.52868   4.56061   4.57397   4.58689
 Alpha virt. eigenvalues --    4.59448   4.61644   4.63942   4.66245   4.67929
 Alpha virt. eigenvalues --    4.70001   4.71835   4.73187   4.73831   4.75320
 Alpha virt. eigenvalues --    4.75730   4.78730   4.80757   4.81473   4.82995
 Alpha virt. eigenvalues --    4.85234   4.87235   4.88369   4.89245   4.91426
 Alpha virt. eigenvalues --    4.94280   4.94487   4.94909   4.96672   4.98344
 Alpha virt. eigenvalues --    5.00890   5.01792   5.05994   5.06851   5.07507
 Alpha virt. eigenvalues --    5.08397   5.10160   5.12290   5.16059   5.16448
 Alpha virt. eigenvalues --    5.19360   5.24153   5.24739   5.26551   5.27159
 Alpha virt. eigenvalues --    5.28142   5.29601   5.31519   5.32307   5.33675
 Alpha virt. eigenvalues --    5.37606   5.39508   5.42865   5.43953   5.44937
 Alpha virt. eigenvalues --    5.48126   5.51089   5.53066   5.54109   5.58965
 Alpha virt. eigenvalues --    5.60666   5.65412   5.68419   5.74286   5.75742
 Alpha virt. eigenvalues --    5.78326   5.78591   5.81962   5.84627   5.90970
 Alpha virt. eigenvalues --    5.96435   6.00425   6.10431  11.35453  11.96306
 Alpha virt. eigenvalues --   12.43017  13.17825  13.37025  13.74601  13.96170
          Condensed to atoms (all electrons):
               1          2          3          4          5          6
     1  C    5.123242   0.305992  -0.048421   0.318248  -0.043927  -0.037929
     2  C    0.305992   5.085532   0.314181  -0.063764  -0.048306   0.008969
     3  C   -0.048421   0.314181   5.067353   0.007028   0.311001  -0.000613
     4  C    0.318248  -0.063764   0.007028   5.045290   0.002102   0.284035
     5  C   -0.043927  -0.048306   0.311001   0.002102   5.102717   0.000228
     6  C   -0.037929   0.008969  -0.000613   0.284035   0.000228   4.966652
     7  C    0.002184   0.007305  -0.053194  -0.000033   0.301518   0.000002
     8  H   -0.048247  -0.002502   0.000011   0.410149  -0.000051  -0.044051
     9  H   -0.047665  -0.003958  -0.000152   0.411145   0.000002  -0.042859
    10  H    0.414507  -0.038263  -0.002965  -0.041711  -0.012873  -0.004421
    11  H    0.413413  -0.042860  -0.000783  -0.035883  -0.012817  -0.004516
    12  H   -0.048145   0.414515  -0.043096  -0.003265   0.005551   0.000013
    13  H   -0.049706   0.419066  -0.045126  -0.004433   0.006550  -0.000140
    14  H    0.005931  -0.041083   0.412624  -0.000203  -0.042720   0.000021
    15  H    0.005331  -0.043864   0.410967  -0.000277  -0.045781   0.000024
    16  H   -0.014047  -0.000713  -0.047362   0.000601   0.419480   0.000115
    17  H   -0.009806  -0.000726  -0.043473   0.000878   0.413859   0.000113
    18  H    0.004269   0.001092  -0.000128  -0.065276   0.000126   0.407102
    19  H    0.002781  -0.000561   0.000033  -0.043974  -0.000010   0.405869
    20  H    0.003830  -0.000575   0.000026  -0.044180  -0.000006   0.408093
    21  H   -0.000048   0.000422  -0.004554   0.000006  -0.054426   0.000000
    22  H   -0.000137  -0.000296  -0.002723   0.000001  -0.046825  -0.000000
    23  H    0.000059  -0.000566   0.008265  -0.000007  -0.043356   0.000001
               7          8          9         10         11         12
     1  C    0.002184  -0.048247  -0.047665   0.414507   0.413413  -0.048145
     2  C    0.007305  -0.002502  -0.003958  -0.038263  -0.042860   0.414515
     3  C   -0.053194   0.000011  -0.000152  -0.002965  -0.000783  -0.043096
     4  C   -0.000033   0.410149   0.411145  -0.041711  -0.035883  -0.003265
     5  C    0.301518  -0.000051   0.000002  -0.012873  -0.012817   0.005551
     6  C    0.000002  -0.044051  -0.042859  -0.004421  -0.004516   0.000013
     7  C    4.941406   0.000005   0.000003   0.000890   0.000403  -0.000286
     8  H    0.000005   0.621773  -0.040043   0.009417  -0.007403  -0.000587
     9  H    0.000003  -0.040043   0.616726  -0.008374   0.009057   0.003768
    10  H    0.000890   0.009417  -0.008374   0.597106  -0.042919  -0.005380
    11  H    0.000403  -0.007403   0.009057  -0.042919   0.596772   0.008339
    12  H   -0.000286  -0.000587   0.003768  -0.005380   0.008339   0.593478
    13  H   -0.000346   0.003710  -0.000355   0.008238  -0.008246  -0.038853
    14  H   -0.008231  -0.000016  -0.000031   0.000570  -0.000428  -0.015615
    15  H    0.000150  -0.000046  -0.000012  -0.000391   0.000890   0.006096
    16  H   -0.037115  -0.000137   0.000086  -0.008965   0.000710   0.000843
    17  H   -0.036714   0.000015  -0.000118  -0.001827  -0.007712  -0.000421
    18  H    0.000009   0.005907   0.006152   0.000620   0.001269   0.000030
    19  H   -0.000000   0.006732  -0.019623   0.001118  -0.000251  -0.000009
    20  H   -0.000000  -0.019240   0.006115  -0.000215   0.000860  -0.000012
    21  H    0.409744  -0.000000  -0.000001  -0.000052  -0.000115  -0.000083
    22  H    0.408177  -0.000001   0.000001  -0.000128   0.000104   0.000008
    23  H    0.407446   0.000000  -0.000000   0.000150   0.000027   0.000034
              13         14         15         16         17         18
     1  C   -0.049706   0.005931   0.005331  -0.014047  -0.009806   0.004269
     2  C    0.419066  -0.041083  -0.043864  -0.000713  -0.000726   0.001092
     3  C   -0.045126   0.412624   0.410967  -0.047362  -0.043473  -0.000128
     4  C   -0.004433  -0.000203  -0.000277   0.000601   0.000878  -0.065276
     5  C    0.006550  -0.042720  -0.045781   0.419480   0.413859   0.000126
     6  C   -0.000140   0.000021   0.000024   0.000115   0.000113   0.407102
     7  C   -0.000346  -0.008231   0.000150  -0.037115  -0.036714   0.000009
     8  H    0.003710  -0.000016  -0.000046  -0.000137   0.000015   0.005907
     9  H   -0.000355  -0.000031  -0.000012   0.000086  -0.000118   0.006152
    10  H    0.008238   0.000570  -0.000391  -0.008965  -0.001827   0.000620
    11  H   -0.008246  -0.000428   0.000890   0.000710  -0.007712   0.001269
    12  H   -0.038853  -0.015615   0.006096   0.000843  -0.000421   0.000030
    13  H    0.601796   0.006013  -0.017424  -0.000563   0.000639   0.000015
    14  H    0.006013   0.599510  -0.040910  -0.007148   0.008035   0.000003
    15  H   -0.017424  -0.040910   0.602843   0.008825  -0.007610   0.000002
    16  H   -0.000563  -0.007148   0.008825   0.616675  -0.040743   0.000041
    17  H    0.000639   0.008035  -0.007610  -0.040743   0.600248   0.000056
    18  H    0.000015   0.000003   0.000002   0.000041   0.000056   0.599111
    19  H   -0.000011  -0.000002  -0.000001  -0.000007  -0.000006  -0.034807
    20  H    0.000013  -0.000000  -0.000002  -0.000006  -0.000003  -0.036173
    21  H   -0.000041   0.004235  -0.000970  -0.000736   0.008232  -0.000000
    22  H    0.000003  -0.000230   0.002759   0.008578  -0.013293  -0.000000
    23  H    0.000025   0.000079  -0.000175  -0.012084   0.000122  -0.000000
              19         20         21         22         23
     1  C    0.002781   0.003830  -0.000048  -0.000137   0.000059
     2  C   -0.000561  -0.000575   0.000422  -0.000296  -0.000566
     3  C    0.000033   0.000026  -0.004554  -0.002723   0.008265
     4  C   -0.043974  -0.044180   0.000006   0.000001  -0.000007
     5  C   -0.000010  -0.000006  -0.054426  -0.046825  -0.043356
     6  C    0.405869   0.408093   0.000000  -0.000000   0.000001
     7  C   -0.000000  -0.000000   0.409744   0.408177   0.407446
     8  H    0.006732  -0.019240  -0.000000  -0.000001   0.000000
     9  H   -0.019623   0.006115  -0.000001   0.000001  -0.000000
    10  H    0.001118  -0.000215  -0.000052  -0.000128   0.000150
    11  H   -0.000251   0.000860  -0.000115   0.000104   0.000027
    12  H   -0.000009  -0.000012  -0.000083   0.000008   0.000034
    13  H   -0.000011   0.000013  -0.000041   0.000003   0.000025
    14  H   -0.000002  -0.000000   0.004235  -0.000230   0.000079
    15  H   -0.000001  -0.000002  -0.000970   0.002759  -0.000175
    16  H   -0.000007  -0.000006  -0.000736   0.008578  -0.012084
    17  H   -0.000006  -0.000003   0.008232  -0.013293   0.000122
    18  H   -0.034807  -0.036173  -0.000000  -0.000000  -0.000000
    19  H    0.616294  -0.032955  -0.000000  -0.000000  -0.000000
    20  H   -0.032955   0.608216  -0.000000   0.000000  -0.000000
    21  H   -0.000000  -0.000000   0.600696  -0.038176  -0.032932
    22  H   -0.000000   0.000000  -0.038176   0.607277  -0.028830
    23  H   -0.000000  -0.000000  -0.032932  -0.028830   0.600309
 Mulliken charges:
               1
     1  C   -0.251710
     2  C   -0.269038
     3  C   -0.238901
     4  C   -0.176477
     5  C   -0.212035
     6  C   -0.346706
     7  C   -0.343324
     8  H    0.104606
     9  H    0.110136
    10  H    0.135868
    11  H    0.132087
    12  H    0.123077
    13  H    0.119174
    14  H    0.119596
    15  H    0.119577
    16  H    0.113669
    17  H    0.130255
    18  H    0.110580
    19  H    0.099392
    20  H    0.106211
    21  H    0.108799
    22  H    0.103731
    23  H    0.101433
 Sum of Mulliken charges =  -0.00000
 Mulliken charges with hydrogens summed into heavy atoms:
               1
     1  C    0.016245
     2  C   -0.026787
     3  C    0.000272
     4  C    0.038265
     5  C    0.031889
     6  C   -0.030523
     7  C   -0.029361
 APT charges:
               1
     1  C   -0.325893
     2  C   -0.771242
     3  C   -0.848434
     4  C   -0.582550
     5  C   -0.157167
     6  C   -1.406807
     7  C   -1.453302
     8  H    0.366045
     9  H    0.354522
    10  H    0.259571
    11  H    0.259346
    12  H    0.367842
    13  H    0.361847
    14  H    0.400106
    15  H    0.394326
    16  H    0.208207
    17  H    0.222724
    18  H    0.203498
    19  H    0.471912
    20  H    0.500737
    21  H    0.394129
    22  H    0.378101
    23  H    0.402482
 Sum of APT charges =  -0.00000
 APT charges with hydrogens summed into heavy atoms:
               1
     1  C    0.193025
     2  C   -0.041552
     3  C   -0.054002
     4  C    0.138016
     5  C    0.273763
     6  C   -0.230661
     7  C   -0.278589
 Electronic spatial extent (au):  <R**2>=           1369.5786
 Charge=              0.0000 electrons
 Dipole moment (field-independent basis, Debye):
    X=              0.0380    Y=              0.0211    Z=              0.0000  Tot=              0.0434
 Quadrupole moment (field-independent basis, Debye-Ang):
   XX=            -51.2200   YY=            -49.7278   ZZ=            -47.7046
   XY=             -0.1138   XZ=              0.0489   YZ=              0.0733
 Traceless Quadrupole moment (field-independent basis, Debye-Ang):
   XX=             -1.6692   YY=             -0.1770   ZZ=              1.8462
   XY=             -0.1138   XZ=              0.0489   YZ=              0.0733
 Octapole moment (field-independent basis, Debye-Ang**2):
  XXX=              4.9074  YYY=             -0.6914  ZZZ=              0.4188  XYY=             -1.6714
  XXY=              3.0703  XXZ=             -0.0888  XZZ=              0.4810  YZZ=              0.9117
  YYZ=             -0.5788  XYZ=              0.0768
 Hexadecapole moment (field-independent basis, Debye-Ang**3):
 XXXX=          -1574.8924 YYYY=           -323.4237 ZZZZ=           -103.5737 XXXY=             -4.5618
 XXXZ=              3.1150 YYYX=              2.3352 YYYZ=              1.5864 ZZZX=             -2.8268
 ZZZY=             -0.4753 XXYY=           -317.5637 XXZZ=           -261.8127 YYZZ=            -68.2225
 XXYZ=              0.2737 YYXZ=              2.4173 ZZXY=              0.2785
 N-N= 3.204640948753D+02 E-N=-1.279403102549D+03  KE= 2.745255195831D+02
  Exact polarizability:   0.000   0.000   0.000   0.000   0.000   0.000
 Approx polarizability:  97.592   0.707  97.773  -0.489   0.663  98.717
 No NMR shielding tensors so no spin-rotation constants.
 Leave Link  601 at Fri Sep 27 10:51:27 2019, MaxMem=   671088640 cpu:              63.7 elap:              31.9
 (Enter /shared/centos7/gaussian/g16/l701.exe)
 SCFChk:  SCF convergence  4.99D-09 required  1.00D-08
 ... and contract with generalized density number  0.
 Compute integral second derivatives.
 Entering OneElI...
 Calculate overlap and kinetic energy integrals
    NBasis = 485  MinDer = 2  MaxDer = 2
 Requested accuracy = 0.1000D-12
 PrmmSu-InSpLW:  IPartL=    0 NPrtUS=   20 NPrtUL=    1 DoSpLW=F IThBeg=    0 IThEnd=   19 NThAct=   20.
 PrsmSu:  NPrtUS=  20 ThrOK=T IAlg=1 NPAlg=1 LenDen=           0 ISkipM=0 DoSpLW=F IThBeg=    0 IThEnd=   19.
 Prism:   IPart=     0 DynPar=F LinDyn=F Incr=           6.
 PRISM was handed    33208005 working-precision words and 13459 shell-pairs
 PRISM was handed    33208005 working-precision words and 13459 shell-pairs
 PRISM was handed    33208005 working-precision words and 13459 shell-pairs
 PRISM was handed    33208005 working-precision words and 13459 shell-pairs
 PRISM was handed    33208005 working-precision words and 13459 shell-pairs
 PRISM was handed    33208005 working-precision words and 13459 shell-pairs
 PRISM was handed    33208005 working-precision words and 13459 shell-pairs
 PRISM was handed    33208005 working-precision words and 13459 shell-pairs
 PRISM was handed    33208005 working-precision words and 13459 shell-pairs
 PRISM was handed    33208005 working-precision words and 13459 shell-pairs
 PRISM was handed    33208005 working-precision words and 13459 shell-pairs
 PRISM was handed    33208005 working-precision words and 13459 shell-pairs
 PRISM was handed    33208005 working-precision words and 13459 shell-pairs
 PRISM was handed    33208005 working-precision words and 13459 shell-pairs
 PRISM was handed    33208005 working-precision words and 13459 shell-pairs
 PRISM was handed    33208005 working-precision words and 13459 shell-pairs
 PRISM was handed    33208005 working-precision words and 13459 shell-pairs
 IPart=  1 NShTot=         703 NBatch=          80 AvBLen=         8.8
 PRISM was handed    33208005 working-precision words and 13459 shell-pairs
 PRISM was handed    33208005 working-precision words and 13459 shell-pairs
 PRISM was handed    33208005 working-precision words and 13459 shell-pairs
 IPart= 19 NShTot=         641 NBatch=          46 AvBLen=        13.9
 IPart= 12 NShTot=         664 NBatch=          56 AvBLen=        11.9
 IPart=  8 NShTot=         675 NBatch=          62 AvBLen=        10.9
 IPart=  3 NShTot=         697 NBatch=          76 AvBLen=         9.2
 IPart=  4 NShTot=         696 NBatch=          75 AvBLen=         9.3
 IPart= 14 NShTot=         659 NBatch=          53 AvBLen=        12.4
 IPart=  6 NShTot=         684 NBatch=          69 AvBLen=         9.9
 IPart= 17 NShTot=         646 NBatch=          47 AvBLen=        13.7
 IPart=  9 NShTot=         675 NBatch=          62 AvBLen=        10.9
 IPart=  7 NShTot=         677 NBatch=          62 AvBLen=        10.9
 IPart= 11 NShTot=         672 NBatch=          59 AvBLen=        11.4
 IPart=  0 NShTot=         704 NBatch=          81 AvBLen=         8.7
 IPart= 13 NShTot=         662 NBatch=          55 AvBLen=        12.0
 IPart=  5 NShTot=         687 NBatch=          71 AvBLen=         9.7
 IPart=  2 NShTot=         699 NBatch=          77 AvBLen=         9.1
 IPart= 15 NShTot=         655 NBatch=          52 AvBLen=        12.6
 IPart= 18 NShTot=         643 NBatch=          46 AvBLen=        14.0
 IPart= 16 NShTot=         647 NBatch=          48 AvBLen=        13.5
 IPart= 10 NShTot=         673 NBatch=          60 AvBLen=        11.2
 PrSmSu:  NxtVal=            121.
 Entering OneElI...
 Calculate potential energy integrals
    NBasis = 485  MinDer = 2  MaxDer = 2
 Requested accuracy = 0.1000D-12
 PrmmSu-InSpLW:  IPartL=    0 NPrtUS=   20 NPrtUL=    1 DoSpLW=F IThBeg=    0 IThEnd=   19 NThAct=   20.
 PrsmSu:  NPrtUS=  20 ThrOK=T IAlg=1 NPAlg=1 LenDen=           0 ISkipM=0 DoSpLW=F IThBeg=    0 IThEnd=   19.
 Prism:   IPart=     0 DynPar=F LinDyn=F Incr=         135.
 PRISM was handed    33271897 working-precision words and 11806 shell-pairs
 PRISM was handed    33271897 working-precision words and 11806 shell-pairs
 PRISM was handed    33271897 working-precision words and 11806 shell-pairs
 PRISM was handed    33271897 working-precision words and 11806 shell-pairs
 PRISM was handed    33271897 working-precision words and 11806 shell-pairs
 PRISM was handed    33271897 working-precision words and 11806 shell-pairs
 PRISM was handed    33271897 working-precision words and 11806 shell-pairs
 PRISM was handed    33271897 working-precision words and 11806 shell-pairs
 PRISM was handed    33271897 working-precision words and 11806 shell-pairs
 PRISM was handed    33271897 working-precision words and 11806 shell-pairs
 PRISM was handed    33271897 working-precision words and 11806 shell-pairs
 PRISM was handed    33271897 working-precision words and 11806 shell-pairs
 PRISM was handed    33271897 working-precision words and 11806 shell-pairs
 PRISM was handed    33271897 working-precision words and 11806 shell-pairs
 PRISM was handed    33271897 working-precision words and 11806 shell-pairs
 PRISM was handed    33271897 working-precision words and 11806 shell-pairs
 PRISM was handed    33271897 working-precision words and 11806 shell-pairs
 PRISM was handed    33271897 working-precision words and 11806 shell-pairs
 PRISM was handed    33271897 working-precision words and 11806 shell-pairs
 PRISM was handed    33271897 working-precision words and 11806 shell-pairs
 IPart=  8 NShTot=       13616 NBatch=         593 AvBLen=        23.0
 IPart= 12 NShTot=       13317 NBatch=         580 AvBLen=        23.0
 IPart= 19 NShTot=       12949 NBatch=         564 AvBLen=        23.0
 IPart=  6 NShTot=       13846 NBatch=         603 AvBLen=        23.0
 IPart= 13 NShTot=       13271 NBatch=         578 AvBLen=        23.0
 IPart=  9 NShTot=       13616 NBatch=         593 AvBLen=        23.0
 IPart= 11 NShTot=       13432 NBatch=         585 AvBLen=        23.0
 IPart=  7 NShTot=       13685 NBatch=         596 AvBLen=        23.0
 IPart=  3 NShTot=       14099 NBatch=         615 AvBLen=        22.9
 IPart= 14 NShTot=       13225 NBatch=         576 AvBLen=        23.0
 IPart= 16 NShTot=       13087 NBatch=         570 AvBLen=        23.0
 IPart= 18 NShTot=       12972 NBatch=         565 AvBLen=        23.0
 IPart= 17 NShTot=       13018 NBatch=         567 AvBLen=        23.0
 IPart=  4 NShTot=       14053 NBatch=         613 AvBLen=        22.9
 IPart= 10 NShTot=       13570 NBatch=         591 AvBLen=        23.0
 IPart=  5 NShTot=       14030 NBatch=         612 AvBLen=        22.9
 IPart=  2 NShTot=       14145 NBatch=         617 AvBLen=        22.9
 IPart=  0 NShTot=       14237 NBatch=         621 AvBLen=        22.9
 IPart= 15 NShTot=       13179 NBatch=         574 AvBLen=        23.0
 IPart=  1 NShTot=       14191 NBatch=         619 AvBLen=        22.9
 PrSmSu:  NxtVal=           2701.
 Polarizability after L701:
                1             2             3 
      1  0.000000D+00
      2  0.000000D+00  0.000000D+00
      3  0.000000D+00  0.000000D+00  0.000000D+00
 Dipole Derivatives after L701:
                 1             2             3             4             5 
      1   0.165010D+00  0.561381D+00 -0.466167D-01 -0.115035D+00 -0.161013D+00
      2   0.325538D-01 -0.304361D+00 -0.730232D-02 -0.470865D+00 -0.132886D+01
      3  -0.100836D-01  0.746148D-02 -0.838328D+00 -0.274575D-03 -0.177688D-01
                 6             7             8             9            10 
      1  -0.487010D-02 -0.105470D+01  0.888240D+00 -0.216936D-01 -0.566264D+00
      2  -0.324379D-01  0.718501D+00 -0.648573D+00 -0.564787D-02 -0.354758D+00
      3  -0.869833D+00 -0.117460D-01 -0.948427D-02 -0.842025D+00  0.981122D-02
                11            12            13            14            15 
      1  -0.192655D+01  0.112932D+00  0.840528D+00 -0.570928D+00 -0.313051D-01
      2  -0.365621D+00 -0.141466D-01  0.382340D+00 -0.478373D+00 -0.203998D-01
      3  -0.581184D-02 -0.815765D+00  0.241025D-01  0.123494D-01 -0.833656D+00
                16            17            18            19            20 
      1  -0.210951D+01  0.156774D+01 -0.498413D-01 -0.229602D+01 -0.325718D+00
      2   0.161929D+00 -0.113803D+01  0.605102D-02 -0.359806D+00 -0.106540D+01
      3   0.157447D-02 -0.126156D-02 -0.972881D+00 -0.195884D-01 -0.247012D-01
                21            22            23            24            25 
      1   0.116719D+00  0.416478D+00  0.507385D+00  0.701640D+00  0.345990D+00
      2   0.729137D-02  0.913375D-01  0.308114D+00  0.261475D+00  0.539583D-01
      3  -0.998489D+00  0.109238D+00  0.172494D+00  0.373542D+00 -0.971963D-01
                26            27            28            29            30 
      1   0.383667D+00 -0.763259D+00  0.105894D+00 -0.117702D+00 -0.128487D+00
      2   0.254016D+00 -0.250096D+00  0.933479D-01  0.268443D+00  0.162293D+00
      3  -0.158454D+00  0.463558D+00  0.115363D+00  0.197797D+00  0.404377D+00
                31            32            33            34            35 
      1   0.877805D-01 -0.104969D+00  0.154288D+00  0.155562D+00  0.560662D-01
      2   0.730447D-01  0.230490D+00 -0.147351D+00  0.119041D+00  0.529947D+00
      3  -0.126996D+00 -0.183346D+00  0.459768D+00 -0.531190D-01 -0.212418D+00
                36            37            38            39            40 
      1  -0.664189D-01  0.152712D+00  0.471382D-01  0.650305D-01  0.425391D+00
      2  -0.517950D+00  0.915006D-01  0.501410D+00  0.541942D+00 -0.203260D+00
      3   0.418018D+00  0.421626D-01  0.199589D+00  0.431420D+00  0.138948D+00
                41            42            43            44            45 
      1  -0.293692D+00  0.522068D+00  0.392293D+00 -0.317523D+00 -0.516624D+00
      2   0.351353D+00 -0.402393D+00 -0.183454D+00  0.361650D+00  0.404237D+00
      3  -0.158664D+00  0.423573D+00 -0.123600D+00  0.170262D+00  0.429034D+00
                46            47            48            49            50 
      1  -0.793024D-01  0.221428D+00  0.340414D+00 -0.418934D-01  0.185280D+00
      2  -0.161122D+00  0.278813D+00  0.282657D+00 -0.167620D+00  0.266535D+00
      3  -0.179774D+00  0.150706D+00  0.425110D+00  0.162507D+00 -0.134857D+00
                51            52            53            54            55 
      1  -0.339420D+00 -0.210660D+00 -0.754430D+00  0.909106D-01  0.824117D+00
      2  -0.285175D+00  0.326705D+00  0.727983D+00 -0.785590D-01 -0.208251D+00
      3   0.443529D+00 -0.271439D-01 -0.478049D-01  0.931692D-01 -0.211140D+00
                56            57            58            59            60 
      1  -0.922973D-01 -0.117327D+01  0.989517D+00  0.726350D-01  0.110312D+01
      2   0.139437D+00  0.284570D+00 -0.196267D+00  0.115401D+00 -0.204830D+00
      3  -0.751114D-02  0.452182D+00  0.237136D+00  0.533805D-01  0.397293D+00
                61            62            63            64            65 
      1   0.835025D+00 -0.912955D+00  0.600780D+00  0.508450D+00 -0.237645D-01
      2   0.416706D-02  0.117286D+00 -0.288712D-01  0.956413D-01  0.780679D-01
      3   0.135896D+00 -0.185492D+00  0.230076D+00 -0.119844D+00 -0.106452D-02
                66            67            68            69 
      1  -0.121765D+01  0.228634D+00  0.111058D+01  0.551553D+00
      2  -0.306658D+00  0.613363D-01  0.800271D+00  0.351300D+00
      3   0.547785D+00  0.376733D-02  0.184600D+00  0.178543D+00
 Hessian after L701:
                1             2             3             4             5 
      1  0.145256D+02
      2  0.139526D+01  0.177996D+02
      3  0.175258D+00 -0.366797D-01  0.185277D+02
      4 -0.469121D+01 -0.208721D+01  0.209143D-01  0.148175D+02
      5 -0.217018D+01 -0.391616D+01 -0.273755D-01  0.372017D+00  0.163896D+02
      6  0.284090D-01 -0.376486D-01 -0.618758D+01 -0.201788D-01 -0.425527D-02
      7  0.371891D+00 -0.139305D+00  0.107197D-01 -0.231585D+01  0.736167D+00
      8 -0.154929D+00 -0.942480D-02 -0.684681D-02  0.754400D+00 -0.591570D+01
      9  0.134782D-01 -0.867526D-02 -0.187426D+00 -0.138438D-02 -0.211569D-02
     10 -0.201700D+01  0.278457D+00 -0.191052D+00  0.266826D+00 -0.412222D-01
     11  0.293224D+00 -0.621973D+01 -0.100157D-01 -0.210977D+00 -0.188741D-01
     12 -0.180200D+00 -0.100826D-01 -0.608793D+01  0.100084D-01 -0.942628D-02
     13  0.217035D+00  0.165882D+00 -0.233233D-01  0.149693D+00  0.238494D+00
     14 -0.273237D-01 -0.874683D-01 -0.655714D-02  0.241321D+00  0.184000D+00
     15 -0.256458D-01 -0.329217D-02 -0.120576D+00  0.102920D-01  0.127238D-01
     16  0.190923D+00 -0.319400D+00  0.143891D-01  0.160383D+00 -0.204890D+00
     17 -0.176388D+00 -0.142276D-01 -0.112244D-01 -0.206917D+00  0.493890D-02
     18  0.518707D-02 -0.618616D-02 -0.221567D+00  0.227639D-02 -0.154330D-02
     19  0.162183D+00  0.716547D-01 -0.411444D-03  0.143592D+00  0.178647D+00
     20  0.563153D-01 -0.806583D-01 -0.759424D-03  0.184912D+00 -0.144055D-01
     21  0.506204D-02  0.167804D-02 -0.104581D+00  0.313735D-02  0.173266D-02
     22 -0.709709D-01 -0.107016D+00 -0.573693D-01  0.430567D-01 -0.709395D-02
     23 -0.745394D-01  0.800715D-01  0.103992D-01  0.347807D-02 -0.195624D-01
     24 -0.421898D-01 -0.398183D-02  0.137775D+00  0.368208D-01  0.579344D-02
     25 -0.609939D-01 -0.985028D-01  0.859201D-01  0.325346D-01 -0.192280D-02
     26 -0.691333D-01  0.761570D-01  0.400688D-02  0.165594D-02 -0.165060D-01
     27  0.634864D-01  0.199007D-01  0.125151D+00 -0.391317D-01 -0.729439D-02
     28 -0.456496D+01  0.490582D+00  0.505861D+00  0.743481D-01  0.891465D-01
     29  0.574783D+00 -0.356702D+01  0.126086D+01  0.346752D-01 -0.722309D-01
     30  0.612483D+00  0.127736D+01 -0.319154D+01  0.116190D-01  0.298793D-02
     31 -0.456245D+01  0.399930D+00 -0.526462D+00  0.885950D-01  0.865070D-01
     32  0.468431D+00 -0.385450D+01 -0.116817D+01  0.335513D-01 -0.860977D-01
     33 -0.637789D+00 -0.118501D+01 -0.287842D+01 -0.849803D-02  0.203644D-01
     34  0.113973D+00  0.800812D-01 -0.524791D-01 -0.430174D+01  0.389591D+00
     35  0.704453D-01 -0.100198D+00  0.650068D-01  0.436167D+00 -0.338802D+01
     36 -0.400760D-01  0.716422D-01  0.137312D+00 -0.465465D+00 -0.115199D+01
     37  0.125299D+00  0.691234D-01  0.440142D-01 -0.430595D+01  0.347924D+00
     38  0.599269D-01 -0.105130D+00 -0.624848D-01  0.387327D+00 -0.340509D+01
     39  0.294261D-01 -0.670875D-01  0.145391D+00  0.432530D+00  0.116112D+01
     40  0.928356D-01 -0.539148D-01  0.443811D-01 -0.106827D+00 -0.239963D-01
     41 -0.735883D-01 -0.189364D-01 -0.255188D-01 -0.673766D-03  0.109453D+00
     42  0.631140D-01 -0.203970D-01 -0.225594D-01 -0.102083D-01 -0.377882D-01
     43  0.882132D-01 -0.491038D-01 -0.409910D-01 -0.103076D+00 -0.264603D-01
     44 -0.704485D-01 -0.199568D-01  0.244225D-01 -0.361330D-02  0.117450D+00
     45 -0.593629D-01  0.181928D-01 -0.218218D-01  0.111326D-01  0.385695D-01
     46 -0.641262D-01 -0.634733D-02  0.882115D-02 -0.608152D-02  0.236973D-01
     47  0.760563D-02  0.276722D-01  0.226285D-01  0.473285D-01  0.225571D-01
     48  0.400957D-01  0.422969D-01  0.335652D-01  0.183206D-01  0.184401D-01
     49 -0.510841D-01  0.617932D-02 -0.220240D-01 -0.750140D-02  0.235189D-01
     50  0.249953D-01  0.158558D-01 -0.290666D-01  0.457797D-01  0.279066D-01
[...]
 .01193537,-0.01196619,-0.01377125,-0.06685840,-0.11043992,-0.08829291,
 0.00012845,0.00010848,0.00013413,0.01231444,0.01004073,0.01726339,0.00
 002763,-0.00000110,0.00006067,0.00082449,0.00137092,-0.00035157,0.0001
 7808,0.00010709,-0.00005888,-0.00000623,-0.00006137,0.00001402,-0.0002
 3857,0.00056105,0.00053811,0.00001151,0.00003522,0.00005353,0.00054133
 ,0.00011595,-0.00013488,-0.00267608,-0.00170292,0.00266633,0.07483947,
 0.12243964,-0.00013933,0.00058772,0.00146638,0.00937805,0.00816251,0.0
 1035918,-0.09205896,-0.08802935,-0.16729768,0.00010007,0.00031302,0.00
 014485,-0.01144682,-0.00974059,-0.01586228,-0.00009018,-0.00008913,-0.
 00001261,-0.00047135,-0.00120074,0.00050915,-0.00000510,-0.00007447,-0
 .00015964,-0.00001192,-0.00000582,-0.00001169,-0.00053282,-0.00014730,
 -0.00000875,0.00008855,-0.00003390,-0.00003783,-0.00063431,-0.00061923
 ,0.00071980,0.00283458,0.00203839,-0.00052655,0.10222126,0.09242218,0.
 18302894,-0.00125997,-0.00452254,0.00096669,-0.01487109,0.01229137,0.0
 1238550,-0.15162496,0.09182425,0.08481068,-0.00052122,0.00123860,0.000
 64169,-0.01087465,0.01052574,0.00777097,-0.00023207,-0.00046145,0.0002
 1247,0.00080450,-0.00122973,0.00050407,-0.00003264,-0.00001073,-0.0000
 7564,0.00001883,-0.00004292,0.00005989,0.00015861,0.00009312,0.0001047
 0,0.00019807,0.00003769,-0.00022836,0.00101162,-0.00008003,-0.00018666
 ,0.00019114,0.00036318,-0.00067562,0.01155971,-0.00972185,-0.00893747,
 0.16561783,-0.00225453,-0.00286900,0.00126204,-0.01474050,0.01176621,0
 .01261029,0.09222611,-0.12920678,-0.07853342,-0.00060558,0.00084933,0.
 00059811,0.01448511,-0.01548822,-0.01049721,-0.00019950,-0.00033719,0.
 00019994,0.00061401,0.00076182,-0.00146433,0.00000647,0.00001812,-0.00
 006286,0.00003700,0.00000420,0.00001440,0.00010959,0.00005676,0.000225
 09,-0.00019170,0.00004570,-0.00004184,0.00064421,0.00097339,-0.0003644
 0,0.00059534,0.00070906,-0.00057623,0.01018271,-0.00974455,-0.00834569
 ,-0.10152992,0.14331153,0.00176557,0.00325897,-0.00064145,0.00888296,-
 0.00876719,-0.00900309,0.08549015,-0.07819739,-0.11914662,0.00068501,-
 0.00089235,-0.00003923,-0.01343414,0.01411638,0.01002735,0.00015955,0.
 00035849,-0.00016787,-0.00102305,-0.00007104,0.00145377,0.00009221,0.0
 0007753,-0.00001104,-0.00005797,0.00000646,-0.00004987,-0.00028775,0.0
 0035215,0.00042610,0.00021464,-0.00004105,0.00005266,-0.00035824,-0.00
 019984,-0.00019388,-0.00014390,0.00025329,0.00070126,0.01421535,-0.012
 36305,-0.01221585,-0.09487234,0.08002896,0.13009183,-0.00057503,-0.000
 15818,0.00042200,-0.00005563,-0.00038972,-0.00006673,-0.00952718,0.010
 33987,0.00705949,0.00023771,-0.00021231,-0.00004058,-0.13257428,0.0937
 2614,0.07616274,0.00005041,0.00002159,-0.00001847,-0.01411230,0.013610
 98,0.01307672,-0.00003131,-0.00004007,0.00000853,-0.00005211,-0.000065
 45,0.00007026,-0.00004124,0.00015994,-0.00022584,-0.00014407,-0.001094
 34,0.00118508,0.00003344,0.00003896,-0.00003139,0.00003256,-0.00001956
 ,-0.00002842,0.00018353,-0.00038427,0.00032801,-0.00069466,0.00193069,
 -0.00198694,0.14664527,0.00065595,-0.00029100,0.00038432,0.00061454,0.
 00021734,-0.00088539,0.01275035,-0.01513484,-0.01130311,-0.00056739,0.
 00031588,-0.00010114,0.09427586,-0.15229555,-0.08819092,-0.00002694,0.
 00000417,0.00006427,-0.01188122,0.01175077,0.01110356,0.00007479,0.000
 03452,0.00000450,0.00013752,0.00017967,-0.00018316,-0.00005867,-0.0000
 8969,0.00010061,-0.00125865,0.00009932,0.00037283,-0.00018097,0.000218
 66,0.00019584,0.00000530,-0.00000661,0.00008623,-0.00045758,0.00115545
 ,0.00021807,0.00158489,-0.00194746,0.00358144,-0.10270934,0.16612984,0
 .00136137,0.00023617,-0.00001083,0.00030402,-0.00076603,0.00070792,-0.
 01332911,0.01451227,0.01161733,-0.00023449,0.00006287,-0.00015027,0.07
 676655,-0.08873883,-0.11969809,0.00000403,-0.00002587,0.00002487,0.010
 45953,-0.01019117,-0.01032002,-0.00003702,-0.00004618,0.00002849,0.000
 01202,0.00006880,-0.00002907,-0.00017278,-0.00028298,-0.00020009,0.000
 52771,0.00107506,-0.00110755,-0.00005598,-0.00023292,0.00005524,0.0000
 6154,0.00005765,-0.00004017,0.00038557,-0.00076621,0.00115099,-0.00212
 863,0.00375582,-0.00200269,-0.08714163,0.09143557,0.13124208,0.0002462
 1,0.00005188,-0.00007168,0.00072936,-0.00053977,0.00109506,-0.00974386
 ,-0.00707021,-0.01100793,-0.00003022,-0.00003869,-0.00007121,-0.137158
 77,-0.07299318,-0.09552033,0.00000362,0.00001846,-0.00000686,-0.014409
 30,-0.01209679,-0.01392120,0.00000663,0.00000156,-0.00000044,0.0000151
 8,0.00000943,-0.00000728,-0.00006612,0.00006090,0.00000166,-0.00007777
 ,0.00015681,-0.00028797,0.00005252,0.00010354,0.00032984,0.00057327,0.
 00043512,-0.00017107,-0.00073248,0.00208704,-0.00149595,-0.00004472,-0
 .00031338,0.00035299,0.01172990,0.00892387,0.01185285,0.15003995,-0.00
 007148,0.00009822,-0.00013203,0.00073691,0.00170442,0.00006705,0.01307
 648,0.01006046,0.01607553,-0.00004411,-0.00000428,0.00001266,-0.073555
 70,-0.11014421,-0.08231399,-0.00000750,0.00001320,-0.00001250,-0.01066
 431,-0.00956811,-0.01071327,-0.00000026,0.00002415,0.00000097,0.000009
 58,0.00000446,0.00000260,0.00013531,-0.00007959,0.00000004,-0.00004263
 ,-0.00006177,-0.00016344,0.00013333,0.00014086,-0.00030201,-0.00026177
 ,-0.00017720,-0.00052330,0.00217313,-0.00235048,0.00354688,-0.00038848
 ,0.00083941,-0.00073981,-0.01241255,-0.01072229,-0.01297679,0.08259312
 ,0.12019987,0.00010272,0.00019508,-0.00020363,-0.00062566,-0.00145969,
 0.00061996,-0.01265739,-0.00929946,-0.01604093,0.00007293,-0.00005453,
 0.00003124,-0.09648046,-0.08276953,-0.15191373,0.00000642,0.00002902,-
 0.00002069,0.01214356,0.01020208,0.01193911,0.00004663,0.00007438,-0.0
 0001942,-0.00001957,-0.00001407,0.00002431,-0.00001940,0.00001417,0.00
 032198,0.00010659,-0.00022960,-0.00020774,0.00021187,0.00009937,0.0004
 6085,0.00061777,0.00082973,-0.00000056,-0.00196269,0.00366872,-0.00154
 244,0.00025281,0.00022285,0.00085345,-0.01001100,-0.00825343,-0.011420
 26,0.10645826,0.08537887,0.16672956,0.00070571,0.00054383,-0.00170649,
 0.00004475,-0.00011072,0.00035719,0.00005639,-0.00004159,0.00004297,-0
 .01420475,0.01249743,-0.01209328,-0.00007956,0.00004534,0.00002900,-0.
 14257916,0.08993618,-0.08964072,0.00002216,-0.00003470,0.00000984,0.00
 096654,-0.00043570,0.00018442,-0.00185314,0.00197943,0.00332793,-0.000
 06838,-0.00001122,0.00000945,-0.00013069,-0.00054377,0.00081943,0.0002
 4216,-0.00021604,-0.00003385,-0.00000963,0.00001064,-0.00001567,-0.000
 00342,0.00000157,0.00000227,0.00001146,0.00000157,-0.00000451,-0.00000
 112,-0.00003886,-0.00001280,0.00000267,0.00000510,0.00000915,0.1544074
 1,-0.00104587,0.00046083,0.00030014,-0.00016066,0.00012326,-0.00012279
 ,-0.00005939,0.00001438,-0.00004731,0.01077224,-0.01089045,0.00946102,
 0.00005371,0.00002134,0.00001241,0.09009054,-0.13330918,0.08517152,-0.
 00001431,0.00000306,-0.00001763,-0.00050126,0.00003099,0.00028959,0.00
 204839,-0.00076619,-0.00265052,-0.00000175,0.00001095,-0.00010742,0.00
 022222,0.00062576,-0.00032313,-0.00017737,0.00005628,0.00008577,0.0000
 1447,-0.00005560,-0.00003104,-0.00000578,0.00000420,0.00000233,0.00001
 495,-0.00000244,-0.00000975,0.00000803,-0.00000729,0.00000737,-0.00000
 274,-0.00001262,-0.00001479,-0.10236267,0.14342301,-0.00024206,-0.0008
 1847,0.00145542,0.00012497,-0.00032294,0.00007390,-0.00009656,0.000093
 44,-0.00002284,0.01341315,-0.01186543,0.01168255,0.00001379,0.00001442
 ,-0.00000182,-0.09043336,0.08576064,-0.13122843,-0.00000335,0.00000814
 ,-0.00000385,-0.00074989,0.00044033,0.00102674,0.00347921,-0.00209878,
 -0.00169415,-0.00004324,0.00014137,-0.00006504,-0.00040771,0.00022544,
 -0.00010233,-0.00004527,0.00012806,-0.00015353,-0.00000555,-0.00000738
 ,-0.00001127,-0.00000042,-0.00000413,0.00000003,-0.00002829,-0.0000222
 7,0.00002548,-0.00000135,0.00001621,0.00000156,0.00000307,-0.00000481,
 -0.00000584,0.09641134,-0.09212353,0.14077327,0.00166551,0.00085514,-0
 .00017072,0.00003907,0.00022124,0.00009405,-0.00000613,-0.00009745,-0.
 00010785,0.01121753,0.01370084,0.01603474,0.00000528,0.00000004,0.0000
 0141,-0.11069459,-0.07705494,-0.08480831,-0.00000446,-0.00000211,-0.00
 000164,-0.00249677,0.00235557,0.00342392,0.00107464,-0.00048808,-0.000
 73978,-0.00014863,-0.00027365,-0.00043910,-0.00005619,-0.00016118,-0.0
 0004817,0.00001964,0.00002546,-0.00000050,-0.00010899,-0.00010405,-0.0
 0011044,-0.00003118,-0.00002431,0.00001986,0.00002773,0.00002012,-0.00
 002525,-0.00000254,-0.00001180,0.00000088,-0.00000228,0.00000640,0.000
 00108,-0.00994831,-0.01195579,-0.01121078,0.11875307,-0.00044604,0.000
 52022,0.00099682,0.00015819,0.00013292,0.00022680,0.00002006,-0.000004
 26,0.00001609,-0.00808787,-0.01109034,-0.01150171,0.00001646,0.0000061
 3,0.00000446,-0.07648749,-0.13888502,-0.09991288,-0.00000831,-0.000002
 21,-0.00000595,0.00286082,-0.00074169,-0.00170283,-0.00031810,0.000016
 31,0.00045812,0.00037138,0.00062159,-0.00023851,0.00012638,0.00000544,
 0.00000063,-0.00000169,-0.00005666,-0.00002162,-0.00011049,0.00003608,
 0.00017160,0.00002079,0.00002379,-0.00001252,0.00001506,-0.00000045,-0
 .00002154,0.00000315,-0.00000944,0.00000227,0.00000184,-0.00000328,0.0
 0000474,0.00930489,0.01221855,0.01245509,0.08218773,0.14950411,-0.0015
 6862,-0.00040965,0.00053959,0.00034385,0.00017406,0.00012400,0.0000221
 5,0.00001153,0.00001779,-0.00914164,-0.01141255,-0.01349667,0.00003406
 ,-0.00001959,-0.00002790,-0.08408937,-0.09982088,-0.15760965,-0.000009
 80,0.00000987,-0.00000123,0.00327385,-0.00174724,-0.00109619,0.0002061
 1,0.00039922,0.00087649,0.00079980,0.00048008,-0.00010053,-0.00000742,
 0.00000638,-0.00009428,-0.00006496,0.00000160,-0.00000312,-0.00008669,
 0.00016009,0.00023011,0.00005498,0.00002479,-0.00001151,0.00000033,0.0
 0000266,0.00000410,-0.00001523,0.00000749,-0.00001086,0.00000015,0.000
 00944,0.00002205,-0.00842674,-0.01106628,-0.01199576,0.09017779,0.1129
 9697,0.17030961,-0.00214026,0.00409525,0.00218902,-0.00019651,-0.00139
 972,0.00067334,-0.00020690,0.00042524,0.00025369,-0.01202297,-0.014870
 55,0.00966476,-0.00005953,0.00002867,-0.00004323,-0.13267034,-0.097634
 91,0.07819723,0.00003145,-0.00000996,0.00001911,0.00090885,0.00016305,
 -0.00022253,0.00015602,-0.00027548,-0.00073191,0.00031865,0.00030619,-
 0.00019655,0.00018968,-0.00014731,0.00016215,-0.00001658,0.00000395,-0
 .00009862,-0.00002186,0.00006595,0.00010674,0.00001316,-0.00002359,-0.
 00002739,-0.00014376,-0.00010794,0.00011300,0.00000069,0.00001194,-0.0
 0001134,0.00000739,0.00000628,0.00000731,0.01241358,0.01305720,-0.0101
 7224,-0.00930906,-0.00963592,0.00848796,0.14276508,0.00178217,-0.00181
 344,-0.00159532,0.00061808,0.00083284,-0.00052528,0.00017605,-0.000224
 11,-0.00018978,0.01088505,0.01277644,-0.01001810,0.00003465,-0.0000485
 7,0.00000467,-0.09856781,-0.15913578,0.09058988,-0.00000847,0.00001386
 ,-0.00000739,-0.00071515,0.00068899,0.00054008,-0.00060729,0.00068040,
 0.00063449,0.00028703,0.00005771,0.00007921,-0.00006822,0.00005449,-0.
 00029640,-0.00003845,0.00003281,0.00007606,-0.00006496,0.00003324,0.00
 002287,0.00000056,-0.00000735,0.00001218,0.00007318,0.00005417,-0.0000
 5747,-0.00000799,0.00001718,0.00000554,-0.00000376,0.00000038,-0.00000
 394,-0.01053055,-0.01195772,0.00799020,-0.00920403,-0.01230070,0.01018
 589,0.10596372,0.17024107,0.00213511,-0.00360852,-0.00170183,0.0007104
 0,0.00125420,0.00002134,0.00020620,-0.00040289,-0.00024671,0.00924053,
 0.01323413,-0.01010318,0.00004697,-0.00000119,0.00004465,0.07823508,0.
 08972042,-0.11947623,-0.00002834,0.00000150,-0.00001782,-0.00065897,0.
 00029270,0.00004508,-0.00027862,-0.00020280,0.00080614,0.00021845,0.00
 019318,0.00016314,-0.00019884,-0.00038034,0.00034650,0.00007715,-0.000
 05071,0.00000425,-0.00009018,0.00000669,-0.00003502,-0.00000640,0.0000
 1303,0.00002430,0.00013159,0.00009984,-0.00011290,-0.00000940,-0.00001
 942,0.00000024,-0.00000776,-0.00000143,-0.00000257,0.01073018,0.011191
 59,-0.00975942,-0.01208826,-0.01390993,0.01232481,-0.08838580,-0.09745
 153,0.12768898,-0.00006069,-0.00000596,-0.00007348,0.00005804,0.000191
 53,0.00023566,0.00063046,0.00105897,-0.00084781,0.00002505,0.00001466,
 0.00002431,-0.01525150,-0.01246579,-0.01483296,-0.00000649,-0.00001219
 ,-0.00000577,-0.14062285,-0.07775468,-0.09986220,0.00001017,0.00001941
 ,-0.00000588,-0.00000503,-0.00000825,0.00000942,0.00002261,0.00000204,
 0.00007735,0.00003821,-0.00004390,-0.00004780,0.00001868,-0.00000739,0
 .00008624,0.00011525,0.00021811,-0.00007209,0.00056211,-0.00033754,0.0
 0063412,0.00001012,-0.00006146,0.00017179,0.00037391,0.00070435,-0.000
 40369,-0.00243278,-0.00233885,0.00323727,0.00000020,-0.00000243,-0.000
 00487,0.00000449,0.00000351,0.00001108,-0.00000603,0.00000235,0.000007
 89,0.15333929,-0.00004877,0.00006830,-0.00004700,0.00010689,0.00001205
 ,0.00028530,-0.00017212,0.00061479,-0.00151818,0.00003893,-0.00002798,
 0.00000009,-0.01043238,-0.00968645,-0.01077206,-0.00000044,0.00000615,
 -0.00000890,-0.07776695,-0.11315476,-0.08350727,0.00000321,0.00000928,
 -0.00000273,-0.00000688,-0.00001415,0.00001355,-0.00000343,0.00000703,
 0.00003967,0.00006860,-0.00003223,-0.00002674,0.00000768,-0.00001850,0
 .00008148,0.00018191,0.00018222,-0.00000681,0.00017336,-0.00012838,0.0
 0075728,0.00003520,-0.00013875,-0.00007089,0.00052983,0.00072374,0.000
 30003,-0.00235978,-0.00083725,0.00246810,0.00000622,-0.00000274,0.0000
 0003,0.00000022,0.00000265,0.00000275,0.00000165,-0.00000248,0.0000000
 8,0.08904906,0.12063658,-0.00001727,-0.00005111,0.00001208,0.00021355,
 0.00009917,0.00012898,0.00060538,-0.00018854,0.00151651,-0.00000504,0.
 00001930,0.00000223,0.01099038,0.00999293,0.01164593,-0.00000515,-0.00
 001133,0.00000193,-0.10049427,-0.08406140,-0.15314054,-0.00000410,-0.0
 0000682,0.00000129,-0.00000123,-0.00000223,0.00000096,0.00000352,-0.00
 000101,-0.00002202,0.00000186,0.00000898,0.00002502,-0.00006865,-0.000
 07495,-0.00000951,-0.00007683,-0.00002559,-0.00015378,-0.00015704,-0.0
 0044242,-0.00009105,-0.00018426,-0.00006233,-0.00004843,-0.00070420,-0
 .00054739,0.00089061,0.00278735,0.00268038,-0.00113005,-0.00000009,0.0
 0000207,-0.00000085,0.00000235,0.00000259,-0.00000031,-0.00000675,-0.0
 0000039,0.00000564,0.10804259,0.09048113,0.16437966,-0.00022080,0.0001
 3695,-0.00010768,0.00004310,-0.00014828,-0.00020264,0.00051480,0.00093
 968,-0.00122807,0.00014484,-0.00005722,0.00000801,-0.01470725,0.014518
 14,0.01389103,0.00000228,-0.00000222,-0.00001421,-0.13047505,0.0922639
 7,0.08147314,-0.00001698,-0.00000873,-0.00000283,-0.00002716,-0.000042
 83,0.00003809,0.00000806,0.00000934,-0.00001555,0.00018727,-0.00007957
 ,0.00007680,0.00000333,-0.00004504,0.00000708,-0.00006802,-0.00001914,
 -0.00000854,0.00002529,-0.00009486,-0.00003033,0.00067843,-0.00057127,
 0.00022415,-0.00243139,-0.00329750,0.00228088,0.00040344,0.00041840,-0
 .00070975,0.00001222,0.00000409,-0.00000271,0.00000243,0.00000398,-0.0
 0000355,-0.00000632,-0.00000813,0.00000986,0.01213140,-0.01256986,-0.0
 1066757,0.14232612,-0.00017792,-0.00009048,0.00009914,-0.00018898,0.00
 019364,-0.00011135,-0.00085279,0.00163129,-0.00000651,0.00007460,-0.00
 003549,0.00003368,-0.01035223,0.01121188,0.01123524,0.00000463,-0.0000
 0097,-0.00000533,0.09302517,-0.14851595,-0.09111522,-0.00000529,-0.000
 00138,-0.00000034,-0.00001945,-0.00002034,0.00002087,0.00001019,0.0000
 1213,-0.00001311,0.00011307,-0.00005537,0.00000976,0.00004431,0.000022
 52,-0.00006801,-0.00000063,-0.00000859,-0.00000724,0.00010772,-0.00007
 518,-0.00000280,0.00024208,-0.00008939,-0.00041915,-0.00273619,-0.0011
 4499,0.00268880,0.00073238,0.00091487,-0.00053944,0.00000035,-0.000000
 06,-0.00000207,0.00000080,-0.00000064,0.00000220,0.00000247,0.00000329
 ,-0.00000235,0.00910363,-0.01032005,-0.00747794,-0.09961221,0.15947513
 ,0.00009546,-0.00016530,0.00004366,-0.00010424,0.00034459,0.00020943,0
 .00033261,-0.00172369,0.00040779,-0.00012010,0.00007938,0.00001389,0.0
 0943863,-0.01007150,-0.01024438,-0.00000942,-0.00001449,0.00001403,0.0
 8151068,-0.09029695,-0.12807181,0.00001325,0.00000662,-0.00000006,0.00
 002337,0.00003152,-0.00003273,0.00000060,-0.00000573,0.00002254,-0.000
 16181,0.00007343,-0.00003031,0.00000826,0.00004311,-0.00003271,0.00000
 609,-0.00002176,-0.00001242,0.00002713,0.00000232,-0.00003028,-0.00035
 245,0.00084271,-0.00014702,0.00223914,0.00241922,-0.00069492,-0.000473
 11,0.00033057,0.00077896,-0.00001033,-0.00000055,0.00000066,-0.0000004
 7,-0.00000244,0.00000446,-0.00000077,0.00000797,-0.00000028,0.01211203
 ,-0.01228345,-0.01153166,-0.09306816,0.09795856,0.13702399,0.00014836,
 -0.00002978,-0.00008635,0.00095274,-0.00095442,0.00092188,-0.00373528,
 -0.00173637,0.00174443,-0.00002784,0.00002493,0.00001165,0.01194040,-0
 .01664368,0.01552548,-0.00000613,-0.00000604,-0.00000035,-0.10035286,0
 .07975555,-0.07341617,0.00000542,-0.00000273,-0.00000125,0.00000066,0.
 00001567,-0.00001963,-0.00000466,0.00001225,0.00001509,-0.00004555,0.0
 0004202,-0.00001103,-0.00031124,-0.00031542,0.00024737,0.00003314,0.00
 003719,-0.00007159,0.00000329,0.00009217,0.00027518,0.00001169,-0.0002
 7716,-0.00017330,0.00095541,0.00074957,-0.00048946,0.00088817,0.000493
 59,-0.00078846,-0.00000709,0.00000420,0.00000213,-0.00000027,0.0000016
 7,0.00000193,-0.00000442,0.00000195,0.00000314,-0.00895464,0.01315785,
 -0.01025451,-0.00853005,0.01048429,-0.01150639,0.10704076,0.00001887,-
 0.00023521,-0.00000687,0.00094155,-0.00009546,0.00082935,-0.00380539,-
 0.00113104,0.00114389,-0.00004156,0.00011348,0.00003757,0.00844308,-0.
 01102162,0.00880952,-0.00001883,-0.00005261,0.00001429,0.07882946,-0.1
 6416947,0.10753229,-0.00000006,-0.00000948,-0.00000563,0.00000075,0.00
 000709,-0.00001138,0.00000327,0.00001280,0.00001269,-0.00002096,0.0000
 3603,-0.00001330,-0.00024075,-0.00025837,0.00021633,-0.00000378,0.0000
 0807,-0.00008212,0.00014620,0.00009820,0.00024096,-0.00035167,0.000434
 51,-0.00018315,-0.00013921,0.00080262,-0.00018124,0.00024236,-0.000039
 23,-0.00054863,-0.00000675,0.00001166,-0.00000357,0.00000383,0.0000069
 1,0.00000116,-0.00002617,0.00000328,0.00002375,-0.00732920,0.01210093,
 -0.01033310,0.00826228,-0.01310585,0.01244588,-0.08490732,0.17648277,-
 0.00013160,0.00011436,0.00006735,-0.00098321,0.00069210,-0.00023132,0.
 00396037,0.00132759,-0.00084860,0.00002897,-0.00008328,-0.00001325,-0.
 00827069,0.00945126,-0.01033226,0.00000769,0.00004056,-0.00001123,-0.0
 7253911,0.10747839,-0.14672545,-0.00000444,0.00000426,0.00000166,0.000
 00046,-0.00001136,0.00001336,-0.00001112,-0.00001596,-0.00001342,0.000
 04377,-0.00003071,0.00002260,0.00025876,0.00026403,-0.00021744,0.00008
 134,0.00006739,-0.00000290,0.00018083,-0.00025838,0.00040454,-0.000171
 68,0.00010786,0.00014392,-0.00027078,-0.00050619,-0.00003452,0.0001615
 7,-0.00022160,0.00072640,0.00001130,-0.00000909,0.00000554,-0.00000480
 ,-0.00000628,-0.00000499,0.00002283,-0.00000345,-0.00001911,-0.0084931
 9,0.01381452,-0.01248264,0.00805254,-0.01227739,0.01230918,0.07807021,
 -0.11993868,0.15724259\\-0.00000008,0.00000013,0.00000022,-0.00000123,
 -0.00000063,0.00000001,0.00000054,-0.00000087,-0.00000032,-0.00000035,
 0.00000087,-0.00000003,0.00000010,-0.00000044,-0.00000041,0.00000002,0
 .00000183,0.00000076,0.00000086,-0.00000115,-0.00000012,-0.00000165,0.
 00000166,0.00000009,-0.00000112,0.00000013,-0.00000013,0.00000083,-0.0
 0000033,0.00000007,0.00000038,0.00000104,0.00000036,-0.00000166,-0.000
 00127,-0.00000087,-0.00000170,0.00000029,-0.00000029,0.00000045,-0.000
 00186,-0.00000069,-0.00000109,-0.00000178,-0.00000083,0.00000110,0.000
 00021,0.00000038,-0.00000026,0.00000064,0.00000004,0.00000075,0.000002
 50,0.00000091,0.00000125,0.00000109,0.00000070,-0.00000013,0.00000198,
 0.00000059,0.00000162,-0.00000193,-0.00000019,0.00000005,-0.00000163,-
 0.00000046,0.00000134,-0.00000049,0.00000020\\\@


 TIME GOES, YOU SAY?  AH NO!
 ALAS, TIME STAYS, WE GO.
    -- A. DOBSON (1840-1921)
 Job cpu time:       0 days  4 hours 58 minutes 58.4 seconds.
 Elapsed time:       0 days  2 hours 29 minutes 30.3 seconds.
 File lengths (MBytes):  RWF=   1488 Int=      0 D2E=      0 Chk=     32 Scr=     32
 Normal termination of Gaussian 16 at Sat Sep 28 01:12:46 2019.
