 Entering Gaussian System, Link 0=g16
 Input=loose/species/CCCCCCC/conformers/CCCCCCC_995.com
 Output=loose/species/CCCCCCC/conformers/CCCCCCC_995.log
 Initial command:
 /shared/centos7/gaussian/g16/l1.exe "/scratch/harms.n/gauss_scrdir/Gau-37168.inp" -scrdir="/scratch/harms.n/gauss_scrdir/"
 Entering Link 1 = /shared/centos7/gaussian/g16/l1.exe PID=     37169.
  
 Copyright (c) 1988,1990,1992,1993,1995,1998,2003,2009,2016,
            Gaussian, Inc.  All Rights Reserved.
  
 This is part of the Gaussian(R) 16 program.  It is based on
 the Gaussian(R) 09 system (copyright 2009, Gaussian, Inc.),
 the Gaussian(R) 03 system (copyright 2003, Gaussian, Inc.),
 the Gaussian(R) 98 system (copyright 1998, Gaussian, Inc.),
 the Gaussian(R) 94 system (copyright 1995, Gaussian, Inc.),
 the Gaussian 92(TM) system (copyright 1992, Gaussian, Inc.),
 the Gaussian 90(TM) system (copyright 1990, Gaussian, Inc.),
 the Gaussian 88(TM) system (copyright 1988, Gaussian, Inc.),
 the Gaussian 86(TM) system (copyright 1986, Carnegie Mellon
 University), and the Gaussian 82(TM) system (copyright 1983,
 Carnegie Mellon University). Gaussian is a federally registered
 trademark of Gaussian, Inc.
  
 This software contains proprietary and confidential information,
 including trade secrets, belonging to Gaussian, Inc.
  
 This software is provided under written license and may be
 used, copied, transmitted, or stored only in accord with that
 written license.
  
 The following legend is applicable only to US Government
 contracts under FAR:
  
                    RESTRICTED RIGHTS LEGEND
  
 Use, reproduction and disclosure by the US Government is
 subject to restrictions as set forth in subparagraphs (a)
 and (c) of the Commercial Computer Software - Restricted
 Rights clause in FAR 52.227-19.
  
 Gaussian, Inc.
 340 Quinnipiac St., Bldg. 40, Wallingford CT 06492
  
  
 ---------------------------------------------------------------
 Warning -- This program may not be used in any manner that
 competes with the business of Gaussian, Inc. or will provide
 assistance to any competitor of Gaussian, Inc.  The licensee
 of this program is prohibited from giving any competitor of
 Gaussian, Inc. access to this program.  By using this program,
 the user acknowledges that Gaussian, Inc. is engaged in the
 business of creating and licensing software in the field of
 computational chemistry and represents and warrants to the
 licensee that it is not a competitor of Gaussian, Inc. and that
 it will not use this program in any manner prohibited above.
 ---------------------------------------------------------------
  

 Cite this work as:
 Gaussian 16, Revision A.03,
 M. J. Frisch, G. W. Trucks, H. B. Schlegel, G. E. Scuseria, 
 M. A. Robb, J. R. Cheeseman, G. Scalmani, V. Barone, 
 G. A. Petersson, H. Nakatsuji, X. Li, M. Caricato, A. V. Marenich, 
 J. Bloino, B. G. Janesko, R. Gomperts, B. Mennucci, H. P. Hratchian, 
 J. V. Ortiz, A. F. Izmaylov, J. L. Sonnenberg, D. Williams-Young, 
 F. Ding, F. Lipparini, F. Egidi, J. Goings, B. Peng, A. Petrone, 
 T. Henderson, D. Ranasinghe, V. G. Zakrzewski, J. Gao, N. Rega, 
 G. Zheng, W. Liang, M. Hada, M. Ehara, K. Toyota, R. Fukuda, 
 J. Hasegawa, M. Ishida, T. Nakajima, Y. Honda, O. Kitao, H. Nakai, 
 T. Vreven, K. Throssell, J. A. Montgomery, Jr., J. E. Peralta, 
 F. Ogliaro, M. J. Bearpark, J. J. Heyd, E. N. Brothers, K. N. Kudin, 
 V. N. Staroverov, T. A. Keith, R. Kobayashi, J. Normand, 
 K. Raghavachari, A. P. Rendell, J. C. Burant, S. S. Iyengar, 
 J. Tomasi, M. Cossi, J. M. Millam, M. Klene, C. Adamo, R. Cammi, 
 J. W. Ochterski, R. L. Martin, K. Morokuma, O. Farkas, 
 J. B. Foresman, and D. J. Fox, Gaussian, Inc., Wallingford CT, 2016.
 
 ******************************************
 Gaussian 16:  EM64L-G16RevA.03 25-Dec-2016
                27-Sep-2019 
 ******************************************
 %nprocshared=20
 Will use up to   20 processors via shared memory.
 %mem=5GB
 ----------------------------------------------------------------------
 #p m062x/cc-pVTZ opt=(calcfc,maxcycles=900,Tight) freq IOP(7/33=1,2/16
 =3) scf=(maxcycle=900)
 ----------------------------------------------------------------------
 1/6=900,7=10,10=4,18=20,19=15,26=3,38=1/1,3;
 2/9=110,12=2,16=3,17=6,18=5,40=1/2;
 3/5=16,6=1,11=2,25=1,30=1,71=2,74=-55,140=1/1,2,3;
 4//1;
 5/5=2,7=900,38=5/2;
 8/6=4,10=90,11=11/1;
 11/6=1,8=1,9=11,15=111,16=1/1,2,10;
 10/6=1,13=1/2;
 6/7=2,8=2,9=2,10=2,28=1/1;
 7/10=1,18=20,25=1,33=1/1,2,3,16;
 1/6=900,7=10,10=4,18=20,19=15,26=3/3(2);
 2/9=110,16=3/2;
 99//99;
 2/9=110,16=3/2;
 3/5=16,6=1,11=2,25=1,30=1,71=1,74=-55/1,2,3;
 4/5=5,16=3,69=1/1;
 5/5=2,7=900,38=5/2;
 7/33=1/1,2,3,16;
 1/6=900,7=10,18=20,19=15,26=3/3(-5);
 2/9=110,16=3/2;
 6/7=2,8=2,9=2,10=2,19=2,28=1/1;
 99/9=1/99;
 Leave Link    1 at Fri Sep 27 10:02:00 2019, MaxMem=   671088640 cpu:               4.1 elap:               2.1
 (Enter /shared/centos7/gaussian/g16/l101.exe)
 ------------------------------
 Gaussian input prepared by ASE
 ------------------------------
 Symbolic Z-matrix:
 Charge =  0 Multiplicity = 1
 C                     1.38636  -1.14442   0.53283 
 C                     0.13563  -0.45458   0.95916 
 C                    -1.12542  -1.23048   0.67158 
 C                     2.14765  -0.50087  -0.57681 
 C                    -2.06056  -0.46618  -0.23564 
 C                     3.53936  -0.11171  -0.29171 
 C                    -2.48344   0.86282   0.33434 
 H                     1.58561   0.40305  -0.94585 
 H                     2.1542   -1.19975  -1.44703 
 H                     1.11168  -2.17029   0.20769 
 H                     2.03637  -1.28652   1.42049 
 H                     0.04144   0.53027   0.47554 
 H                     0.19114  -0.23102   2.04553 
 H                    -1.63896  -1.49149   1.61247 
 H                    -0.85939  -2.19819   0.19839 
 H                    -1.54086  -0.28784  -1.2132 
 H                    -2.95911  -1.0689   -0.4515 
 H                     3.84465  -0.31629   0.75176 
 H                     4.27109  -0.65807  -0.95775 
 H                     3.702     0.97332  -0.46421 
 H                    -1.68729   1.30123   0.93728 
 H                    -3.38031   0.74278   1.00298 
 H                    -2.73893   1.58688  -0.4917 
 
 ITRead=  0  0  0  0  0  0  0  0  0  0  0  0  0  0  0  0  0  0  0  0
 ITRead=  0  0  0
 MicOpt= -1 -1 -1 -1 -1 -1 -1 -1 -1 -1 -1 -1 -1 -1 -1 -1 -1 -1 -1 -1
 MicOpt= -1 -1 -1
 NAtoms=     23 NQM=       23 NQMF=       0 NMMI=      0 NMMIF=      0
                NMic=       0 NMicF=      0.
                    Isotopes and Nuclear Properties:
 (Nuclear quadrupole moments (NQMom) in fm**2, nuclear magnetic moments (NMagM)
  in nuclear magnetons)

  Atom         1           2           3           4           5           6           7           8           9          10
 IAtWgt=          12          12          12          12          12          12          12           1           1           1
 AtmWgt=  12.0000000  12.0000000  12.0000000  12.0000000  12.0000000  12.0000000  12.0000000   1.0078250   1.0078250   1.0078250
 NucSpn=           0           0           0           0           0           0           0           1           1           1
 AtZEff=  -0.0000000  -0.0000000  -0.0000000  -0.0000000  -0.0000000  -0.0000000  -0.0000000  -0.0000000  -0.0000000  -0.0000000
 NQMom=    0.0000000   0.0000000   0.0000000   0.0000000   0.0000000   0.0000000   0.0000000   0.0000000   0.0000000   0.0000000
 NMagM=    0.0000000   0.0000000   0.0000000   0.0000000   0.0000000   0.0000000   0.0000000   2.7928460   2.7928460   2.7928460
 AtZNuc=   6.0000000   6.0000000   6.0000000   6.0000000   6.0000000   6.0000000   6.0000000   1.0000000   1.0000000   1.0000000

  Atom        11          12          13          14          15          16          17          18          19          20
 IAtWgt=           1           1           1           1           1           1           1           1           1           1
 AtmWgt=   1.0078250   1.0078250   1.0078250   1.0078250   1.0078250   1.0078250   1.0078250   1.0078250   1.0078250   1.0078250
 NucSpn=           1           1           1           1           1           1           1           1           1           1
 AtZEff=  -0.0000000  -0.0000000  -0.0000000  -0.0000000  -0.0000000  -0.0000000  -0.0000000  -0.0000000  -0.0000000  -0.0000000
 NQMom=    0.0000000   0.0000000   0.0000000   0.0000000   0.0000000   0.0000000   0.0000000   0.0000000   0.0000000   0.0000000
 NMagM=    2.7928460   2.7928460   2.7928460   2.7928460   2.7928460   2.7928460   2.7928460   2.7928460   2.7928460   2.7928460
 AtZNuc=   1.0000000   1.0000000   1.0000000   1.0000000   1.0000000   1.0000000   1.0000000   1.0000000   1.0000000   1.0000000

  Atom        21          22          23
 IAtWgt=           1           1           1
 AtmWgt=   1.0078250   1.0078250   1.0078250
 NucSpn=           1           1           1
 AtZEff=  -0.0000000  -0.0000000  -0.0000000
 NQMom=    0.0000000   0.0000000   0.0000000
 NMagM=    2.7928460   2.7928460   2.7928460
 AtZNuc=   1.0000000   1.0000000   1.0000000
 Leave Link  101 at Fri Sep 27 10:02:02 2019, MaxMem=   671088640 cpu:               2.7 elap:               1.4
 (Enter /shared/centos7/gaussian/g16/l103.exe)

 GradGradGradGradGradGradGradGradGradGradGradGradGradGradGradGradGradGrad
 Berny optimization.
 Initialization pass.
                           ----------------------------
                           !    Initial Parameters    !
                           ! (Angstroms and Degrees)  !
 --------------------------                            --------------------------
 ! Name  Definition              Value          Derivative Info.                !
 --------------------------------------------------------------------------------
 ! R1    R(1,2)                  1.4906         calculate D2E/DX2 analytically  !
 ! R2    R(1,4)                  1.4917         calculate D2E/DX2 analytically  !
 ! R3    R(1,10)                 1.1107         calculate D2E/DX2 analytically  !
 ! R4    R(1,11)                 1.1093         calculate D2E/DX2 analytically  !
 ! R5    R(2,3)                  1.5083         calculate D2E/DX2 analytically  !
 ! R6    R(2,12)                 1.1012         calculate D2E/DX2 analytically  !
 ! R7    R(2,13)                 1.1105         calculate D2E/DX2 analytically  !
 ! R8    R(3,5)                  1.5105         calculate D2E/DX2 analytically  !
 ! R9    R(3,14)                 1.1032         calculate D2E/DX2 analytically  !
 ! R10   R(3,15)                 1.1096         calculate D2E/DX2 analytically  !
 ! R11   R(4,6)                  1.473          calculate D2E/DX2 analytically  !
 ! R12   R(4,8)                  1.1266         calculate D2E/DX2 analytically  !
 ! R13   R(4,9)                  1.1161         calculate D2E/DX2 analytically  !
 ! R14   R(5,7)                  1.5066         calculate D2E/DX2 analytically  !
 ! R15   R(5,16)                 1.1214         calculate D2E/DX2 analytically  !
 ! R16   R(5,17)                 1.1033         calculate D2E/DX2 analytically  !
 ! R17   R(6,18)                 1.1063         calculate D2E/DX2 analytically  !
 ! R18   R(6,19)                 1.1303         calculate D2E/DX2 analytically  !
 ! R19   R(6,20)                 1.1106         calculate D2E/DX2 analytically  !
 ! R20   R(7,21)                 1.0907         calculate D2E/DX2 analytically  !
 ! R21   R(7,22)                 1.1251         calculate D2E/DX2 analytically  !
 ! R22   R(7,23)                 1.1278         calculate D2E/DX2 analytically  !
 ! A1    A(2,1,4)              116.1887         calculate D2E/DX2 analytically  !
 ! A2    A(2,1,10)             107.6787         calculate D2E/DX2 analytically  !
 ! A3    A(2,1,11)             108.7876         calculate D2E/DX2 analytically  !
 ! A4    A(4,1,10)             107.8752         calculate D2E/DX2 analytically  !
 ! A5    A(4,1,11)             110.5768         calculate D2E/DX2 analytically  !
 ! A6    A(10,1,11)            105.12           calculate D2E/DX2 analytically  !
 ! A7    A(1,2,3)              114.1366         calculate D2E/DX2 analytically  !
 ! A8    A(1,2,12)             111.1031         calculate D2E/DX2 analytically  !
 ! A9    A(1,2,13)             109.3302         calculate D2E/DX2 analytically  !
 ! A10   A(3,2,12)             107.7466         calculate D2E/DX2 analytically  !
 ! A11   A(3,2,13)             109.3822         calculate D2E/DX2 analytically  !
 ! A12   A(12,2,13)            104.7063         calculate D2E/DX2 analytically  !
 ! A13   A(2,3,5)              111.828          calculate D2E/DX2 analytically  !
 ! A14   A(2,3,14)             110.3823         calculate D2E/DX2 analytically  !
 ! A15   A(2,3,15)             109.2392         calculate D2E/DX2 analytically  !
 ! A16   A(5,3,14)             110.1055         calculate D2E/DX2 analytically  !
 ! A17   A(5,3,15)             109.487          calculate D2E/DX2 analytically  !
 ! A18   A(14,3,15)            105.6029         calculate D2E/DX2 analytically  !
 ! A19   A(1,4,6)              116.8861         calculate D2E/DX2 analytically  !
 ! A20   A(1,4,8)              109.5866         calculate D2E/DX2 analytically  !
 ! A21   A(1,4,9)              108.2305         calculate D2E/DX2 analytically  !
 ! A22   A(6,4,8)              108.8323         calculate D2E/DX2 analytically  !
 ! A23   A(6,4,9)              108.1076         calculate D2E/DX2 analytically  !
 ! A24   A(8,4,9)              104.4739         calculate D2E/DX2 analytically  !
 ! A25   A(3,5,7)              113.1333         calculate D2E/DX2 analytically  !
 ! A26   A(3,5,16)             108.4888         calculate D2E/DX2 analytically  !
 ! A27   A(3,5,17)             110.1991         calculate D2E/DX2 analytically  !
 ! A28   A(7,5,16)             108.6385         calculate D2E/DX2 analytically  !
 ! A29   A(7,5,17)             109.1058         calculate D2E/DX2 analytically  !
 ! A30   A(16,5,17)            107.0831         calculate D2E/DX2 analytically  !
 ! A31   A(4,6,18)             113.2314         calculate D2E/DX2 analytically  !
 ! A32   A(4,6,19)             111.7099         calculate D2E/DX2 analytically  !
 ! A33   A(4,6,20)             111.4947         calculate D2E/DX2 analytically  !
 ! A34   A(18,6,19)            106.7244         calculate D2E/DX2 analytically  !
 ! A35   A(18,6,20)            106.6631         calculate D2E/DX2 analytically  !
 ! A36   A(19,6,20)            106.6137         calculate D2E/DX2 analytically  !
 ! A37   A(5,7,21)             111.0282         calculate D2E/DX2 analytically  !
 ! A38   A(5,7,22)             110.7604         calculate D2E/DX2 analytically  !
 ! A39   A(5,7,23)             110.6594         calculate D2E/DX2 analytically  !
 ! A40   A(21,7,22)            107.2314         calculate D2E/DX2 analytically  !
 ! A41   A(21,7,23)            108.192          calculate D2E/DX2 analytically  !
 ! A42   A(22,7,23)            108.8564         calculate D2E/DX2 analytically  !
 ! D1    D(4,1,2,3)            113.4856         calculate D2E/DX2 analytically  !
 ! D2    D(4,1,2,12)            -8.5842         calculate D2E/DX2 analytically  !
 ! D3    D(4,1,2,13)          -123.6557         calculate D2E/DX2 analytically  !
 ! D4    D(10,1,2,3)            -7.5634         calculate D2E/DX2 analytically  !
 ! D5    D(10,1,2,12)         -129.6332         calculate D2E/DX2 analytically  !
 ! D6    D(10,1,2,13)          115.2953         calculate D2E/DX2 analytically  !
 ! D7    D(11,1,2,3)          -120.992          calculate D2E/DX2 analytically  !
 ! D8    D(11,1,2,12)          116.9382         calculate D2E/DX2 analytically  !
 ! D9    D(11,1,2,13)            1.8667         calculate D2E/DX2 analytically  !
 ! D10   D(2,1,4,6)            121.2814         calculate D2E/DX2 analytically  !
 ! D11   D(2,1,4,8)             -3.0902         calculate D2E/DX2 analytically  !
 ! D12   D(2,1,4,9)           -116.4503         calculate D2E/DX2 analytically  !
 ! D13   D(10,1,4,6)          -117.7745         calculate D2E/DX2 analytically  !
 ! D14   D(10,1,4,8)           117.8539         calculate D2E/DX2 analytically  !
 ! D15   D(10,1,4,9)             4.4939         calculate D2E/DX2 analytically  !
 ! D16   D(11,1,4,6)            -3.3292         calculate D2E/DX2 analytically  !
 ! D17   D(11,1,4,8)          -127.7008         calculate D2E/DX2 analytically  !
 ! D18   D(11,1,4,9)           118.9391         calculate D2E/DX2 analytically  !
 ! D19   D(1,2,3,5)           -120.4869         calculate D2E/DX2 analytically  !
 ! D20   D(1,2,3,14)           116.5671         calculate D2E/DX2 analytically  !
 ! D21   D(1,2,3,15)             0.8724         calculate D2E/DX2 analytically  !
 ! D22   D(12,2,3,5)             3.4072         calculate D2E/DX2 analytically  !
 ! D23   D(12,2,3,14)         -119.5388         calculate D2E/DX2 analytically  !
 ! D24   D(12,2,3,15)          124.7665         calculate D2E/DX2 analytically  !
 ! D25   D(13,2,3,5)           116.6827         calculate D2E/DX2 analytically  !
 ! D26   D(13,2,3,14)           -6.2634         calculate D2E/DX2 analytically  !
 ! D27   D(13,2,3,15)         -121.958          calculate D2E/DX2 analytically  !
 ! D28   D(2,3,5,7)            -59.1841         calculate D2E/DX2 analytically  !
 ! D29   D(2,3,5,16)            61.4337         calculate D2E/DX2 analytically  !
 ! D30   D(2,3,5,17)           178.3743         calculate D2E/DX2 analytically  !
 ! D31   D(14,3,5,7)            63.9189         calculate D2E/DX2 analytically  !
 ! D32   D(14,3,5,16)         -175.4632         calculate D2E/DX2 analytically  !
 ! D33   D(14,3,5,17)          -58.5226         calculate D2E/DX2 analytically  !
 ! D34   D(15,3,5,7)           179.5999         calculate D2E/DX2 analytically  !
 ! D35   D(15,3,5,16)          -59.7823         calculate D2E/DX2 analytically  !
 ! D36   D(15,3,5,17)           57.1583         calculate D2E/DX2 analytically  !
 ! D37   D(1,4,6,18)            -2.2224         calculate D2E/DX2 analytically  !
 ! D38   D(1,4,6,19)           118.3064         calculate D2E/DX2 analytically  !
 ! D39   D(1,4,6,20)          -122.5145         calculate D2E/DX2 analytically  !
 ! D40   D(8,4,6,18)           122.5307         calculate D2E/DX2 analytically  !
 ! D41   D(8,4,6,19)          -116.9405         calculate D2E/DX2 analytically  !
 ! D42   D(8,4,6,20)             2.2386         calculate D2E/DX2 analytically  !
 ! D43   D(9,4,6,18)          -124.5546         calculate D2E/DX2 analytically  !
 ! D44   D(9,4,6,19)            -4.0258         calculate D2E/DX2 analytically  !
 ! D45   D(9,4,6,20)           115.1533         calculate D2E/DX2 analytically  !
 ! D46   D(3,5,7,21)            32.8001         calculate D2E/DX2 analytically  !
 ! D47   D(3,5,7,22)           -86.221          calculate D2E/DX2 analytically  !
 ! D48   D(3,5,7,23)           152.9601         calculate D2E/DX2 analytically  !
 ! D49   D(16,5,7,21)          -87.7327         calculate D2E/DX2 analytically  !
 ! D50   D(16,5,7,22)          153.2462         calculate D2E/DX2 analytically  !
 ! D51   D(16,5,7,23)           32.4273         calculate D2E/DX2 analytically  !
 ! D52   D(17,5,7,21)          155.8487         calculate D2E/DX2 analytically  !
 ! D53   D(17,5,7,22)           36.8277         calculate D2E/DX2 analytically  !
 ! D54   D(17,5,7,23)          -83.9913         calculate D2E/DX2 analytically  !
 --------------------------------------------------------------------------------
 Trust Radius=3.00D-01 FncErr=1.00D-07 GrdErr=1.00D-06 EigMax=2.50D+02 EigMin=1.00D-04
 Number of steps in this run=    138 maximum allowed number of steps=    138.
 GradGradGradGradGradGradGradGradGradGradGradGradGradGradGradGradGradGrad

 Leave Link  103 at Fri Sep 27 10:02:02 2019, MaxMem=   671088640 cpu:               1.6 elap:               0.8
 (Enter /shared/centos7/gaussian/g16/l202.exe)
                          Input orientation:                          
 ---------------------------------------------------------------------
 Center     Atomic      Atomic             Coordinates (Angstroms)
 Number     Number       Type             X           Y           Z
 ---------------------------------------------------------------------
      1          6           0        1.386358   -1.144422    0.532826
      2          6           0        0.135633   -0.454575    0.959161
      3          6           0       -1.125418   -1.230480    0.671578
      4          6           0        2.147651   -0.500869   -0.576812
      5          6           0       -2.060561   -0.466175   -0.235643
      6          6           0        3.539362   -0.111709   -0.291710
      7          6           0       -2.483436    0.862817    0.334341
      8          1           0        1.585611    0.403045   -0.945846
      9          1           0        2.154200   -1.199751   -1.447029
     10          1           0        1.111681   -2.170294    0.207686
     11          1           0        2.036366   -1.286519    1.420488
     12          1           0        0.041437    0.530270    0.475537
     13          1           0        0.191143   -0.231022    2.045530
     14          1           0       -1.638964   -1.491491    1.612465
     15          1           0       -0.859393   -2.198193    0.198391
     16          1           0       -1.540858   -0.287844   -1.213205
     17          1           0       -2.959108   -1.068900   -0.451503
     18          1           0        3.844649   -0.316286    0.751758
     19          1           0        4.271086   -0.658068   -0.957748
     20          1           0        3.702002    0.973319   -0.464207
     21          1           0       -1.687295    1.301230    0.937277
     22          1           0       -3.380305    0.742781    1.002980
     23          1           0       -2.738928    1.586876   -0.491701
 ---------------------------------------------------------------------
                    Distance matrix (angstroms):
                    1          2          3          4          5
     1  C    0.000000
     2  C    1.490625   0.000000
     3  C    2.517078   1.508304   0.000000
     4  C    1.491652   2.531714   3.578239   0.000000
     5  C    3.596083   2.500191   1.510531   4.222161   0.000000
     6  C    2.526219   3.642473   4.892826   1.472952   5.611410
     7  C    4.363910   2.997573   2.517902   4.912923   1.506627
     8  H    2.149612   2.543030   3.554455   1.126559   3.815036
     9  H    2.124257   3.227948   3.904528   1.116134   4.446324
    10  H    1.110665   2.112125   2.470437   2.115573   3.628178
    11  H    1.109344   2.125497   3.249751   2.149148   4.494501
    12  H    2.148649   1.101220   2.121373   2.570375   2.432504
    13  H    2.133333   1.110520   2.149417   3.282898   3.213910
    14  H    3.230890   2.156663   1.103233   4.484721   2.155115
    15  H    2.503133   2.146870   1.109570   3.538950   2.151993
    16  H    3.514391   2.749108   2.147920   3.749063   1.121392
    17  H    4.456196   3.456123   2.156348   5.139781   1.103295
    18  H    2.603255   3.717384   5.054083   2.163093   5.989068
    19  H    3.283293   4.562666   5.666094   2.163054   6.375579
    20  H    3.292584   4.096809   5.426852   2.145208   5.944032
    21  H    3.948688   2.531086   2.606886   4.499648   2.153785
    22  H    5.148170   3.714485   3.014648   5.882237   2.176577
    23  H    5.052488   3.812561   3.448786   5.314562   2.177330
                    6          7          8          9         10
     6  C    0.000000
     7  C    6.133167   0.000000
     8  H    2.123678   4.290386   0.000000
     9  H    2.106482   5.379139   1.772973   0.000000
    10  H    3.221926   4.705387   2.859601   2.183318   0.000000
    11  H    2.563357   5.121325   2.942336   2.871248   1.762665
    12  H    3.638171   2.550589   2.102615   3.339611   2.917227
    13  H    4.085033   3.358277   3.360790   4.121892   2.825922
    14  H    5.687244   2.808825   4.531237   4.881978   3.162313
    15  H    4.893124   3.467821   3.748835   3.575757   1.971293
    16  H    5.166121   2.146479   3.213038   3.813096   3.549438
    17  H    6.570530   2.139006   4.802653   5.210961   4.268362
    18  H    1.106291   6.450518   2.915913   2.910806   3.347010
    19  H    1.130281   7.043164   2.887539   2.239201   3.691464
    20  H    1.110627   6.237751   2.244170   2.843213   4.128378
    21  H    5.552004   1.090678   3.881340   5.166904   4.518633
    22  H    7.091415   1.125104   5.345434   6.356628   5.412618
    23  H    6.507081   1.127778   4.506588   5.711448   5.425187
                   11         12         13         14         15
    11  H    0.000000
    12  H    2.858915   0.000000
    13  H    2.215761   1.751244   0.000000
    14  H    3.686043   2.864240   2.263984   0.000000
    15  H    3.272627   2.886662   2.895740   1.762601   0.000000
    16  H    4.553045   2.454550   3.690855   3.072914   2.471120
    17  H    5.339144   3.524205   4.106251   2.486227   2.471127
    18  H    2.158342   3.906070   3.876754   5.673794   5.096646
    19  H    3.323392   4.621298   5.084091   6.498406   5.480005
    20  H    3.381315   3.805148   4.480552   6.238091   5.594984
    21  H    4.560218   1.948357   2.665436   2.873588   3.671149
    22  H    5.799370   3.468670   3.845835   2.897536   3.956222
    23  H    5.892053   3.127682   4.281076   3.887645   4.282012
                   16         17         18         19         20
    16  H    0.000000
    17  H    1.789322   0.000000
    18  H    5.732850   6.950207   0.000000
    19  H    5.829324   7.259530   1.794736   0.000000
    20  H    5.444181   6.967152   1.778202   1.796904   0.000000
    21  H    2.677904   3.027166   5.766557   6.552273   5.578190
    22  H    3.058959   2.361168   7.306483   8.021884   7.236357
    23  H    2.338913   2.665191   6.965034   7.375451   6.470145
                   21         22         23
    21  H    0.000000
    22  H    1.783946   0.000000
    23  H    1.797082   1.832466   0.000000
 Stoichiometry    C7H16
 Framework group  C1[X(C7H16)]
 Deg. of freedom    63
 Full point group                 C1      NOp   1
 Largest Abelian subgroup         C1      NOp   1
 Largest concise Abelian subgroup C1      NOp   1
                         Standard orientation:                         
 ---------------------------------------------------------------------
 Center     Atomic      Atomic             Coordinates (Angstroms)
 Number     Number       Type             X           Y           Z
 ---------------------------------------------------------------------
      1          6           0        1.174383    0.773741   -0.134840
      2          6           0       -0.164109    0.377598   -0.657789
      3          6           0       -1.323421    0.994308    0.084265
      4          6           0        1.983077   -0.310872    0.493374
      5          6           0       -2.226913   -0.055574    0.686887
      6          6           0        3.304122   -0.584429   -0.097891
      7          6           0       -2.810708   -0.993041   -0.337937
      8          1           0        1.386480   -1.266373    0.508416
      9          1           0        2.130782   -0.057237    1.570224
     10          1           0        1.017726    1.566884    0.626710
     11          1           0        1.745613    1.263847   -0.949785
     12          1           0       -0.292291   -0.715823   -0.631590
     13          1           0       -0.231826    0.643684   -1.733832
     14          1           0       -1.901691    1.653057   -0.585643
     15          1           0       -0.934299    1.653190    0.887759
     16          1           0       -1.632196   -0.655859    1.424104
     17          1           0       -3.047806    0.424064    1.246658
     18          1           0        3.523592    0.040706   -0.983847
     19          1           0        4.138982   -0.404010    0.642375
     20          1           0        3.392566   -1.642199   -0.424683
     21          1           0       -2.115031   -1.153963   -1.162386
     22          1           0       -3.754691   -0.566301   -0.776855
     23          1           0       -3.044497   -1.994051    0.125966
 ---------------------------------------------------------------------
 Rotational constants (GHZ):           5.5815679           1.0137539           0.9601209
 Leave Link  202 at Fri Sep 27 10:02:04 2019, MaxMem=   671088640 cpu:               3.8 elap:               1.9
 (Enter /shared/centos7/gaussian/g16/l301.exe)
 Standard basis: CC-pVTZ (5D, 7F)
 Ernie: Thresh=  0.10000D-02 Tol=  0.10000D-05 Strict=F.
 Ernie:  21 primitive shells out of 310 were deleted.
 There are   485 symmetry adapted cartesian basis functions of A   symmetry.
 There are   434 symmetry adapted basis functions of A   symmetry.
   434 basis functions,   636 primitive gaussians,   485 cartesian basis functions
    29 alpha electrons       29 beta electrons
       nuclear repulsion energy       320.5336249165 Hartrees.
 IExCor= 4336 DFT=T Ex+Corr=M062X ExCW=0 ScaHFX=  0.540000
 ScaDFX=  1.000000  1.000000  1.000000  1.000000 ScalE2=  1.000000  1.000000
 IRadAn=      5 IRanWt=     -1 IRanGd=            0 ICorTp=0 IEmpDi=  4
 NAtoms=   23 NActive=   23 NUniq=   23 SFac= 1.00D+00 NAtFMM=   60 NAOKFM=F Big=F
 Integral buffers will be    131072 words long.
 Raffenetti 2 integral format.
 Two-electron integral symmetry is turned on.
 Leave Link  301 at Fri Sep 27 10:02:05 2019, MaxMem=   671088640 cpu:               1.8 elap:               0.9
 (Enter /shared/centos7/gaussian/g16/l302.exe)
 NPDir=0 NMtPBC=     1 NCelOv=     1 NCel=       1 NClECP=     1 NCelD=      1
         NCelK=      1 NCelE2=     1 NClLst=     1 CellRange=     0.0.
 One-electron integrals computed using PRISM.
 One-electron integral symmetry used in STVInt
 NBasis=   434 RedAO= T EigKep=  3.41D-04  NBF=   434
 NBsUse=   434 1.00D-06 EigRej= -1.00D+00 NBFU=   434
 Precomputing XC quadrature grid using
 IXCGrd= 4 IRadAn=           5 IRanWt=          -1 IRanGd=           0 AccXCQ= 0.00D+00.
 Generated NRdTot=       0 NPtTot=           0 NUsed=           0 NTot=          32
 NSgBfM=   485   485   485   485   485 MxSgAt=    23 MxSgA2=    23.
 Leave Link  302 at Fri Sep 27 10:03:22 2019, MaxMem=   671088640 cpu:             153.3 elap:              76.8
 (Enter /shared/centos7/gaussian/g16/l303.exe)
 DipDrv:  MaxL=1.
 Leave Link  303 at Fri Sep 27 10:03:26 2019, MaxMem=   671088640 cpu:               8.0 elap:               4.0
 (Enter /shared/centos7/gaussian/g16/l401.exe)
 ExpMin= 1.03D-01 ExpMax= 8.24D+03 ExpMxC= 2.81D+02 IAcc=3 IRadAn=         5 AccDes= 0.00D+00
 Harris functional with IExCor= 1009 and IRadAn=       5 diagonalized for initial guess.
 HarFok:  IExCor= 1009 AccDes= 0.00D+00 IRadAn=         5 IDoV= 1 UseB2=F ITyADJ=14
 ICtDFT=  3500011 ScaDFX=  1.000000  1.000000  1.000000  1.000000
 FoFCou: FMM=F IPFlag=           0 FMFlag=      100000 FMFlg1=           0
         NFxFlg=           0 DoJE=T BraDBF=F KetDBF=T FulRan=T
         wScrn=  0.000000 ICntrl=       500 IOpCl=  0 I1Cent=   200000004 NGrid=           0
         NMat0=    1 NMatS0=      1 NMatT0=    0 NMatD0=    1 NMtDS0=    0 NMtDT0=    0
 Petite list used in FoFCou.
 Harris En= -276.314240859204    
 JPrj=0 DoOrth=F DoCkMO=F.
 Leave Link  401 at Fri Sep 27 10:04:17 2019, MaxMem=   671088640 cpu:             102.4 elap:              51.2
 (Enter /shared/centos7/gaussian/g16/l502.exe)
 Integral symmetry usage will be decided dynamically.
 Closed shell SCF:
 Using DIIS extrapolation, IDIIS=  1040.
 NGot=   671088640 LenX=   670604095 LenY=   670368385
 Requested convergence on RMS density matrix=1.00D-08 within 900 cycles.
 Requested convergence on MAX density matrix=1.00D-06.
 Requested convergence on             energy=1.00D-06.
 No special actions if energy rises.
 Fock matrices will be formed incrementally for  20 cycles.
 Integral accuracy reduced to 1.0D-05 until final iterations.

 Cycle   1  Pass 0  IDiag  1:
 FoFJK:  IHMeth= 1 ICntrl=       0 DoSepK=F KAlg= 0 I1Cent=           0 FoldK=F
 IRaf= 920000000 NMat=       1 IRICut=       1 DoRegI=T DoRafI=F ISym2E= 0 IDoP0=0 IntGTp=1.
 FoFCou: FMM=F IPFlag=           0 FMFlag=      100000 FMFlg1=           0
         NFxFlg=           0 DoJE=F BraDBF=F KetDBF=F FulRan=T
         wScrn=  0.000000 ICntrl=         0 IOpCl=  0 I1Cent=           0 NGrid=           0
         NMat0=    1 NMatS0=      1 NMatT0=    0 NMatD0=    1 NMtDS0=    0 NMtDT0=    0
 Symmetry not used in FoFCou.
 E= -275.937302909213    
 DIIS: error= 3.04D-02 at cycle   1 NSaved=   1.
 NSaved= 1 IEnMin= 1 EnMin= -275.937302909213     IErMin= 1 ErrMin= 3.04D-02
 ErrMax= 3.04D-02  0.00D+00 EMaxC= 1.00D-01 BMatC= 3.77D-01 BMatP= 3.77D-01
 IDIUse=3 WtCom= 6.96D-01 WtEn= 3.04D-01
 Coeff-Com:  0.100D+01
 Coeff-En:   0.100D+01
 Coeff:      0.100D+01
 Gap=     0.409 Goal=   None    Shift=    0.000
 GapD=    0.409 DampG=2.000 DampE=0.500 DampFc=1.0000 IDamp=-1.
 RMSDP=1.92D-03 MaxDP=7.18D-02              OVMax= 1.67D-01

 Cycle   2  Pass 0  IDiag  1:
 RMSU=  1.91D-03    CP:  9.81D-01
 E= -275.983353205121     Delta-E=       -0.046050295908 Rises=F Damp=F
 DIIS: error= 2.77D-02 at cycle   2 NSaved=   2.
 NSaved= 2 IEnMin= 2 EnMin= -275.983353205121     IErMin= 2 ErrMin= 2.77D-02
 ErrMax= 2.77D-02  0.00D+00 EMaxC= 1.00D-01 BMatC= 3.07D-01 BMatP= 3.77D-01
 IDIUse=3 WtCom= 7.23D-01 WtEn= 2.77D-01
 Coeff-Com:  0.473D+00 0.527D+00
 Coeff-En:   0.464D+00 0.536D+00
 Coeff:      0.470D+00 0.530D+00
 Gap=     0.444 Goal=   None    Shift=    0.000
 RMSDP=1.13D-03 MaxDP=3.60D-02 DE=-4.61D-02 OVMax= 9.09D-02

 Cycle   3  Pass 0  IDiag  1:
 RMSU=  4.54D-04    CP:  9.98D-01  4.63D-01
 E= -276.297792262353     Delta-E=       -0.314439057232 Rises=F Damp=F
 DIIS: error= 2.05D-03 at cycle   3 NSaved=   3.
 NSaved= 3 IEnMin= 3 EnMin= -276.297792262353     IErMin= 3 ErrMin= 2.05D-03
 ErrMax= 2.05D-03  0.00D+00 EMaxC= 1.00D-01 BMatC= 2.54D-03 BMatP= 3.07D-01
 IDIUse=3 WtCom= 9.79D-01 WtEn= 2.05D-02
 Coeff-Com:  0.427D-01 0.103D+00 0.854D+00
 Coeff-En:   0.000D+00 0.000D+00 0.100D+01
 Coeff:      0.418D-01 0.101D+00 0.857D+00
 Gap=     0.416 Goal=   None    Shift=    0.000
 RMSDP=8.80D-05 MaxDP=2.79D-03 DE=-3.14D-01 OVMax= 1.02D-02

 Cycle   4  Pass 0  IDiag  1:
 RMSU=  7.42D-05    CP:  9.97D-01  4.88D-01  9.95D-01
 E= -276.300110118232     Delta-E=       -0.002317855878 Rises=F Damp=F
 DIIS: error= 6.22D-04 at cycle   4 NSaved=   4.
 NSaved= 4 IEnMin= 4 EnMin= -276.300110118232     IErMin= 4 ErrMin= 6.22D-04
 ErrMax= 6.22D-04  0.00D+00 EMaxC= 1.00D-01 BMatC= 2.27D-04 BMatP= 2.54D-03
 IDIUse=3 WtCom= 9.94D-01 WtEn= 6.22D-03
 Coeff-Com: -0.142D-02 0.158D-01 0.287D+00 0.699D+00
 Coeff-En:   0.000D+00 0.000D+00 0.000D+00 0.100D+01
 Coeff:     -0.141D-02 0.157D-01 0.285D+00 0.701D+00
 Gap=     0.417 Goal=   None    Shift=    0.000
 RMSDP=3.38D-05 MaxDP=1.07D-03 DE=-2.32D-03 OVMax= 2.63D-03

 Cycle   5  Pass 0  IDiag  1:
 RMSU=  2.14D-05    CP:  9.97D-01  4.83D-01  1.04D+00  8.40D-01
 E= -276.300316006788     Delta-E=       -0.000205888556 Rises=F Damp=F
 DIIS: error= 1.42D-04 at cycle   5 NSaved=   5.
 NSaved= 5 IEnMin= 5 EnMin= -276.300316006788     IErMin= 5 ErrMin= 1.42D-04
 ErrMax= 1.42D-04  0.00D+00 EMaxC= 1.00D-01 BMatC= 1.58D-05 BMatP= 2.27D-04
 IDIUse=3 WtCom= 9.99D-01 WtEn= 1.42D-03
 Coeff-Com: -0.243D-02-0.608D-03 0.465D-01 0.248D+00 0.709D+00
 Coeff-En:   0.000D+00 0.000D+00 0.000D+00 0.000D+00 0.100D+01
 Coeff:     -0.243D-02-0.607D-03 0.464D-01 0.247D+00 0.709D+00
 Gap=     0.417 Goal=   None    Shift=    0.000
 RMSDP=6.59D-06 MaxDP=3.89D-04 DE=-2.06D-04 OVMax= 6.61D-04

 Initial convergence to 1.0D-05 achieved.  Increase integral accuracy.
 Cycle   6  Pass 1  IDiag  1:
 E= -276.300300164171     Delta-E=        0.000015842616 Rises=F Damp=F
 DIIS: error= 4.68D-05 at cycle   1 NSaved=   1.
 NSaved= 1 IEnMin= 1 EnMin= -276.300300164171     IErMin= 1 ErrMin= 4.68D-05
 ErrMax= 4.68D-05  0.00D+00 EMaxC= 1.00D-01 BMatC= 1.72D-06 BMatP= 1.72D-06
 IDIUse=1 WtCom= 1.00D+00 WtEn= 0.00D+00
 Coeff-Com:  0.100D+01
 Coeff:      0.100D+01
 Gap=     0.417 Goal=   None    Shift=    0.000
 RMSDP=6.59D-06 MaxDP=3.89D-04 DE= 1.58D-05 OVMax= 2.37D-04

 Cycle   7  Pass 1  IDiag  1:
 RMSU=  1.13D-05    CP:  1.00D+00
 E= -276.300300897271     Delta-E=       -0.000000733100 Rises=F Damp=F
 DIIS: error= 2.30D-05 at cycle   2 NSaved=   2.
 NSaved= 2 IEnMin= 2 EnMin= -276.300300897271     IErMin= 2 ErrMin= 2.30D-05
 ErrMax= 2.30D-05  0.00D+00 EMaxC= 1.00D-01 BMatC= 3.76D-07 BMatP= 1.72D-06
 IDIUse=1 WtCom= 1.00D+00 WtEn= 0.00D+00
 Coeff-Com:  0.264D+00 0.736D+00
 Coeff:      0.264D+00 0.736D+00
 Gap=     0.417 Goal=   None    Shift=    0.000
 RMSDP=1.27D-06 MaxDP=5.27D-05 DE=-7.33D-07 OVMax= 1.37D-04

 Cycle   8  Pass 1  IDiag  1:
 RMSU=  1.27D-06    CP:  1.00D+00  1.00D+00
 E= -276.300301191266     Delta-E=       -0.000000293995 Rises=F Damp=F
 DIIS: error= 1.15D-05 at cycle   3 NSaved=   3.
 NSaved= 3 IEnMin= 3 EnMin= -276.300301191266     IErMin= 3 ErrMin= 1.15D-05
 ErrMax= 1.15D-05  0.00D+00 EMaxC= 1.00D-01 BMatC= 7.86D-08 BMatP= 3.76D-07
 IDIUse=1 WtCom= 1.00D+00 WtEn= 0.00D+00
 Coeff-Com: -0.172D-02 0.308D+00 0.693D+00
 Coeff:     -0.172D-02 0.308D+00 0.693D+00
 Gap=     0.417 Goal=   None    Shift=    0.000
 RMSDP=4.56D-07 MaxDP=1.68D-05 DE=-2.94D-07 OVMax= 4.37D-05

 Cycle   9  Pass 1  IDiag  1:
 RMSU=  2.80D-07    CP:  1.00D+00  1.02D+00  7.56D-01
 E= -276.300301266428     Delta-E=       -0.000000075162 Rises=F Damp=F
 DIIS: error= 1.90D-06 at cycle   4 NSaved=   4.
 NSaved= 4 IEnMin= 4 EnMin= -276.300301266428     IErMin= 4 ErrMin= 1.90D-06
 ErrMax= 1.90D-06  0.00D+00 EMaxC= 1.00D-01 BMatC= 1.54D-09 BMatP= 7.86D-08
 IDIUse=1 WtCom= 1.00D+00 WtEn= 0.00D+00
 Coeff-Com: -0.736D-02 0.933D-01 0.250D+00 0.664D+00
 Coeff:     -0.736D-02 0.933D-01 0.250D+00 0.664D+00
 Gap=     0.417 Goal=   None    Shift=    0.000
 RMSDP=7.33D-08 MaxDP=2.71D-06 DE=-7.52D-08 OVMax= 6.81D-06

 Cycle  10  Pass 1  IDiag  1:
 RMSU=  6.69D-08    CP:  1.00D+00  1.02D+00  7.57D-01  9.08D-01
 E= -276.300301267971     Delta-E=       -0.000000001543 Rises=F Damp=F
 DIIS: error= 2.92D-07 at cycle   5 NSaved=   5.
 NSaved= 5 IEnMin= 5 EnMin= -276.300301267971     IErMin= 5 ErrMin= 2.92D-07
 ErrMax= 2.92D-07  0.00D+00 EMaxC= 1.00D-01 BMatC= 3.86D-11 BMatP= 1.54D-09
 IDIUse=1 WtCom= 1.00D+00 WtEn= 0.00D+00
 Coeff-Com: -0.419D-03-0.155D-01-0.323D-01 0.321D-01 0.102D+01
 Coeff:     -0.419D-03-0.155D-01-0.323D-01 0.321D-01 0.102D+01
 Gap=     0.417 Goal=   None    Shift=    0.000
 RMSDP=2.71D-08 MaxDP=7.20D-07 DE=-1.54D-09 OVMax= 2.28D-06

 Cycle  11  Pass 1  IDiag  1:
 RMSU=  1.34D-08    CP:  1.00D+00  1.02D+00  7.59D-01  9.84D-01  1.12D+00
 E= -276.300301268021     Delta-E=       -0.000000000050 Rises=F Damp=F
 DIIS: error= 1.15D-07 at cycle   6 NSaved=   6.
 NSaved= 6 IEnMin= 6 EnMin= -276.300301268021     IErMin= 6 ErrMin= 1.15D-07
 ErrMax= 1.15D-07  0.00D+00 EMaxC= 1.00D-01 BMatC= 1.14D-11 BMatP= 3.86D-11
 IDIUse=1 WtCom= 1.00D+00 WtEn= 0.00D+00
 Coeff-Com:  0.349D-03-0.131D-01-0.314D-01-0.340D-01 0.438D+00 0.640D+00
 Coeff:      0.349D-03-0.131D-01-0.314D-01-0.340D-01 0.438D+00 0.640D+00
 Gap=     0.417 Goal=   None    Shift=    0.000
 RMSDP=5.75D-09 MaxDP=2.39D-07 DE=-4.98D-11 OVMax= 6.34D-07

 SCF Done:  E(RM062X) =  -276.300301268     A.U. after   11 cycles
            NFock= 11  Conv=0.57D-08     -V/T= 2.0064
 KE= 2.745410941680D+02 PE=-1.279547096053D+03 EE= 4.081720757010D+02
 Leave Link  502 at Fri Sep 27 10:19:51 2019, MaxMem=   671088640 cpu:            1866.0 elap:             933.2
 (Enter /shared/centos7/gaussian/g16/l801.exe)
 DoSCS=F DFT=T ScalE2(SS,OS)=  1.000000  1.000000
 Range of M.O.s used for correlation:     1   434
 NBasis=   434 NAE=    29 NBE=    29 NFC=     0 NFV=     0
 NROrb=    434 NOA=    29 NOB=    29 NVA=   405 NVB=   405

 **** Warning!!: The largest alpha MO coefficient is  0.12205457D+02

 Leave Link  801 at Fri Sep 27 10:19:51 2019, MaxMem=   671088640 cpu:               1.7 elap:               0.8
 (Enter /shared/centos7/gaussian/g16/l1101.exe)
 Using compressed storage, NAtomX=    23.
 Will process     24 centers per pass.
 Leave Link 1101 at Fri Sep 27 10:20:29 2019, MaxMem=   671088640 cpu:              75.6 elap:              37.8
 (Enter /shared/centos7/gaussian/g16/l1102.exe)
 Symmetrizing basis deriv contribution to polar:
 IMax=3 JMax=2 DiffMx= 0.00D+00
 Leave Link 1102 at Fri Sep 27 10:20:32 2019, MaxMem=   671088640 cpu:               5.7 elap:               2.9
 (Enter /shared/centos7/gaussian/g16/l1110.exe)
 Forming Gx(P) for the SCF density, NAtomX=    23.
 Integral derivatives from FoFJK, PRISM(SPDF).
 Do as many integral derivatives as possible in FoFJK.
 G2DrvN: MDV=     671086848.
 G2DrvN: will do    24 centers at a time, making    1 passes.
 Calling FoFCou, ICntrl=  3107 FMM=F I1Cent=   0 AccDes= 0.00D+00.
 FoFJK:  IHMeth= 1 ICntrl=    3107 DoSepK=F KAlg= 0 I1Cent=           0 FoldK=F
 IRaf=         0 NMat=       1 IRICut=       1 DoRegI=T DoRafI=F ISym2E= 0 IDoP0=0 IntGTp=1.
 FoFCou: FMM=F IPFlag=           0 FMFlag=      100000 FMFlg1=           0
         NFxFlg=           0 DoJE=F BraDBF=F KetDBF=F FulRan=T
         wScrn=  0.000000 ICntrl=      3107 IOpCl=  0 I1Cent=           0 NGrid=           0
         NMat0=    1 NMatS0=      1 NMatT0=    0 NMatD0=    1 NMtDS0=    0 NMtDT0=    0
 Symmetry not used in FoFCou.
 End of G2Drv F.D. properties file   721 does not exist.
 End of G2Drv F.D. properties file   722 does not exist.
 End of G2Drv F.D. properties file   788 does not exist.
 Leave Link 1110 at Fri Sep 27 11:09:26 2019, MaxMem=   671088640 cpu:            5866.2 elap:            2933.6
 (Enter /shared/centos7/gaussian/g16/l1002.exe)
 Minotr:  Closed shell wavefunction.
          IDoAtm=11111111111111111111111
          Direct CPHF calculation.
          Differentiating once with respect to nuclear coordinates.
          Requested convergence is 1.0D-08 RMS, and 1.0D-07 maximum.
          Secondary convergence is 1.0D-12 RMS, and 1.0D-12 maximum.
          NewPWx=T KeepS1=F KeepF1=F KeepIn=T MapXYZ=F SortEE=F KeepMc=T.
         6939 words used for storage of precomputed grid.
 Two-electron integrals replicated using symmetry.
          MDV=     671088640 using IRadAn=       1.
          Solving linear equations simultaneously, MaxMat=     380.
 FoF2E skips out because all densities are zero.
 CalDSu exits because no D1Ps are significant.
 FoFJK:  IHMeth= 1 ICntrl=       0 DoSepK=F KAlg= 0 I1Cent=           0 FoldK=F
 IRaf= 900000000 NMat=      69 IRICut=     172 DoRegI=T DoRafI=T ISym2E= 2 IDoP0=3 IntGTp=3.
 FoFCou: FMM=F IPFlag=           0 FMFlag=      100000 FMFlg1=           0
         NFxFlg=           0 DoJE=F BraDBF=F KetDBF=F FulRan=T
         wScrn=  0.000000 ICntrl=         0 IOpCl=  0 I1Cent=           0 NGrid=           0
         NMat0=   69 NMatS0=     69 NMatT0=    0 NMatD0=   69 NMtDS0=    0 NMtDT0=    0
 Integrals replicated using symmetry in FoFCou.
 Raff kept on since  85.59% of shell-pairs survive, threshold=   0.20 IRatSp=86.
          There are    72 degrees of freedom in the 1st order CPHF.  IDoFFX=6 NUNeed=     0.
     66 vectors produced by pass  0 Test12= 1.63D-14 1.39D-09 XBig12= 5.49D-02 4.73D-02.
 AX will form    66 AO Fock derivatives at one time.
     66 vectors produced by pass  1 Test12= 1.63D-14 1.39D-09 XBig12= 3.64D-03 6.74D-03.
     66 vectors produced by pass  2 Test12= 1.63D-14 1.39D-09 XBig12= 6.04D-05 1.15D-03.
     66 vectors produced by pass  3 Test12= 1.63D-14 1.39D-09 XBig12= 4.27D-07 8.66D-05.
     66 vectors produced by pass  4 Test12= 1.63D-14 1.39D-09 XBig12= 1.96D-09 5.43D-06.
     66 vectors produced by pass  5 Test12= 1.63D-14 1.39D-09 XBig12= 9.38D-12 3.57D-07.
     24 vectors produced by pass  6 Test12= 1.63D-14 1.39D-09 XBig12= 3.38D-14 1.70D-08.
 InvSVY:  IOpt=1 It=  1 EMax= 3.05D-16
 Solved reduced A of dimension   420 with    72 vectors.
 End of Minotr F.D. properties file   721 does not exist.
 End of Minotr F.D. properties file   722 does not exist.
 End of Minotr F.D. properties file   788 does not exist.
 Leave Link 1002 at Fri Sep 27 12:36:56 2019, MaxMem=   671088640 cpu:           10498.1 elap:            5250.0
 (Enter /shared/centos7/gaussian/g16/l601.exe)
 Copying SCF densities to generalized density rwf, IOpCl= 0 IROHF=0.

 **********************************************************************

            Population analysis using the SCF density.

 **********************************************************************

 Orbital symmetries:
       Occupied  (A) (A) (A) (A) (A) (A) (A) (A) (A) (A) (A) (A)
                 (A) (A) (A) (A) (A) (A) (A) (A) (A) (A) (A) (A)
                 (A) (A) (A) (A) (A)
       Virtual   (A) (A) (A) (A) (A) (A) (A) (A) (A) (A) (A) (A)
                 (A) (A) (A) (A) (A) (A) (A) (A) (A) (A) (A) (A)
                 (A) (A) (A) (A) (A) (A) (A) (A) (A) (A) (A) (A)
                 (A) (A) (A) (A) (A) (A) (A) (A) (A) (A) (A) (A)
                 (A) (A) (A) (A) (A) (A) (A) (A) (A) (A) (A) (A)
                 (A) (A) (A) (A) (A) (A) (A) (A) (A) (A) (A) (A)
                 (A) (A) (A) (A) (A) (A) (A) (A) (A) (A) (A) (A)
                 (A) (A) (A) (A) (A) (A) (A) (A) (A) (A) (A) (A)
                 (A) (A) (A) (A) (A) (A) (A) (A) (A) (A) (A) (A)
                 (A) (A) (A) (A) (A) (A) (A) (A) (A) (A) (A) (A)
                 (A) (A) (A) (A) (A) (A) (A) (A) (A) (A) (A) (A)
                 (A) (A) (A) (A) (A) (A) (A) (A) (A) (A) (A) (A)
                 (A) (A) (A) (A) (A) (A) (A) (A) (A) (A) (A) (A)
                 (A) (A) (A) (A) (A) (A) (A) (A) (A) (A) (A) (A)
                 (A) (A) (A) (A) (A) (A) (A) (A) (A) (A) (A) (A)
                 (A) (A) (A) (A) (A) (A) (A) (A) (A) (A) (A) (A)
                 (A) (A) (A) (A) (A) (A) (A) (A) (A) (A) (A) (A)
                 (A) (A) (A) (A) (A) (A) (A) (A) (A) (A) (A) (A)
                 (A) (A) (A) (A) (A) (A) (A) (A) (A) (A) (A) (A)
                 (A) (A) (A) (A) (A) (A) (A) (A) (A) (A) (A) (A)
                 (A) (A) (A) (A) (A) (A) (A) (A) (A) (A) (A) (A)
                 (A) (A) (A) (A) (A) (A) (A) (A) (A) (A) (A) (A)
                 (A) (A) (A) (A) (A) (A) (A) (A) (A) (A) (A) (A)
                 (A) (A) (A) (A) (A) (A) (A) (A) (A) (A) (A) (A)
                 (A) (A) (A) (A) (A) (A) (A) (A) (A) (A) (A) (A)
                 (A) (A) (A) (A) (A) (A) (A) (A) (A) (A) (A) (A)
                 (A) (A) (A) (A) (A) (A) (A) (A) (A) (A) (A) (A)
                 (A) (A) (A) (A) (A) (A) (A) (A) (A) (A) (A) (A)
                 (A) (A) (A) (A) (A) (A) (A) (A) (A) (A) (A) (A)
                 (A) (A) (A) (A) (A) (A) (A) (A) (A) (A) (A) (A)
                 (A) (A) (A) (A) (A) (A) (A) (A) (A) (A) (A) (A)
                 (A) (A) (A) (A) (A) (A) (A) (A) (A) (A) (A) (A)
                 (A) (A) (A) (A) (A) (A) (A) (A) (A) (A) (A) (A)
                 (A) (A) (A) (A) (A) (A) (A) (A) (A)
 The electronic state is 1-A.
 Alpha  occ. eigenvalues --  -10.52800 -10.52443 -10.52429 -10.52313 -10.52206
 Alpha  occ. eigenvalues --  -10.52080 -10.52015  -0.92163  -0.88401  -0.82697
 Alpha  occ. eigenvalues --   -0.76138  -0.70698  -0.65372  -0.63724  -0.54496
 Alpha  occ. eigenvalues --   -0.52848  -0.52182  -0.49543  -0.47926  -0.46111
 Alpha  occ. eigenvalues --   -0.44723  -0.42835  -0.41564  -0.40396  -0.38641
 Alpha  occ. eigenvalues --   -0.37987  -0.37255  -0.35525  -0.35065
 Alpha virt. eigenvalues --    0.06645   0.07740   0.08062   0.08563   0.10600
 Alpha virt. eigenvalues --    0.10951   0.11671   0.13208   0.14048   0.15002
 Alpha virt. eigenvalues --    0.15366   0.16863   0.18330   0.19061   0.19609
 Alpha virt. eigenvalues --    0.21350   0.21711   0.22744   0.25514   0.26102
 Alpha virt. eigenvalues --    0.27090   0.27901   0.29275   0.30220   0.31055
 Alpha virt. eigenvalues --    0.32178   0.34202   0.35845   0.37643   0.38472
 Alpha virt. eigenvalues --    0.38966   0.39936   0.40875   0.41785   0.42038
 Alpha virt. eigenvalues --    0.42858   0.43439   0.46031   0.46800   0.47095
 Alpha virt. eigenvalues --    0.47860   0.48438   0.49378   0.50395   0.50899
 Alpha virt. eigenvalues --    0.51213   0.51673   0.51997   0.52973   0.53389
 Alpha virt. eigenvalues --    0.54191   0.54852   0.55248   0.56592   0.57432
 Alpha virt. eigenvalues --    0.58456   0.59145   0.59578   0.60539   0.61763
 Alpha virt. eigenvalues --    0.62474   0.65650   0.67900   0.74873   0.76011
 Alpha virt. eigenvalues --    0.78102   0.82312   0.83164   0.83834   0.85488
 Alpha virt. eigenvalues --    0.86655   0.87747   0.89662   0.90009   0.91849
 Alpha virt. eigenvalues --    0.93277   0.94305   0.95215   0.96552   0.97891
 Alpha virt. eigenvalues --    0.99577   1.00906   1.03035   1.04234   1.04909
 Alpha virt. eigenvalues --    1.05498   1.06206   1.07230   1.08507   1.08806
 Alpha virt. eigenvalues --    1.10973   1.11239   1.13038   1.13873   1.14464
 Alpha virt. eigenvalues --    1.15494   1.15559   1.16826   1.18286   1.18773
 Alpha virt. eigenvalues --    1.20305   1.20701   1.21016   1.22053   1.23154
 Alpha virt. eigenvalues --    1.25372   1.26271   1.26472   1.27444   1.29274
 Alpha virt. eigenvalues --    1.30194   1.30802   1.31597   1.32460   1.33288
 Alpha virt. eigenvalues --    1.33967   1.35225   1.35927   1.37023   1.38043
 Alpha virt. eigenvalues --    1.38354   1.38771   1.41655   1.42759   1.43481
 Alpha virt. eigenvalues --    1.44156   1.44972   1.47549   1.48667   1.50690
 Alpha virt. eigenvalues --    1.51018   1.52383   1.53008   1.53934   1.54466
 Alpha virt. eigenvalues --    1.55789   1.57573   1.58063   1.59522   1.61723
 Alpha virt. eigenvalues --    1.61988   1.64588   1.67451   1.67865   1.69776
 Alpha virt. eigenvalues --    1.71824   1.76637   1.79089   1.84078   2.13763
 Alpha virt. eigenvalues --    2.19749   2.22797   2.26226   2.27509   2.31732
 Alpha virt. eigenvalues --    2.34668   2.39415   2.40307   2.42356   2.44369
 Alpha virt. eigenvalues --    2.45936   2.47526   2.49003   2.50682   2.52376
 Alpha virt. eigenvalues --    2.54727   2.55512   2.56223   2.57636   2.59293
 Alpha virt. eigenvalues --    2.59906   2.62309   2.62891   2.64039   2.65719
 Alpha virt. eigenvalues --    2.66663   2.68682   2.71765   2.72924   2.73615
 Alpha virt. eigenvalues --    2.74909   2.75924   2.77052   2.77587   2.78920
 Alpha virt. eigenvalues --    2.79982   2.82212   2.83405   2.84031   2.84828
 Alpha virt. eigenvalues --    2.85619   2.88250   2.88896   2.90389   2.92294
 Alpha virt. eigenvalues --    2.93381   2.94139   2.95187   2.97214   2.97400
 Alpha virt. eigenvalues --    2.98274   3.00667   3.01306   3.03134   3.03833
 Alpha virt. eigenvalues --    3.04585   3.05229   3.05823   3.06201   3.08003
 Alpha virt. eigenvalues --    3.08735   3.10027   3.10274   3.11451   3.12278
 Alpha virt. eigenvalues --    3.13370   3.14095   3.14461   3.15762   3.16288
 Alpha virt. eigenvalues --    3.17722   3.18616   3.19769   3.21614   3.23096
 Alpha virt. eigenvalues --    3.23700   3.25154   3.26259   3.27597   3.29010
 Alpha virt. eigenvalues --    3.30394   3.31043   3.32240   3.33257   3.34652
 Alpha virt. eigenvalues --    3.35218   3.38570   3.39409   3.39830   3.40241
 Alpha virt. eigenvalues --    3.40846   3.43593   3.44663   3.45561   3.47743
 Alpha virt. eigenvalues --    3.48084   3.48852   3.51785   3.52424   3.53008
 Alpha virt. eigenvalues --    3.54461   3.55402   3.56513   3.58264   3.59375
 Alpha virt. eigenvalues --    3.61130   3.62019   3.62489   3.64587   3.64869
 Alpha virt. eigenvalues --    3.66377   3.67407   3.69846   3.71658   3.72318
 Alpha virt. eigenvalues --    3.73178   3.73975   3.76749   3.77286   3.77963
 Alpha virt. eigenvalues --    3.78585   3.79715   3.80166   3.82427   3.84786
 Alpha virt. eigenvalues --    3.85383   3.85782   3.86654   3.89841   3.90836
 Alpha virt. eigenvalues --    3.91786   3.92400   3.93647   3.93761   3.95079
 Alpha virt. eigenvalues --    3.97170   3.98333   3.99061   4.01506   4.02033
 Alpha virt. eigenvalues --    4.03266   4.03957   4.04145   4.05070   4.05789
 Alpha virt. eigenvalues --    4.07097   4.07477   4.09937   4.10525   4.11900
 Alpha virt. eigenvalues --    4.12714   4.13513   4.14595   4.15156   4.16624
 Alpha virt. eigenvalues --    4.17474   4.19195   4.20653   4.21652   4.22265
 Alpha virt. eigenvalues --    4.23428   4.25029   4.25686   4.27507   4.28318
 Alpha virt. eigenvalues --    4.29149   4.31676   4.32506   4.33464   4.35498
 Alpha virt. eigenvalues --    4.37114   4.38409   4.39703   4.43059   4.44728
 Alpha virt. eigenvalues --    4.46998   4.48060   4.51776   4.52331   4.55571
 Alpha virt. eigenvalues --    4.58148   4.60036   4.61672   4.64547   4.65398
 Alpha virt. eigenvalues --    4.68050   4.68643   4.69641   4.73574   4.74918
 Alpha virt. eigenvalues --    4.76144   4.78730   4.79287   4.82585   4.83888
 Alpha virt. eigenvalues --    4.86667   4.87529   4.88758   4.88971   4.92409
 Alpha virt. eigenvalues --    4.94234   4.95437   4.97206   4.97791   4.98811
 Alpha virt. eigenvalues --    5.00445   5.03421   5.05619   5.06243   5.07491
 Alpha virt. eigenvalues --    5.09368   5.11512   5.14117   5.15147   5.16281
 Alpha virt. eigenvalues --    5.18262   5.19664   5.22496   5.24713   5.25716
 Alpha virt. eigenvalues --    5.25994   5.27297   5.29949   5.31468   5.32763
 Alpha virt. eigenvalues --    5.35247   5.37245   5.39280   5.39987   5.41572
 Alpha virt. eigenvalues --    5.43220   5.47459   5.48485   5.50633   5.55297
 Alpha virt. eigenvalues --    5.58358   5.64014   5.68633   5.73345   5.76750
 Alpha virt. eigenvalues --    5.79697   5.80612   5.84419   5.89366   5.92529
 Alpha virt. eigenvalues --    5.93556   6.00160   6.00648  11.12719  11.87722
 Alpha virt. eigenvalues --   12.29135  12.90751  13.26952  13.56048  13.88073
          Condensed to atoms (all electrons):
               1          2          3          4          5          6
     1  C    5.100486   0.297398  -0.054723   0.305886   0.005728  -0.050701
     2  C    0.297398   5.148176   0.296167  -0.049472  -0.048113   0.004702
     3  C   -0.054723   0.296167   5.107125   0.005603   0.315978  -0.000492
     4  C    0.305886  -0.049472   0.005603   5.056698  -0.000704   0.291653
     5  C    0.005728  -0.048113   0.315978  -0.000704   5.030721   0.000055
     6  C   -0.050701   0.004702  -0.000492   0.291653   0.000055   4.951771
     7  C    0.001167  -0.015710  -0.047878   0.000112   0.303347  -0.000010
     8  H   -0.058682  -0.008104  -0.000571   0.417804  -0.000459  -0.044651
     9  H   -0.045938   0.006574   0.000165   0.409881  -0.000031  -0.042253
    10  H    0.419364  -0.051046  -0.022025  -0.051607   0.001799   0.007768
    11  H    0.413822  -0.047973   0.006601  -0.042772  -0.000510  -0.017243
    12  H   -0.045017   0.420407  -0.064492  -0.018162  -0.003417   0.000878
    13  H   -0.038104   0.406372  -0.038634   0.007873   0.005752  -0.000215
    14  H    0.006609  -0.049964   0.403873  -0.000591  -0.035821   0.000033
    15  H   -0.014088  -0.051586   0.419476   0.000561  -0.042407  -0.000139
    16  H    0.000340  -0.001972  -0.049198  -0.000371   0.413157   0.000046
    17  H   -0.000630   0.010167  -0.041606   0.000053   0.412958  -0.000001
    18  H   -0.009452  -0.000065  -0.000087  -0.053765   0.000002   0.407545
    19  H    0.005015  -0.000440   0.000021  -0.045565  -0.000001   0.407284
    20  H    0.006584   0.000172   0.000040  -0.047946  -0.000005   0.407726
    21  H    0.000528   0.001805  -0.005771   0.000236  -0.049798  -0.000011
    22  H   -0.000062  -0.000023  -0.000030  -0.000005  -0.041797   0.000000
    23  H    0.000011  -0.000090   0.007844   0.000000  -0.040407   0.000000
               7          8          9         10         11         12
     1  C    0.001167  -0.058682  -0.045938   0.419364   0.413822  -0.045017
     2  C   -0.015710  -0.008104   0.006574  -0.051046  -0.047973   0.420407
     3  C   -0.047878  -0.000571   0.000165  -0.022025   0.006601  -0.064492
     4  C    0.000112   0.417804   0.409881  -0.051607  -0.042772  -0.018162
     5  C    0.303347  -0.000459  -0.000031   0.001799  -0.000510  -0.003417
     6  C   -0.000010  -0.044651  -0.042253   0.007768  -0.017243   0.000878
     7  C    4.985234   0.000019   0.000005  -0.000154  -0.000034  -0.008731
     8  H    0.000019   0.630189  -0.043818   0.007329   0.005153   0.000397
     9  H    0.000005  -0.043818   0.626335  -0.021686   0.006750   0.001389
    10  H   -0.000154   0.007329  -0.021686   0.614890  -0.037659   0.005909
    11  H   -0.000034   0.005153   0.006750  -0.037659   0.598339   0.006372
    12  H   -0.008731   0.000397   0.001389   0.005909   0.006372   0.611377
    13  H   -0.000421   0.001623  -0.000702   0.006332  -0.018842  -0.043165
    14  H   -0.004475  -0.000089   0.000048   0.001051  -0.000137   0.006809
    15  H    0.007915   0.000343  -0.000094   0.004239   0.000818   0.005266
    16  H   -0.047724   0.000182   0.000101   0.000404  -0.000031  -0.000881
    17  H   -0.041265   0.000015  -0.000003  -0.000191   0.000030   0.000723
    18  H    0.000000   0.005469   0.006155   0.000770   0.004633   0.000372
    19  H    0.000000   0.007484  -0.021355  -0.000012   0.000513  -0.000119
    20  H    0.000001  -0.020025   0.007272  -0.000721   0.001079  -0.000088
    21  H    0.413768   0.000067  -0.000013  -0.000057  -0.000053  -0.005289
    22  H    0.397550  -0.000000   0.000000   0.000015   0.000001   0.000796
    23  H    0.403851   0.000041  -0.000003   0.000008  -0.000001  -0.000616
              13         14         15         16         17         18
     1  C   -0.038104   0.006609  -0.014088   0.000340  -0.000630  -0.009452
     2  C    0.406372  -0.049964  -0.051586  -0.001972   0.010167  -0.000065
     3  C   -0.038634   0.403873   0.419476  -0.049198  -0.041606  -0.000087
     4  C    0.007873  -0.000591   0.000561  -0.000371   0.000053  -0.053765
     5  C    0.005752  -0.035821  -0.042407   0.413157   0.412958   0.000002
     6  C   -0.000215   0.000033  -0.000139   0.000046  -0.000001   0.407545
     7  C   -0.000421  -0.004475   0.007915  -0.047724  -0.041265   0.000000
     8  H    0.001623  -0.000089   0.000343   0.000182   0.000015   0.005469
     9  H   -0.000702   0.000048  -0.000094   0.000101  -0.000003   0.006155
    10  H    0.006332   0.001051   0.004239   0.000404  -0.000191   0.000770
    11  H   -0.018842  -0.000137   0.000818  -0.000031   0.000030   0.004633
    12  H   -0.043165   0.006809   0.005266  -0.000881   0.000723   0.000372
    13  H    0.591272  -0.017384   0.006147   0.000131  -0.000586  -0.000102
    14  H   -0.017384   0.589509  -0.034729   0.008709  -0.006206   0.000002
    15  H    0.006147  -0.034729   0.592806  -0.007447  -0.005584  -0.000012
    16  H    0.000131   0.008709  -0.007447   0.608640  -0.032444   0.000003
    17  H   -0.000586  -0.006206  -0.005584  -0.032444   0.584967  -0.000000
    18  H   -0.000102   0.000002  -0.000012   0.000003  -0.000000   0.609950
    19  H    0.000045  -0.000001   0.000007  -0.000003   0.000000  -0.035933
    20  H   -0.000056  -0.000001   0.000008  -0.000006   0.000000  -0.036182
    21  H   -0.001357  -0.000500  -0.000120   0.000227   0.006913  -0.000002
    22  H    0.000186   0.003371  -0.000280   0.008564  -0.013001  -0.000000
    23  H    0.000027  -0.000170  -0.000421  -0.013093   0.000522   0.000000
              19         20         21         22         23
     1  C    0.005015   0.006584   0.000528  -0.000062   0.000011
     2  C   -0.000440   0.000172   0.001805  -0.000023  -0.000090
     3  C    0.000021   0.000040  -0.005771  -0.000030   0.007844
     4  C   -0.045565  -0.047946   0.000236  -0.000005   0.000000
     5  C   -0.000001  -0.000005  -0.049798  -0.041797  -0.040407
     6  C    0.407284   0.407726  -0.000011   0.000000   0.000000
     7  C    0.000000   0.000001   0.413768   0.397550   0.403851
     8  H    0.007484  -0.020025   0.000067  -0.000000   0.000041
     9  H   -0.021355   0.007272  -0.000013   0.000000  -0.000003
    10  H   -0.000012  -0.000721  -0.000057   0.000015   0.000008
    11  H    0.000513   0.001079  -0.000053   0.000001  -0.000001
    12  H   -0.000119  -0.000088  -0.005289   0.000796  -0.000616
    13  H    0.000045  -0.000056  -0.001357   0.000186   0.000027
    14  H   -0.000001  -0.000001  -0.000500   0.003371  -0.000170
    15  H    0.000007   0.000008  -0.000120  -0.000280  -0.000421
    16  H   -0.000003  -0.000006   0.000227   0.008564  -0.013093
    17  H    0.000000   0.000000   0.006913  -0.013001   0.000522
    18  H   -0.035933  -0.036182  -0.000002  -0.000000   0.000000
    19  H    0.620066  -0.034582   0.000000  -0.000000   0.000000
    20  H   -0.034582   0.612682   0.000002  -0.000000  -0.000000
    21  H    0.000000   0.000002   0.592837  -0.038949  -0.034062
    22  H   -0.000000  -0.000000  -0.038949   0.603545  -0.026547
    23  H    0.000000  -0.000000  -0.034062  -0.026547   0.597860
 Mulliken charges:
               1
     1  C   -0.245544
     2  C   -0.267384
     3  C   -0.237386
     4  C   -0.185401
     5  C   -0.226028
     6  C   -0.323746
     7  C   -0.346565
     8  H    0.100283
     9  H    0.111220
    10  H    0.115276
    11  H    0.121144
    12  H    0.129280
    13  H    0.133810
    14  H    0.130055
    15  H    0.119322
    16  H    0.112663
    17  H    0.125170
    18  H    0.100699
    19  H    0.097577
    20  H    0.104045
    21  H    0.119599
    22  H    0.106666
    23  H    0.105244
 Sum of Mulliken charges =  -0.00000
 Mulliken charges with hydrogens summed into heavy atoms:
               1
     1  C   -0.009123
     2  C   -0.004294
     3  C    0.011990
     4  C    0.026102
     5  C    0.011805
     6  C   -0.021425
     7  C   -0.015056
 APT charges:
               1
     1  C   -0.713200
     2  C   -0.471563
     3  C   -0.711678
     4  C   -0.307388
     5  C   -0.669518
     6  C   -1.511479
     7  C   -1.179584
     8  H    0.185384
     9  H    0.360830
    10  H    0.302867
    11  H    0.393744
    12  H    0.255425
    13  H    0.378348
    14  H    0.419969
    15  H    0.290189
    16  H    0.201291
    17  H    0.529816
    18  H    0.325550
    19  H    0.527242
    20  H    0.358821
    21  H    0.122274
    22  H    0.506900
    23  H    0.405761
 Sum of APT charges =  -0.00000
 APT charges with hydrogens summed into heavy atoms:
               1
     1  C   -0.016589
     2  C    0.162210
     3  C   -0.001520
     4  C    0.238826
     5  C    0.061589
     6  C   -0.299866
     7  C   -0.144650
 Electronic spatial extent (au):  <R**2>=           1341.3731
 Charge=              0.0000 electrons
 Dipole moment (field-independent basis, Debye):
    X=             -0.0138    Y=              0.0820    Z=              0.0366  Tot=              0.0908
 Quadrupole moment (field-independent basis, Debye-Ang):
   XX=            -50.2438   YY=            -49.1085   ZZ=            -48.8405
   XY=             -0.1874   XZ=              0.1374   YZ=             -0.2076
 Traceless Quadrupole moment (field-independent basis, Debye-Ang):
   XX=             -0.8462   YY=              0.2891   ZZ=              0.5571
   XY=             -0.1874   XZ=              0.1374   YZ=             -0.2076
 Octapole moment (field-independent basis, Debye-Ang**2):
  XXX=             -4.3840  YYY=             -1.6848  ZZZ=             -0.3816  XYY=              0.0598
  XXY=              3.6402  XXZ=              1.8384  XZZ=              1.7196  YZZ=              2.0678
  YYZ=              0.4320  XYZ=              1.0245
 Hexadecapole moment (field-independent basis, Debye-Ang**3):
 XXXX=          -1508.4568 YYYY=           -255.2132 ZZZZ=           -169.6023 XXXY=             -4.7289
 XXXZ=              5.9378 YYYX=             -1.8706 YYYZ=             -0.8243 ZZZX=              1.4310
 ZZZY=             -1.0237 XXYY=           -294.1951 XXZZ=           -274.1018 YYZZ=            -69.9839
 XXYZ=             -3.3285 YYXZ=             -3.6642 ZZXY=              0.8718
 N-N= 3.205336249165D+02 E-N=-1.279547070098D+03  KE= 2.745410941680D+02
  Exact polarizability:   0.000   0.000   0.000   0.000   0.000   0.000
 Approx polarizability:  97.294   0.693  98.215   0.667  -0.505  97.642
 No NMR shielding tensors so no spin-rotation constants.
 Leave Link  601 at Fri Sep 27 12:37:25 2019, MaxMem=   671088640 cpu:              58.6 elap:              29.3
 (Enter /shared/centos7/gaussian/g16/l701.exe)
 SCFChk:  SCF convergence  5.75D-09 required  1.00D-08
 ... and contract with generalized density number  0.
 Compute integral second derivatives.
 Entering OneElI...
 Calculate overlap and kinetic energy integrals
    NBasis = 485  MinDer = 2  MaxDer = 2
 Requested accuracy = 0.1000D-12
 PrmmSu-InSpLW:  IPartL=    0 NPrtUS=   20 NPrtUL=    1 DoSpLW=F IThBeg=    0 IThEnd=   19 NThAct=   20.
 PrsmSu:  NPrtUS=  20 ThrOK=T IAlg=1 NPAlg=1 LenDen=           0 ISkipM=0 DoSpLW=F IThBeg=    0 IThEnd=   19.
 Prism:   IPart=     0 DynPar=F LinDyn=F Incr=           6.
 PRISM was handed    33207024 working-precision words and 13489 shell-pairs
 PRISM was handed    33207024 working-precision words and 13489 shell-pairs
 PRISM was handed    33207024 working-precision words and 13489 shell-pairs
 PRISM was handed    33207024 working-precision words and 13489 shell-pairs
 PRISM was handed    33207024 working-precision words and 13489 shell-pairs
 PRISM was handed    33207024 working-precision words and 13489 shell-pairs
 PRISM was handed    33207024 working-precision words and 13489 shell-pairs
 PRISM was handed    33207024 working-precision words and 13489 shell-pairs
 PRISM was handed    33207024 working-precision words and 13489 shell-pairs
 PRISM was handed    33207024 working-precision words and 13489 shell-pairs
 PRISM was handed    33207024 working-precision words and 13489 shell-pairs
 PRISM was handed    33207024 working-precision words and 13489 shell-pairs
 PRISM was handed    33207024 working-precision words and 13489 shell-pairs
 PRISM was handed    33207024 working-precision words and 13489 shell-pairs
 PRISM was handed    33207024 working-precision words and 13489 shell-pairs
 PRISM was handed    33207024 working-precision words and 13489 shell-pairs
 PRISM was handed    33207024 working-precision words and 13489 shell-pairs
 IPart=  0 NShTot=         708 NBatch=          79 AvBLen=         9.0
 PRISM was handed    33207024 working-precision words and 13489 shell-pairs
 PRISM was handed    33207024 working-precision words and 13489 shell-pairs
 IPart=  7 NShTot=         680 NBatch=          61 AvBLen=        11.1
 PRISM was handed    33207024 working-precision words and 13489 shell-pairs
 IPart=  8 NShTot=         675 NBatch=          60 AvBLen=        11.3
 IPart=  5 NShTot=         691 NBatch=          69 AvBLen=        10.0
 IPart= 18 NShTot=         646 NBatch=          45 AvBLen=        14.4
 IPart=  3 NShTot=         698 NBatch=          72 AvBLen=         9.7
 IPart= 13 NShTot=         660 NBatch=          50 AvBLen=        13.2
 IPart= 19 NShTot=         645 NBatch=          45 AvBLen=        14.3
 IPart=  6 NShTot=         688 NBatch=          67 AvBLen=        10.3
 IPart=  2 NShTot=         703 NBatch=          75 AvBLen=         9.4
 IPart= 10 NShTot=         671 NBatch=          58 AvBLen=        11.6
 IPart= 16 NShTot=         653 NBatch=          48 AvBLen=        13.6
 IPart=  9 NShTot=         675 NBatch=          60 AvBLen=        11.3
 IPart= 11 NShTot=         667 NBatch=          56 AvBLen=        11.9
 IPart= 14 NShTot=         658 NBatch=          50 AvBLen=        13.2
 IPart= 12 NShTot=         663 NBatch=          53 AvBLen=        12.5
 IPart= 15 NShTot=         657 NBatch=          50 AvBLen=        13.1
 IPart=  1 NShTot=         705 NBatch=          77 AvBLen=         9.2
 IPart= 17 NShTot=         650 NBatch=          47 AvBLen=        13.8
 IPart=  4 NShTot=         696 NBatch=          71 AvBLen=         9.8
 PrSmSu:  NxtVal=            121.
 Entering OneElI...
 Calculate potential energy integrals
    NBasis = 485  MinDer = 2  MaxDer = 2
 Requested accuracy = 0.1000D-12
 PrmmSu-InSpLW:  IPartL=    0 NPrtUS=   20 NPrtUL=    1 DoSpLW=F IThBeg=    0 IThEnd=   19 NThAct=   20.
 PrsmSu:  NPrtUS=  20 ThrOK=T IAlg=1 NPAlg=1 LenDen=           0 ISkipM=0 DoSpLW=F IThBeg=    0 IThEnd=   19.
 Prism:   IPart=     0 DynPar=F LinDyn=F Incr=         136.
 PRISM was handed    33273379 working-precision words and 11840 shell-pairs
 PRISM was handed    33273379 working-precision words and 11840 shell-pairs
 PRISM was handed    33273379 working-precision words and 11840 shell-pairs
 PRISM was handed    33273379 working-precision words and 11840 shell-pairs
 PRISM was handed    33273379 working-precision words and 11840 shell-pairs
 PRISM was handed    33273379 working-precision words and 11840 shell-pairs
 PRISM was handed    33273379 working-precision words and 11840 shell-pairs
 PRISM was handed    33273379 working-precision words and 11840 shell-pairs
 PRISM was handed    33273379 working-precision words and 11840 shell-pairs
 PRISM was handed    33273379 working-precision words and 11840 shell-pairs
 PRISM was handed    33273379 working-precision words and 11840 shell-pairs
 PRISM was handed    33273379 working-precision words and 11840 shell-pairs
 PRISM was handed    33273379 working-precision words and 11840 shell-pairs
 PRISM was handed    33273379 working-precision words and 11840 shell-pairs
 PRISM was handed    33273379 working-precision words and 11840 shell-pairs
 PRISM was handed    33273379 working-precision words and 11840 shell-pairs
 PRISM was handed    33273379 working-precision words and 11840 shell-pairs
 PRISM was handed    33273379 working-precision words and 11840 shell-pairs
 PRISM was handed    33273379 working-precision words and 11840 shell-pairs
 PRISM was handed    33273379 working-precision words and 11840 shell-pairs
 IPart=  8 NShTot=       13570 NBatch=         591 AvBLen=        23.0
 IPart= 18 NShTot=       13064 NBatch=         569 AvBLen=        23.0
 IPart=  0 NShTot=       14329 NBatch=         625 AvBLen=        22.9
 IPart= 19 NShTot=       13064 NBatch=         569 AvBLen=        23.0
 IPart=  3 NShTot=       14122 NBatch=         616 AvBLen=        22.9
 IPart= 13 NShTot=       13363 NBatch=         582 AvBLen=        23.0
 IPart=  7 NShTot=       13616 NBatch=         593 AvBLen=        23.0
 IPart=  5 NShTot=       14007 NBatch=         610 AvBLen=        23.0
 IPart= 16 NShTot=       13179 NBatch=         574 AvBLen=        23.0
 IPart= 17 NShTot=       13110 NBatch=         571 AvBLen=        23.0
 IPart= 11 NShTot=       13478 NBatch=         587 AvBLen=        23.0
 IPart=  6 NShTot=       13800 NBatch=         601 AvBLen=        23.0
 IPart= 10 NShTot=       13524 NBatch=         589 AvBLen=        23.0
 IPart= 14 NShTot=       13340 NBatch=         581 AvBLen=        23.0
 IPart= 15 NShTot=       13294 NBatch=         579 AvBLen=        23.0
 IPart=  9 NShTot=       13524 NBatch=         589 AvBLen=        23.0
 IPart=  4 NShTot=       14076 NBatch=         614 AvBLen=        22.9
 IPart= 12 NShTot=       13409 NBatch=         584 AvBLen=        23.0
 IPart=  2 NShTot=       14191 NBatch=         619 AvBLen=        22.9
 IPart=  1 NShTot=       14260 NBatch=         622 AvBLen=        22.9
 PrSmSu:  NxtVal=           2721.
 Polarizability after L701:
                1             2             3 
      1  0.000000D+00
      2  0.000000D+00  0.000000D+00
      3  0.000000D+00  0.000000D+00  0.000000D+00
 Dipole Derivatives after L701:
                 1             2             3             4             5 
      1  -0.536119D+00 -0.916383D+00  0.336499D+00  0.193595D-01 -0.101631D+00
      2  -0.272701D+00 -0.962097D+00 -0.110137D+00  0.373257D-01 -0.451936D+00
      3   0.326508D+00 -0.471370D-01 -0.641383D+00 -0.629108D-01 -0.116410D+00
                 6             7             8             9            10 
      1  -0.117799D+00 -0.475951D+00  0.942039D+00 -0.232895D+00  0.487948D+00
      2   0.380766D+00  0.157902D+00 -0.111245D+01 -0.112107D+00 -0.412880D+00
      3  -0.982112D+00 -0.363601D+00 -0.706977D-01 -0.546629D+00 -0.247414D-01
                11            12            13            14            15 
      1   0.424776D+00 -0.129861D+01 -0.835108D+00  0.282186D+00  0.143870D+01
      2  -0.550199D+00  0.732733D-01  0.402607D+00 -0.289629D+00  0.188554D+00
      3   0.818208D-01 -0.859914D+00  0.142820D+00  0.184239D+00 -0.883817D+00
                16            17            18            19            20 
      1  -0.265387D+01  0.398573D+00  0.690956D+00 -0.154397D+01 -0.911400D+00
      2   0.290885D+00 -0.100460D+01 -0.147104D+00 -0.113779D+00 -0.115723D+01
      3  -0.135002D+00 -0.743362D-02 -0.875958D+00  0.399007D-01  0.100024D+00
                21            22            23            24            25 
      1  -0.105189D+01 -0.904206D-01 -0.418952D+00  0.278461D-01  0.271594D+00
      2  -0.206132D+00  0.220247D+00  0.536362D+00  0.141665D-01 -0.186927D-01
      3  -0.837549D+00 -0.764616D-01 -0.128278D+00  0.110211D+00  0.102871D+00
                26            27            28            29            30 
      1   0.163610D+00  0.723473D+00  0.975483D-01  0.203491D+00  0.274316D+00
      2   0.142615D+00  0.133552D-01 -0.106300D+00  0.485489D+00  0.424840D+00
      3   0.165947D+00  0.668281D+00 -0.238569D-01  0.158909D+00  0.325564D+00
                31            32            33            34            35 
      1   0.446133D+00  0.287043D+00 -0.472265D+00  0.196840D+00  0.987569D-01
      2   0.199841D+00  0.313104D+00 -0.346176D+00  0.542068D-01  0.437643D+00
      3  -0.163074D+00 -0.169263D+00  0.421996D+00  0.546276D-01  0.187285D+00
                36            37            38            39            40 
      1   0.481207D-02  0.186662D+00 -0.177153D-01  0.678904D-01  0.470649D+00
      2  -0.317273D-01 -0.114992D-01  0.199628D+00 -0.257931D+00 -0.292917D+00
      3   0.131791D+00  0.217729D-01 -0.180313D+00  0.748753D+00  0.967131D-01
                41            42            43            44            45 
      1  -0.433286D+00  0.414491D+00  0.213330D-01 -0.185461D+00 -0.231339D+00
      2   0.475353D+00 -0.378419D+00  0.242816D+00  0.468055D+00  0.441895D+00
      3  -0.146093D+00  0.313904D+00  0.131092D+00  0.202564D+00  0.381178D+00
                46            47            48            49            50 
      1  -0.141582D+00  0.337788D+00 -0.350013D+00  0.103536D+01 -0.488114D+00
      2  -0.117032D+00  0.297319D+00 -0.155959D+00 -0.132188D+00  0.211515D+00
      3   0.279854D+00 -0.298751D+00  0.448136D+00 -0.360383D+00  0.214346D+00
                51            52            53            54            55 
      1  -0.496777D+00  0.411812D+00  0.625547D+00 -0.975621D+00  0.118595D+01
      2   0.875129D-01 -0.930315D-02  0.145366D+00 -0.704222D-01 -0.100796D+00
      3   0.342574D+00 -0.834197D-01 -0.238613D+00  0.419473D+00  0.187632D+00
                56            57            58            59            60 
      1   0.246212D+00  0.101042D+01  0.200300D+00 -0.109755D+01 -0.358870D+00
      2   0.626366D-01 -0.665083D-01 -0.535845D-02  0.743265D+00  0.188226D+00
      3   0.679150D-01  0.333143D+00 -0.189998D-01  0.161076D+00  0.132897D+00
                61            62            63            64            65 
      1  -0.253968D+00  0.910265D-01  0.528073D+00  0.125806D+01 -0.578208D+00
      2  -0.248378D+00  0.154457D+00  0.325874D+00  0.117708D+00  0.424245D-01
      3  -0.309795D+00  0.554729D-01  0.466333D+00  0.245641D+00 -0.985882D-01
                66            67            68            69 
      1   0.540313D+00  0.241453D+00  0.104765D+01 -0.471702D+00
      2   0.904886D-01  0.118285D+00  0.812917D+00 -0.346325D+00
      3   0.220216D+00 -0.718757D-02 -0.780217D-01  0.162913D+00
 Hessian after L701:
                1             2             3             4             5 
      1  0.145439D+02
      2  0.622931D+00  0.170691D+02
      3 -0.795988D+00  0.338621D+00  0.173841D+02
      4 -0.289261D+01  0.761195D+00  0.120989D+01  0.145849D+02
      5  0.764674D+00 -0.600990D+01  0.233226D+00 -0.747487D-01  0.179379D+02
      6  0.120454D+01  0.232357D+00 -0.557504D+01  0.237972D+00 -0.217115D+00
      7  0.335671D+00 -0.156194D+00 -0.649473D-01 -0.347802D+01 -0.111620D+01
      8  0.310660D-01 -0.743140D-01  0.228931D-01 -0.116034D+01 -0.551693D+01
      9 -0.341764D-02  0.319471D-01 -0.579041D-01 -0.152598D+01  0.614109D+00
     10 -0.464001D+01 -0.165127D+01  0.100501D+01  0.212488D+00 -0.204418D+00
     11 -0.163758D+01 -0.414862D+01 -0.108503D+01 -0.552306D-01 -0.347741D-01
     12  0.957899D+00 -0.105209D+01 -0.528657D+01  0.156765D+00 -0.893921D-01
     13  0.246573D+00  0.752000D-01 -0.912566D-01  0.334511D+00  0.842440D-01
     14  0.866123D-01 -0.130221D+00 -0.200041D-01  0.129925D-01 -0.135385D+00
     15 -0.527523D-01 -0.206129D-01 -0.138969D+00 -0.304835D+00 -0.136608D-01
     16  0.220576D+00 -0.133882D+00 -0.596592D-01  0.206607D+00 -0.130008D+00
     17 -0.257873D+00 -0.112567D-01  0.122621D-01 -0.988421D-01 -0.110201D+00
     18  0.186169D-01 -0.253044D-01 -0.111573D+00  0.827226D-01 -0.320165D-01
     19  0.989391D-01  0.606234D-01  0.127343D-01  0.100014D+00  0.230101D+00
     20  0.700596D-01 -0.476434D-01  0.224601D-02  0.118396D+00 -0.603624D-01
     21 -0.322739D-03  0.341768D-02 -0.791700D-01 -0.913036D-01 -0.622543D-01
     22  0.175122D+00  0.130041D+00 -0.336016D-01  0.596264D-02  0.139661D-01
     23  0.857992D-01 -0.121570D+00  0.138667D+00 -0.294992D-01  0.919305D-02
     24 -0.170386D-01  0.149361D+00  0.106369D+00  0.348678D-02  0.123448D-01
     25  0.566592D-01  0.817742D-01 -0.727560D-01  0.356977D-01 -0.189337D-01
     26  0.672007D-01  0.304710D-01  0.119868D+00 -0.948531D-02 -0.463348D-01
     27 -0.427662D-01  0.131843D+00  0.745721D-01  0.101419D+00 -0.259661D-01
     28 -0.452595D+01 -0.126933D+00 -0.151273D+00 -0.150722D-01 -0.137363D+00
     29 -0.235564D+00 -0.303808D+01  0.132341D+01 -0.122950D+00  0.791926D-01
     30 -0.245132D+00  0.127747D+01 -0.329124D+01 -0.111890D+00 -0.427391D-01
     31 -0.376621D+01  0.657142D+00 -0.898805D+00 -0.691801D-01 -0.924243D-01
     32  0.685970D+00 -0.368906D+01 -0.922453D+00 -0.844781D-01  0.800538D-01
     33 -0.912115D+00 -0.888262D+00 -0.310166D+01 -0.452115D-01 -0.188430D-01
     34 -0.413404D-01 -0.150183D+00 -0.794034D-01 -0.484490D+01  0.374145D+00
     35 -0.129330D+00  0.807621D-01 -0.738408D-01  0.425338D+00 -0.198365D+01
     36 -0.959990D-01 -0.950065D-01  0.846886D-01  0.457673D-01  0.201933D+00
     37 -0.671352D-01 -0.367418D-01 -0.867721D-01 -0.442778D+01 -0.942750D-02
     38 -0.283191D-01  0.833840D-01 -0.453446D-01 -0.123371D-01 -0.426564D+01
     39 -0.832848D-01 -0.634871D-01  0.132813D+00  0.154404D+00 -0.423655D+00
     40  0.119655D+00 -0.586571D-01  0.276666D-01 -0.398746D-01  0.114344D+00
     41 -0.655999D-01 -0.222253D-01 -0.110856D-01  0.112724D+00  0.630565D-01
     42  0.412860D-01 -0.223547D-01 -0.378008D-01  0.867559D-01 -0.628354D-01
     43 -0.461663D-01  0.201601D-01  0.504131D-01  0.664160D-01  0.133629D+00
     44  0.867139D-02  0.244865D-01 -0.112730D-01  0.116320D+00  0.375719D-01
     45  0.244113D-01  0.888391D-02 -0.459152D-02  0.122853D+00 -0.975124D-01
     46  0.538398D-02  0.158183D-01 -0.151390D-01  0.222742D-02  0.901503D-02
     47  0.295939D-01 -0.904128D-02 -0.197256D-01  0.313543D-01 -0.205481D-02
     48 -0.312846D-01 -0.111821D-01  0.872252D-03 -0.483925D-01 -0.346966D-01
     49  0.113647D-01 -0.883121D-02 -0.827982D-02  0.129477D+00  0.379943D-02
     50 -0.382499D-02 -0.360793D-02  0.189107D-02 -0.169125D-01 -0.598707D-01
[...]
 Prism:   IPart=     0 DynPar=F LinDyn=F Incr=           6.
 PRISM was handed    33218321 working-precision words and 13396 shell-pairs
 PRISM was handed    33218321 working-precision words and 13396 shell-pairs
 PRISM was handed    33218321 working-precision words and 13396 shell-pairs
 PRISM was handed    33218321 working-precision words and 13396 shell-pairs
 PRISM was handed    33218321 working-precision words and 13396 shell-pairs
 PRISM was handed    33218321 working-precision words and 13396 shell-pairs
 PRISM was handed    33218321 working-precision words and 13396 shell-pairs
 PRISM was handed    33218321 working-precision words and 13396 shell-pairs
 PRISM was handed    33218321 working-precision words and 13396 shell-pairs
 PRISM was handed    33218321 working-precision words and 13396 shell-pairs
 IPart=  2 NShTot=         697 NBatch=          63 AvBLen=        11.1
 IPart= 16 NShTot=         648 NBatch=          39 AvBLen=        16.6
 PRISM was handed    33218321 working-precision words and 13396 shell-pairs
 IPart=  3 NShTot=         694 NBatch=          61 AvBLen=        11.4
 IPart=  4 NShTot=         691 NBatch=          58 AvBLen=        11.9
 PRISM was handed    33218321 working-precision words and 13396 shell-pairs
 IPart=  0 NShTot=         703 NBatch=          64 AvBLen=        11.0
 IPart= 15 NShTot=         653 NBatch=          41 AvBLen=        15.9
 IPart=  8 NShTot=         670 NBatch=          46 AvBLen=        14.6
 PRISM was handed    33218321 working-precision words and 13396 shell-pairs
 IPart=  6 NShTot=         677 NBatch=          52 AvBLen=        13.0
 IPart= 12 NShTot=         660 NBatch=          42 AvBLen=        15.7
 PRISM was handed    33218321 working-precision words and 13396 shell-pairs
 IPart= 17 NShTot=         648 NBatch=          39 AvBLen=        16.6
 PRISM was handed    33218321 working-precision words and 13396 shell-pairs
 PRISM was handed    33218321 working-precision words and 13396 shell-pairs
 IPart=  5 NShTot=         683 NBatch=          55 AvBLen=        12.4
 PRISM was handed    33218321 working-precision words and 13396 shell-pairs
 IPart=  7 NShTot=         671 NBatch=          46 AvBLen=        14.6
 PRISM was handed    33218321 working-precision words and 13396 shell-pairs
 IPart=  1 NShTot=         697 NBatch=          63 AvBLen=        11.1
 PRISM was handed    33218321 working-precision words and 13396 shell-pairs
 IPart= 14 NShTot=         654 NBatch=          41 AvBLen=        16.0
 PRISM was handed    33218321 working-precision words and 13396 shell-pairs
 IPart=  9 NShTot=         668 NBatch=          46 AvBLen=        14.5
 IPart= 10 NShTot=         667 NBatch=          46 AvBLen=        14.5
 IPart= 11 NShTot=         666 NBatch=          46 AvBLen=        14.5
 IPart= 18 NShTot=         646 NBatch=          38 AvBLen=        17.0
 IPart= 13 NShTot=         657 NBatch=          41 AvBLen=        16.0
 IPart= 19 NShTot=         646 NBatch=          38 AvBLen=        17.0
 PrSmSu:  NxtVal=            121.
 Entering OneElI...
 Calculate potential energy integrals
    NBasis = 485  MinDer = 1  MaxDer = 1
 Requested accuracy = 0.1000D-12
 PrmmSu-InSpLW:  IPartL=    0 NPrtUS=   20 NPrtUL=    1 DoSpLW=F IThBeg=    0 IThEnd=   19 NThAct=   20.
 PrsmSu:  NPrtUS=  20 ThrOK=T IAlg=1 NPAlg=1 LenDen=           0 ISkipM=0 DoSpLW=F IThBeg=    0 IThEnd=   19.
 Prism:   IPart=     0 DynPar=F LinDyn=F Incr=         137.
 PRISM was handed    33279457 working-precision words and 11952 shell-pairs
 PRISM was handed    33279457 working-precision words and 11952 shell-pairs
 PRISM was handed    33279457 working-precision words and 11952 shell-pairs
 PRISM was handed    33279457 working-precision words and 11952 shell-pairs
 PRISM was handed    33279457 working-precision words and 11952 shell-pairs
 PRISM was handed    33279457 working-precision words and 11952 shell-pairs
 PRISM was handed    33279457 working-precision words and 11952 shell-pairs
 PRISM was handed    33279457 working-precision words and 11952 shell-pairs
 PRISM was handed    33279457 working-precision words and 11952 shell-pairs
 PRISM was handed    33279457 working-precision words and 11952 shell-pairs
 PRISM was handed    33279457 working-precision words and 11952 shell-pairs
 PRISM was handed    33279457 working-precision words and 11952 shell-pairs
 PRISM was handed    33279457 working-precision words and 11952 shell-pairs
 PRISM was handed    33279457 working-precision words and 11952 shell-pairs
 PRISM was handed    33279457 working-precision words and 11952 shell-pairs
 PRISM was handed    33279457 working-precision words and 11952 shell-pairs
 PRISM was handed    33279457 working-precision words and 11952 shell-pairs
 PRISM was handed    33279457 working-precision words and 11952 shell-pairs
 PRISM was handed    33279457 working-precision words and 11952 shell-pairs
 PRISM was handed    33279457 working-precision words and 11952 shell-pairs
 IPart=  1 NShTot=       14375 NBatch=         625 AvBLen=        23.0
 IPart=  8 NShTot=       13823 NBatch=         601 AvBLen=        23.0
 IPart= 11 NShTot=       13662 NBatch=         594 AvBLen=        23.0
 IPart= 10 NShTot=       13685 NBatch=         595 AvBLen=        23.0
 IPart=  7 NShTot=       13823 NBatch=         601 AvBLen=        23.0
 IPart=  2 NShTot=       14352 NBatch=         624 AvBLen=        23.0
 IPart= 12 NShTot=       13593 NBatch=         591 AvBLen=        23.0
 IPart=  9 NShTot=       13800 NBatch=         600 AvBLen=        23.0
 IPart= 14 NShTot=       13455 NBatch=         585 AvBLen=        23.0
 IPart=  0 NShTot=       14398 NBatch=         626 AvBLen=        23.0
 IPart= 16 NShTot=       13133 NBatch=         571 AvBLen=        23.0
 IPart=  4 NShTot=       14214 NBatch=         618 AvBLen=        23.0
 IPart= 13 NShTot=       13524 NBatch=         588 AvBLen=        23.0
 IPart= 19 NShTot=       13087 NBatch=         569 AvBLen=        23.0
 IPart= 18 NShTot=       13110 NBatch=         570 AvBLen=        23.0
 IPart= 17 NShTot=       13133 NBatch=         571 AvBLen=        23.0
 IPart=  3 NShTot=       14306 NBatch=         622 AvBLen=        23.0
 IPart= 15 NShTot=       13317 NBatch=         579 AvBLen=        23.0
 IPart=  5 NShTot=       14099 NBatch=         613 AvBLen=        23.0
 IPart=  6 NShTot=       14007 NBatch=         609 AvBLen=        23.0
 PrSmSu:  NxtVal=           2741.
 Force l701 out
 I=    0 X=   9.973919486949D-03 Y=  -2.291868340600D-03 Z=   2.170970984198D-02
 I=    1 X=   1.863978490326D+00 Y=   3.355088486324D+00 Z=   8.670005101204D-02
 I=    2 X=  -1.937657409364D-01 Y=   2.247286105821D+00 Z=  -1.467879350625D+00
 I=    3 X=  -1.625683984084D+00 Y=  -1.077421662439D+00 Z=   1.590685525112D+00
 I=    4 X=   4.396114168023D+00 Y=   5.241604253878D-01 Z=   1.518146923142D+00
 I=    5 X=  -3.445542189072D+00 Y=  -2.421736380139D+00 Z=   3.872790680608D-01
 I=    6 X=   4.441297976360D+00 Y=  -2.945233096116D+00 Z=  -1.024881827391D+00
 I=    7 X=  -5.175963688216D+00 Y=   5.749540262328D-01 Z=  -6.901392686990D-01
 I=    8 X=  -5.979611199235D-01 Y=  -1.581038634536D+00 Z=   3.512671646349D+00
 I=    9 X=   3.337196842254D+00 Y=   1.702305728428D+00 Z=   1.249639043188D+00
 I=   10 X=  -4.127603064793D-01 Y=   3.126893833639D+00 Z=   2.651442574789D+00
 I=   11 X=   1.761026439033D+00 Y=   2.472793680525D+00 Z=  -2.789453341288D+00
 I=   12 X=   4.780198813758D-01 Y=  -2.059591305989D+00 Z=  -3.528001248725D+00
 I=   13 X=  -2.224853151287D+00 Y=   3.192235610770D+00 Z=  -1.730375649649D+00
 I=   14 X=  -6.974011167522D-01 Y=   2.011063163236D+00 Z=   3.581319795457D+00
 I=   15 X=   1.988905257816D+00 Y=  -3.139944273801D+00 Z=   1.730458375636D+00
 I=   16 X=   5.410814465492D-02 Y=  -2.686778088360D+00 Z=  -2.825780395756D+00
 I=   17 X=  -1.659249856882D+00 Y=  -2.556838936555D+00 Z=   2.501049091458D+00
 I=   18 X=  -2.060614027568D+00 Y=  -2.565770869331D+00 Z=  -1.065449451503D+00
 I=   19 X=   1.424760293273D+00 Y=   7.251904065841D-01 Z=  -3.219950682391D+00
 I=   20 X=   2.744234200656D+00 Y=  -2.331520115968D+00 Z=   8.241621583082D-01
 I=   21 X=   9.859410958121D-02 Y=   2.136279122738D+00 Z=  -2.790044401165D+00
 I=   22 X=  -1.176481673523D+00 Y=   2.368745969914D+00 Z=   2.301677820929D+00
 I=   23 X=  -3.317958948632D+00 Y=  -1.071123196365D+00 Z=  -8.032764562505D-01
 Leave Link  701 at Sat Sep 28 09:57:43 2019, MaxMem=   671088640 cpu:              38.5 elap:              38.5
 (Enter /shared/centos7/gaussian/g16/l702.exe)
 L702 exits ... SP integral derivatives will be done elsewhere.
 Leave Link  702 at Sat Sep 28 09:57:45 2019, MaxMem=   671088640 cpu:               1.3 elap:               1.3
 (Enter /shared/centos7/gaussian/g16/l703.exe)
 Integral derivatives from FoFJK, PRISM(SPDF).
 Compute integral first derivatives, UseDBF=F ICtDFT=           0.
 ICntrl=      2127.
 Calling FoFJK, ICntrl=      2127 FMM=F ISym2X=0 I1Cent= 0 IOpClX= 0 NMat=1 NMatS=1 NMatT=0.
 FoFJK:  IHMeth= 1 ICntrl=    2127 DoSepK=F KAlg= 0 I1Cent=           0 FoldK=F
 IRaf=         0 NMat=       1 IRICut=       1 DoRegI=T DoRafI=F ISym2E= 0 IDoP0=0 IntGTp=1.
 FoFCou: FMM=F IPFlag=           0 FMFlag=      100000 FMFlg1=         800
         NFxFlg=           0 DoJE=F BraDBF=F KetDBF=F FulRan=T
         wScrn=  0.000000 ICntrl=      2127 IOpCl=  0 I1Cent=           0 NGrid=           0
         NMat0=    1 NMatS0=      1 NMatT0=    0 NMatD0=    1 NMtDS0=    0 NMtDT0=    0
 Symmetry not used in FoFCou.
 FoFCou:  KetSym=F NOpSet=  1 NOpAb=1 NOp=  1.
 FoFCou:  CnvScl= 1.00D+00 Thresh= 1.00D-12 IAcrcy=      10.
 PrismS was handed   670011263 working-precision words and 12782 shell-pairs
 FoFCou: LinMIO=F DoNuc=F BraDBF=F KetDBF=F HaveP=T PDBF=F HaveZ=T HaveW=F
         NIJTC =      10 NIJTAt=       0 NIJTCD=       0 NIJTT =      10
         IJTBeg=       1 IJTEnd=      10 KLTBeg=       1 KLTEnd=      10
         IPTBeg=       1 IPTEnd=      10 IPTBCv=       1 IPTECv=      10
         IZTBeg=       1 IZTEnd=      10 IZTBCv=       1 IZTECv=      10
         IWTBeg=      11 IWTEnd=      10 IWTBCv=      11 IWTECv=      10
         INTBeg=       1 INTEnd=       0 IFTBCv=       1 IFTECv=      10
 NCel replicated for PrismC:     1
 CoulSu-InSpLW:  IPartL=    0 NPrtUS=   20 NPrtUL=    1 DoSpLW=F IThBeg=    0 IThEnd=   19 NThAct=   20.
 CoulSu:  IncDef=  1024 NBBP=       81696153 NTPThr=   100 NPartT=   20 Incr=        1024 LDynOK=F GPUOK=T.
 CoulSu:  NPrtUS=  20 ThrOK=T IAlg=1 NPAlg=1 LenDen=           0 LWGrdD=           0 DoCopy=F ISkipM=0
          DoSpLW=F IThBeg=    0 IThEnd=   19.
 Enter PrismC:  IPart=  0 JobTyp=21 DoJE=F Cont=F.
 PrismC:  IPart=     0 DynPar=T LinDyn=F Incr=        1024 UseFst=F UseS4=T ISplat=2.
 PrismC was handed    33273254 working-precision words and 12782 shell-pairs
 Enter PrismC:  IPart=  2 JobTyp=21 DoJE=F Cont=F.
 PrismC:  IPart=     2 DynPar=T LinDyn=F Incr=        1024 UseFst=F UseS4=T ISplat=2.
 PrismC was handed    33273254 working-precision words and 12782 shell-pairs
 Enter PrismC:  IPart=  1 JobTyp=21 DoJE=F Cont=F.
 PrismC:  IPart=     1 DynPar=T LinDyn=F Incr=        1024 UseFst=F UseS4=T ISplat=2.
 PrismC was handed    33273254 working-precision words and 12782 shell-pairs
 Enter PrismC:  IPart=  3 JobTyp=21 DoJE=F Cont=F.
 PrismC:  IPart=     3 DynPar=T LinDyn=F Incr=        1024 UseFst=F UseS4=T ISplat=2.
 PrismC was handed    33273254 working-precision words and 12782 shell-pairs
 Enter PrismC:  IPart=  8 JobTyp=21 DoJE=F Cont=F.
 PrismC:  IPart=     8 DynPar=T LinDyn=F Incr=        1024 UseFst=F UseS4=T ISplat=2.
 PrismC was handed    33273254 working-precision words and 12782 shell-pairs
 Enter PrismC:  IPart=  4 JobTyp=21 DoJE=F Cont=F.
 PrismC:  IPart=     4 DynPar=T LinDyn=F Incr=        1024 UseFst=F UseS4=T ISplat=2.
 PrismC was handed    33273254 working-precision words and 12782 shell-pairs
 Enter PrismC:  IPart= 16 JobTyp=21 DoJE=F Cont=F.
 PrismC:  IPart=    16 DynPar=T LinDyn=F Incr=        1024 UseFst=F UseS4=T ISplat=2.
 PrismC was handed    33273254 working-precision words and 12782 shell-pairs
 Enter PrismC:  IPart=  9 JobTyp=21 DoJE=F Cont=F.
 PrismC:  IPart=     9 DynPar=T LinDyn=F Incr=        1024 UseFst=F UseS4=T ISplat=2.
 PrismC was handed    33273254 working-precision words and 12782 shell-pairs
 Enter PrismC:  IPart=  6 JobTyp=21 DoJE=F Cont=F.
 PrismC:  IPart=     6 DynPar=T LinDyn=F Incr=        1024 UseFst=F UseS4=T ISplat=2.
 PrismC was handed    33273254 working-precision words and 12782 shell-pairs
 Enter PrismC:  IPart=  7 JobTyp=21 DoJE=F Cont=F.
 PrismC:  IPart=     7 DynPar=T LinDyn=F Incr=        1024 UseFst=F UseS4=T ISplat=2.
 PrismC was handed    33273254 working-precision words and 12782 shell-pairs
 Enter PrismC:  IPart= 17 JobTyp=21 DoJE=F Cont=F.
 PrismC:  IPart=    17 DynPar=T LinDyn=F Incr=        1024 UseFst=F UseS4=T ISplat=2.
 PrismC was handed    33273254 working-precision words and 12782 shell-pairs
 Enter PrismC:  IPart=  5 JobTyp=21 DoJE=F Cont=F.
 PrismC:  IPart=     5 DynPar=T LinDyn=F Incr=        1024 UseFst=F UseS4=T ISplat=2.
 PrismC was handed    33273254 working-precision words and 12782 shell-pairs
 Enter PrismC:  IPart= 12 JobTyp=21 DoJE=F Cont=F.
 PrismC:  IPart=    12 DynPar=T LinDyn=F Incr=        1024 UseFst=F UseS4=T ISplat=2.
 PrismC was handed    33273254 working-precision words and 12782 shell-pairs
 Enter PrismC:  IPart= 19 JobTyp=21 DoJE=F Cont=F.
 PrismC:  IPart=    19 DynPar=T LinDyn=F Incr=        1024 UseFst=F UseS4=T ISplat=2.
 PrismC was handed    33273254 working-precision words and 12782 shell-pairs
 Enter PrismC:  IPart= 18 JobTyp=21 DoJE=F Cont=F.
 PrismC:  IPart=    18 DynPar=T LinDyn=F Incr=        1024 UseFst=F UseS4=T ISplat=2.
 PrismC was handed    33273254 working-precision words and 12782 shell-pairs
 Enter PrismC:  IPart= 10 JobTyp=21 DoJE=F Cont=F.
 PrismC:  IPart=    10 DynPar=T LinDyn=F Incr=        1024 UseFst=F UseS4=T ISplat=2.
 PrismC was handed    33273254 working-precision words and 12782 shell-pairs
 Enter PrismC:  IPart= 11 JobTyp=21 DoJE=F Cont=F.
 PrismC:  IPart=    11 DynPar=T LinDyn=F Incr=        1024 UseFst=F UseS4=T ISplat=2.
 PrismC was handed    33273254 working-precision words and 12782 shell-pairs
 Enter PrismC:  IPart= 13 JobTyp=21 DoJE=F Cont=F.
 PrismC:  IPart=    13 DynPar=T LinDyn=F Incr=        1024 UseFst=F UseS4=T ISplat=2.
 PrismC was handed    33273254 working-precision words and 12782 shell-pairs
 Enter PrismC:  IPart= 14 JobTyp=21 DoJE=F Cont=F.
 PrismC:  IPart=    14 DynPar=T LinDyn=F Incr=        1024 UseFst=F UseS4=T ISplat=2.
 PrismC was handed    33273254 working-precision words and 12782 shell-pairs
 Enter PrismC:  IPart= 15 JobTyp=21 DoJE=F Cont=F.
 PrismC:  IPart=    15 DynPar=T LinDyn=F Incr=        1024 UseFst=F UseS4=T ISplat=2.
 PrismC was handed    33273254 working-precision words and 12782 shell-pairs
 IPart= 19 NShTot=    26190445 NShNF=    26190445 NShFF=           0 MinMC=       7
           NShCPU=    26190445 NBCPU=      488063 AvBCPU=        53.7
           NShGPU=           0 NBGPU=           0 AvBGPU=         0.0
 IPart= 11 NShTot=     1711666 NShNF=     1711666 NShFF=           0 MinMC=       7
           NShCPU=     1711666 NBCPU=       36794 AvBCPU=        46.5
           NShGPU=           0 NBGPU=           0 AvBGPU=         0.0
 IPart= 18 NShTot=     1762395 NShNF=     1762395 NShFF=           0 MinMC=       7
           NShCPU=     1762395 NBCPU=       37241 AvBCPU=        47.3
           NShGPU=           0 NBGPU=           0 AvBGPU=         0.0
 IPart=  0 NShTot=     1749991 NShNF=     1749991 NShFF=           0 MinMC=       7
           NShCPU=     1749991 NBCPU=       37379 AvBCPU=        46.8
           NShGPU=           0 NBGPU=           0 AvBGPU=         0.0
 IPart=  5 NShTot=     1741599 NShNF=     1741599 NShFF=           0 MinMC=       7
           NShCPU=     1741599 NBCPU=       36999 AvBCPU=        47.1
           NShGPU=           0 NBGPU=           0 AvBGPU=         0.0
 IPart= 17 NShTot=     1710451 NShNF=     1710451 NShFF=           0 MinMC=       7
           NShCPU=     1710451 NBCPU=       36904 AvBCPU=        46.3
           NShGPU=           0 NBGPU=           0 AvBGPU=         0.0
 IPart= 12 NShTot=     1658322 NShNF=     1658322 NShFF=           0 MinMC=       7
           NShCPU=     1658322 NBCPU=       36561 AvBCPU=        45.4
           NShGPU=           0 NBGPU=           0 AvBGPU=         0.0
 IPart= 14 NShTot=     1712815 NShNF=     1712815 NShFF=           0 MinMC=       7
           NShCPU=     1712815 NBCPU=       37082 AvBCPU=        46.2
           NShGPU=           0 NBGPU=           0 AvBGPU=         0.0
 IPart=  9 NShTot=     1750008 NShNF=     1750008 NShFF=           0 MinMC=       7
           NShCPU=     1750008 NBCPU=       37415 AvBCPU=        46.8
           NShGPU=           0 NBGPU=           0 AvBGPU=         0.0
 IPart=  8 NShTot=     1737720 NShNF=     1737720 NShFF=           0 MinMC=       7
           NShCPU=     1737720 NBCPU=       37164 AvBCPU=        46.8
           NShGPU=           0 NBGPU=           0 AvBGPU=         0.0
 IPart= 10 NShTot=     1723768 NShNF=     1723768 NShFF=           0 MinMC=       7
           NShCPU=     1723768 NBCPU=       36890 AvBCPU=        46.7
           NShGPU=           0 NBGPU=           0 AvBGPU=         0.0
 IPart=  7 NShTot=     1747574 NShNF=     1747574 NShFF=           0 MinMC=       7
           NShCPU=     1747574 NBCPU=       36883 AvBCPU=        47.4
           NShGPU=           0 NBGPU=           0 AvBGPU=         0.0
 IPart=  4 NShTot=     1735494 NShNF=     1735494 NShFF=           0 MinMC=       7
           NShCPU=     1735494 NBCPU=       36394 AvBCPU=        47.7
           NShGPU=           0 NBGPU=           0 AvBGPU=         0.0
 IPart=  6 NShTot=     1751774 NShNF=     1751774 NShFF=           0 MinMC=       7
           NShCPU=     1751774 NBCPU=       36903 AvBCPU=        47.5
           NShGPU=           0 NBGPU=           0 AvBGPU=         0.0
 IPart=  1 NShTot=     1646592 NShNF=     1646592 NShFF=           0 MinMC=       7
           NShCPU=     1646592 NBCPU=       36723 AvBCPU=        44.8
           NShGPU=           0 NBGPU=           0 AvBGPU=         0.0
 IPart= 16 NShTot=     1758127 NShNF=     1758127 NShFF=           0 MinMC=       7
           NShCPU=     1758127 NBCPU=       37354 AvBCPU=        47.1
           NShGPU=           0 NBGPU=           0 AvBGPU=         0.0
 IPart= 15 NShTot=     1750678 NShNF=     1750678 NShFF=           0 MinMC=       7
           NShCPU=     1750678 NBCPU=       37072 AvBCPU=        47.2
           NShGPU=           0 NBGPU=           0 AvBGPU=         0.0
 IPart=  2 NShTot=     1729476 NShNF=     1729476 NShFF=           0 MinMC=       7
           NShCPU=     1729476 NBCPU=       36504 AvBCPU=        47.4
           NShGPU=           0 NBGPU=           0 AvBGPU=         0.0
 IPart= 13 NShTot=     1709422 NShNF=     1709422 NShFF=           0 MinMC=       7
           NShCPU=     1709422 NBCPU=       36696 AvBCPU=        46.6
           NShGPU=           0 NBGPU=           0 AvBGPU=         0.0
 IPart=  3 NShTot=     1725960 NShNF=     1725960 NShFF=           0 MinMC=       7
           NShCPU=     1725960 NBCPU=       37578 AvBCPU=        45.9
           NShGPU=           0 NBGPU=           0 AvBGPU=         0.0
 CoulSu:  NxtVal=       88402945 LenVP=       33273255 MinMC=       7.
 ReadGW:  IGet=0 IStart=           1 Next=           1 LGW=           0.
 Remaining memory in FofDFT      639.77 Mw
 CkSvGd:  ISavGI=        -1 IRadAn=       5 IRASav=       5 ISavGd=        -1.
 CalDSu-InSpLW:  IPartL=    0 NPrtUS=   20 NPrtUL=    1 DoSpLW=F IThBeg=    0 IThEnd=   19 NThAct=   20.
 CalDSu:  NPrtUS=  20 ThrOK=T IAlg=1 NPAlg=2 DoDPD=T LenP=      117855 LenD1P=             0 GPUOK=T
          ISkipM=0 DoSpLW=F IThBeg=    0 IThEnd=   19.
 IPart=  0 IRanGd=          0 ScrnBf=T ScrnGd=T RCrit=4.00D+00 DoMicB=T.
