 Entering Gaussian System, Link 0=g16
 Input=loose/species/CCCCCCC/conformers/CCCCCCC_347.com
 Output=loose/species/CCCCCCC/conformers/CCCCCCC_347.log
 Initial command:
 /shared/centos7/gaussian/g16/l1.exe "/scratch/harms.n/gauss_scrdir/Gau-8030.inp" -scrdir="/scratch/harms.n/gauss_scrdir/"
 Entering Link 1 = /shared/centos7/gaussian/g16/l1.exe PID=      8031.
  
 Copyright (c) 1988,1990,1992,1993,1995,1998,2003,2009,2016,
            Gaussian, Inc.  All Rights Reserved.
  
 This is part of the Gaussian(R) 16 program.  It is based on
 the Gaussian(R) 09 system (copyright 2009, Gaussian, Inc.),
 the Gaussian(R) 03 system (copyright 2003, Gaussian, Inc.),
 the Gaussian(R) 98 system (copyright 1998, Gaussian, Inc.),
 the Gaussian(R) 94 system (copyright 1995, Gaussian, Inc.),
 the Gaussian 92(TM) system (copyright 1992, Gaussian, Inc.),
 the Gaussian 90(TM) system (copyright 1990, Gaussian, Inc.),
 the Gaussian 88(TM) system (copyright 1988, Gaussian, Inc.),
 the Gaussian 86(TM) system (copyright 1986, Carnegie Mellon
 University), and the Gaussian 82(TM) system (copyright 1983,
 Carnegie Mellon University). Gaussian is a federally registered
 trademark of Gaussian, Inc.
  
 This software contains proprietary and confidential information,
 including trade secrets, belonging to Gaussian, Inc.
  
 This software is provided under written license and may be
 used, copied, transmitted, or stored only in accord with that
 written license.
  
 The following legend is applicable only to US Government
 contracts under FAR:
  
                    RESTRICTED RIGHTS LEGEND
  
 Use, reproduction and disclosure by the US Government is
 subject to restrictions as set forth in subparagraphs (a)
 and (c) of the Commercial Computer Software - Restricted
 Rights clause in FAR 52.227-19.
  
 Gaussian, Inc.
 340 Quinnipiac St., Bldg. 40, Wallingford CT 06492
  
  
 ---------------------------------------------------------------
 Warning -- This program may not be used in any manner that
 competes with the business of Gaussian, Inc. or will provide
 assistance to any competitor of Gaussian, Inc.  The licensee
 of this program is prohibited from giving any competitor of
 Gaussian, Inc. access to this program.  By using this program,
 the user acknowledges that Gaussian, Inc. is engaged in the
 business of creating and licensing software in the field of
 computational chemistry and represents and warrants to the
 licensee that it is not a competitor of Gaussian, Inc. and that
 it will not use this program in any manner prohibited above.
 ---------------------------------------------------------------
  

 Cite this work as:
 Gaussian 16, Revision A.03,
 M. J. Frisch, G. W. Trucks, H. B. Schlegel, G. E. Scuseria, 
 M. A. Robb, J. R. Cheeseman, G. Scalmani, V. Barone, 
 G. A. Petersson, H. Nakatsuji, X. Li, M. Caricato, A. V. Marenich, 
 J. Bloino, B. G. Janesko, R. Gomperts, B. Mennucci, H. P. Hratchian, 
 J. V. Ortiz, A. F. Izmaylov, J. L. Sonnenberg, D. Williams-Young, 
 F. Ding, F. Lipparini, F. Egidi, J. Goings, B. Peng, A. Petrone, 
 T. Henderson, D. Ranasinghe, V. G. Zakrzewski, J. Gao, N. Rega, 
 G. Zheng, W. Liang, M. Hada, M. Ehara, K. Toyota, R. Fukuda, 
 J. Hasegawa, M. Ishida, T. Nakajima, Y. Honda, O. Kitao, H. Nakai, 
 T. Vreven, K. Throssell, J. A. Montgomery, Jr., J. E. Peralta, 
 F. Ogliaro, M. J. Bearpark, J. J. Heyd, E. N. Brothers, K. N. Kudin, 
 V. N. Staroverov, T. A. Keith, R. Kobayashi, J. Normand, 
 K. Raghavachari, A. P. Rendell, J. C. Burant, S. S. Iyengar, 
 J. Tomasi, M. Cossi, J. M. Millam, M. Klene, C. Adamo, R. Cammi, 
 J. W. Ochterski, R. L. Martin, K. Morokuma, O. Farkas, 
 J. B. Foresman, and D. J. Fox, Gaussian, Inc., Wallingford CT, 2016.
 
 ******************************************
 Gaussian 16:  EM64L-G16RevA.03 25-Dec-2016
                28-Sep-2019 
 ******************************************
 %nprocshared=20
 Will use up to   20 processors via shared memory.
 %mem=5GB
 ----------------------------------------------------------------------
 #p m062x/cc-pVTZ opt=(calcfc,maxcycles=900,Tight) freq IOP(7/33=1,2/16
 =3) scf=(maxcycle=900)
 ----------------------------------------------------------------------
 1/6=900,7=10,10=4,18=20,19=15,26=3,38=1/1,3;
 2/9=110,12=2,16=3,17=6,18=5,40=1/2;
 3/5=16,6=1,11=2,25=1,30=1,71=2,74=-55,140=1/1,2,3;
 4//1;
 5/5=2,7=900,38=5/2;
 8/6=4,10=90,11=11/1;
 11/6=1,8=1,9=11,15=111,16=1/1,2,10;
 10/6=1,13=1/2;
 6/7=2,8=2,9=2,10=2,28=1/1;
 7/10=1,18=20,25=1,33=1/1,2,3,16;
 1/6=900,7=10,10=4,18=20,19=15,26=3/3(2);
 2/9=110,16=3/2;
 99//99;
 2/9=110,16=3/2;
 3/5=16,6=1,11=2,25=1,30=1,71=1,74=-55/1,2,3;
 4/5=5,16=3,69=1/1;
 5/5=2,7=900,38=5/2;
 7/33=1/1,2,3,16;
 1/6=900,7=10,18=20,19=15,26=3/3(-5);
 2/9=110,16=3/2;
 6/7=2,8=2,9=2,10=2,19=2,28=1/1;
 99/9=1/99;
 Leave Link    1 at Sat Sep 28 21:43:21 2019, MaxMem=   671088640 cpu:               4.2 elap:               2.1
 (Enter /shared/centos7/gaussian/g16/l101.exe)
 ------------------------------
 Gaussian input prepared by ASE
 ------------------------------
 Symbolic Z-matrix:
 Charge =  0 Multiplicity = 1
 C                     1.33999  -1.18208   0.40823 
 C                     0.15522  -0.43645   0.9204 
 C                    -0.5629   -1.14243   2.04329 
 C                     2.1324   -0.48107  -0.64329 
 C                     0.24463  -1.35171   3.30258 
 C                     1.45294  -0.28348  -1.93514 
 C                     1.64353  -0.79302   3.27304 
 H                     3.07063  -1.08518  -0.79792 
 H                     2.4603    0.49862  -0.22086 
 H                     1.01833  -2.17196   0.02061 
 H                     2.01486  -1.38029   1.26607 
 H                    -0.56565  -0.25726   0.10742 
 H                     0.47153   0.56998   1.26724 
 H                    -0.94636  -2.11402   1.68819 
 H                    -1.4757   -0.56054   2.28687 
 H                    -0.31828  -0.89508   4.15823 
 H                     0.27944  -2.43192   3.52436 
 H                     0.42248  -0.68602  -1.93344 
 H                     1.38546   0.80938  -2.2156 
 H                     1.99039  -0.7724   -2.77514 
 H                     1.72194   0.06058   2.59866 
 H                     2.38103  -1.55838   2.904 
 H                     1.98438  -0.43776   4.28768 
 
 ITRead=  0  0  0  0  0  0  0  0  0  0  0  0  0  0  0  0  0  0  0  0
 ITRead=  0  0  0
 MicOpt= -1 -1 -1 -1 -1 -1 -1 -1 -1 -1 -1 -1 -1 -1 -1 -1 -1 -1 -1 -1
 MicOpt= -1 -1 -1
 NAtoms=     23 NQM=       23 NQMF=       0 NMMI=      0 NMMIF=      0
                NMic=       0 NMicF=      0.
                    Isotopes and Nuclear Properties:
 (Nuclear quadrupole moments (NQMom) in fm**2, nuclear magnetic moments (NMagM)
  in nuclear magnetons)

  Atom         1           2           3           4           5           6           7           8           9          10
 IAtWgt=          12          12          12          12          12          12          12           1           1           1
 AtmWgt=  12.0000000  12.0000000  12.0000000  12.0000000  12.0000000  12.0000000  12.0000000   1.0078250   1.0078250   1.0078250
 NucSpn=           0           0           0           0           0           0           0           1           1           1
 AtZEff=  -0.0000000  -0.0000000  -0.0000000  -0.0000000  -0.0000000  -0.0000000  -0.0000000  -0.0000000  -0.0000000  -0.0000000
 NQMom=    0.0000000   0.0000000   0.0000000   0.0000000   0.0000000   0.0000000   0.0000000   0.0000000   0.0000000   0.0000000
 NMagM=    0.0000000   0.0000000   0.0000000   0.0000000   0.0000000   0.0000000   0.0000000   2.7928460   2.7928460   2.7928460
 AtZNuc=   6.0000000   6.0000000   6.0000000   6.0000000   6.0000000   6.0000000   6.0000000   1.0000000   1.0000000   1.0000000

  Atom        11          12          13          14          15          16          17          18          19          20
 IAtWgt=           1           1           1           1           1           1           1           1           1           1
 AtmWgt=   1.0078250   1.0078250   1.0078250   1.0078250   1.0078250   1.0078250   1.0078250   1.0078250   1.0078250   1.0078250
 NucSpn=           1           1           1           1           1           1           1           1           1           1
 AtZEff=  -0.0000000  -0.0000000  -0.0000000  -0.0000000  -0.0000000  -0.0000000  -0.0000000  -0.0000000  -0.0000000  -0.0000000
 NQMom=    0.0000000   0.0000000   0.0000000   0.0000000   0.0000000   0.0000000   0.0000000   0.0000000   0.0000000   0.0000000
 NMagM=    2.7928460   2.7928460   2.7928460   2.7928460   2.7928460   2.7928460   2.7928460   2.7928460   2.7928460   2.7928460
 AtZNuc=   1.0000000   1.0000000   1.0000000   1.0000000   1.0000000   1.0000000   1.0000000   1.0000000   1.0000000   1.0000000

  Atom        21          22          23
 IAtWgt=           1           1           1
 AtmWgt=   1.0078250   1.0078250   1.0078250
 NucSpn=           1           1           1
 AtZEff=  -0.0000000  -0.0000000  -0.0000000
 NQMom=    0.0000000   0.0000000   0.0000000
 NMagM=    2.7928460   2.7928460   2.7928460
 AtZNuc=   1.0000000   1.0000000   1.0000000
 Leave Link  101 at Sat Sep 28 21:43:22 2019, MaxMem=   671088640 cpu:               2.2 elap:               1.1
 (Enter /shared/centos7/gaussian/g16/l103.exe)

 GradGradGradGradGradGradGradGradGradGradGradGradGradGradGradGradGradGrad
 Berny optimization.
 Initialization pass.
                           ----------------------------
                           !    Initial Parameters    !
                           ! (Angstroms and Degrees)  !
 --------------------------                            --------------------------
 ! Name  Definition              Value          Derivative Info.                !
 --------------------------------------------------------------------------------
 ! R1    R(1,2)                  1.4906         calculate D2E/DX2 analytically  !
 ! R2    R(1,4)                  1.4917         calculate D2E/DX2 analytically  !
 ! R3    R(1,10)                 1.1107         calculate D2E/DX2 analytically  !
 ! R4    R(1,11)                 1.1093         calculate D2E/DX2 analytically  !
 ! R5    R(2,3)                  1.5083         calculate D2E/DX2 analytically  !
 ! R6    R(2,12)                 1.1012         calculate D2E/DX2 analytically  !
 ! R7    R(2,13)                 1.1105         calculate D2E/DX2 analytically  !
 ! R8    R(3,5)                  1.5105         calculate D2E/DX2 analytically  !
 ! R9    R(3,14)                 1.1032         calculate D2E/DX2 analytically  !
 ! R10   R(3,15)                 1.1096         calculate D2E/DX2 analytically  !
 ! R11   R(4,6)                  1.473          calculate D2E/DX2 analytically  !
 ! R12   R(4,8)                  1.1266         calculate D2E/DX2 analytically  !
 ! R13   R(4,9)                  1.1161         calculate D2E/DX2 analytically  !
 ! R14   R(5,7)                  1.5066         calculate D2E/DX2 analytically  !
 ! R15   R(5,16)                 1.1214         calculate D2E/DX2 analytically  !
 ! R16   R(5,17)                 1.1033         calculate D2E/DX2 analytically  !
 ! R17   R(6,18)                 1.1063         calculate D2E/DX2 analytically  !
 ! R18   R(6,19)                 1.1303         calculate D2E/DX2 analytically  !
 ! R19   R(6,20)                 1.1106         calculate D2E/DX2 analytically  !
 ! R20   R(7,21)                 1.0907         calculate D2E/DX2 analytically  !
 ! R21   R(7,22)                 1.1251         calculate D2E/DX2 analytically  !
 ! R22   R(7,23)                 1.1278         calculate D2E/DX2 analytically  !
 ! A1    A(2,1,4)              115.4271         calculate D2E/DX2 analytically  !
 ! A2    A(2,1,10)             109.6056         calculate D2E/DX2 analytically  !
 ! A3    A(2,1,11)             107.8907         calculate D2E/DX2 analytically  !
 ! A4    A(4,1,10)             109.0673         calculate D2E/DX2 analytically  !
 ! A5    A(4,1,11)             107.8134         calculate D2E/DX2 analytically  !
 ! A6    A(10,1,11)            106.6675         calculate D2E/DX2 analytically  !
 ! A7    A(1,2,3)              113.5835         calculate D2E/DX2 analytically  !
 ! A8    A(1,2,12)             110.3666         calculate D2E/DX2 analytically  !
 ! A9    A(1,2,13)             109.5272         calculate D2E/DX2 analytically  !
 ! A10   A(3,2,12)             108.3067         calculate D2E/DX2 analytically  !
 ! A11   A(3,2,13)             109.104          calculate D2E/DX2 analytically  !
 ! A12   A(12,2,13)            105.638          calculate D2E/DX2 analytically  !
 ! A13   A(2,3,5)              115.5287         calculate D2E/DX2 analytically  !
 ! A14   A(2,3,14)             109.7596         calculate D2E/DX2 analytically  !
 ! A15   A(2,3,15)             108.0379         calculate D2E/DX2 analytically  !
 ! A16   A(5,3,14)             109.3986         calculate D2E/DX2 analytically  !
 ! A17   A(5,3,15)             109.2346         calculate D2E/DX2 analytically  !
 ! A18   A(14,3,15)            104.2747         calculate D2E/DX2 analytically  !
 ! A19   A(1,4,6)              115.8652         calculate D2E/DX2 analytically  !
 ! A20   A(1,4,8)              106.6883         calculate D2E/DX2 analytically  !
 ! A21   A(1,4,9)              107.5638         calculate D2E/DX2 analytically  !
 ! A22   A(6,4,8)              109.6175         calculate D2E/DX2 analytically  !
 ! A23   A(6,4,9)              110.4699         calculate D2E/DX2 analytically  !
 ! A24   A(8,4,9)              106.1387         calculate D2E/DX2 analytically  !
 ! A25   A(3,5,7)              115.3825         calculate D2E/DX2 analytically  !
 ! A26   A(3,5,16)             108.1403         calculate D2E/DX2 analytically  !
 ! A27   A(3,5,17)             108.669          calculate D2E/DX2 analytically  !
 ! A28   A(7,5,16)             109.2718         calculate D2E/DX2 analytically  !
 ! A29   A(7,5,17)             109.737          calculate D2E/DX2 analytically  !
 ! A30   A(16,5,17)            105.1367         calculate D2E/DX2 analytically  !
 ! A31   A(4,6,18)             112.303          calculate D2E/DX2 analytically  !
 ! A32   A(4,6,19)             112.0161         calculate D2E/DX2 analytically  !
 ! A33   A(4,6,20)             112.3988         calculate D2E/DX2 analytically  !
 ! A34   A(18,6,19)            107.2534         calculate D2E/DX2 analytically  !
 ! A35   A(18,6,20)            106.9612         calculate D2E/DX2 analytically  !
 ! A36   A(19,6,20)            105.478          calculate D2E/DX2 analytically  !
 ! A37   A(5,7,21)             111.6589         calculate D2E/DX2 analytically  !
 ! A38   A(5,7,22)             111.2722         calculate D2E/DX2 analytically  !
 ! A39   A(5,7,23)             112.3211         calculate D2E/DX2 analytically  !
 ! A40   A(21,7,22)            106.4077         calculate D2E/DX2 analytically  !
 ! A41   A(21,7,23)            106.7392         calculate D2E/DX2 analytically  !
 ! A42   A(22,7,23)            108.1363         calculate D2E/DX2 analytically  !
 ! D1    D(4,1,2,3)           -176.2368         calculate D2E/DX2 analytically  !
 ! D2    D(4,1,2,12)            61.9168         calculate D2E/DX2 analytically  !
 ! D3    D(4,1,2,13)           -53.9793         calculate D2E/DX2 analytically  !
 ! D4    D(10,1,2,3)            60.1683         calculate D2E/DX2 analytically  !
 ! D5    D(10,1,2,12)          -61.6782         calculate D2E/DX2 analytically  !
 ! D6    D(10,1,2,13)         -177.5742         calculate D2E/DX2 analytically  !
 ! D7    D(11,1,2,3)           -55.6121         calculate D2E/DX2 analytically  !
 ! D8    D(11,1,2,12)         -177.4586         calculate D2E/DX2 analytically  !
 ! D9    D(11,1,2,13)           66.6454         calculate D2E/DX2 analytically  !
 ! D10   D(2,1,4,6)            -66.8334         calculate D2E/DX2 analytically  !
 ! D11   D(2,1,4,8)            170.8316         calculate D2E/DX2 analytically  !
 ! D12   D(2,1,4,9)             57.2993         calculate D2E/DX2 analytically  !
 ! D13   D(10,1,4,6)            57.0444         calculate D2E/DX2 analytically  !
 ! D14   D(10,1,4,8)           -65.2906         calculate D2E/DX2 analytically  !
 ! D15   D(10,1,4,9)          -178.8229         calculate D2E/DX2 analytically  !
 ! D16   D(11,1,4,6)           172.5            calculate D2E/DX2 analytically  !
 ! D17   D(11,1,4,8)            50.165          calculate D2E/DX2 analytically  !
 ! D18   D(11,1,4,9)           -63.3673         calculate D2E/DX2 analytically  !
 ! D19   D(1,2,3,5)             62.6313         calculate D2E/DX2 analytically  !
 ! D20   D(1,2,3,14)           -61.609          calculate D2E/DX2 analytically  !
 ! D21   D(1,2,3,15)          -174.7206         calculate D2E/DX2 analytically  !
 ! D22   D(12,2,3,5)          -174.3838         calculate D2E/DX2 analytically  !
 ! D23   D(12,2,3,14)           61.3759         calculate D2E/DX2 analytically  !
 ! D24   D(12,2,3,15)          -51.7357         calculate D2E/DX2 analytically  !
 ! D25   D(13,2,3,5)           -59.8602         calculate D2E/DX2 analytically  !
 ! D26   D(13,2,3,14)          175.8995         calculate D2E/DX2 analytically  !
 ! D27   D(13,2,3,15)           62.7879         calculate D2E/DX2 analytically  !
 ! D28   D(2,3,5,7)              1.5482         calculate D2E/DX2 analytically  !
 ! D29   D(2,3,5,16)           124.2229         calculate D2E/DX2 analytically  !
 ! D30   D(2,3,5,17)          -122.1526         calculate D2E/DX2 analytically  !
 ! D31   D(14,3,5,7)           125.9765         calculate D2E/DX2 analytically  !
 ! D32   D(14,3,5,16)         -111.3488         calculate D2E/DX2 analytically  !
 ! D33   D(14,3,5,17)            2.2757         calculate D2E/DX2 analytically  !
 ! D34   D(15,3,5,7)          -120.4623         calculate D2E/DX2 analytically  !
 ! D35   D(15,3,5,16)            2.2125         calculate D2E/DX2 analytically  !
 ! D36   D(15,3,5,17)          115.8369         calculate D2E/DX2 analytically  !
 ! D37   D(1,4,6,18)             0.5799         calculate D2E/DX2 analytically  !
 ! D38   D(1,4,6,19)           121.3542         calculate D2E/DX2 analytically  !
 ! D39   D(1,4,6,20)          -120.0907         calculate D2E/DX2 analytically  !
 ! D40   D(8,4,6,18)           121.3507         calculate D2E/DX2 analytically  !
 ! D41   D(8,4,6,19)          -117.875          calculate D2E/DX2 analytically  !
 ! D42   D(8,4,6,20)             0.6801         calculate D2E/DX2 analytically  !
 ! D43   D(9,4,6,18)          -122.032          calculate D2E/DX2 analytically  !
 ! D44   D(9,4,6,19)            -1.2576         calculate D2E/DX2 analytically  !
 ! D45   D(9,4,6,20)           117.2974         calculate D2E/DX2 analytically  !
 ! D46   D(3,5,7,21)            27.666          calculate D2E/DX2 analytically  !
 ! D47   D(3,5,7,22)           -91.0688         calculate D2E/DX2 analytically  !
 ! D48   D(3,5,7,23)           147.5363         calculate D2E/DX2 analytically  !
 ! D49   D(16,5,7,21)          -94.4044         calculate D2E/DX2 analytically  !
 ! D50   D(16,5,7,22)          146.8608         calculate D2E/DX2 analytically  !
 ! D51   D(16,5,7,23)           25.4659         calculate D2E/DX2 analytically  !
 ! D52   D(17,5,7,21)          150.8031         calculate D2E/DX2 analytically  !
 ! D53   D(17,5,7,22)           32.0683         calculate D2E/DX2 analytically  !
 ! D54   D(17,5,7,23)          -89.3266         calculate D2E/DX2 analytically  !
 --------------------------------------------------------------------------------
 Trust Radius=3.00D-01 FncErr=1.00D-07 GrdErr=1.00D-06 EigMax=2.50D+02 EigMin=1.00D-04
 Number of steps in this run=    138 maximum allowed number of steps=    138.
 GradGradGradGradGradGradGradGradGradGradGradGradGradGradGradGradGradGrad

 Leave Link  103 at Sat Sep 28 21:43:23 2019, MaxMem=   671088640 cpu:               1.5 elap:               0.7
 (Enter /shared/centos7/gaussian/g16/l202.exe)
                          Input orientation:                          
 ---------------------------------------------------------------------
 Center     Atomic      Atomic             Coordinates (Angstroms)
 Number     Number       Type             X           Y           Z
 ---------------------------------------------------------------------
      1          6           0        1.339990   -1.182081    0.408226
      2          6           0        0.155221   -0.436451    0.920399
      3          6           0       -0.562897   -1.142431    2.043289
      4          6           0        2.132398   -0.481068   -0.643295
      5          6           0        0.244632   -1.351706    3.302576
      6          6           0        1.452936   -0.283477   -1.935145
      7          6           0        1.643535   -0.793024    3.273041
      8          1           0        3.070631   -1.085177   -0.797916
      9          1           0        2.460298    0.498620   -0.220863
     10          1           0        1.018331   -2.171962    0.020609
     11          1           0        2.014862   -1.380292    1.266075
     12          1           0       -0.565646   -0.257261    0.107425
     13          1           0        0.471531    0.569979    1.267243
     14          1           0       -0.946361   -2.114020    1.688192
     15          1           0       -1.475701   -0.560536    2.286874
     16          1           0       -0.318282   -0.895085    4.158231
     17          1           0        0.279442   -2.431918    3.524365
     18          1           0        0.422484   -0.686024   -1.933437
     19          1           0        1.385459    0.809375   -2.215605
     20          1           0        1.990385   -0.772404   -2.775139
     21          1           0        1.721937    0.060584    2.598665
     22          1           0        2.381026   -1.558384    2.904002
     23          1           0        1.984385   -0.437763    4.287682
 ---------------------------------------------------------------------
                    Distance matrix (angstroms):
                    1          2          3          4          5
     1  C    0.000000
     2  C    1.490625   0.000000
     3  C    2.509180   1.508304   0.000000
     4  C    1.491652   2.521182   3.862609   0.000000
     5  C    3.099329   2.553517   1.510531   4.459996   0.000000
     6  C    2.512297   3.140318   4.541951   1.472952   5.480404
     7  C    2.907003   2.806626   2.550043   3.959040   1.506627
     8  H    2.111702   3.445732   4.612835   1.126559   4.987117
     9  H    2.115561   2.736827   4.118148   1.116134   4.554943
    10  H    1.110665   2.136956   2.766126   2.130971   3.470265
    11  H    1.109344   2.113905   2.702866   2.113791   2.698494
    12  H    2.139445   1.101220   2.128639   2.809468   3.473233
    13  H    2.135848   1.110520   2.145842   2.741046   2.808368
    14  H    2.781047   2.148773   1.103233   4.192985   2.146117
    15  H    3.441475   2.131327   1.109570   4.648718   2.148754
    16  H    4.110324   3.304255   2.143361   5.406652   1.121392
    17  H    3.520962   3.282979   2.136796   4.960710   1.103295
    18  H    2.563450   2.877168   4.122333   2.151809   5.281154
    19  H    3.294306   3.591669   5.073836   2.166868   6.035070
    20  H    3.274853   4.139770   5.465658   2.156340   6.349950
    21  H    2.547179   2.349089   2.641241   3.312426   2.161593
    22  H    2.730249   3.185534   3.095243   3.715608   2.183061
    23  H    4.002428   3.832027   3.467348   4.933388   2.198287
                    6          7          8          9         10
     6  C    0.000000
     7  C    5.236523   0.000000
     8  H    2.133764   4.323731   0.000000
     9  H    2.136636   3.813505   1.792737   0.000000
    10  H    2.753222   3.587571   2.462319   3.044599   0.000000
    11  H    3.430244   2.123837   2.337048   2.437151   1.780730
    12  H    2.871838   3.897262   3.837655   3.136155   2.486484
    13  H    3.456419   2.693435   3.709413   2.484904   3.061263
    14  H    4.715515   3.311244   4.834819   4.698479   2.577636
    15  H    5.145786   3.279666   5.519085   4.785671   3.735351
    16  H    6.374990   2.154693   6.007017   5.370231   4.531762
    17  H    5.983237   2.147064   5.318510   5.231722   3.590242
    18  H    1.106291   5.348816   2.908851   2.913585   2.526131
    19  H    1.130281   5.723593   2.904991   2.287103   3.744837
    20  H    1.110627   6.058153   2.274680   2.891478   3.274120
    21  H    4.554796   1.090678   3.829948   2.947336   3.482197
    22  H    5.089606   1.125104   3.795218   3.741970   3.247672
    23  H    6.247384   1.127778   5.240455   4.629286   4.706231
                   11         12         13         14         15
    11  H    0.000000
    12  H    3.043467   0.000000
    13  H    2.487053   1.762170   0.000000
    14  H    3.079835   2.468061   3.064550   0.000000
    15  H    3.728010   2.381212   2.471725   1.746978   0.000000
    16  H    3.747473   4.108167   3.335869   2.825133   2.225650
    17  H    3.036029   4.137485   3.760702   2.230511   2.848505
    18  H    3.640680   2.307673   3.438649   4.126634   4.629241
    19  H    4.160875   3.215741   3.608712   5.405854   5.507740
    20  H    4.086751   3.886881   4.522142   5.508697   6.138617
    21  H    1.984370   3.397107   1.896228   3.560573   3.272292
    22  H    1.687779   4.265752   3.294705   3.585865   4.031239
    23  H    3.165343   4.899978   3.525240   4.261039   3.998812
                   16         17         18         19         20
    16  H    0.000000
    17  H    1.766611   0.000000
    18  H    6.140102   5.732033   0.000000
    19  H    6.814227   6.684048   1.800877   0.000000
    20  H    7.308667   6.735359   1.781640   1.783547   0.000000
    21  H    2.740081   3.024943   4.773463   4.883758   5.444603
    22  H    3.049478   2.358933   5.291287   5.727811   5.746565
    23  H    2.351207   2.732423   6.418994   6.648819   7.070747
                   21         22         23
    21  H    0.000000
    22  H    1.774455   0.000000
    23  H    1.780451   1.824194   0.000000
 Stoichiometry    C7H16
 Framework group  C1[X(C7H16)]
 Deg. of freedom    63
 Full point group                 C1      NOp   1
 Largest Abelian subgroup         C1      NOp   1
 Largest concise Abelian subgroup C1      NOp   1
                         Standard orientation:                         
 ---------------------------------------------------------------------
 Center     Atomic      Atomic             Coordinates (Angstroms)
 Number     Number       Type             X           Y           Z
 ---------------------------------------------------------------------
      1          6           0        0.648294    0.207675    0.495200
      2          6           0       -0.022923   -0.767064   -0.411064
      3          6           0       -1.381035   -1.207153    0.075595
      4          6           0        1.955679    0.737544    0.010422
      5          6           0       -2.418602   -0.114865    0.185433
      6          6           0        3.054295   -0.240081   -0.072519
      7          6           0       -1.961211    1.255673   -0.241586
      8          1           0        2.244901    1.573210    0.708382
      9          1           0        1.778962    1.211462   -0.984529
     10          1           0        0.791694   -0.251790    1.496152
     11          1           0       -0.036042    1.069404    0.635745
     12          1           0        0.604244   -1.662614   -0.542730
     13          1           0       -0.126130   -0.322402   -1.423427
     14          1           0       -1.281291   -1.717006    1.048849
     15          1           0       -1.752478   -1.996543   -0.609998
     16          1           0       -3.308399   -0.415654   -0.427190
     17          1           0       -2.784147   -0.078316    1.225770
     18          1           0        2.737913   -1.254338    0.235807
     19          1           0        3.469837   -0.322592   -1.120399
     20          1           0        3.917972    0.038537    0.567736
     21          1           0       -1.168352    1.200860   -0.988545
     22          1           0       -1.540431    1.834473    0.626627
     23          1           0       -2.795234    1.862934   -0.697134
 ---------------------------------------------------------------------
 Rotational constants (GHZ):           5.2629220           1.2596198           1.1023750
 Leave Link  202 at Sat Sep 28 21:43:25 2019, MaxMem=   671088640 cpu:               3.8 elap:               1.9
 (Enter /shared/centos7/gaussian/g16/l301.exe)
 Standard basis: CC-pVTZ (5D, 7F)
 Ernie: Thresh=  0.10000D-02 Tol=  0.10000D-05 Strict=F.
 Ernie:  21 primitive shells out of 310 were deleted.
 There are   485 symmetry adapted cartesian basis functions of A   symmetry.
 There are   434 symmetry adapted basis functions of A   symmetry.
   434 basis functions,   636 primitive gaussians,   485 cartesian basis functions
    29 alpha electrons       29 beta electrons
       nuclear repulsion energy       330.1676201162 Hartrees.
 IExCor= 4336 DFT=T Ex+Corr=M062X ExCW=0 ScaHFX=  0.540000
 ScaDFX=  1.000000  1.000000  1.000000  1.000000 ScalE2=  1.000000  1.000000
 IRadAn=      5 IRanWt=     -1 IRanGd=            0 ICorTp=0 IEmpDi=  4
 NAtoms=   23 NActive=   23 NUniq=   23 SFac= 1.00D+00 NAtFMM=   60 NAOKFM=F Big=F
 Integral buffers will be    131072 words long.
 Raffenetti 2 integral format.
 Two-electron integral symmetry is turned on.
 Leave Link  301 at Sat Sep 28 21:43:25 2019, MaxMem=   671088640 cpu:               1.6 elap:               0.8
 (Enter /shared/centos7/gaussian/g16/l302.exe)
 NPDir=0 NMtPBC=     1 NCelOv=     1 NCel=       1 NClECP=     1 NCelD=      1
         NCelK=      1 NCelE2=     1 NClLst=     1 CellRange=     0.0.
 One-electron integrals computed using PRISM.
 One-electron integral symmetry used in STVInt
 NBasis=   434 RedAO= T EigKep=  2.00D-04  NBF=   434
 NBsUse=   434 1.00D-06 EigRej= -1.00D+00 NBFU=   434
 Precomputing XC quadrature grid using
 IXCGrd= 4 IRadAn=           5 IRanWt=          -1 IRanGd=           0 AccXCQ= 0.00D+00.
 Generated NRdTot=       0 NPtTot=           0 NUsed=           0 NTot=          32
 NSgBfM=   485   485   485   485   485 MxSgAt=    23 MxSgA2=    23.
 Leave Link  302 at Sat Sep 28 21:44:35 2019, MaxMem=   671088640 cpu:             139.0 elap:              69.5
 (Enter /shared/centos7/gaussian/g16/l303.exe)
 DipDrv:  MaxL=1.
 Leave Link  303 at Sat Sep 28 21:44:39 2019, MaxMem=   671088640 cpu:               8.8 elap:               4.4
 (Enter /shared/centos7/gaussian/g16/l401.exe)
 ExpMin= 1.03D-01 ExpMax= 8.24D+03 ExpMxC= 2.81D+02 IAcc=3 IRadAn=         5 AccDes= 0.00D+00
 Harris functional with IExCor= 1009 and IRadAn=       5 diagonalized for initial guess.
 HarFok:  IExCor= 1009 AccDes= 0.00D+00 IRadAn=         5 IDoV= 1 UseB2=F ITyADJ=14
 ICtDFT=  3500011 ScaDFX=  1.000000  1.000000  1.000000  1.000000
 FoFCou: FMM=F IPFlag=           0 FMFlag=      100000 FMFlg1=           0
         NFxFlg=           0 DoJE=T BraDBF=F KetDBF=T FulRan=T
         wScrn=  0.000000 ICntrl=       500 IOpCl=  0 I1Cent=   200000004 NGrid=           0
         NMat0=    1 NMatS0=      1 NMatT0=    0 NMatD0=    1 NMtDS0=    0 NMtDT0=    0
 Petite list used in FoFCou.
 Harris En= -276.310226546111    
 JPrj=0 DoOrth=F DoCkMO=F.
 Leave Link  401 at Sat Sep 28 21:45:24 2019, MaxMem=   671088640 cpu:              88.8 elap:              44.4
 (Enter /shared/centos7/gaussian/g16/l502.exe)
 Integral symmetry usage will be decided dynamically.
 Closed shell SCF:
 Using DIIS extrapolation, IDIIS=  1040.
 NGot=   671088640 LenX=   670604095 LenY=   670368385
 Requested convergence on RMS density matrix=1.00D-08 within 900 cycles.
 Requested convergence on MAX density matrix=1.00D-06.
 Requested convergence on             energy=1.00D-06.
 No special actions if energy rises.
 Fock matrices will be formed incrementally for  20 cycles.
 Integral accuracy reduced to 1.0D-05 until final iterations.

 Cycle   1  Pass 0  IDiag  1:
 FoFJK:  IHMeth= 1 ICntrl=       0 DoSepK=F KAlg= 0 I1Cent=           0 FoldK=F
 IRaf= 940000000 NMat=       1 IRICut=       1 DoRegI=T DoRafI=F ISym2E= 0 IDoP0=0 IntGTp=1.
 FoFCou: FMM=F IPFlag=           0 FMFlag=      100000 FMFlg1=           0
         NFxFlg=           0 DoJE=F BraDBF=F KetDBF=F FulRan=T
         wScrn=  0.000000 ICntrl=         0 IOpCl=  0 I1Cent=           0 NGrid=           0
         NMat0=    1 NMatS0=      1 NMatT0=    0 NMatD0=    1 NMtDS0=    0 NMtDT0=    0
 Symmetry not used in FoFCou.
 E= -275.943847430082    
 DIIS: error= 2.90D-02 at cycle   1 NSaved=   1.
 NSaved= 1 IEnMin= 1 EnMin= -275.943847430082     IErMin= 1 ErrMin= 2.90D-02
 ErrMax= 2.90D-02  0.00D+00 EMaxC= 1.00D-01 BMatC= 3.74D-01 BMatP= 3.74D-01
 IDIUse=3 WtCom= 7.10D-01 WtEn= 2.90D-01
 Coeff-Com:  0.100D+01
 Coeff-En:   0.100D+01
 Coeff:      0.100D+01
 Gap=     0.372 Goal=   None    Shift=    0.000
 GapD=    0.372 DampG=1.000 DampE=0.500 DampFc=0.5000 IDamp=-1.
 Damping current iteration by 5.00D-01
 RMSDP=1.93D-03 MaxDP=6.84D-02              OVMax= 1.65D-01

 Cycle   2  Pass 0  IDiag  1:
 RMSU=  9.65D-04    CP:  9.90D-01
 E= -276.120887748412     Delta-E=       -0.177040318330 Rises=F Damp=T
 DIIS: error= 3.22D-03 at cycle   2 NSaved=   2.
 NSaved= 2 IEnMin= 2 EnMin= -276.120887748412     IErMin= 2 ErrMin= 3.22D-03
 ErrMax= 3.22D-03  0.00D+00 EMaxC= 1.00D-01 BMatC= 1.89D-02 BMatP= 3.74D-01
 IDIUse=3 WtCom= 9.68D-01 WtEn= 3.22D-02
 Coeff-Com: -0.480D-01 0.105D+01
 Coeff-En:   0.000D+00 0.100D+01
 Coeff:     -0.464D-01 0.105D+01
 Gap=     0.444 Goal=   None    Shift=    0.000
 RMSDP=5.46D-04 MaxDP=1.67D-02 DE=-1.77D-01 OVMax= 8.91D-02

 Cycle   3  Pass 0  IDiag  1:
 RMSU=  5.34D-04    CP:  9.98D-01  8.99D-01
 E= -276.300085638882     Delta-E=       -0.179197890470 Rises=F Damp=F
 DIIS: error= 2.40D-03 at cycle   3 NSaved=   3.
 NSaved= 3 IEnMin= 3 EnMin= -276.300085638882     IErMin= 3 ErrMin= 2.40D-03
 ErrMax= 2.40D-03  0.00D+00 EMaxC= 1.00D-01 BMatC= 2.79D-03 BMatP= 1.89D-02
 IDIUse=3 WtCom= 9.76D-01 WtEn= 2.40D-02
 Coeff-Com: -0.523D-01 0.245D+00 0.808D+00
 Coeff-En:   0.000D+00 0.000D+00 0.100D+01
 Coeff:     -0.511D-01 0.239D+00 0.812D+00
 Gap=     0.413 Goal=   None    Shift=    0.000
 RMSDP=9.48D-05 MaxDP=2.91D-03 DE=-1.79D-01 OVMax= 1.01D-02

 Cycle   4  Pass 0  IDiag  1:
 RMSU=  7.28D-05    CP:  9.97D-01  9.49D-01  9.33D-01
 E= -276.302538443577     Delta-E=       -0.002452804695 Rises=F Damp=F
 DIIS: error= 6.17D-04 at cycle   4 NSaved=   4.
 NSaved= 4 IEnMin= 4 EnMin= -276.302538443577     IErMin= 4 ErrMin= 6.17D-04
 ErrMax= 6.17D-04  0.00D+00 EMaxC= 1.00D-01 BMatC= 2.47D-04 BMatP= 2.79D-03
 IDIUse=3 WtCom= 9.94D-01 WtEn= 6.17D-03
 Coeff-Com: -0.136D-01 0.382D-01 0.268D+00 0.708D+00
 Coeff-En:   0.000D+00 0.000D+00 0.000D+00 0.100D+01
 Coeff:     -0.135D-01 0.379D-01 0.266D+00 0.710D+00
 Gap=     0.414 Goal=   None    Shift=    0.000
 RMSDP=3.11D-05 MaxDP=1.26D-03 DE=-2.45D-03 OVMax= 2.95D-03

 Cycle   5  Pass 0  IDiag  1:
 RMSU=  1.98D-05    CP:  9.97D-01  9.42D-01  9.63D-01  7.76D-01
 E= -276.302757307796     Delta-E=       -0.000218864218 Rises=F Damp=F
 DIIS: error= 1.68D-04 at cycle   5 NSaved=   5.
 NSaved= 5 IEnMin= 5 EnMin= -276.302757307796     IErMin= 5 ErrMin= 1.68D-04
 ErrMax= 1.68D-04  0.00D+00 EMaxC= 1.00D-01 BMatC= 2.35D-05 BMatP= 2.47D-04
 IDIUse=3 WtCom= 9.98D-01 WtEn= 1.68D-03
 Coeff-Com: -0.194D-02 0.142D-02 0.578D-01 0.287D+00 0.656D+00
 Coeff-En:   0.000D+00 0.000D+00 0.000D+00 0.000D+00 0.100D+01
 Coeff:     -0.194D-02 0.142D-02 0.577D-01 0.286D+00 0.656D+00
 Gap=     0.413 Goal=   None    Shift=    0.000
 RMSDP=7.33D-06 MaxDP=3.57D-04 DE=-2.19D-04 OVMax= 8.03D-04

 Initial convergence to 1.0D-05 achieved.  Increase integral accuracy.
 Cycle   6  Pass 1  IDiag  1:
 E= -276.302717857147     Delta-E=        0.000039450649 Rises=F Damp=F
 DIIS: error= 3.18D-05 at cycle   1 NSaved=   1.
 NSaved= 1 IEnMin= 1 EnMin= -276.302717857147     IErMin= 1 ErrMin= 3.18D-05
 ErrMax= 3.18D-05  0.00D+00 EMaxC= 1.00D-01 BMatC= 1.26D-06 BMatP= 1.26D-06
 IDIUse=1 WtCom= 1.00D+00 WtEn= 0.00D+00
 Coeff-Com:  0.100D+01
 Coeff:      0.100D+01
 Gap=     0.414 Goal=   None    Shift=    0.000
 RMSDP=7.33D-06 MaxDP=3.57D-04 DE= 3.95D-05 OVMax= 2.26D-04

 Cycle   7  Pass 1  IDiag  1:
 RMSU=  1.02D-05    CP:  1.00D+00
 E= -276.302718538497     Delta-E=       -0.000000681350 Rises=F Damp=F
 DIIS: error= 2.09D-05 at cycle   2 NSaved=   2.
 NSaved= 2 IEnMin= 2 EnMin= -276.302718538497     IErMin= 2 ErrMin= 2.09D-05
 ErrMax= 2.09D-05  0.00D+00 EMaxC= 1.00D-01 BMatC= 3.00D-07 BMatP= 1.26D-06
 IDIUse=1 WtCom= 1.00D+00 WtEn= 0.00D+00
 Coeff-Com:  0.274D+00 0.726D+00
 Coeff:      0.274D+00 0.726D+00
 Gap=     0.414 Goal=   None    Shift=    0.000
 RMSDP=1.11D-06 MaxDP=5.43D-05 DE=-6.81D-07 OVMax= 1.24D-04

 Cycle   8  Pass 1  IDiag  1:
 RMSU=  1.10D-06    CP:  1.00D+00  1.01D+00
 E= -276.302718768412     Delta-E=       -0.000000229915 Rises=F Damp=F
 DIIS: error= 9.43D-06 at cycle   3 NSaved=   3.
 NSaved= 3 IEnMin= 3 EnMin= -276.302718768412     IErMin= 3 ErrMin= 9.43D-06
 ErrMax= 9.43D-06  0.00D+00 EMaxC= 1.00D-01 BMatC= 6.20D-08 BMatP= 3.00D-07
 IDIUse=1 WtCom= 1.00D+00 WtEn= 0.00D+00
 Coeff-Com: -0.579D-02 0.303D+00 0.703D+00
 Coeff:     -0.579D-02 0.303D+00 0.703D+00
 Gap=     0.414 Goal=   None    Shift=    0.000
 RMSDP=4.18D-07 MaxDP=1.66D-05 DE=-2.30D-07 OVMax= 4.30D-05

 Cycle   9  Pass 1  IDiag  1:
 RMSU=  3.12D-07    CP:  1.00D+00  1.03D+00  7.87D-01
 E= -276.302718827678     Delta-E=       -0.000000059267 Rises=F Damp=F
 DIIS: error= 1.66D-06 at cycle   4 NSaved=   4.
 NSaved= 4 IEnMin= 4 EnMin= -276.302718827678     IErMin= 4 ErrMin= 1.66D-06
 ErrMax= 1.66D-06  0.00D+00 EMaxC= 1.00D-01 BMatC= 1.36D-09 BMatP= 6.20D-08
 IDIUse=1 WtCom= 1.00D+00 WtEn= 0.00D+00
 Coeff-Com: -0.119D-01 0.662D-01 0.214D+00 0.732D+00
 Coeff:     -0.119D-01 0.662D-01 0.214D+00 0.732D+00
 Gap=     0.414 Goal=   None    Shift=    0.000
 RMSDP=7.40D-08 MaxDP=2.59D-06 DE=-5.93D-08 OVMax= 7.64D-06

 Cycle  10  Pass 1  IDiag  1:
 RMSU=  6.96D-08    CP:  1.00D+00  1.03D+00  8.01D-01  9.77D-01
 E= -276.302718829034     Delta-E=       -0.000000001356 Rises=F Damp=F
 DIIS: error= 4.95D-07 at cycle   5 NSaved=   5.
 NSaved= 5 IEnMin= 5 EnMin= -276.302718829034     IErMin= 5 ErrMin= 4.95D-07
 ErrMax= 4.95D-07  0.00D+00 EMaxC= 1.00D-01 BMatC= 7.28D-11 BMatP= 1.36D-09
 IDIUse=1 WtCom= 1.00D+00 WtEn= 0.00D+00
 Coeff-Com: -0.149D-02-0.131D-01-0.203D-01 0.122D+00 0.913D+00
 Coeff:     -0.149D-02-0.131D-01-0.203D-01 0.122D+00 0.913D+00
 Gap=     0.414 Goal=   None    Shift=    0.000
 RMSDP=3.01D-08 MaxDP=8.57D-07 DE=-1.36D-09 OVMax= 2.60D-06

 Cycle  11  Pass 1  IDiag  1:
 RMSU=  1.86D-08    CP:  1.00D+00  1.03D+00  8.05D-01  1.05D+00  1.08D+00
 E= -276.302718829115     Delta-E=       -0.000000000081 Rises=F Damp=F
 DIIS: error= 1.65D-07 at cycle   6 NSaved=   6.
 NSaved= 6 IEnMin= 6 EnMin= -276.302718829115     IErMin= 6 ErrMin= 1.65D-07
 ErrMax= 1.65D-07  0.00D+00 EMaxC= 1.00D-01 BMatC= 1.75D-11 BMatP= 7.28D-11
 IDIUse=1 WtCom= 1.00D+00 WtEn= 0.00D+00
 Coeff-Com:  0.354D-03-0.112D-01-0.269D-01-0.109D-01 0.397D+00 0.651D+00
 Coeff:      0.354D-03-0.112D-01-0.269D-01-0.109D-01 0.397D+00 0.651D+00
 Gap=     0.414 Goal=   None    Shift=    0.000
 RMSDP=7.49D-09 MaxDP=2.95D-07 DE=-8.12D-11 OVMax= 8.49D-07

 SCF Done:  E(RM062X) =  -276.302718829     A.U. after   11 cycles
            NFock= 11  Conv=0.75D-08     -V/T= 2.0064
 KE= 2.745499868181D+02 PE=-1.298802665835D+03 EE= 4.177823400715D+02
 Leave Link  502 at Sat Sep 28 22:00:32 2019, MaxMem=   671088640 cpu:            1815.6 elap:             907.8
 (Enter /shared/centos7/gaussian/g16/l801.exe)
 DoSCS=F DFT=T ScalE2(SS,OS)=  1.000000  1.000000
 Range of M.O.s used for correlation:     1   434
 NBasis=   434 NAE=    29 NBE=    29 NFC=     0 NFV=     0
 NROrb=    434 NOA=    29 NOB=    29 NVA=   405 NVB=   405

 **** Warning!!: The largest alpha MO coefficient is  0.12115568D+02

 Leave Link  801 at Sat Sep 28 22:00:33 2019, MaxMem=   671088640 cpu:               2.0 elap:               1.0
 (Enter /shared/centos7/gaussian/g16/l1101.exe)
 Using compressed storage, NAtomX=    23.
 Will process     24 centers per pass.
 Leave Link 1101 at Sat Sep 28 22:01:08 2019, MaxMem=   671088640 cpu:              69.8 elap:              34.9
 (Enter /shared/centos7/gaussian/g16/l1102.exe)
 Symmetrizing basis deriv contribution to polar:
 IMax=3 JMax=2 DiffMx= 0.00D+00
 Leave Link 1102 at Sat Sep 28 22:01:10 2019, MaxMem=   671088640 cpu:               4.9 elap:               2.5
 (Enter /shared/centos7/gaussian/g16/l1110.exe)
 Forming Gx(P) for the SCF density, NAtomX=    23.
 Integral derivatives from FoFJK, PRISM(SPDF).
 Do as many integral derivatives as possible in FoFJK.
 G2DrvN: MDV=     671086848.
 G2DrvN: will do    24 centers at a time, making    1 passes.
 Calling FoFCou, ICntrl=  3107 FMM=F I1Cent=   0 AccDes= 0.00D+00.
 FoFJK:  IHMeth= 1 ICntrl=    3107 DoSepK=F KAlg= 0 I1Cent=           0 FoldK=F
 IRaf=         0 NMat=       1 IRICut=       1 DoRegI=T DoRafI=F ISym2E= 0 IDoP0=0 IntGTp=1.
 FoFCou: FMM=F IPFlag=           0 FMFlag=      100000 FMFlg1=           0
         NFxFlg=           0 DoJE=F BraDBF=F KetDBF=F FulRan=T
         wScrn=  0.000000 ICntrl=      3107 IOpCl=  0 I1Cent=           0 NGrid=           0
         NMat0=    1 NMatS0=      1 NMatT0=    0 NMatD0=    1 NMtDS0=    0 NMtDT0=    0
 Symmetry not used in FoFCou.
 End of G2Drv F.D. properties file   721 does not exist.
 End of G2Drv F.D. properties file   722 does not exist.
 End of G2Drv F.D. properties file   788 does not exist.
 Leave Link 1110 at Sat Sep 28 22:41:34 2019, MaxMem=   671088640 cpu:            4847.5 elap:            2423.8
 (Enter /shared/centos7/gaussian/g16/l1002.exe)
 Minotr:  Closed shell wavefunction.
          IDoAtm=11111111111111111111111
          Direct CPHF calculation.
          Differentiating once with respect to nuclear coordinates.
          Requested convergence is 1.0D-08 RMS, and 1.0D-07 maximum.
          Secondary convergence is 1.0D-12 RMS, and 1.0D-12 maximum.
          NewPWx=T KeepS1=F KeepF1=F KeepIn=T MapXYZ=F SortEE=F KeepMc=T.
         6911 words used for storage of precomputed grid.
 Two-electron integrals replicated using symmetry.
          MDV=     671088640 using IRadAn=       1.
          Solving linear equations simultaneously, MaxMat=     380.
 FoF2E skips out because all densities are zero.
 CalDSu exits because no D1Ps are significant.
 FoFJK:  IHMeth= 1 ICntrl=       0 DoSepK=F KAlg= 0 I1Cent=           0 FoldK=F
 IRaf= 920000000 NMat=      69 IRICut=     172 DoRegI=T DoRafI=T ISym2E= 2 IDoP0=3 IntGTp=3.
 FoFCou: FMM=F IPFlag=           0 FMFlag=      100000 FMFlg1=           0
         NFxFlg=           0 DoJE=F BraDBF=F KetDBF=F FulRan=T
         wScrn=  0.000000 ICntrl=         0 IOpCl=  0 I1Cent=           0 NGrid=           0
         NMat0=   69 NMatS0=     69 NMatT0=    0 NMatD0=   69 NMtDS0=    0 NMtDT0=    0
 Integrals replicated using symmetry in FoFCou.
 Raff kept on since  88.57% of shell-pairs survive, threshold=   0.20 IRatSp=89.
          There are    72 degrees of freedom in the 1st order CPHF.  IDoFFX=6 NUNeed=     0.
     66 vectors produced by pass  0 Test12= 1.63D-14 1.39D-09 XBig12= 5.65D-02 4.56D-02.
 AX will form    66 AO Fock derivatives at one time.
     66 vectors produced by pass  1 Test12= 1.63D-14 1.39D-09 XBig12= 2.77D-03 7.57D-03.
     66 vectors produced by pass  2 Test12= 1.63D-14 1.39D-09 XBig12= 4.91D-05 1.02D-03.
     66 vectors produced by pass  3 Test12= 1.63D-14 1.39D-09 XBig12= 4.05D-07 7.47D-05.
     66 vectors produced by pass  4 Test12= 1.63D-14 1.39D-09 XBig12= 2.03D-09 4.06D-06.
     66 vectors produced by pass  5 Test12= 1.63D-14 1.39D-09 XBig12= 9.25D-12 2.87D-07.
     21 vectors produced by pass  6 Test12= 1.63D-14 1.39D-09 XBig12= 3.40D-14 1.69D-08.
 InvSVY:  IOpt=1 It=  1 EMax= 3.05D-16
 Solved reduced A of dimension   417 with    72 vectors.
 End of Minotr F.D. properties file   721 does not exist.
 End of Minotr F.D. properties file   722 does not exist.
 End of Minotr F.D. properties file   788 does not exist.
 Leave Link 1002 at Sat Sep 28 23:55:18 2019, MaxMem=   671088640 cpu:            8848.0 elap:            4424.1
 (Enter /shared/centos7/gaussian/g16/l601.exe)
 Copying SCF densities to generalized density rwf, IOpCl= 0 IROHF=0.

 **********************************************************************

            Population analysis using the SCF density.

 **********************************************************************

 Orbital symmetries:
       Occupied  (A) (A) (A) (A) (A) (A) (A) (A) (A) (A) (A) (A)
                 (A) (A) (A) (A) (A) (A) (A) (A) (A) (A) (A) (A)
                 (A) (A) (A) (A) (A)
       Virtual   (A) (A) (A) (A) (A) (A) (A) (A) (A) (A) (A) (A)
                 (A) (A) (A) (A) (A) (A) (A) (A) (A) (A) (A) (A)
                 (A) (A) (A) (A) (A) (A) (A) (A) (A) (A) (A) (A)
                 (A) (A) (A) (A) (A) (A) (A) (A) (A) (A) (A) (A)
                 (A) (A) (A) (A) (A) (A) (A) (A) (A) (A) (A) (A)
                 (A) (A) (A) (A) (A) (A) (A) (A) (A) (A) (A) (A)
                 (A) (A) (A) (A) (A) (A) (A) (A) (A) (A) (A) (A)
                 (A) (A) (A) (A) (A) (A) (A) (A) (A) (A) (A) (A)
                 (A) (A) (A) (A) (A) (A) (A) (A) (A) (A) (A) (A)
                 (A) (A) (A) (A) (A) (A) (A) (A) (A) (A) (A) (A)
                 (A) (A) (A) (A) (A) (A) (A) (A) (A) (A) (A) (A)
                 (A) (A) (A) (A) (A) (A) (A) (A) (A) (A) (A) (A)
                 (A) (A) (A) (A) (A) (A) (A) (A) (A) (A) (A) (A)
                 (A) (A) (A) (A) (A) (A) (A) (A) (A) (A) (A) (A)
                 (A) (A) (A) (A) (A) (A) (A) (A) (A) (A) (A) (A)
                 (A) (A) (A) (A) (A) (A) (A) (A) (A) (A) (A) (A)
                 (A) (A) (A) (A) (A) (A) (A) (A) (A) (A) (A) (A)
                 (A) (A) (A) (A) (A) (A) (A) (A) (A) (A) (A) (A)
                 (A) (A) (A) (A) (A) (A) (A) (A) (A) (A) (A) (A)
                 (A) (A) (A) (A) (A) (A) (A) (A) (A) (A) (A) (A)
                 (A) (A) (A) (A) (A) (A) (A) (A) (A) (A) (A) (A)
                 (A) (A) (A) (A) (A) (A) (A) (A) (A) (A) (A) (A)
                 (A) (A) (A) (A) (A) (A) (A) (A) (A) (A) (A) (A)
                 (A) (A) (A) (A) (A) (A) (A) (A) (A) (A) (A) (A)
                 (A) (A) (A) (A) (A) (A) (A) (A) (A) (A) (A) (A)
                 (A) (A) (A) (A) (A) (A) (A) (A) (A) (A) (A) (A)
                 (A) (A) (A) (A) (A) (A) (A) (A) (A) (A) (A) (A)
                 (A) (A) (A) (A) (A) (A) (A) (A) (A) (A) (A) (A)
                 (A) (A) (A) (A) (A) (A) (A) (A) (A) (A) (A) (A)
                 (A) (A) (A) (A) (A) (A) (A) (A) (A) (A) (A) (A)
                 (A) (A) (A) (A) (A) (A) (A) (A) (A) (A) (A) (A)
                 (A) (A) (A) (A) (A) (A) (A) (A) (A) (A) (A) (A)
                 (A) (A) (A) (A) (A) (A) (A) (A) (A) (A) (A) (A)
                 (A) (A) (A) (A) (A) (A) (A) (A) (A)
 The electronic state is 1-A.
 Alpha  occ. eigenvalues --  -10.52842 -10.52484 -10.52461 -10.52446 -10.52286
 Alpha  occ. eigenvalues --  -10.52182 -10.51662  -0.92494  -0.88130  -0.81991
 Alpha  occ. eigenvalues --   -0.77384  -0.71272  -0.64854  -0.62708  -0.55560
 Alpha  occ. eigenvalues --   -0.53287  -0.51740  -0.49239  -0.48668  -0.45945
 Alpha  occ. eigenvalues --   -0.44195  -0.43263  -0.41509  -0.40714  -0.39755
 Alpha  occ. eigenvalues --   -0.37425  -0.36434  -0.35614  -0.34877
 Alpha virt. eigenvalues --    0.06478   0.07633   0.08609   0.08714   0.10497
 Alpha virt. eigenvalues --    0.11919   0.12188   0.12955   0.14745   0.15229
 Alpha virt. eigenvalues --    0.15739   0.16969   0.18542   0.20113   0.20972
 Alpha virt. eigenvalues --    0.21591   0.22443   0.22651   0.24660   0.25683
 Alpha virt. eigenvalues --    0.27713   0.28113   0.28901   0.29811   0.31809
 Alpha virt. eigenvalues --    0.32660   0.34264   0.34871   0.37211   0.38318
 Alpha virt. eigenvalues --    0.39258   0.40387   0.41343   0.42097   0.43237
 Alpha virt. eigenvalues --    0.44203   0.46159   0.46373   0.47095   0.48188
 Alpha virt. eigenvalues --    0.48663   0.49121   0.49615   0.51269   0.51676
 Alpha virt. eigenvalues --    0.51833   0.52447   0.53171   0.53768   0.54045
 Alpha virt. eigenvalues --    0.54113   0.55505   0.55862   0.57126   0.57996
 Alpha virt. eigenvalues --    0.58238   0.59251   0.60823   0.61952   0.64052
 Alpha virt. eigenvalues --    0.65719   0.68056   0.73141   0.75783   0.77053
 Alpha virt. eigenvalues --    0.79217   0.80575   0.81833   0.84449   0.86740
 Alpha virt. eigenvalues --    0.87102   0.87706   0.89023   0.90082   0.90629
 Alpha virt. eigenvalues --    0.94388   0.94623   0.95321   0.97983   0.99702
 Alpha virt. eigenvalues --    1.00998   1.02181   1.03774   1.04669   1.05631
 Alpha virt. eigenvalues --    1.06795   1.07534   1.09027   1.09529   1.09936
 Alpha virt. eigenvalues --    1.11443   1.12075   1.13440   1.14681   1.15374
 Alpha virt. eigenvalues --    1.15894   1.17208   1.17676   1.18215   1.19460
 Alpha virt. eigenvalues --    1.19935   1.20842   1.21914   1.23592   1.24703
 Alpha virt. eigenvalues --    1.26195   1.27085   1.27521   1.29633   1.29928
 Alpha virt. eigenvalues --    1.30376   1.31042   1.31932   1.33599   1.34350
 Alpha virt. eigenvalues --    1.35691   1.36203   1.37249   1.37861   1.39403
 Alpha virt. eigenvalues --    1.40740   1.41059   1.43030   1.43162   1.45885
 Alpha virt. eigenvalues --    1.46786   1.47434   1.47750   1.49820   1.50867
 Alpha virt. eigenvalues --    1.51789   1.52581   1.54007   1.56285   1.57059
 Alpha virt. eigenvalues --    1.57853   1.60398   1.61146   1.61818   1.64592
 Alpha virt. eigenvalues --    1.66934   1.69551   1.72906   1.73368   1.76572
 Alpha virt. eigenvalues --    1.79390   1.81256   1.84867   1.89552   2.23325
 Alpha virt. eigenvalues --    2.24553   2.27503   2.29401   2.31498   2.35393
 Alpha virt. eigenvalues --    2.37076   2.39832   2.40765   2.42947   2.46082
 Alpha virt. eigenvalues --    2.46674   2.48229   2.50465   2.52291   2.54256
 Alpha virt. eigenvalues --    2.55425   2.58050   2.59121   2.60432   2.61135
 Alpha virt. eigenvalues --    2.63400   2.63613   2.65438   2.66817   2.66896
 Alpha virt. eigenvalues --    2.68310   2.69140   2.71912   2.72522   2.73793
 Alpha virt. eigenvalues --    2.74597   2.75837   2.77149   2.77790   2.81761
 Alpha virt. eigenvalues --    2.82311   2.83562   2.84362   2.85372   2.85729
 Alpha virt. eigenvalues --    2.87201   2.88326   2.90051   2.92700   2.93564
 Alpha virt. eigenvalues --    2.94837   2.95539   2.97054   2.98711   3.00175
 Alpha virt. eigenvalues --    3.00660   3.01802   3.02787   3.03240   3.04532
 Alpha virt. eigenvalues --    3.05752   3.06240   3.07332   3.08067   3.08451
 Alpha virt. eigenvalues --    3.09307   3.09842   3.11434   3.12700   3.12931
 Alpha virt. eigenvalues --    3.14765   3.15288   3.15866   3.16574   3.19504
 Alpha virt. eigenvalues --    3.20269   3.21370   3.22172   3.24115   3.24368
 Alpha virt. eigenvalues --    3.26245   3.26446   3.28060   3.30354   3.31307
 Alpha virt. eigenvalues --    3.32202   3.33283   3.34617   3.36530   3.37048
 Alpha virt. eigenvalues --    3.37764   3.38226   3.40100   3.41204   3.42003
 Alpha virt. eigenvalues --    3.44159   3.44937   3.46803   3.48497   3.49301
 Alpha virt. eigenvalues --    3.50215   3.51358   3.53264   3.53924   3.54538
 Alpha virt. eigenvalues --    3.56564   3.57213   3.58361   3.59354   3.62373
 Alpha virt. eigenvalues --    3.62669   3.63222   3.64711   3.65875   3.67241
 Alpha virt. eigenvalues --    3.68610   3.70027   3.71516   3.72270   3.73649
 Alpha virt. eigenvalues --    3.75229   3.76556   3.77255   3.78563   3.79553
 Alpha virt. eigenvalues --    3.81138   3.83107   3.84335   3.85887   3.86254
 Alpha virt. eigenvalues --    3.87262   3.87896   3.89725   3.89935   3.91358
 Alpha virt. eigenvalues --    3.92110   3.93359   3.94372   3.94921   3.97365
 Alpha virt. eigenvalues --    3.98027   3.99177   4.00833   4.02421   4.02849
 Alpha virt. eigenvalues --    4.04207   4.05173   4.06179   4.07228   4.08583
 Alpha virt. eigenvalues --    4.09029   4.10294   4.10916   4.12469   4.12763
 Alpha virt. eigenvalues --    4.13237   4.15314   4.16228   4.18007   4.19279
 Alpha virt. eigenvalues --    4.20445   4.21249   4.22189   4.23319   4.24536
 Alpha virt. eigenvalues --    4.25488   4.26694   4.28691   4.29362   4.31740
 Alpha virt. eigenvalues --    4.32429   4.36605   4.37638   4.38827   4.40556
 Alpha virt. eigenvalues --    4.41724   4.42886   4.43949   4.45851   4.46817
 Alpha virt. eigenvalues --    4.46998   4.50692   4.51338   4.56099   4.59415
 Alpha virt. eigenvalues --    4.60329   4.61318   4.64092   4.66011   4.66882
 Alpha virt. eigenvalues --    4.67935   4.70763   4.71546   4.73416   4.73962
 Alpha virt. eigenvalues --    4.77570   4.78111   4.79978   4.81751   4.84310
 Alpha virt. eigenvalues --    4.85317   4.86553   4.89607   4.92182   4.93422
 Alpha virt. eigenvalues --    4.94803   4.95397   4.96385   4.98292   5.00231
 Alpha virt. eigenvalues --    5.03233   5.04445   5.04930   5.06240   5.07086
 Alpha virt. eigenvalues --    5.09870   5.10316   5.11718   5.13316   5.19126
 Alpha virt. eigenvalues --    5.19477   5.22602   5.23691   5.26646   5.28941
 Alpha virt. eigenvalues --    5.29315   5.30886   5.31449   5.33356   5.36342
 Alpha virt. eigenvalues --    5.39783   5.40272   5.41857   5.44399   5.45628
 Alpha virt. eigenvalues --    5.48617   5.50829   5.52984   5.54305   5.58614
 Alpha virt. eigenvalues --    5.63086   5.65733   5.71781   5.78802   5.79943
 Alpha virt. eigenvalues --    5.81148   5.84507   5.88453   5.93673   5.96011
 Alpha virt. eigenvalues --    6.00001   6.04995   6.07756  11.28904  11.74868
 Alpha virt. eigenvalues --   12.69314  12.93368  13.38348  13.73953  13.95630
          Condensed to atoms (all electrons):
               1          2          3          4          5          6
     1  C    5.215248   0.286408  -0.053912   0.309987  -0.000809  -0.041939
     2  C    0.286408   5.123253   0.324212  -0.044500  -0.046869  -0.008432
     3  C   -0.053912   0.324212   5.064488   0.005891   0.302655   0.000089
     4  C    0.309987  -0.044500   0.005891   5.045625  -0.000098   0.288938
     5  C   -0.000809  -0.046869   0.302655  -0.000098   5.045898  -0.000039
     6  C   -0.041939  -0.008432   0.000089   0.288938  -0.000039   4.988711
     7  C   -0.019583  -0.016630  -0.045679  -0.000046   0.299690  -0.000064
     8  H   -0.048110   0.010059  -0.000493   0.418390  -0.000003  -0.046135
     9  H   -0.044255  -0.009056   0.000313   0.409175  -0.000017  -0.047402
    10  H    0.396611  -0.052461   0.000456  -0.029321  -0.001798  -0.007693
    11  H    0.446079  -0.057840  -0.002189  -0.052555   0.001676   0.009648
    12  H   -0.038805   0.405144  -0.035280  -0.004974   0.006595   0.001124
    13  H   -0.055024   0.410360  -0.033867  -0.000452  -0.002124  -0.000925
    14  H   -0.006606  -0.044287   0.417860   0.000390  -0.051135  -0.000025
    15  H    0.009468  -0.045753   0.419843  -0.000525  -0.045429   0.000026
    16  H   -0.000622   0.005932  -0.048438   0.000046   0.417972   0.000000
    17  H    0.000152   0.005554  -0.046391  -0.000026   0.411340   0.000002
    18  H    0.000782  -0.003077   0.000054  -0.062884  -0.000015   0.406843
    19  H    0.004469   0.000675  -0.000020  -0.042992  -0.000001   0.403907
    20  H    0.004223  -0.000145   0.000020  -0.043148   0.000003   0.407251
    21  H   -0.012064  -0.000153  -0.006797   0.000216  -0.053834  -0.000167
    22  H   -0.018267   0.000156   0.003522   0.001886  -0.044573  -0.000129
    23  H    0.002423  -0.000635   0.007246  -0.000113  -0.035282   0.000007
               7          8          9         10         11         12
     1  C   -0.019583  -0.048110  -0.044255   0.396611   0.446079  -0.038805
     2  C   -0.016630   0.010059  -0.009056  -0.052461  -0.057840   0.405144
     3  C   -0.045679  -0.000493   0.000313   0.000456  -0.002189  -0.035280
     4  C   -0.000046   0.418390   0.409175  -0.029321  -0.052555  -0.004974
     5  C    0.299690  -0.000003  -0.000017  -0.001798   0.001676   0.006595
     6  C   -0.000064  -0.046135  -0.047402  -0.007693   0.009648   0.001124
     7  C    4.996466   0.000204  -0.000070   0.001727  -0.016753   0.001288
     8  H    0.000204   0.611753  -0.033504  -0.006253  -0.009782  -0.000303
     9  H   -0.000070  -0.033504   0.607345   0.009362  -0.007130   0.000227
    10  H    0.001727  -0.006253   0.009362   0.571045  -0.030854  -0.006442
    11  H   -0.016753  -0.009782  -0.007130  -0.030854   0.566354   0.007157
    12  H    0.001288  -0.000303   0.000227  -0.006442   0.007157   0.561366
    13  H   -0.012062   0.000245   0.002981   0.008231  -0.003698  -0.033253
    14  H    0.005790   0.000017  -0.000020   0.003155   0.000051  -0.005633
    15  H    0.005537   0.000029   0.000003   0.000033  -0.000208  -0.006598
    16  H   -0.043024  -0.000001   0.000005   0.000024   0.000017  -0.000498
    17  H   -0.040916  -0.000007   0.000004   0.000151  -0.001988  -0.000330
    18  H   -0.000008   0.006332   0.006295   0.001521   0.000506   0.000042
    19  H    0.000012   0.006745  -0.018499  -0.000182  -0.000594  -0.000828
    20  H    0.000002  -0.020003   0.006482   0.001319  -0.000515   0.000123
    21  H    0.418763  -0.000120   0.001448   0.001262  -0.014984   0.000218
    22  H    0.412418   0.000228   0.000193   0.001095  -0.015250  -0.000354
    23  H    0.400878  -0.000019  -0.000002  -0.000080   0.003511   0.000077
              13         14         15         16         17         18
     1  C   -0.055024  -0.006606   0.009468  -0.000622   0.000152   0.000782
     2  C    0.410360  -0.044287  -0.045753   0.005932   0.005554  -0.003077
     3  C   -0.033867   0.417860   0.419843  -0.048438  -0.046391   0.000054
     4  C   -0.000452   0.000390  -0.000525   0.000046  -0.000026  -0.062884
     5  C   -0.002124  -0.051135  -0.045429   0.417972   0.411340  -0.000015
     6  C   -0.000925  -0.000025   0.000026   0.000000   0.000002   0.406843
     7  C   -0.012062   0.005790   0.005537  -0.043024  -0.040916  -0.000008
     8  H    0.000245   0.000017   0.000029  -0.000001  -0.000007   0.006332
     9  H    0.002981  -0.000020   0.000003   0.000005   0.000004   0.006295
    10  H    0.008231   0.003155   0.000033   0.000024   0.000151   0.001521
    11  H   -0.003698   0.000051  -0.000208   0.000017  -0.001988   0.000506
    12  H   -0.033253  -0.005633  -0.006598  -0.000498  -0.000330   0.000042
    13  H    0.598910   0.008283  -0.006841   0.000906  -0.000476   0.000679
    14  H    0.008283   0.594019  -0.037042   0.006876  -0.017664   0.000054
    15  H   -0.006841  -0.037042   0.598812  -0.019799   0.007052   0.000070
    16  H    0.000906   0.006876  -0.019799   0.613178  -0.037613   0.000001
    17  H   -0.000476  -0.017664   0.007052  -0.037613   0.603289  -0.000002
    18  H    0.000679   0.000054   0.000070   0.000001  -0.000002   0.601214
    19  H    0.000088   0.000001  -0.000003   0.000000   0.000000  -0.036034
    20  H   -0.000056  -0.000002  -0.000003  -0.000000  -0.000000  -0.034443
    21  H   -0.006593  -0.000052   0.001117   0.000943   0.007771  -0.000004
    22  H    0.001779   0.000612  -0.000635   0.007930  -0.013852  -0.000004
    23  H    0.000001  -0.000450  -0.000305  -0.014198   0.001523   0.000000
              19         20         21         22         23
     1  C    0.004469   0.004223  -0.012064  -0.018267   0.002423
     2  C    0.000675  -0.000145  -0.000153   0.000156  -0.000635
     3  C   -0.000020   0.000020  -0.006797   0.003522   0.007246
     4  C   -0.042992  -0.043148   0.000216   0.001886  -0.000113
     5  C   -0.000001   0.000003  -0.053834  -0.044573  -0.035282
     6  C    0.403907   0.407251  -0.000167  -0.000129   0.000007
     7  C    0.000012   0.000002   0.418763   0.412418   0.400878
     8  H    0.006745  -0.020003  -0.000120   0.000228  -0.000019
     9  H   -0.018499   0.006482   0.001448   0.000193  -0.000002
    10  H   -0.000182   0.001319   0.001262   0.001095  -0.000080
    11  H   -0.000594  -0.000515  -0.014984  -0.015250   0.003511
    12  H   -0.000828   0.000123   0.000218  -0.000354   0.000077
    13  H    0.000088  -0.000056  -0.006593   0.001779   0.000001
    14  H    0.000001  -0.000002  -0.000052   0.000612  -0.000450
    15  H   -0.000003  -0.000003   0.001117  -0.000635  -0.000305
    16  H    0.000000  -0.000000   0.000943   0.007930  -0.014198
    17  H    0.000000  -0.000000   0.007771  -0.013852   0.001523
    18  H   -0.036034  -0.034443  -0.000004  -0.000004   0.000000
    19  H    0.610290  -0.032542  -0.000002   0.000007  -0.000001
    20  H   -0.032542   0.598907   0.000006   0.000004  -0.000000
    21  H   -0.000002   0.000006   0.619952  -0.041480  -0.034581
    22  H    0.000007   0.000004  -0.041480   0.632746  -0.031158
    23  H   -0.000001  -0.000000  -0.034581  -0.031158   0.595789
 Mulliken charges:
               1
     1  C   -0.335854
     2  C   -0.241915
     3  C   -0.273584
     4  C   -0.198907
     5  C   -0.203802
     6  C   -0.353598
     7  C   -0.347941
     8  H    0.110732
     9  H    0.116122
    10  H    0.139092
    11  H    0.179340
    12  H    0.149935
    13  H    0.122908
    14  H    0.125806
    15  H    0.121148
    16  H    0.110361
    17  H    0.122428
    18  H    0.112079
    19  H    0.105504
    20  H    0.112517
    21  H    0.119134
    22  H    0.103126
    23  H    0.105368
 Sum of Mulliken charges =  -0.00000
 Mulliken charges with hydrogens summed into heavy atoms:
               1
     1  C   -0.017421
     2  C    0.030928
     3  C   -0.026629
     4  C    0.027948
     5  C    0.028986
     6  C   -0.023498
     7  C   -0.020313
 APT charges:
               1
     1  C   -0.530392
     2  C   -0.524483
     3  C   -0.824548
     4  C   -0.581349
     5  C   -0.981385
     6  C   -1.367034
     7  C   -0.895060
     8  H    0.406729
     9  H    0.277824
    10  H    0.335947
    11  H    0.335888
    12  H    0.373518
    13  H    0.287491
    14  H    0.355214
    15  H    0.443054
    16  H    0.504589
    17  H    0.392049
    18  H    0.199440
    19  H    0.409616
    20  H    0.545577
    21  H    0.105963
    22  H    0.192915
    23  H    0.538439
 Sum of APT charges =  -0.00000
 APT charges with hydrogens summed into heavy atoms:
               1
     1  C    0.141443
     2  C    0.136526
     3  C   -0.026280
     4  C    0.103204
     5  C   -0.084748
     6  C   -0.212402
     7  C   -0.057743
 Electronic spatial extent (au):  <R**2>=           1170.7558
 Charge=             -0.0000 electrons
 Dipole moment (field-independent basis, Debye):
    X=             -0.1469    Y=             -0.0068    Z=              0.0198  Tot=              0.1483
 Quadrupole moment (field-independent basis, Debye-Ang):
   XX=            -49.7474   YY=            -49.5567   ZZ=            -48.4474
   XY=              0.4220   XZ=              0.3895   YZ=              0.1015
 Traceless Quadrupole moment (field-independent basis, Debye-Ang):
   XX=             -0.4969   YY=             -0.3062   ZZ=              0.8031
   XY=              0.4220   XZ=              0.3895   YZ=              0.1015
 Octapole moment (field-independent basis, Debye-Ang**2):
  XXX=             -2.2450  YYY=             -1.6775  ZZZ=              0.2466  XYY=             -0.0593
  XXY=              0.6316  XXZ=             -0.3318  XZZ=             -0.2434  YZZ=              0.3045
  YYZ=              0.7973  XYZ=              0.1149
 Hexadecapole moment (field-independent basis, Debye-Ang**3):
 XXXX=          -1233.7883 YYYY=           -314.6277 ZZZZ=           -131.1241 XXXY=              8.2869
 XXXZ=             11.7770 YYYX=              0.4839 YYYZ=              2.6540 ZZZX=             -3.5929
 ZZZY=             -1.0574 XXYY=           -259.3428 XXZZ=           -219.9386 YYZZ=            -72.5967
 XXYZ=              1.9127 YYXZ=              2.9464 ZZXY=              2.3606
 N-N= 3.301676201162D+02 E-N=-1.298802611050D+03  KE= 2.745499868181D+02
  Exact polarizability:   0.000   0.000   0.000   0.000   0.000   0.000
 Approx polarizability:  98.510  -0.171  97.607   0.993  -0.469  98.942
 No NMR shielding tensors so no spin-rotation constants.
 Leave Link  601 at Sat Sep 28 23:55:47 2019, MaxMem=   671088640 cpu:              58.3 elap:              29.2
 (Enter /shared/centos7/gaussian/g16/l701.exe)
 SCFChk:  SCF convergence  7.49D-09 required  1.00D-08
 ... and contract with generalized density number  0.
 Compute integral second derivatives.
 Entering OneElI...
 Calculate overlap and kinetic energy integrals
    NBasis = 485  MinDer = 2  MaxDer = 2
 Requested accuracy = 0.1000D-12
 PrmmSu-InSpLW:  IPartL=    0 NPrtUS=   20 NPrtUL=    1 DoSpLW=F IThBeg=    0 IThEnd=   19 NThAct=   20.
 PrsmSu:  NPrtUS=  20 ThrOK=T IAlg=1 NPAlg=1 LenDen=           0 ISkipM=0 DoSpLW=F IThBeg=    0 IThEnd=   19.
 Prism:   IPart=     0 DynPar=F LinDyn=F Incr=           6.
 PRISM was handed    33201662 working-precision words and 13627 shell-pairs
 PRISM was handed    33201662 working-precision words and 13627 shell-pairs
 PRISM was handed    33201662 working-precision words and 13627 shell-pairs
 PRISM was handed    33201662 working-precision words and 13627 shell-pairs
 PRISM was handed    33201662 working-precision words and 13627 shell-pairs
 PRISM was handed    33201662 working-precision words and 13627 shell-pairs
 PRISM was handed    33201662 working-precision words and 13627 shell-pairs
 PRISM was handed    33201662 working-precision words and 13627 shell-pairs
 PRISM was handed    33201662 working-precision words and 13627 shell-pairs
 PRISM was handed    33201662 working-precision words and 13627 shell-pairs
 PRISM was handed    33201662 working-precision words and 13627 shell-pairs
 PRISM was handed    33201662 working-precision words and 13627 shell-pairs
 PRISM was handed    33201662 working-precision words and 13627 shell-pairs
 PRISM was handed    33201662 working-precision words and 13627 shell-pairs
 PRISM was handed    33201662 working-precision words and 13627 shell-pairs
 PRISM was handed    33201662 working-precision words and 13627 shell-pairs
 PRISM was handed    33201662 working-precision words and 13627 shell-pairs
 IPart=  0 NShTot=         719 NBatch=          82 AvBLen=         8.8
 PRISM was handed    33201662 working-precision words and 13627 shell-pairs
 PRISM was handed    33201662 working-precision words and 13627 shell-pairs
 PRISM was handed    33201662 working-precision words and 13627 shell-pairs
 IPart= 16 NShTot=         661 NBatch=          50 AvBLen=        13.2
 IPart=  1 NShTot=         717 NBatch=          81 AvBLen=         8.9
 IPart= 15 NShTot=         664 NBatch=          52 AvBLen=        12.8
 IPart= 18 NShTot=         656 NBatch=          47 AvBLen=        14.0
 IPart=  5 NShTot=         697 NBatch=          69 AvBLen=        10.1
 IPart= 19 NShTot=         652 NBatch=          47 AvBLen=        13.9
 IPart= 11 NShTot=         672 NBatch=          57 AvBLen=        11.8
 IPart=  8 NShTot=         682 NBatch=          59 AvBLen=        11.6
 IPart=  7 NShTot=         685 NBatch=          61 AvBLen=        11.2
 IPart= 10 NShTot=         674 NBatch=          57 AvBLen=        11.8
 IPart= 13 NShTot=         665 NBatch=          52 AvBLen=        12.8
 IPart=  6 NShTot=         694 NBatch=          66 AvBLen=        10.5
 IPart=  9 NShTot=         679 NBatch=          58 AvBLen=        11.7
 IPart= 14 NShTot=         665 NBatch=          52 AvBLen=        12.8
 IPart= 12 NShTot=         668 NBatch=          53 AvBLen=        12.6
 IPart= 17 NShTot=         661 NBatch=          50 AvBLen=        13.2
 IPart=  2 NShTot=         709 NBatch=          77 AvBLen=         9.2
 IPart=  4 NShTot=         702 NBatch=          72 AvBLen=         9.8
 IPart=  3 NShTot=         705 NBatch=          74 AvBLen=         9.5
 PrSmSu:  NxtVal=            121.
 Entering OneElI...
 Calculate potential energy integrals
    NBasis = 485  MinDer = 2  MaxDer = 2
 Requested accuracy = 0.1000D-12
 PrmmSu-InSpLW:  IPartL=    0 NPrtUS=   20 NPrtUL=    1 DoSpLW=F IThBeg=    0 IThEnd=   19 NThAct=   20.
 PrsmSu:  NPrtUS=  20 ThrOK=T IAlg=1 NPAlg=1 LenDen=           0 ISkipM=0 DoSpLW=F IThBeg=    0 IThEnd=   19.
 Prism:   IPart=     0 DynPar=F LinDyn=F Incr=         141.
 PRISM was handed    33264628 working-precision words and 12273 shell-pairs
 PRISM was handed    33264628 working-precision words and 12273 shell-pairs
 PRISM was handed    33264628 working-precision words and 12273 shell-pairs
 PRISM was handed    33264628 working-precision words and 12273 shell-pairs
 PRISM was handed    33264628 working-precision words and 12273 shell-pairs
 PRISM was handed    33264628 working-precision words and 12273 shell-pairs
 PRISM was handed    33264628 working-precision words and 12273 shell-pairs
 PRISM was handed    33264628 working-precision words and 12273 shell-pairs
 PRISM was handed    33264628 working-precision words and 12273 shell-pairs
 PRISM was handed    33264628 working-precision words and 12273 shell-pairs
 PRISM was handed    33264628 working-precision words and 12273 shell-pairs
 PRISM was handed    33264628 working-precision words and 12273 shell-pairs
 PRISM was handed    33264628 working-precision words and 12273 shell-pairs
 PRISM was handed    33264628 working-precision words and 12273 shell-pairs
 PRISM was handed    33264628 working-precision words and 12273 shell-pairs
 PRISM was handed    33264628 working-precision words and 12273 shell-pairs
 PRISM was handed    33264628 working-precision words and 12273 shell-pairs
 PRISM was handed    33264628 working-precision words and 12273 shell-pairs
 PRISM was handed    33264628 working-precision words and 12273 shell-pairs
 PRISM was handed    33264628 working-precision words and 12273 shell-pairs
 IPart=  7 NShTot=       14145 NBatch=         616 AvBLen=        23.0
 IPart= 15 NShTot=       13731 NBatch=         598 AvBLen=        23.0
 IPart=  4 NShTot=       14536 NBatch=         634 AvBLen=        22.9
 IPart= 10 NShTot=       14030 NBatch=         611 AvBLen=        23.0
 IPart= 17 NShTot=       13570 NBatch=         591 AvBLen=        23.0
 IPart=  8 NShTot=       14122 NBatch=         615 AvBLen=        23.0
 IPart=  5 NShTot=       14490 NBatch=         632 AvBLen=        22.9
 IPart= 19 NShTot=       13547 NBatch=         590 AvBLen=        23.0
 IPart=  6 NShTot=       14352 NBatch=         625 AvBLen=        23.0
 IPart=  3 NShTot=       14628 NBatch=         638 AvBLen=        22.9
 IPart=  9 NShTot=       14099 NBatch=         614 AvBLen=        23.0
 IPart= 11 NShTot=       13938 NBatch=         607 AvBLen=        23.0
 IPart= 16 NShTot=       13662 NBatch=         595 AvBLen=        23.0
 IPart= 12 NShTot=       13846 NBatch=         603 AvBLen=        23.0
 IPart=  0 NShTot=       14858 NBatch=         648 AvBLen=        22.9
 IPart= 13 NShTot=       13823 NBatch=         602 AvBLen=        23.0
 IPart= 18 NShTot=       13570 NBatch=         591 AvBLen=        23.0
 IPart=  1 NShTot=       14812 NBatch=         646 AvBLen=        22.9
 IPart= 14 NShTot=       13777 NBatch=         600 AvBLen=        23.0
 IPart=  2 NShTot=       14743 NBatch=         643 AvBLen=        22.9
 PrSmSu:  NxtVal=           2821.
 Polarizability after L701:
                1             2             3 
      1  0.000000D+00
      2  0.000000D+00  0.000000D+00
      3  0.000000D+00  0.000000D+00  0.000000D+00
 Dipole Derivatives after L701:
                 1             2             3             4             5 
      1  -0.172794D+00  0.258678D+00 -0.335981D+00 -0.226132D+00  0.326038D+00
      2   0.410584D+00 -0.592721D+00  0.910146D-02  0.474479D+00 -0.610439D+00
      3   0.741583D-01  0.181228D-01 -0.825661D+00  0.352186D-01  0.770102D-01
                 6             7             8             9            10 
      1  -0.389522D-01 -0.232916D+00 -0.111521D+01  0.135492D-02 -0.526031D-01
      2  -0.230952D+00 -0.268694D+00 -0.140736D+01  0.151429D+00 -0.249626D+00
      3  -0.736878D+00 -0.190044D+00  0.642172D-01 -0.833367D+00 -0.200460D+00
                11            12            13            14            15 
      1  -0.161628D+01  0.394912D-01 -0.219376D+01 -0.339373D+00  0.417107D+00
      2  -0.902759D+00  0.527937D-01 -0.159881D+00  0.473293D-01 -0.135507D+00
      3  -0.304336D-01 -0.788686D+00  0.497421D-01 -0.149815D+00 -0.797726D+00
                16            17            18            19            20 
      1  -0.232232D+01  0.116913D+01  0.153751D+00 -0.425814D+00  0.127349D+01
      2  -0.121539D+00 -0.820110D+00  0.561530D-02 -0.938488D-01 -0.128439D+01
      3   0.341308D-01 -0.161591D-01 -0.958670D+00 -0.230244D-01  0.368553D-01
                21            22            23            24            25 
      1  -0.394027D+00  0.393342D+00  0.567898D+00  0.546476D+00  0.578075D-01
      2   0.960829D-01  0.147246D+00  0.525816D+00  0.393606D+00 -0.806741D-01
      3  -0.974977D+00  0.845741D-01  0.202953D+00  0.301030D+00  0.347566D-01
                26            27            28            29            30 
      1   0.223947D+00 -0.573631D+00  0.182434D+00 -0.105661D+00  0.262019D+00
      2   0.285904D+00 -0.385376D+00 -0.782446D-02  0.192992D+00 -0.935830D-01
      3  -0.139978D+00  0.489760D+00  0.107581D+00 -0.222805D+00  0.632414D+00
                31            32            33            34            35 
      1   0.266073D+00 -0.340128D-01  0.125419D-01  0.296812D+00 -0.190726D+00
      2  -0.322415D+00  0.553586D+00 -0.616809D-02 -0.348290D+00  0.656637D+00
      3  -0.166579D+00  0.203241D+00  0.188005D+00 -0.980389D-01  0.150112D+00
                36            37            38            39            40 
      1  -0.152635D-01  0.146170D+00 -0.353575D-01  0.579553D-01  0.133493D+00
      2   0.626373D-01  0.100187D-01  0.113902D+00  0.804909D-01 -0.386401D-01
      3   0.167104D+00  0.109718D+00 -0.257927D+00  0.602403D+00  0.202389D-02
                41            42            43            44            45 
      1   0.189983D+00 -0.394192D+00  0.405751D+00  0.433991D+00  0.388496D+00
      2   0.414930D+00 -0.525612D+00  0.256135D+00  0.635235D+00  0.444166D+00
      3  -0.180456D+00  0.517218D+00  0.103047D+00  0.180039D+00  0.288178D+00
                46            47            48            49            50 
      1   0.107696D+01  0.340516D+00  0.665191D+00  0.417309D+00 -0.851609D-02
      2   0.106912D+00  0.206816D+00  0.948718D-01  0.196738D-02  0.154133D+00
      3   0.153947D+00  0.602962D-01  0.229988D+00 -0.127487D+00  0.236690D-02
                51            52            53            54            55 
      1  -0.928823D+00 -0.934414D-01 -0.832469D+00  0.206578D+00  0.550818D+00
      2  -0.259807D-01  0.150933D+00  0.571193D+00 -0.139120D+00 -0.580820D-01
      3   0.604704D+00 -0.428312D-01 -0.107791D+00  0.120569D+00 -0.153808D+00
                56            57            58            59            60 
      1  -0.849871D-01 -0.115277D+01  0.122936D+01  0.376307D+00  0.831471D+00
      2   0.113942D+00  0.835142D-01  0.221140D-01  0.151925D+00  0.547627D-01
      3  -0.911315D-03  0.564088D+00  0.194046D+00  0.994657D-01  0.255442D+00
                61            62            63            64            65 
      1  -0.175868D+00 -0.173158D-01  0.170090D+00 -0.181761D+00 -0.225937D+00
      2   0.319906D+00  0.110728D+00 -0.195381D+00  0.365931D+00  0.394388D+00
      3  -0.330221D+00  0.417798D-01  0.383030D+00  0.138952D+00  0.110625D+00
                66            67            68            69 
      1  -0.407133D+00  0.921079D+00 -0.554131D+00  0.488252D+00
      2   0.524312D+00 -0.516712D+00  0.488324D+00 -0.315702D+00
      3   0.366117D+00  0.210597D+00 -0.140810D+00  0.205915D+00
 Hessian after L701:
                1             2             3             4             5 
      1  0.148923D+02
      2 -0.674306D+00  0.176449D+02
      3 -0.136284D+00 -0.497519D+00  0.186183D+02
      4 -0.531643D+01  0.130114D+01  0.119886D+01  0.150128D+02
      5  0.135612D+01 -0.451901D+01  0.147237D+01 -0.670511D+00  0.175320D+02
      6  0.120635D+01  0.145310D+01 -0.514497D+01 -0.668731D-01 -0.407764D+00
      7  0.290701D+00  0.256080D+00  0.834356D-01 -0.272414D+01  0.968616D+00
      8  0.212162D+00  0.272331D-01  0.814709D-01  0.983863D+00 -0.596051D+01
      9  0.163973D+00  0.125859D+00 -0.530062D-01 -0.121817D+01 -0.342749D+00
     10 -0.308195D+01  0.128178D+01 -0.111580D+01  0.286015D+00  0.248999D+00
     11  0.120192D+01 -0.576429D+01 -0.455533D+00  0.244571D+00  0.311697D-01
     12 -0.112286D+01 -0.456325D+00 -0.584111D+01  0.171936D+00  0.147631D+00
     13  0.274048D+00  0.446311D-01 -0.134691D-01  0.313285D+00 -0.132485D+00
     14  0.731547D-01 -0.170681D+00 -0.420394D-02 -0.157792D+00 -0.720749D-02
     15  0.470721D-01 -0.464430D-02 -0.195561D+00 -0.944564D-01  0.268972D-01
     16  0.372205D+00 -0.229408D+00 -0.475550D-01  0.194492D+00  0.433917D-01
     17 -0.154267D+00 -0.895739D-01  0.333458D-01  0.156887D+00 -0.144223D+00
     18 -0.115149D+00  0.458801D-01 -0.165168D+00  0.300846D-01  0.986889D-02
     19  0.294857D+00 -0.222335D+00  0.879531D-01  0.868127D-01 -0.245602D+00
     20 -0.611476D-01 -0.131649D+00 -0.102587D-01 -0.199178D+00  0.367713D-01
     21  0.146655D+00 -0.550681D-01 -0.165971D+00 -0.502981D-01  0.399856D-01
     22 -0.555568D-01 -0.104237D+00 -0.215485D-01  0.529232D-01  0.107835D+00
     23 -0.999649D-01  0.629569D-01  0.156776D-01  0.123985D+00  0.645612D-01
     24 -0.918704D-02  0.281366D-01  0.135636D+00  0.663371D-01  0.621785D-01
     25  0.366920D-01 -0.682400D-01  0.137114D+00 -0.496521D-02 -0.181460D-01
     26 -0.591887D-01  0.734065D-01  0.720626D-01  0.578475D-02 -0.166213D-01
     27  0.917518D-01  0.336428D-01  0.181597D-01 -0.152855D-01 -0.335174D-02
     28 -0.448172D+01 -0.150818D+00  0.300838D+00  0.118261D+00 -0.486149D-01
     29 -0.138166D+00 -0.412000D+01 -0.856753D+00 -0.471483D-01  0.126745D+00
     30  0.274296D+00 -0.895337D+00 -0.223659D+01 -0.857422D-01 -0.147007D+00
     31 -0.380796D+01 -0.138644D+01 -0.275992D+00  0.229312D+00 -0.104438D+00
     32 -0.159453D+01 -0.310505D+01  0.348393D+00 -0.480397D-01 -0.613027D-01
     33 -0.379704D+00  0.416173D+00 -0.481557D+01 -0.115864D-01 -0.205401D+00
     34  0.133191D+00 -0.826364D-01 -0.252049D-01 -0.373083D+01 -0.113249D+01
     35 -0.571541D-01 -0.395292D-02 -0.123791D+00 -0.122893D+01 -0.290591D+01
     36 -0.169028D-01 -0.113051D+00  0.108278D-01 -0.269168D+00  0.335924D+00
     37  0.100443D+00 -0.448471D-01 -0.135088D+00 -0.469303D+01 -0.135935D+00
     38 -0.618903D-01  0.145897D+00 -0.142453D+00 -0.141053D+00 -0.427492D+01
     39 -0.138791D+00 -0.121294D+00 -0.742573D-01  0.276937D+00 -0.103076D+01
     40 -0.825359D-02 -0.703942D-03 -0.428683D-02  0.170447D-01 -0.613166D-01
     41  0.164682D-01 -0.174717D-03 -0.137717D-01 -0.701062D-01  0.843174D-01
     42 -0.186567D-01 -0.134701D-01  0.784054D-02  0.112659D+00  0.279274D-01
     43  0.662409D-01  0.104892D+00  0.557877D-01 -0.670235D-01 -0.897482D-01
     44  0.124420D+00  0.506893D-01  0.510287D-01 -0.991462D-01  0.679586D-01
     45  0.666304D-01  0.548800D-01 -0.284439D-01 -0.309481D-02  0.292358D-01
     46  0.260036D-01  0.324929D-03 -0.527288D-03  0.140617D+00 -0.195543D-01
     47  0.905980D-02 -0.101582D-01 -0.322447D-03 -0.500292D-02 -0.415878D-01
     48  0.136088D-01  0.414052D-03 -0.107299D-01  0.198891D-01 -0.162714D-03
     49  0.571415D-01  0.632651D-03 -0.233349D-01  0.680786D-01 -0.291470D-01
     50  0.518581D-02 -0.192598D-01 -0.160645D-02 -0.256415D-01 -0.351808D-01
[...]
 0006363,-0.00001611,0.00124720,-0.00069659,0.00194965,-0.00002957,0.00
 002463,0.00007688,0.00015029,-0.00000625,-0.00013610,-0.00043824,0.000
 54351,0.00027454,0.00002604,0.00001599,0.00001813,0.00026858,-0.000020
 18,0.00012747,-0.00109089,0.00026224,0.00256540,0.12195731,0.19230785,
 -0.00062440,0.00101920,0.00138185,0.01695777,0.01955176,0.00762396,-0.
 05635912,-0.06710681,-0.08042205,0.00002941,0.00014604,-0.00010645,-0.
 01521184,-0.01866482,-0.00993402,-0.00002628,0.00000106,0.00004030,-0.
 00203303,0.00364563,-0.00369851,-0.00005525,-0.00008242,-0.00002294,-0
 .00011581,-0.00016044,-0.00003934,-0.00037045,-0.00049579,-0.00008097,
 0.00005650,-0.00007132,-0.00005134,-0.00062328,-0.00028021,0.00120349,
 0.00352975,0.00185581,-0.00354703,0.06208322,0.06934630,0.09139092,-0.
 00056556,-0.00328251,0.00279664,-0.01224371,0.01400778,0.00781277,-0.1
 3301840,0.10798168,0.05197068,-0.00044978,0.00125732,0.00022735,-0.011
 22716,0.01435229,0.00547807,-0.00012730,0.00000227,-0.00003567,0.00038
 450,0.00067201,0.00125466,-0.00025842,-0.00013539,0.00035992,0.0000030
 7,-0.00004493,-0.00005743,0.00008190,0.00020002,0.00008253,0.00023427,
 -0.00008351,-0.00029346,0.00079011,-0.00023511,-0.00025796,0.00014732,
 0.00015072,-0.00066777,0.01203071,-0.01436010,-0.00698715,0.14419590,-
 0.00112333,-0.00072513,0.00164501,-0.00900999,0.00979506,0.00588343,0.
 10875782,-0.18736389,-0.06951343,-0.00037783,0.00057554,0.00037962,0.0
 0801118,-0.01188960,-0.00347866,0.00000540,0.00001196,-0.00005899,-0.0
 0091989,0.00092854,-0.00000931,-0.00013698,-0.00007158,0.00017792,0.00
 004578,0.00001328,-0.00007510,-0.00002094,0.00028213,0.00026668,-0.000
 12183,-0.00001424,-0.00001827,0.00038574,0.00048892,-0.00078967,0.0003
 4696,0.00068552,-0.00058824,0.01305843,-0.01721638,-0.00797808,-0.1201
 2115,0.20360019,0.00207247,0.00399452,-0.00351020,0.01451081,-0.019176
 31,-0.01034089,0.05252566,-0.06912066,-0.07919466,0.00100214,-0.001391
 76,-0.00000091,-0.01638837,0.02066638,0.00721132,0.00010831,-0.0000644
 3,0.00008731,0.00077518,0.00099823,0.00132916,0.00034619,0.00018153,-0
 .00048564,0.00005938,0.00007726,-0.00001357,-0.00034254,0.00031390,0.0
 0016694,0.00018065,0.00003474,0.00015099,-0.00071295,-0.00048117,0.000
 28133,-0.00022538,0.00030543,0.00107908,0.00676371,-0.00841625,-0.0049
 2606,-0.05823984,0.07087840,0.09062007,-0.00053133,0.00024793,-0.00009
 813,-0.00212191,0.00124552,-0.00250326,0.01168149,0.00640394,-0.015197
 96,0.00020747,-0.00012891,0.00002784,-0.15415892,-0.04676996,0.1215744
 8,-0.00005967,0.00002057,0.00002949,-0.01614220,-0.00652123,0.01483325
 ,0.00003207,0.00000400,-0.00004224,-0.00001182,0.00001702,-0.00000164,
 0.00004258,-0.00001977,0.00002065,0.00030897,-0.00022138,0.00006876,0.
 00043025,0.00044569,-0.00076937,0.00001074,0.00016893,-0.00002544,0.00
 068605,-0.00045988,0.00074224,0.00089318,-0.00033055,0.00056205,0.1701
 1485,0.00064725,0.00003012,-0.00011223,0.00275390,-0.00023742,0.001456
 53,-0.00839159,-0.00515493,0.01116218,-0.00028113,0.00010325,-0.000048
 06,-0.04608877,-0.06884747,0.05116692,0.00009012,0.00000249,-0.0000507
 9,-0.01572816,-0.00694714,0.01537712,-0.00003033,-0.00000634,0.0000388
 0,0.00003557,0.00002652,-0.00002483,-0.00000980,0.00000820,0.00010644,
 -0.00039081,0.00006150,-0.00021597,-0.00047853,-0.00025868,0.00077723,
 -0.00000545,0.00015096,-0.00034122,0.00021656,0.00041138,-0.00046649,-
 0.00051482,0.00005467,-0.00029075,0.05260261,0.07381977,-0.00032657,0.
 00041699,0.00041518,-0.00455569,0.00111443,-0.00237909,0.01623160,0.00
 714018,-0.01943001,-0.00014685,-0.00006402,-0.00001871,0.12139110,0.05
 237916,-0.18088774,0.00010196,0.00010090,-0.00007457,-0.01080149,-0.00
 452548,0.01023897,0.00005672,-0.00001679,-0.00005720,-0.00000559,0.000
 04134,-0.00000623,-0.00000619,-0.00008155,-0.00002004,-0.00017939,-0.0
 0003102,0.00005447,0.00084507,0.00072332,-0.00117523,0.00002185,0.0001
 2544,0.00014786,0.00013819,-0.00077909,0.00024932,0.00002862,0.0001672
 6,0.00125194,-0.12775201,-0.05745636,0.19855108,-0.00025221,-0.0000308
 0,0.00041988,0.00002641,-0.00072737,0.00031340,-0.01062755,0.01491223,
 0.00490265,0.00021779,-0.00027235,-0.00001480,-0.10774154,0.10355456,0
 .03966204,-0.00005651,0.00001300,0.00004652,0.01091121,-0.02083629,-0.
 00787171,0.00004755,0.00002289,-0.00005789,-0.00003304,-0.00002582,0.0
 0003265,-0.00011069,0.00000601,-0.00028943,-0.00015082,-0.00052376,0.0
 0135808,0.00000483,0.00002113,-0.00000749,0.00004129,-0.00000828,0.000
 01031,0.00016214,-0.00031768,0.00025024,-0.00110481,0.00115974,-0.0035
 5796,-0.01075499,0.01714076,0.00639222,0.12020454,0.00103384,0.0000980
 5,0.00020817,0.00047960,-0.00028959,-0.00076575,0.00661195,-0.01056086
 ,-0.00342915,-0.00066196,0.00021972,-0.00016489,0.10224754,-0.22266717
 ,-0.06464024,0.00021983,0.00004978,-0.00013698,0.00924232,-0.01891144,
 -0.00727286,-0.00002884,-0.00002100,0.00006177,0.00005718,0.00004752,-
 0.00001921,-0.00002522,-0.00014185,0.00015686,-0.00091600,0.00025129,-
 0.00011641,-0.00016695,0.00016307,0.00013925,0.00001763,0.00006043,0.0
 0002898,-0.00012731,0.00079528,0.00027013,0.00120007,0.00026630,0.0021
 2506,-0.00403787,0.00789976,0.00218130,-0.11179141,0.24308629,0.000969
 37,0.00027996,-0.00033679,0.00018997,-0.00018016,0.00112522,-0.0137464
 7,0.02186454,0.00843017,-0.00002793,-0.00003554,-0.00009878,0.03971578
 ,-0.06612285,-0.07279986,-0.00005430,0.00001761,0.00002333,0.00574657,
 -0.01094477,-0.00456071,-0.00001066,0.00000985,0.00000729,-0.00003911,
 -0.00003455,0.00004285,-0.00009186,-0.00028448,-0.00008171,0.00099650,
 0.00059636,-0.00179289,0.00002302,-0.00031098,0.00008076,-0.00001698,0
 .00004950,-0.00011534,0.00066605,-0.00061607,0.00116886,-0.00292280,0.
 00276719,-0.00360348,0.01123891,-0.01954005,-0.00782542,-0.04048085,0.
 07282874,0.08014028,0.00091918,-0.00005859,0.00139303,0.00009189,0.000
 00421,-0.00011327,0.00000649,-0.00005870,-0.00000983,-0.01179354,-0.01
 490825,-0.00620574,0.00002319,-0.00000963,-0.00001033,-0.13511325,-0.1
 1583455,-0.04364120,-0.00001914,0.00000437,0.00001609,-0.00000119,-0.0
 0006333,0.00059311,-0.00131894,0.00180255,-0.00294245,0.00057908,0.000
 40822,-0.00045965,0.00004240,0.00021914,0.00029335,-0.00008459,0.00000
 661,-0.00025035,-0.00008667,0.00007999,-0.00000983,0.00000983,0.000002
 90,-0.00000713,0.00001848,0.00000159,-0.00003098,0.00000501,0.00000564
 ,-0.00001250,-0.00000439,-0.00000182,0.00000584,0.14551804,0.00046804,
 0.00105058,-0.00007244,0.00003068,0.00007374,-0.00017992,-0.00007490,-
 0.00002979,-0.00000109,0.00555944,0.00776493,0.00310798,0.00002614,0.0
 0003389,-0.00001218,-0.11624662,-0.20127105,-0.05917003,0.00000148,-0.
 00000971,0.00001040,-0.00034467,0.00060961,-0.00064346,0.00125684,0.00
 075183,0.00225781,-0.00002810,-0.00003703,-0.00062741,0.00017224,0.000
 13237,-0.00013593,-0.00008206,-0.00021754,-0.00014810,0.00010141,-0.00
 002484,0.00011643,0.00002841,0.00005143,-0.00002430,0.00001297,-0.0000
 0333,-0.00001414,0.00000021,0.00000110,-0.00001676,0.00000156,-0.00001
 321,0.00000677,0.12772886,0.21618898,-0.00063407,-0.00181715,0.0014284
 7,0.00021542,0.00010928,-0.00014861,0.00004862,-0.00002341,-0.00001316
 ,-0.01571871,-0.02086993,-0.00978138,0.00000458,0.00000001,-0.00001057
 ,-0.04330415,-0.05891145,-0.06874121,-0.00002390,-0.00001595,0.0000283
 7,0.00056596,0.00029655,0.00091750,-0.00329843,0.00212602,-0.00391845,
 0.00055312,0.00078688,-0.00016949,0.00015989,0.00022635,0.00045373,0.0
 0005164,-0.00016881,-0.00000553,-0.00003836,0.00013362,0.00023594,0.00
 005082,0.00003800,-0.00003528,0.00000599,0.00001199,0.00000296,0.00000
 255,0.00000698,0.00001270,-0.00000441,0.00001165,-0.00000840,0.0520035
 4,0.06375992,0.07468278,0.00007270,-0.00052418,0.00035073,-0.00038445,
 0.00019079,0.00033052,0.00028673,-0.00023229,0.00002181,-0.01223194,0.
 01459398,0.00428967,-0.00009839,0.00000257,0.00007321,-0.13888271,0.12
 215824,0.03538429,-0.00000052,-0.00000885,0.00000449,-0.00123988,0.000
 72388,-0.00372364,0.00029090,-0.00034919,0.00052317,0.00004252,-0.0000
 1937,-0.00005018,0.00002982,-0.00000586,-0.00001726,0.00027381,-0.0003
 9899,0.00148518,-0.00007027,0.00000478,-0.00016622,-0.00003297,-0.0000
 3203,0.00002484,0.00004285,0.00002099,-0.00005569,0.00002368,-0.000021
 76,0.00002525,0.00000309,-0.00002924,0.00000076,0.01246183,-0.01527473
 ,-0.00448076,0.15091579,0.00060097,-0.00032181,-0.00056429,0.00103300,
 -0.00012018,0.00030503,-0.00057641,0.00017646,-0.00018923,0.00409233,-
 0.00619000,-0.00157357,0.00019736,0.00000265,-0.00010407,0.12225032,-0
 .21118224,-0.04714963,-0.00000059,0.00004427,-0.00001941,0.00059042,0.
 00107466,0.00150874,-0.00023099,0.00079827,0.00039240,0.00002112,0.000
 01811,0.00003760,-0.00016584,0.00014358,0.00014709,-0.00076667,0.00057
 512,-0.00030289,-0.00015800,-0.00015510,-0.00002020,0.00001927,-0.0000
 0974,0.00001900,-0.00001997,-0.00001333,0.00004776,-0.00004511,0.00004
 163,-0.00007067,-0.00002530,0.00003992,-0.00000790,0.01496155,-0.01874
 034,-0.00556722,-0.13600223,0.22621300,0.00023387,-0.00001257,0.001225
 45,0.00061174,-0.00001880,-0.00035374,0.00013353,-0.00007764,-0.000048
 04,-0.01652075,0.02205233,0.00746125,-0.00010012,0.00002065,0.00003791
 ,0.03607912,-0.04839324,-0.06044604,0.00002280,-0.00002162,0.00001274,
 -0.00324911,0.00191738,-0.00428703,0.00076719,-0.00056184,0.00137404,0
 .00005257,0.00002334,-0.00011040,0.00010575,-0.00028647,0.00009817,0.0
 0097732,0.00042208,-0.00212024,-0.00011298,-0.00018645,-0.00008247,-0.
 00004163,-0.00003989,0.00003435,-0.00000934,0.00001296,0.00000248,0.00
 001878,-0.00001703,0.00004750,0.00000729,-0.00000755,-0.00000458,0.005
 64363,-0.00615501,-0.00322774,-0.03795425,0.05161704,0.06615338,-0.002
 56613,0.00080245,-0.00275617,-0.00053617,0.00033553,-0.00013106,0.0002
 5250,-0.00012648,0.00003449,0.01264013,0.00611654,-0.01654795,-0.00008
 571,0.00003582,0.00003447,-0.14120903,-0.04252530,0.12304895,0.0000170
 2,-0.00002439,0.00001145,0.00102198,-0.00020807,0.00075233,0.00057341,
 -0.00044447,0.00077789,0.00000033,0.00022156,-0.00000906,0.00050397,0.
 00049520,-0.00087799,0.00041531,-0.00025823,0.00015518,0.00006294,-0.0
 0001625,0.00005564,-0.00000200,0.00001421,-0.00000637,0.00002826,0.000
 00996,-0.00002911,0.00003250,-0.00003635,0.00002546,0.00002153,-0.0000
 5184,0.00000623,-0.01126747,-0.00334508,0.01383058,-0.01151074,-0.0057
 6947,0.01334911,0.15160534,0.00203762,-0.00015665,0.00150525,0.0006154
 9,-0.00010213,-0.00005368,-0.00026883,0.00009872,-0.00006194,-0.005640
 00,-0.00375361,0.00641253,0.00009429,-0.00000734,-0.00006016,-0.041955
 01,-0.06535218,0.05331508,0.00000214,0.00001720,-0.00000963,-0.0003364
 6,-0.00006847,-0.00011014,0.00029679,0.00023820,-0.00026178,0.00028300
 ,0.00038182,-0.00030019,-0.00025387,0.00006934,0.00079263,-0.00042804,
 0.00006653,-0.00025545,-0.00004680,0.00001014,0.00004248,0.00002666,0.
 00001347,-0.00001163,-0.00002563,-0.00000336,0.00004005,-0.00003086,0.
 00002443,-0.00002007,-0.00000983,0.00004164,-0.00001227,-0.01429199,-0
 .00631654,0.01986423,0.01518813,0.00762490,-0.02029354,0.04476049,0.06
 718986,-0.00481501,0.00064046,-0.00278487,-0.00035290,0.00044397,0.000
 37083,-0.00009197,-0.00006649,-0.00001980,0.01628803,0.00653573,-0.018
 90257,0.00006475,0.00007197,-0.00002444,0.12179478,0.05352687,-0.20388
 620,-0.00000331,0.00000572,0.00001227,0.00008707,0.00020090,0.00127688
 ,0.00014249,-0.00073539,0.00033964,-0.00001283,0.00004557,0.00020509,0
 .00087984,0.00058590,-0.00125816,-0.00008300,-0.00002497,0.00007050,0.
 00000353,-0.00006540,-0.00004437,0.00000249,0.00003152,-0.00000086,0.0
 0006010,-0.00001093,-0.00006155,0.00001936,-0.00002578,-0.00007074,0.0
 0001321,-0.00008925,0.00003095,-0.00625390,-0.00205549,0.00829024,0.00
 394163,0.00149425,-0.00577377,-0.13172596,-0.06053223,0.22224634,-0.00
 013446,-0.00003398,-0.00009989,0.00005580,0.00032243,-0.00000993,0.001
 79575,-0.00047692,0.00037525,0.00002363,0.00006331,0.00001806,0.010881
 80,-0.02020201,-0.00686804,-0.00001629,0.00000134,0.00001142,-0.103312
 84,0.10423620,0.03204717,-0.00000839,-0.00001376,0.00000059,-0.0000055
 7,0.00002208,-0.00002765,0.00011032,-0.00002923,0.00008338,0.00000166,
 -0.00017104,-0.00005231,0.00003324,-0.00001310,-0.00000118,-0.00011756
 ,-0.00002410,0.00003573,0.00007962,0.00004470,0.00038311,-0.00022403,0
 .00053910,0.00042343,0.00088217,0.00062189,0.00056611,-0.00262805,-0.0
 0344480,-0.00231027,0.00000473,-0.00000398,0.00000170,0.00001190,-0.00
 000184,0.00000239,-0.00000016,-0.00000507,0.00001289,0.11053758,0.0001
 2737,0.00009154,0.00014907,-0.00013465,0.00021131,-0.00027332,0.000836
 65,0.00105604,0.00113441,-0.00007846,0.00002719,-0.00001346,0.00987568
 ,-0.01984037,-0.00646154,0.00003301,0.00001222,-0.00002097,0.10395852,
 -0.23661774,-0.05717373,-0.00000323,-0.00000301,0.00000499,0.00001370,
 0.00001623,-0.00001398,-0.00000185,0.00000139,0.00009016,-0.00011963,-
 0.00002980,0.00002036,0.00002954,0.00002682,-0.00009002,0.00002309,-0.
 00011200,-0.00032314,-0.00012018,0.00026159,0.00032884,-0.00068801,0.0
 0046858,-0.00066151,0.00004506,0.00027087,0.00055119,-0.00383776,-0.00
 167476,-0.00119595,-0.00000037,-0.00000100,0.00000615,-0.00000621,0.00
 000023,0.00000175,-0.00000272,0.00000462,-0.00001732,-0.11171825,0.259
 21886,0.00013726,-0.00020606,0.00011156,-0.00000322,-0.00029186,-0.000
 02595,0.00111115,-0.00067930,0.00047238,-0.00009967,0.00003917,-0.0000
 0565,0.00576025,-0.01111502,-0.00450070,0.00003722,-0.00001146,-0.0000
 2527,0.03183768,-0.05700424,-0.06497194,-0.00001519,0.00000574,0.00002
 774,0.00002795,-0.00000604,0.00001384,-0.00006883,0.00010623,-0.000063
 38,-0.00016896,0.00015394,0.00012760,0.00001330,0.00013796,0.00002243,
 0.00032252,0.00018658,-0.00015737,-0.00000134,0.00026591,0.00020078,-0
 .00044319,0.00024251,-0.00001392,-0.00019753,0.00057188,0.00030660,-0.
 00213527,-0.00183746,-0.00027172,0.00000024,0.00000367,-0.00000006,-0.
 00001424,0.00001672,-0.00001238,-0.00001241,0.00001177,-0.00001140,-0.
 03331934,0.06547147,0.06646500,0.00032050,0.00009951,-0.00012981,-0.00
 040867,-0.00047161,-0.00019768,0.00012397,-0.00010024,0.00116921,0.000
 09796,0.00003121,-0.00006877,-0.01585284,-0.00455882,0.01450601,-0.000
 03334,-0.00002733,0.00002338,-0.18365970,-0.04056762,0.12633520,-0.000
 01340,0.00001949,0.00003227,0.00002037,-0.00002162,-0.00008509,0.00002
 571,0.00009410,0.00018984,0.00001655,-0.00023794,-0.00019929,0.0003341
 0,0.00032968,0.00014620,0.00005148,0.00085596,-0.00066603,0.00021631,0
 .00006744,-0.00022889,0.00003032,-0.00005269,-0.00005423,-0.00187388,-
 0.00286370,-0.00252765,0.00105968,0.00030659,-0.00017917,0.00000814,0.
 00000992,-0.00000162,-0.00000331,0.00000857,-0.00002045,-0.00000531,-0
 .00000983,0.00003320,-0.01095463,-0.00345612,0.00952558,0.19922812,-0.
 00039378,0.00025599,-0.00036259,0.00008501,0.00050480,0.00006772,0.000
 85344,0.00019857,0.00023892,0.00022601,0.00003973,0.00002693,-0.016440
 01,-0.00604368,0.01574327,-0.00007835,-0.00002663,0.00004457,-0.040446
 98,-0.05905506,0.03801528,0.00000167,-0.00002048,-0.00003767,-0.000047
 49,-0.00001371,-0.00002283,0.00015296,-0.00007734,0.00015121,0.0001249
 2,-0.00052056,-0.00025136,0.00014964,-0.00002607,-0.00008023,0.0004953
 3,-0.00003241,0.00055099,0.00002288,-0.00001192,0.00005225,-0.00000600
 ,0.00002441,-0.00004509,-0.00331869,-0.00244780,-0.00241091,0.00065385
 ,0.00062730,0.00064270,-0.00000118,0.00000071,-0.00000731,0.00002407,-
 0.00001797,0.00000985,0.00001742,-0.00001919,0.00003401,0.01985216,0.0
 0695228,-0.01918471,0.04769206,0.06327924,-0.00036066,0.00013373,-0.00
 028282,-0.00029744,0.00084241,-0.00102872,0.00018762,0.00049122,0.0005
 8015,0.00003698,-0.00000771,0.00000737,-0.00997995,-0.00226095,0.01045
 522,-0.00003742,0.00000920,0.00002848,0.12742099,0.03798017,-0.1643345
 6,-0.00000691,0.00002211,0.00003622,0.00005664,0.00004590,0.00004727,0
 .00005346,0.00001722,0.00016149,0.00022233,-0.00044717,0.00019313,-0.0
 0004523,-0.00019164,0.00008657,-0.00111959,0.00006940,-0.00153206,0.00
 028282,-0.00003369,0.00008532,-0.00006938,-0.00002557,-0.00006552,-0.0
 0255978,-0.00198331,-0.00023632,0.00067320,0.00061130,0.00061534,0.000
 00722,-0.00000497,0.00000083,0.00000315,0.00000323,-0.00000158,0.00000
 338,-0.00000607,0.00002598,0.00443827,0.00177142,-0.00586960,-0.138089
 45,-0.04143175,0.17831596,0.00000722,0.00009731,-0.00010892,-0.0001934
 1,-0.00067207,0.00054216,-0.00226996,-0.00469610,-0.00094546,0.0000358
 8,-0.00006804,-0.00001181,-0.01042557,0.00991754,-0.01740982,0.0000017
 8,0.00001364,0.00000078,-0.09646543,0.04585942,-0.09413966,0.00002120,
 0.00000839,-0.00001828,0.00002089,0.00002650,-0.00002689,0.00000926,0.
 00004229,0.00005520,0.00003774,-0.00010291,0.00000732,0.00016687,0.000
 19370,0.00001877,0.00020163,0.00042687,0.00019620,-0.00073884,0.000400
 89,-0.00140809,0.00033830,-0.00012752,0.00030707,0.00030372,0.00072689
 ,0.00048978,0.00076454,-0.00013330,0.00032142,0.00000091,0.00000194,0.
 00001001,-0.00000045,-0.00001248,0.00000356,0.00000751,-0.00000240,-0.
 00000452,-0.00701621,0.00522482,-0.01229396,0.01127189,-0.00961892,0.0
 1917974,0.10392053,0.00007053,0.00008830,0.00000754,-0.00027873,-0.000
 50113,0.00026441,-0.00254827,-0.00337880,-0.00103951,0.00001786,-0.000
 02435,-0.00002009,-0.01036097,0.00959939,-0.01979081,-0.00000172,-0.00
 000208,-0.00000231,0.04652933,-0.08799117,0.08611237,0.00000338,0.0000
 0893,0.00000024,0.00001841,0.00000514,-0.00000882,-0.00005481,0.000061
 44,0.00004215,0.00000200,-0.00001538,0.00001863,0.00012819,0.00014850,
 0.00002649,0.00029670,0.00029951,-0.00003058,-0.00088667,0.00051270,-0
 .00089371,-0.00032001,0.00010575,-0.00000121,0.00068273,0.00099313,0.0
 0053120,0.00092091,0.00063352,0.00022233,0.00000279,0.00000523,0.00000
 359,-0.00000251,-0.00000208,-0.00000576,-0.00000053,-0.00000139,0.0000
 0637,0.01043485,-0.01034107,0.02312261,0.00285298,-0.00357021,0.004395
 52,-0.04750645,0.09336613,-0.00010387,0.00007163,0.00005422,-0.0000203
 9,0.00011639,0.00038341,-0.00092796,-0.00250767,0.00021571,-0.00001540
 ,-0.00003436,0.00003897,-0.00376956,0.00501060,-0.00921746,0.00002475,
 0.00001478,-0.00001901,-0.09474885,0.08542200,-0.22628498,0.00003046,-
 0.00001947,-0.00005578,-0.00002276,0.00000610,0.00001829,-0.00002784,-
 0.00003504,-0.00004010,-0.00004818,0.00010502,0.00002668,-0.00010686,-
 0.00011212,-0.00007866,-0.00004533,-0.00033127,0.00005631,-0.00048934,
 0.00042035,-0.00051430,-0.00009336,0.00011326,0.00003283,0.00000902,-0
 .00009119,0.00090567,0.00033814,-0.00014345,-0.00016535,-0.00000888,-0
 .00000175,0.00000636,0.00000354,-0.00001979,0.00002075,0.00001092,0.00
 000476,-0.00002999,0.00428910,-0.00328489,0.00818138,-0.00951275,0.008
 25675,-0.01728814,0.10523539,-0.09296066,0.24375320\\0.00000050,0.0000
 0017,-0.00000002,-0.00000051,-0.00000058,0.00000005,-0.00000004,-0.000
 00077,0.00000021,0.00000038,0.00000047,0.00000028,0.00000069,-0.000000
 01,0.00000031,-0.00000111,-0.00000038,-0.00000080,-0.00000005,0.000001
 26,0.00000005,0.00000037,0.00000105,0.00000006,-0.00000091,0.00000093,
 -0.00000016,0.00000124,-0.00000056,0.00000043,0.00000081,0.00000089,0.
 00000043,-0.00000079,-0.00000143,-0.00000013,-0.00000114,0.00000007,-0
 .00000056,0.00000089,-0.00000162,0.00000038,-0.00000045,-0.00000149,-0
 .00000013,0.00000139,-0.00000020,0.00000043,0.00000168,0.00000043,0.00
 000044,0.00000003,-0.00000124,0.00000020,-0.00000148,-0.00000106,-0.00
 000052,-0.00000110,-0.00000041,-0.00000022,-0.00000071,0.00000085,-0.0
 0000040,-0.00000021,0.00000172,-0.00000031,0.00000054,0.00000192,-0.00
 000003\\\@


 GARLIC THEN HAVE POWER TO SAVE FROM DEATH
 BEAR WITH IT THOUGH IT MAKETH UNSAVORY BREATH,
 AND SCORN NOT GARLIC LIKE SOME THAT THINK
 IT ONLY MAKETH MEN WINK AND DRINK AND STINK.
   --  SIR JOHN HARRINGTON,
       "THE ENGLISHMAN'S DOCTOR", 1609
 Job cpu time:       0 days  5 hours 23 minutes 49.0 seconds.
 Elapsed time:       0 days  2 hours 41 minutes 54.9 seconds.
 File lengths (MBytes):  RWF=   1488 Int=      0 D2E=      0 Chk=     32 Scr=     32
 Normal termination of Gaussian 16 at Sun Sep 29 14:30:00 2019.
