 Entering Gaussian System, Link 0=g16
 Input=loose/species/CCCCCCC/conformers/CCCCCCC_808.com
 Output=loose/species/CCCCCCC/conformers/CCCCCCC_808.log
 Initial command:
 /shared/centos7/gaussian/g16/l1.exe "/scratch/harms.n/gauss_scrdir/Gau-16870.inp" -scrdir="/scratch/harms.n/gauss_scrdir/"
 Entering Link 1 = /shared/centos7/gaussian/g16/l1.exe PID=     16871.
  
 Copyright (c) 1988,1990,1992,1993,1995,1998,2003,2009,2016,
            Gaussian, Inc.  All Rights Reserved.
  
 This is part of the Gaussian(R) 16 program.  It is based on
 the Gaussian(R) 09 system (copyright 2009, Gaussian, Inc.),
 the Gaussian(R) 03 system (copyright 2003, Gaussian, Inc.),
 the Gaussian(R) 98 system (copyright 1998, Gaussian, Inc.),
 the Gaussian(R) 94 system (copyright 1995, Gaussian, Inc.),
 the Gaussian 92(TM) system (copyright 1992, Gaussian, Inc.),
 the Gaussian 90(TM) system (copyright 1990, Gaussian, Inc.),
 the Gaussian 88(TM) system (copyright 1988, Gaussian, Inc.),
 the Gaussian 86(TM) system (copyright 1986, Carnegie Mellon
 University), and the Gaussian 82(TM) system (copyright 1983,
 Carnegie Mellon University). Gaussian is a federally registered
 trademark of Gaussian, Inc.
  
 This software contains proprietary and confidential information,
 including trade secrets, belonging to Gaussian, Inc.
  
 This software is provided under written license and may be
 used, copied, transmitted, or stored only in accord with that
 written license.
  
 The following legend is applicable only to US Government
 contracts under FAR:
  
                    RESTRICTED RIGHTS LEGEND
  
 Use, reproduction and disclosure by the US Government is
 subject to restrictions as set forth in subparagraphs (a)
 and (c) of the Commercial Computer Software - Restricted
 Rights clause in FAR 52.227-19.
  
 Gaussian, Inc.
 340 Quinnipiac St., Bldg. 40, Wallingford CT 06492
  
  
 ---------------------------------------------------------------
 Warning -- This program may not be used in any manner that
 competes with the business of Gaussian, Inc. or will provide
 assistance to any competitor of Gaussian, Inc.  The licensee
 of this program is prohibited from giving any competitor of
 Gaussian, Inc. access to this program.  By using this program,
 the user acknowledges that Gaussian, Inc. is engaged in the
 business of creating and licensing software in the field of
 computational chemistry and represents and warrants to the
 licensee that it is not a competitor of Gaussian, Inc. and that
 it will not use this program in any manner prohibited above.
 ---------------------------------------------------------------
  

 Cite this work as:
 Gaussian 16, Revision A.03,
 M. J. Frisch, G. W. Trucks, H. B. Schlegel, G. E. Scuseria, 
 M. A. Robb, J. R. Cheeseman, G. Scalmani, V. Barone, 
 G. A. Petersson, H. Nakatsuji, X. Li, M. Caricato, A. V. Marenich, 
 J. Bloino, B. G. Janesko, R. Gomperts, B. Mennucci, H. P. Hratchian, 
 J. V. Ortiz, A. F. Izmaylov, J. L. Sonnenberg, D. Williams-Young, 
 F. Ding, F. Lipparini, F. Egidi, J. Goings, B. Peng, A. Petrone, 
 T. Henderson, D. Ranasinghe, V. G. Zakrzewski, J. Gao, N. Rega, 
 G. Zheng, W. Liang, M. Hada, M. Ehara, K. Toyota, R. Fukuda, 
 J. Hasegawa, M. Ishida, T. Nakajima, Y. Honda, O. Kitao, H. Nakai, 
 T. Vreven, K. Throssell, J. A. Montgomery, Jr., J. E. Peralta, 
 F. Ogliaro, M. J. Bearpark, J. J. Heyd, E. N. Brothers, K. N. Kudin, 
 V. N. Staroverov, T. A. Keith, R. Kobayashi, J. Normand, 
 K. Raghavachari, A. P. Rendell, J. C. Burant, S. S. Iyengar, 
 J. Tomasi, M. Cossi, J. M. Millam, M. Klene, C. Adamo, R. Cammi, 
 J. W. Ochterski, R. L. Martin, K. Morokuma, O. Farkas, 
 J. B. Foresman, and D. J. Fox, Gaussian, Inc., Wallingford CT, 2016.
 
 ******************************************
 Gaussian 16:  EM64L-G16RevA.03 25-Dec-2016
                29-Sep-2019 
 ******************************************
 %nprocshared=20
 Will use up to   20 processors via shared memory.
 %mem=5GB
 ----------------------------------------------------------------------
 #p m062x/cc-pVTZ opt=(calcfc,maxcycles=900,Tight) freq IOP(7/33=1,2/16
 =3) scf=(maxcycle=900)
 ----------------------------------------------------------------------
 1/6=900,7=10,10=4,18=20,19=15,26=3,38=1/1,3;
 2/9=110,12=2,16=3,17=6,18=5,40=1/2;
 3/5=16,6=1,11=2,25=1,30=1,71=2,74=-55,140=1/1,2,3;
 4//1;
 5/5=2,7=900,38=5/2;
 8/6=4,10=90,11=11/1;
 11/6=1,8=1,9=11,15=111,16=1/1,2,10;
 10/6=1,13=1/2;
 6/7=2,8=2,9=2,10=2,28=1/1;
 7/10=1,18=20,25=1,33=1/1,2,3,16;
 1/6=900,7=10,10=4,18=20,19=15,26=3/3(2);
 2/9=110,16=3/2;
 99//99;
 2/9=110,16=3/2;
 3/5=16,6=1,11=2,25=1,30=1,71=1,74=-55/1,2,3;
 4/5=5,16=3,69=1/1;
 5/5=2,7=900,38=5/2;
 7/33=1/1,2,3,16;
 1/6=900,7=10,18=20,19=15,26=3/3(-5);
 2/9=110,16=3/2;
 6/7=2,8=2,9=2,10=2,19=2,28=1/1;
 99/9=1/99;
 Leave Link    1 at Sun Sep 29 04:48:01 2019, MaxMem=   671088640 cpu:               4.2 elap:               2.1
 (Enter /shared/centos7/gaussian/g16/l101.exe)
 ------------------------------
 Gaussian input prepared by ASE
 ------------------------------
 Symbolic Z-matrix:
 Charge =  0 Multiplicity = 1
 C                     1.40118  -1.18022   0.45867 
 C                     0.17619  -0.44256   0.87968 
 C                    -1.12127  -1.20389   0.77038 
 C                     2.19169  -0.49932  -0.60739 
 C                    -1.85029  -1.45909   2.0685 
 C                     1.48383  -0.30963  -1.88509 
 C                    -1.2003   -0.89801   3.30649 
 H                     3.13923  -1.08328  -0.78143 
 H                     2.53047   0.48641  -0.20823 
 H                     1.14065  -2.2024    0.11105 
 H                     2.06547  -1.32239   1.33568 
 H                     0.0935    0.49816   0.31321 
 H                     0.30238  -0.12492   1.9363 
 H                    -0.934    -2.17572   0.28295 
 H                    -1.80862  -0.66298   0.08766 
 H                    -2.89798  -1.06715   1.98947 
 H                    -1.96112  -2.5484    2.20411 
 H                     0.45377  -0.712    -1.8541 
 H                     1.40611   0.7855   -2.15376 
 H                     2.00586  -0.798    -2.73508 
 H                    -0.78719   0.09616   3.13173 
 H                    -0.35778  -1.55817   3.65319 
 H                    -1.94004  -0.84029   4.15581 
 
 ITRead=  0  0  0  0  0  0  0  0  0  0  0  0  0  0  0  0  0  0  0  0
 ITRead=  0  0  0
 MicOpt= -1 -1 -1 -1 -1 -1 -1 -1 -1 -1 -1 -1 -1 -1 -1 -1 -1 -1 -1 -1
 MicOpt= -1 -1 -1
 NAtoms=     23 NQM=       23 NQMF=       0 NMMI=      0 NMMIF=      0
                NMic=       0 NMicF=      0.
                    Isotopes and Nuclear Properties:
 (Nuclear quadrupole moments (NQMom) in fm**2, nuclear magnetic moments (NMagM)
  in nuclear magnetons)

  Atom         1           2           3           4           5           6           7           8           9          10
 IAtWgt=          12          12          12          12          12          12          12           1           1           1
 AtmWgt=  12.0000000  12.0000000  12.0000000  12.0000000  12.0000000  12.0000000  12.0000000   1.0078250   1.0078250   1.0078250
 NucSpn=           0           0           0           0           0           0           0           1           1           1
 AtZEff=  -0.0000000  -0.0000000  -0.0000000  -0.0000000  -0.0000000  -0.0000000  -0.0000000  -0.0000000  -0.0000000  -0.0000000
 NQMom=    0.0000000   0.0000000   0.0000000   0.0000000   0.0000000   0.0000000   0.0000000   0.0000000   0.0000000   0.0000000
 NMagM=    0.0000000   0.0000000   0.0000000   0.0000000   0.0000000   0.0000000   0.0000000   2.7928460   2.7928460   2.7928460
 AtZNuc=   6.0000000   6.0000000   6.0000000   6.0000000   6.0000000   6.0000000   6.0000000   1.0000000   1.0000000   1.0000000

  Atom        11          12          13          14          15          16          17          18          19          20
 IAtWgt=           1           1           1           1           1           1           1           1           1           1
 AtmWgt=   1.0078250   1.0078250   1.0078250   1.0078250   1.0078250   1.0078250   1.0078250   1.0078250   1.0078250   1.0078250
 NucSpn=           1           1           1           1           1           1           1           1           1           1
 AtZEff=  -0.0000000  -0.0000000  -0.0000000  -0.0000000  -0.0000000  -0.0000000  -0.0000000  -0.0000000  -0.0000000  -0.0000000
 NQMom=    0.0000000   0.0000000   0.0000000   0.0000000   0.0000000   0.0000000   0.0000000   0.0000000   0.0000000   0.0000000
 NMagM=    2.7928460   2.7928460   2.7928460   2.7928460   2.7928460   2.7928460   2.7928460   2.7928460   2.7928460   2.7928460
 AtZNuc=   1.0000000   1.0000000   1.0000000   1.0000000   1.0000000   1.0000000   1.0000000   1.0000000   1.0000000   1.0000000

  Atom        21          22          23
 IAtWgt=           1           1           1
 AtmWgt=   1.0078250   1.0078250   1.0078250
 NucSpn=           1           1           1
 AtZEff=  -0.0000000  -0.0000000  -0.0000000
 NQMom=    0.0000000   0.0000000   0.0000000
 NMagM=    2.7928460   2.7928460   2.7928460
 AtZNuc=   1.0000000   1.0000000   1.0000000
 Leave Link  101 at Sun Sep 29 04:48:02 2019, MaxMem=   671088640 cpu:               2.7 elap:               1.4
 (Enter /shared/centos7/gaussian/g16/l103.exe)

 GradGradGradGradGradGradGradGradGradGradGradGradGradGradGradGradGradGrad
 Berny optimization.
 Initialization pass.
                           ----------------------------
                           !    Initial Parameters    !
                           ! (Angstroms and Degrees)  !
 --------------------------                            --------------------------
 ! Name  Definition              Value          Derivative Info.                !
 --------------------------------------------------------------------------------
 ! R1    R(1,2)                  1.4906         calculate D2E/DX2 analytically  !
 ! R2    R(1,4)                  1.4917         calculate D2E/DX2 analytically  !
 ! R3    R(1,10)                 1.1107         calculate D2E/DX2 analytically  !
 ! R4    R(1,11)                 1.1093         calculate D2E/DX2 analytically  !
 ! R5    R(2,3)                  1.5083         calculate D2E/DX2 analytically  !
 ! R6    R(2,12)                 1.1012         calculate D2E/DX2 analytically  !
 ! R7    R(2,13)                 1.1105         calculate D2E/DX2 analytically  !
 ! R8    R(3,5)                  1.5105         calculate D2E/DX2 analytically  !
 ! R9    R(3,14)                 1.1032         calculate D2E/DX2 analytically  !
 ! R10   R(3,15)                 1.1096         calculate D2E/DX2 analytically  !
 ! R11   R(4,6)                  1.473          calculate D2E/DX2 analytically  !
 ! R12   R(4,8)                  1.1266         calculate D2E/DX2 analytically  !
 ! R13   R(4,9)                  1.1161         calculate D2E/DX2 analytically  !
 ! R14   R(5,7)                  1.5066         calculate D2E/DX2 analytically  !
 ! R15   R(5,16)                 1.1214         calculate D2E/DX2 analytically  !
 ! R16   R(5,17)                 1.1033         calculate D2E/DX2 analytically  !
 ! R17   R(6,18)                 1.1063         calculate D2E/DX2 analytically  !
 ! R18   R(6,19)                 1.1303         calculate D2E/DX2 analytically  !
 ! R19   R(6,20)                 1.1106         calculate D2E/DX2 analytically  !
 ! R20   R(7,21)                 1.0907         calculate D2E/DX2 analytically  !
 ! R21   R(7,22)                 1.1251         calculate D2E/DX2 analytically  !
 ! R22   R(7,23)                 1.1278         calculate D2E/DX2 analytically  !
 ! A1    A(2,1,4)              114.2975         calculate D2E/DX2 analytically  !
 ! A2    A(2,1,10)             110.5532         calculate D2E/DX2 analytically  !
 ! A3    A(2,1,11)             109.405          calculate D2E/DX2 analytically  !
 ! A4    A(4,1,10)             108.707          calculate D2E/DX2 analytically  !
 ! A5    A(4,1,11)             107.8276         calculate D2E/DX2 analytically  !
 ! A6    A(10,1,11)            105.6614         calculate D2E/DX2 analytically  !
 ! A7    A(1,2,3)              115.8911         calculate D2E/DX2 analytically  !
 ! A8    A(1,2,12)             109.8261         calculate D2E/DX2 analytically  !
 ! A9    A(1,2,13)             108.4754         calculate D2E/DX2 analytically  !
 ! A10   A(3,2,12)             109.2273         calculate D2E/DX2 analytically  !
 ! A11   A(3,2,13)             108.1234         calculate D2E/DX2 analytically  !
 ! A12   A(12,2,13)            104.6921         calculate D2E/DX2 analytically  !
 ! A13   A(2,3,5)              115.9869         calculate D2E/DX2 analytically  !
 ! A14   A(2,3,14)             109.3073         calculate D2E/DX2 analytically  !
 ! A15   A(2,3,15)             109.3536         calculate D2E/DX2 analytically  !
 ! A16   A(5,3,14)             108.2278         calculate D2E/DX2 analytically  !
 ! A17   A(5,3,15)             108.1897         calculate D2E/DX2 analytically  !
 ! A18   A(14,3,15)            105.2323         calculate D2E/DX2 analytically  !
 ! A19   A(1,4,6)              115.0907         calculate D2E/DX2 analytically  !
 ! A20   A(1,4,8)              108.6353         calculate D2E/DX2 analytically  !
 ! A21   A(1,4,9)              107.9634         calculate D2E/DX2 analytically  !
 ! A22   A(6,4,8)              109.6911         calculate D2E/DX2 analytically  !
 ! A23   A(6,4,9)              110.0203         calculate D2E/DX2 analytically  !
 ! A24   A(8,4,9)              104.9363         calculate D2E/DX2 analytically  !
 ! A25   A(3,5,7)              115.7863         calculate D2E/DX2 analytically  !
 ! A26   A(3,5,16)             109.3475         calculate D2E/DX2 analytically  !
 ! A27   A(3,5,17)             108.7186         calculate D2E/DX2 analytically  !
 ! A28   A(7,5,16)             109.3178         calculate D2E/DX2 analytically  !
 ! A29   A(7,5,17)             108.0609         calculate D2E/DX2 analytically  !
 ! A30   A(16,5,17)            105.0636         calculate D2E/DX2 analytically  !
 ! A31   A(4,6,18)             112.1057         calculate D2E/DX2 analytically  !
 ! A32   A(4,6,19)             111.3467         calculate D2E/DX2 analytically  !
 ! A33   A(4,6,20)             112.4181         calculate D2E/DX2 analytically  !
 ! A34   A(18,6,19)            107.1596         calculate D2E/DX2 analytically  !
 ! A35   A(18,6,20)            107.4066         calculate D2E/DX2 analytically  !
 ! A36   A(19,6,20)            106.0487         calculate D2E/DX2 analytically  !
 ! A37   A(5,7,21)             111.7901         calculate D2E/DX2 analytically  !
 ! A38   A(5,7,22)             110.9624         calculate D2E/DX2 analytically  !
 ! A39   A(5,7,23)             110.7868         calculate D2E/DX2 analytically  !
 ! A40   A(21,7,22)            107.4923         calculate D2E/DX2 analytically  !
 ! A41   A(21,7,23)            108.812          calculate D2E/DX2 analytically  !
 ! A42   A(22,7,23)            106.8068         calculate D2E/DX2 analytically  !
 ! D1    D(4,1,2,3)            123.6904         calculate D2E/DX2 analytically  !
 ! D2    D(4,1,2,12)            -0.651          calculate D2E/DX2 analytically  !
 ! D3    D(4,1,2,13)          -114.5244         calculate D2E/DX2 analytically  !
 ! D4    D(10,1,2,3)             0.6592         calculate D2E/DX2 analytically  !
 ! D5    D(10,1,2,12)         -123.6822         calculate D2E/DX2 analytically  !
 ! D6    D(10,1,2,13)          122.4443         calculate D2E/DX2 analytically  !
 ! D7    D(11,1,2,3)          -115.3008         calculate D2E/DX2 analytically  !
 ! D8    D(11,1,2,12)          120.3578         calculate D2E/DX2 analytically  !
 ! D9    D(11,1,2,13)            6.4844         calculate D2E/DX2 analytically  !
 ! D10   D(2,1,4,6)            -61.9498         calculate D2E/DX2 analytically  !
 ! D11   D(2,1,4,8)            174.6459         calculate D2E/DX2 analytically  !
 ! D12   D(2,1,4,9)             61.3626         calculate D2E/DX2 analytically  !
 ! D13   D(10,1,4,6)            62.0753         calculate D2E/DX2 analytically  !
 ! D14   D(10,1,4,8)           -61.329          calculate D2E/DX2 analytically  !
 ! D15   D(10,1,4,9)          -174.6123         calculate D2E/DX2 analytically  !
 ! D16   D(11,1,4,6)           176.1723         calculate D2E/DX2 analytically  !
 ! D17   D(11,1,4,8)            52.768          calculate D2E/DX2 analytically  !
 ! D18   D(11,1,4,9)           -60.5152         calculate D2E/DX2 analytically  !
 ! D19   D(1,2,3,5)            116.7833         calculate D2E/DX2 analytically  !
 ! D20   D(1,2,3,14)            -5.8655         calculate D2E/DX2 analytically  !
 ! D21   D(1,2,3,15)          -120.5814         calculate D2E/DX2 analytically  !
 ! D22   D(12,2,3,5)          -118.5663         calculate D2E/DX2 analytically  !
 ! D23   D(12,2,3,14)          118.7849         calculate D2E/DX2 analytically  !
 ! D24   D(12,2,3,15)            4.069          calculate D2E/DX2 analytically  !
 ! D25   D(13,2,3,5)            -5.1891         calculate D2E/DX2 analytically  !
 ! D26   D(13,2,3,14)         -127.8379         calculate D2E/DX2 analytically  !
 ! D27   D(13,2,3,15)          117.4463         calculate D2E/DX2 analytically  !
 ! D28   D(2,3,5,7)              1.0728         calculate D2E/DX2 analytically  !
 ! D29   D(2,3,5,16)           125.0606         calculate D2E/DX2 analytically  !
 ! D30   D(2,3,5,17)          -120.7467         calculate D2E/DX2 analytically  !
 ! D31   D(14,3,5,7)           124.2879         calculate D2E/DX2 analytically  !
 ! D32   D(14,3,5,16)         -111.7243         calculate D2E/DX2 analytically  !
 ! D33   D(14,3,5,17)            2.4684         calculate D2E/DX2 analytically  !
 ! D34   D(15,3,5,7)          -122.1732         calculate D2E/DX2 analytically  !
 ! D35   D(15,3,5,16)            1.8147         calculate D2E/DX2 analytically  !
 ! D36   D(15,3,5,17)          116.0073         calculate D2E/DX2 analytically  !
 ! D37   D(1,4,6,18)            -0.0733         calculate D2E/DX2 analytically  !
 ! D38   D(1,4,6,19)           119.9692         calculate D2E/DX2 analytically  !
 ! D39   D(1,4,6,20)          -121.1943         calculate D2E/DX2 analytically  !
 ! D40   D(8,4,6,18)           122.7687         calculate D2E/DX2 analytically  !
 ! D41   D(8,4,6,19)          -117.1889         calculate D2E/DX2 analytically  !
 ! D42   D(8,4,6,20)             1.6477         calculate D2E/DX2 analytically  !
 ! D43   D(9,4,6,18)          -122.2856         calculate D2E/DX2 analytically  !
 ! D44   D(9,4,6,19)            -2.2431         calculate D2E/DX2 analytically  !
 ! D45   D(9,4,6,20)           116.5934         calculate D2E/DX2 analytically  !
 ! D46   D(3,5,7,21)            40.4774         calculate D2E/DX2 analytically  !
 ! D47   D(3,5,7,22)           -79.5097         calculate D2E/DX2 analytically  !
 ! D48   D(3,5,7,23)           162.0251         calculate D2E/DX2 analytically  !
 ! D49   D(16,5,7,21)          -83.5259         calculate D2E/DX2 analytically  !
 ! D50   D(16,5,7,22)          156.487          calculate D2E/DX2 analytically  !
 ! D51   D(16,5,7,23)           38.0218         calculate D2E/DX2 analytically  !
 ! D52   D(17,5,7,21)          162.6469         calculate D2E/DX2 analytically  !
 ! D53   D(17,5,7,22)           42.6598         calculate D2E/DX2 analytically  !
 ! D54   D(17,5,7,23)          -75.8054         calculate D2E/DX2 analytically  !
 --------------------------------------------------------------------------------
 Trust Radius=3.00D-01 FncErr=1.00D-07 GrdErr=1.00D-06 EigMax=2.50D+02 EigMin=1.00D-04
 Number of steps in this run=    138 maximum allowed number of steps=    138.
 GradGradGradGradGradGradGradGradGradGradGradGradGradGradGradGradGradGrad

 Leave Link  103 at Sun Sep 29 04:48:03 2019, MaxMem=   671088640 cpu:               1.5 elap:               0.8
 (Enter /shared/centos7/gaussian/g16/l202.exe)
                          Input orientation:                          
 ---------------------------------------------------------------------
 Center     Atomic      Atomic             Coordinates (Angstroms)
 Number     Number       Type             X           Y           Z
 ---------------------------------------------------------------------
      1          6           0        1.401176   -1.180221    0.458674
      2          6           0        0.176195   -0.442563    0.879681
      3          6           0       -1.121269   -1.203893    0.770384
      4          6           0        2.191690   -0.499320   -0.607387
      5          6           0       -1.850290   -1.459095    2.068499
      6          6           0        1.483828   -0.309632   -1.885095
      7          6           0       -1.200302   -0.898007    3.306490
      8          1           0        3.139234   -1.083276   -0.781430
      9          1           0        2.530467    0.486408   -0.208231
     10          1           0        1.140652   -2.202404    0.111046
     11          1           0        2.065474   -1.322394    1.335680
     12          1           0        0.093496    0.498157    0.313208
     13          1           0        0.302378   -0.124919    1.936296
     14          1           0       -0.933996   -2.175725    0.282945
     15          1           0       -1.808619   -0.662980    0.087663
     16          1           0       -2.897982   -1.067153    1.989474
     17          1           0       -1.961120   -2.548400    2.204113
     18          1           0        0.453770   -0.711997   -1.854100
     19          1           0        1.406112    0.785500   -2.153761
     20          1           0        2.005855   -0.798003   -2.735080
     21          1           0       -0.787190    0.096163    3.131731
     22          1           0       -0.357779   -1.558169    3.653192
     23          1           0       -1.940040   -0.840294    4.155809
 ---------------------------------------------------------------------
                    Distance matrix (angstroms):
                    1          2          3          4          5
     1  C    0.000000
     2  C    1.490625   0.000000
     3  C    2.541742   1.508304   0.000000
     4  C    1.491652   2.505357   3.656552   0.000000
     5  C    3.638865   2.559935   1.510531   4.941572   0.000000
     6  C    2.501602   3.061301   3.825938   1.472952   5.297973
     7  C    3.867478   2.826938   2.555709   5.194516   1.506627
     8  H    2.137313   3.456791   4.535919   1.126559   5.758358
     9  H    2.120781   2.754839   4.141254   1.116134   5.306554
    10  H    1.110665   2.148957   2.558913   2.126340   3.651009
    11  H    1.109344   2.133404   3.238662   2.113975   3.986091
    12  H    2.132636   1.101220   2.140477   2.498974   3.269585
    13  H    2.122353   1.110520   2.133145   3.190611   2.536037
    14  H    2.544590   2.143004   1.103233   3.656903   2.131046
    15  H    3.272304   2.148339   1.109570   4.063539   2.135239
    16  H    4.564963   3.327509   2.159071   5.742028   1.121392
    17  H    4.027841   3.279754   2.137435   5.417481   1.103295
    18  H    2.542782   2.761015   3.100101   2.149394   4.610166
    19  H    3.269389   3.496084   4.346949   2.158511   5.785312
    20  H    3.272888   4.067000   4.715075   2.156577   6.195262
    21  H    3.682843   2.508000   2.716195   4.817606   2.163209
    22  H    3.666293   3.036785   3.003167   5.076759   2.179141
    23  H    4.994805   3.920415   3.501955   6.314704   2.178952
                    6          7          8          9         10
     6  C    0.000000
     7  C    5.873951   0.000000
     8  H    2.134706   5.964646   0.000000
     9  H    2.130964   5.309285   1.778500   0.000000
    10  H    2.772171   4.170418   2.458311   3.043556   0.000000
    11  H    3.425987   3.837902   2.385853   2.423148   1.769023
    12  H    2.723616   3.547242   3.602178   2.492161   2.903521
    13  H    4.004119   2.175579   4.043790   3.152316   2.889669
    14  H    3.745474   3.293221   4.349431   4.396670   2.081929
    15  H    3.854457   3.284225   5.041153   4.498479   3.326947
    16  H    5.897998   2.155286   6.642752   6.059003   4.596504
    17  H    5.796669   2.125529   6.088816   5.933281   3.757877
    18  H    1.106291   5.422384   2.915508   2.908218   2.560257
    19  H    1.130281   6.280282   2.894707   2.266874   3.758642
    20  H    1.110627   6.840323   2.276549   2.882689   3.289582
    21  H    5.521842   1.090678   5.667514   4.723821   4.257291
    22  H    5.968499   1.125104   5.667495   5.237637   3.899633
    23  H    6.963978   1.127778   7.087623   6.386737   5.263660
                   11         12         13         14         15
    11  H    0.000000
    12  H    2.872029   0.000000
    13  H    2.214316   1.751077   0.000000
    14  H    3.291389   2.864664   2.909982   0.000000
    15  H    4.123223   2.239900   2.857142   1.758266   0.000000
    16  H    5.012832   3.769483   3.336605   2.828146   2.228666
    17  H    4.297758   4.132612   3.326922   2.210149   2.838561
    18  H    3.625586   2.508285   3.838578   2.938597   2.981820
    19  H    4.129670   2.809175   4.333089   4.492493   4.178106
    20  H    4.104830   3.824814   5.017632   4.432755   4.747244
    21  H    3.657294   2.980147   1.632514   3.646726   3.299388
    22  H    3.361340   3.948115   2.331897   3.474473   3.952125
    23  H    4.922366   4.548879   3.235187   4.218361   4.074128
                   16         17         18         19         20
    16  H    0.000000
    17  H    1.765749   0.000000
    18  H    5.112087   5.066869   0.000000
    19  H    6.254914   6.437718   1.799792   0.000000
    20  H    6.814798   6.572398   1.786754   1.790281   0.000000
    21  H    2.667114   3.038470   5.201117   5.763869   6.558971
    22  H    3.075984   2.377202   5.630709   6.505751   6.853804
    23  H    2.379521   2.593682   6.470378   7.324657   7.940795
                   21         22         23
    21  H    0.000000
    22  H    1.786933   0.000000
    23  H    1.804092   1.808733   0.000000
 Stoichiometry    C7H16
 Framework group  C1[X(C7H16)]
 Deg. of freedom    63
 Full point group                 C1      NOp   1
 Largest Abelian subgroup         C1      NOp   1
 Largest concise Abelian subgroup C1      NOp   1
                         Standard orientation:                         
 ---------------------------------------------------------------------
 Center     Atomic      Atomic             Coordinates (Angstroms)
 Number     Number       Type             X           Y           Z
 ---------------------------------------------------------------------
      1          6           0       -0.963488   -0.716906    0.537168
      2          6           0        0.053619   -0.165331   -0.402631
      3          6           0        0.927233    0.935790    0.144462
      4          6           0       -2.365565   -0.650180    0.032436
      5          6           0        2.403643    0.628333    0.230417
      6          6           0       -2.874537    0.708798   -0.219979
      7          6           0        2.819753   -0.732133   -0.265476
      8          1           0       -3.038005   -1.177045    0.766857
      9          1           0       -2.424925   -1.259867   -0.900577
     10          1           0       -0.912350   -0.195945    1.516740
     11          1           0       -0.729674   -1.780072    0.750833
     12          1           0       -0.439477    0.186130   -1.322423
     13          1           0        0.711940   -0.995421   -0.735527
     14          1           0        0.573805    1.215545    1.151413
     15          1           0        0.798877    1.848354   -0.473516
     16          1           0        2.979979    1.416468   -0.321126
     17          1           0        2.724152    0.721866    1.281980
     18          1           0       -2.120871    1.485128    0.010624
     19          1           0       -3.170768    0.842727   -1.302497
     20          1           0       -3.782081    0.938935    0.377426
     21          1           0        2.284567   -1.013293   -1.173277
     22          1           0        2.612983   -1.522939    0.507655
     23          1           0        3.927908   -0.760799   -0.472973
 ---------------------------------------------------------------------
 Rotational constants (GHZ):           6.0770160           1.0858245           0.9991192
 Leave Link  202 at Sun Sep 29 04:48:05 2019, MaxMem=   671088640 cpu:               3.9 elap:               1.9
 (Enter /shared/centos7/gaussian/g16/l301.exe)
 Standard basis: CC-pVTZ (5D, 7F)
 Ernie: Thresh=  0.10000D-02 Tol=  0.10000D-05 Strict=F.
 Ernie:  21 primitive shells out of 310 were deleted.
 There are   485 symmetry adapted cartesian basis functions of A   symmetry.
 There are   434 symmetry adapted basis functions of A   symmetry.
   434 basis functions,   636 primitive gaussians,   485 cartesian basis functions
    29 alpha electrons       29 beta electrons
       nuclear repulsion energy       324.2509295342 Hartrees.
 IExCor= 4336 DFT=T Ex+Corr=M062X ExCW=0 ScaHFX=  0.540000
 ScaDFX=  1.000000  1.000000  1.000000  1.000000 ScalE2=  1.000000  1.000000
 IRadAn=      5 IRanWt=     -1 IRanGd=            0 ICorTp=0 IEmpDi=  4
 NAtoms=   23 NActive=   23 NUniq=   23 SFac= 1.00D+00 NAtFMM=   60 NAOKFM=F Big=F
 Integral buffers will be    131072 words long.
 Raffenetti 2 integral format.
 Two-electron integral symmetry is turned on.
 Leave Link  301 at Sun Sep 29 04:48:06 2019, MaxMem=   671088640 cpu:               1.8 elap:               0.9
 (Enter /shared/centos7/gaussian/g16/l302.exe)
 NPDir=0 NMtPBC=     1 NCelOv=     1 NCel=       1 NClECP=     1 NCelD=      1
         NCelK=      1 NCelE2=     1 NClLst=     1 CellRange=     0.0.
 One-electron integrals computed using PRISM.
 One-electron integral symmetry used in STVInt
 NBasis=   434 RedAO= T EigKep=  2.14D-04  NBF=   434
 NBsUse=   434 1.00D-06 EigRej= -1.00D+00 NBFU=   434
 Precomputing XC quadrature grid using
 IXCGrd= 4 IRadAn=           5 IRanWt=          -1 IRanGd=           0 AccXCQ= 0.00D+00.
 Generated NRdTot=       0 NPtTot=           0 NUsed=           0 NTot=          32
 NSgBfM=   485   485   485   485   485 MxSgAt=    23 MxSgA2=    23.
 Leave Link  302 at Sun Sep 29 04:49:25 2019, MaxMem=   671088640 cpu:             157.3 elap:              78.7
 (Enter /shared/centos7/gaussian/g16/l303.exe)
 DipDrv:  MaxL=1.
 Leave Link  303 at Sun Sep 29 04:49:30 2019, MaxMem=   671088640 cpu:              10.4 elap:               5.2
 (Enter /shared/centos7/gaussian/g16/l401.exe)
 ExpMin= 1.03D-01 ExpMax= 8.24D+03 ExpMxC= 2.81D+02 IAcc=3 IRadAn=         5 AccDes= 0.00D+00
 Harris functional with IExCor= 1009 and IRadAn=       5 diagonalized for initial guess.
 HarFok:  IExCor= 1009 AccDes= 0.00D+00 IRadAn=         5 IDoV= 1 UseB2=F ITyADJ=14
 ICtDFT=  3500011 ScaDFX=  1.000000  1.000000  1.000000  1.000000
 FoFCou: FMM=F IPFlag=           0 FMFlag=      100000 FMFlg1=           0
         NFxFlg=           0 DoJE=T BraDBF=F KetDBF=T FulRan=T
         wScrn=  0.000000 ICntrl=       500 IOpCl=  0 I1Cent=   200000004 NGrid=           0
         NMat0=    1 NMatS0=      1 NMatT0=    0 NMatD0=    1 NMtDS0=    0 NMtDT0=    0
 Petite list used in FoFCou.
 Harris En= -276.310206145327    
 JPrj=0 DoOrth=F DoCkMO=F.
 Leave Link  401 at Sun Sep 29 04:50:18 2019, MaxMem=   671088640 cpu:              95.7 elap:              47.9
 (Enter /shared/centos7/gaussian/g16/l502.exe)
 Integral symmetry usage will be decided dynamically.
 Closed shell SCF:
 Using DIIS extrapolation, IDIIS=  1040.
 NGot=   671088640 LenX=   670604095 LenY=   670368385
 Requested convergence on RMS density matrix=1.00D-08 within 900 cycles.
 Requested convergence on MAX density matrix=1.00D-06.
 Requested convergence on             energy=1.00D-06.
 No special actions if energy rises.
 Fock matrices will be formed incrementally for  20 cycles.
 Integral accuracy reduced to 1.0D-05 until final iterations.

 Cycle   1  Pass 0  IDiag  1:
 FoFJK:  IHMeth= 1 ICntrl=       0 DoSepK=F KAlg= 0 I1Cent=           0 FoldK=F
 IRaf= 920000000 NMat=       1 IRICut=       1 DoRegI=T DoRafI=F ISym2E= 0 IDoP0=0 IntGTp=1.
 FoFCou: FMM=F IPFlag=           0 FMFlag=      100000 FMFlg1=           0
         NFxFlg=           0 DoJE=F BraDBF=F KetDBF=F FulRan=T
         wScrn=  0.000000 ICntrl=         0 IOpCl=  0 I1Cent=           0 NGrid=           0
         NMat0=    1 NMatS0=      1 NMatT0=    0 NMatD0=    1 NMtDS0=    0 NMtDT0=    0
 Symmetry not used in FoFCou.
 E= -275.935622091077    
 DIIS: error= 2.12D-02 at cycle   1 NSaved=   1.
 NSaved= 1 IEnMin= 1 EnMin= -275.935622091077     IErMin= 1 ErrMin= 2.12D-02
 ErrMax= 2.12D-02  0.00D+00 EMaxC= 1.00D-01 BMatC= 3.76D-01 BMatP= 3.76D-01
 IDIUse=3 WtCom= 7.88D-01 WtEn= 2.12D-01
 Coeff-Com:  0.100D+01
 Coeff-En:   0.100D+01
 Coeff:      0.100D+01
 Gap=     0.366 Goal=   None    Shift=    0.000
 GapD=    0.366 DampG=1.000 DampE=0.500 DampFc=0.5000 IDamp=-1.
 Damping current iteration by 5.00D-01
 RMSDP=1.94D-03 MaxDP=7.11D-02              OVMax= 1.63D-01

 Cycle   2  Pass 0  IDiag  1:
 RMSU=  9.66D-04    CP:  9.90D-01
 E= -276.114795910632     Delta-E=       -0.179173819555 Rises=F Damp=T
 DIIS: error= 3.83D-03 at cycle   2 NSaved=   2.
 NSaved= 2 IEnMin= 2 EnMin= -276.114795910632     IErMin= 2 ErrMin= 3.83D-03
 ErrMax= 3.83D-03  0.00D+00 EMaxC= 1.00D-01 BMatC= 1.85D-02 BMatP= 3.76D-01
 IDIUse=3 WtCom= 9.62D-01 WtEn= 3.83D-02
 Coeff-Com: -0.512D-01 0.105D+01
 Coeff-En:   0.000D+00 0.100D+01
 Coeff:     -0.493D-01 0.105D+01
 Gap=     0.445 Goal=   None    Shift=    0.000
 RMSDP=5.29D-04 MaxDP=2.74D-02 DE=-1.79D-01 OVMax= 8.86D-02

 Cycle   3  Pass 0  IDiag  1:
 RMSU=  5.20D-04    CP:  9.98D-01  9.17D-01
 E= -276.295043171645     Delta-E=       -0.180247261013 Rises=F Damp=F
 DIIS: error= 2.18D-03 at cycle   3 NSaved=   3.
 NSaved= 3 IEnMin= 3 EnMin= -276.295043171645     IErMin= 3 ErrMin= 2.18D-03
 ErrMax= 2.18D-03  0.00D+00 EMaxC= 1.00D-01 BMatC= 2.35D-03 BMatP= 1.85D-02
 IDIUse=3 WtCom= 9.78D-01 WtEn= 2.18D-02
 Coeff-Com: -0.506D-01 0.226D+00 0.825D+00
 Coeff-En:   0.000D+00 0.000D+00 0.100D+01
 Coeff:     -0.495D-01 0.221D+00 0.829D+00
 Gap=     0.412 Goal=   None    Shift=    0.000
 RMSDP=8.79D-05 MaxDP=2.54D-03 DE=-1.80D-01 OVMax= 8.99D-03

 Cycle   4  Pass 0  IDiag  1:
 RMSU=  6.61D-05    CP:  9.97D-01  9.66D-01  9.37D-01
 E= -276.297166146532     Delta-E=       -0.002122974886 Rises=F Damp=F
 DIIS: error= 5.17D-04 at cycle   4 NSaved=   4.
 NSaved= 4 IEnMin= 4 EnMin= -276.297166146532     IErMin= 4 ErrMin= 5.17D-04
 ErrMax= 5.17D-04  0.00D+00 EMaxC= 1.00D-01 BMatC= 1.71D-04 BMatP= 2.35D-03
 IDIUse=3 WtCom= 9.95D-01 WtEn= 5.17D-03
 Coeff-Com: -0.116D-01 0.312D-01 0.248D+00 0.733D+00
 Coeff-En:   0.000D+00 0.000D+00 0.000D+00 0.100D+01
 Coeff:     -0.116D-01 0.310D-01 0.247D+00 0.734D+00
 Gap=     0.412 Goal=   None    Shift=    0.000
 RMSDP=2.91D-05 MaxDP=1.05D-03 DE=-2.12D-03 OVMax= 2.60D-03

 Cycle   5  Pass 0  IDiag  1:
 RMSU=  1.81D-05    CP:  9.97D-01  9.58D-01  9.69D-01  7.93D-01
 E= -276.297319431267     Delta-E=       -0.000153284735 Rises=F Damp=F
 DIIS: error= 1.60D-04 at cycle   5 NSaved=   5.
 NSaved= 5 IEnMin= 5 EnMin= -276.297319431267     IErMin= 5 ErrMin= 1.60D-04
 ErrMax= 1.60D-04  0.00D+00 EMaxC= 1.00D-01 BMatC= 1.84D-05 BMatP= 1.71D-04
 IDIUse=3 WtCom= 9.98D-01 WtEn= 1.60D-03
 Coeff-Com: -0.150D-02 0.569D-03 0.531D-01 0.295D+00 0.653D+00
 Coeff-En:   0.000D+00 0.000D+00 0.000D+00 0.000D+00 0.100D+01
 Coeff:     -0.150D-02 0.568D-03 0.530D-01 0.294D+00 0.653D+00
 Gap=     0.412 Goal=   None    Shift=    0.000
 RMSDP=6.34D-06 MaxDP=3.22D-04 DE=-1.53D-04 OVMax= 7.92D-04

 Initial convergence to 1.0D-05 achieved.  Increase integral accuracy.
 Cycle   6  Pass 1  IDiag  1:
 E= -276.297317476029     Delta-E=        0.000001955238 Rises=F Damp=F
 DIIS: error= 5.43D-05 at cycle   1 NSaved=   1.
 NSaved= 1 IEnMin= 1 EnMin= -276.297317476029     IErMin= 1 ErrMin= 5.43D-05
 ErrMax= 5.43D-05  0.00D+00 EMaxC= 1.00D-01 BMatC= 1.69D-06 BMatP= 1.69D-06
 IDIUse=1 WtCom= 1.00D+00 WtEn= 0.00D+00
 Coeff-Com:  0.100D+01
 Coeff:      0.100D+01
 Gap=     0.412 Goal=   None    Shift=    0.000
 RMSDP=6.34D-06 MaxDP=3.22D-04 DE= 1.96D-06 OVMax= 2.47D-04

 Cycle   7  Pass 1  IDiag  1:
 RMSU=  1.25D-05    CP:  1.00D+00
 E= -276.297318324761     Delta-E=       -0.000000848732 Rises=F Damp=F
 DIIS: error= 2.34D-05 at cycle   2 NSaved=   2.
 NSaved= 2 IEnMin= 2 EnMin= -276.297318324761     IErMin= 2 ErrMin= 2.34D-05
 ErrMax= 2.34D-05  0.00D+00 EMaxC= 1.00D-01 BMatC= 3.17D-07 BMatP= 1.69D-06
 IDIUse=1 WtCom= 1.00D+00 WtEn= 0.00D+00
 Coeff-Com:  0.234D+00 0.766D+00
 Coeff:      0.234D+00 0.766D+00
 Gap=     0.412 Goal=   None    Shift=    0.000
 RMSDP=1.16D-06 MaxDP=5.73D-05 DE=-8.49D-07 OVMax= 1.30D-04

 Cycle   8  Pass 1  IDiag  1:
 RMSU=  1.15D-06    CP:  1.00D+00  1.01D+00
 E= -276.297318546770     Delta-E=       -0.000000222009 Rises=F Damp=F
 DIIS: error= 1.19D-05 at cycle   3 NSaved=   3.
 NSaved= 3 IEnMin= 3 EnMin= -276.297318546770     IErMin= 3 ErrMin= 1.19D-05
 ErrMax= 1.19D-05  0.00D+00 EMaxC= 1.00D-01 BMatC= 8.71D-08 BMatP= 3.17D-07
 IDIUse=1 WtCom= 1.00D+00 WtEn= 0.00D+00
 Coeff-Com: -0.897D-02 0.337D+00 0.672D+00
 Coeff:     -0.897D-02 0.337D+00 0.672D+00
 Gap=     0.412 Goal=   None    Shift=    0.000
 RMSDP=4.93D-07 MaxDP=2.04D-05 DE=-2.22D-07 OVMax= 5.16D-05

 Cycle   9  Pass 1  IDiag  1:
 RMSU=  3.03D-07    CP:  1.00D+00  1.03D+00  6.97D-01
 E= -276.297318630729     Delta-E=       -0.000000083959 Rises=F Damp=F
 DIIS: error= 1.33D-06 at cycle   4 NSaved=   4.
 NSaved= 4 IEnMin= 4 EnMin= -276.297318630729     IErMin= 4 ErrMin= 1.33D-06
 ErrMax= 1.33D-06  0.00D+00 EMaxC= 1.00D-01 BMatC= 1.00D-09 BMatP= 8.71D-08
 IDIUse=1 WtCom= 1.00D+00 WtEn= 0.00D+00
 Coeff-Com: -0.870D-02 0.665D-01 0.175D+00 0.767D+00
 Coeff:     -0.870D-02 0.665D-01 0.175D+00 0.767D+00
 Gap=     0.412 Goal=   None    Shift=    0.000
 RMSDP=6.78D-08 MaxDP=2.06D-06 DE=-8.40D-08 OVMax= 6.75D-06

 Cycle  10  Pass 1  IDiag  1:
 RMSU=  6.51D-08    CP:  1.00D+00  1.03D+00  7.10D-01  9.77D-01
 E= -276.297318631794     Delta-E=       -0.000000001065 Rises=F Damp=F
 DIIS: error= 3.05D-07 at cycle   5 NSaved=   5.
 NSaved= 5 IEnMin= 5 EnMin= -276.297318631794     IErMin= 5 ErrMin= 3.05D-07
 ErrMax= 3.05D-07  0.00D+00 EMaxC= 1.00D-01 BMatC= 4.91D-11 BMatP= 1.00D-09
 IDIUse=1 WtCom= 1.00D+00 WtEn= 0.00D+00
 Coeff-Com:  0.287D-04-0.231D-01-0.418D-01 0.652D-01 0.100D+01
 Coeff:      0.287D-04-0.231D-01-0.418D-01 0.652D-01 0.100D+01
 Gap=     0.412 Goal=   None    Shift=    0.000
 RMSDP=3.13D-08 MaxDP=8.47D-07 DE=-1.07D-09 OVMax= 2.50D-06

 Cycle  11  Pass 1  IDiag  1:
 RMSU=  1.43D-08    CP:  1.00D+00  1.03D+00  7.10D-01  1.07D+00  1.10D+00
 E= -276.297318631862     Delta-E=       -0.000000000067 Rises=F Damp=F
 DIIS: error= 1.43D-07 at cycle   6 NSaved=   6.
 NSaved= 6 IEnMin= 6 EnMin= -276.297318631862     IErMin= 6 ErrMin= 1.43D-07
 ErrMax= 1.43D-07  0.00D+00 EMaxC= 1.00D-01 BMatC= 1.27D-11 BMatP= 4.91D-11
 IDIUse=1 WtCom= 1.00D+00 WtEn= 0.00D+00
 Coeff-Com:  0.416D-03-0.139D-01-0.278D-01-0.659D-02 0.464D+00 0.584D+00
 Coeff:      0.416D-03-0.139D-01-0.278D-01-0.659D-02 0.464D+00 0.584D+00
 Gap=     0.412 Goal=   None    Shift=    0.000
 RMSDP=5.46D-09 MaxDP=2.43D-07 DE=-6.73D-11 OVMax= 5.92D-07

 SCF Done:  E(RM062X) =  -276.297318632     A.U. after   11 cycles
            NFock= 11  Conv=0.55D-08     -V/T= 2.0064
 KE= 2.745465708220D+02 PE=-1.286995735720D+03 EE= 4.119009167315D+02
 Leave Link  502 at Sun Sep 29 05:06:39 2019, MaxMem=   671088640 cpu:            1962.0 elap:             981.2
 (Enter /shared/centos7/gaussian/g16/l801.exe)
 DoSCS=F DFT=T ScalE2(SS,OS)=  1.000000  1.000000
 Range of M.O.s used for correlation:     1   434
 NBasis=   434 NAE=    29 NBE=    29 NFC=     0 NFV=     0
 NROrb=    434 NOA=    29 NOB=    29 NVA=   405 NVB=   405

 **** Warning!!: The largest alpha MO coefficient is  0.12584952D+02

 Leave Link  801 at Sun Sep 29 05:06:40 2019, MaxMem=   671088640 cpu:               1.7 elap:               0.9
 (Enter /shared/centos7/gaussian/g16/l1101.exe)
 Using compressed storage, NAtomX=    23.
 Will process     24 centers per pass.
 Leave Link 1101 at Sun Sep 29 05:07:26 2019, MaxMem=   671088640 cpu:              91.6 elap:              45.8
 (Enter /shared/centos7/gaussian/g16/l1102.exe)
 Symmetrizing basis deriv contribution to polar:
 IMax=3 JMax=2 DiffMx= 0.00D+00
 Leave Link 1102 at Sun Sep 29 05:07:28 2019, MaxMem=   671088640 cpu:               4.9 elap:               2.5
 (Enter /shared/centos7/gaussian/g16/l1110.exe)
 Forming Gx(P) for the SCF density, NAtomX=    23.
 Integral derivatives from FoFJK, PRISM(SPDF).
 Do as many integral derivatives as possible in FoFJK.
 G2DrvN: MDV=     671086848.
 G2DrvN: will do    24 centers at a time, making    1 passes.
 Calling FoFCou, ICntrl=  3107 FMM=F I1Cent=   0 AccDes= 0.00D+00.
 FoFJK:  IHMeth= 1 ICntrl=    3107 DoSepK=F KAlg= 0 I1Cent=           0 FoldK=F
 IRaf=         0 NMat=       1 IRICut=       1 DoRegI=T DoRafI=F ISym2E= 0 IDoP0=0 IntGTp=1.
 FoFCou: FMM=F IPFlag=           0 FMFlag=      100000 FMFlg1=           0
         NFxFlg=           0 DoJE=F BraDBF=F KetDBF=F FulRan=T
         wScrn=  0.000000 ICntrl=      3107 IOpCl=  0 I1Cent=           0 NGrid=           0
         NMat0=    1 NMatS0=      1 NMatT0=    0 NMatD0=    1 NMtDS0=    0 NMtDT0=    0
 Symmetry not used in FoFCou.
 End of G2Drv F.D. properties file   721 does not exist.
 End of G2Drv F.D. properties file   722 does not exist.
 End of G2Drv F.D. properties file   788 does not exist.
 Leave Link 1110 at Sun Sep 29 05:49:49 2019, MaxMem=   671088640 cpu:            5080.7 elap:            2540.8
 (Enter /shared/centos7/gaussian/g16/l1002.exe)
 Minotr:  Closed shell wavefunction.
          IDoAtm=11111111111111111111111
          Direct CPHF calculation.
          Differentiating once with respect to nuclear coordinates.
          Requested convergence is 1.0D-08 RMS, and 1.0D-07 maximum.
          Secondary convergence is 1.0D-12 RMS, and 1.0D-12 maximum.
          NewPWx=T KeepS1=F KeepF1=F KeepIn=T MapXYZ=F SortEE=F KeepMc=T.
         6918 words used for storage of precomputed grid.
 Two-electron integrals replicated using symmetry.
          MDV=     671088640 using IRadAn=       1.
          Solving linear equations simultaneously, MaxMat=     380.
 FoF2E skips out because all densities are zero.
 CalDSu exits because no D1Ps are significant.
 FoFJK:  IHMeth= 1 ICntrl=       0 DoSepK=F KAlg= 0 I1Cent=           0 FoldK=F
 IRaf= 900000000 NMat=      69 IRICut=     172 DoRegI=T DoRafI=T ISym2E= 2 IDoP0=3 IntGTp=3.
 FoFCou: FMM=F IPFlag=           0 FMFlag=      100000 FMFlg1=           0
         NFxFlg=           0 DoJE=F BraDBF=F KetDBF=F FulRan=T
         wScrn=  0.000000 ICntrl=         0 IOpCl=  0 I1Cent=           0 NGrid=           0
         NMat0=   69 NMatS0=     69 NMatT0=    0 NMatD0=   69 NMtDS0=    0 NMtDT0=    0
 Integrals replicated using symmetry in FoFCou.
 Raff kept on since  86.70% of shell-pairs survive, threshold=   0.20 IRatSp=87.
          There are    72 degrees of freedom in the 1st order CPHF.  IDoFFX=6 NUNeed=     0.
     66 vectors produced by pass  0 Test12= 1.63D-14 1.39D-09 XBig12= 5.59D-02 3.57D-02.
 AX will form    66 AO Fock derivatives at one time.
     66 vectors produced by pass  1 Test12= 1.63D-14 1.39D-09 XBig12= 3.62D-03 7.87D-03.
     66 vectors produced by pass  2 Test12= 1.63D-14 1.39D-09 XBig12= 5.42D-05 1.19D-03.
     66 vectors produced by pass  3 Test12= 1.63D-14 1.39D-09 XBig12= 4.29D-07 7.41D-05.
     66 vectors produced by pass  4 Test12= 1.63D-14 1.39D-09 XBig12= 2.16D-09 4.24D-06.
     66 vectors produced by pass  5 Test12= 1.63D-14 1.39D-09 XBig12= 9.96D-12 3.53D-07.
     22 vectors produced by pass  6 Test12= 1.63D-14 1.39D-09 XBig12= 3.46D-14 1.64D-08.
 InvSVY:  IOpt=1 It=  1 EMax= 4.16D-16
 Solved reduced A of dimension   418 with    72 vectors.
 End of Minotr F.D. properties file   721 does not exist.
 End of Minotr F.D. properties file   722 does not exist.
 End of Minotr F.D. properties file   788 does not exist.
 Leave Link 1002 at Sun Sep 29 07:01:00 2019, MaxMem=   671088640 cpu:            8540.2 elap:            4270.8
 (Enter /shared/centos7/gaussian/g16/l601.exe)
 Copying SCF densities to generalized density rwf, IOpCl= 0 IROHF=0.

 **********************************************************************

            Population analysis using the SCF density.

 **********************************************************************

 Orbital symmetries:
       Occupied  (A) (A) (A) (A) (A) (A) (A) (A) (A) (A) (A) (A)
                 (A) (A) (A) (A) (A) (A) (A) (A) (A) (A) (A) (A)
                 (A) (A) (A) (A) (A)
       Virtual   (A) (A) (A) (A) (A) (A) (A) (A) (A) (A) (A) (A)
                 (A) (A) (A) (A) (A) (A) (A) (A) (A) (A) (A) (A)
                 (A) (A) (A) (A) (A) (A) (A) (A) (A) (A) (A) (A)
                 (A) (A) (A) (A) (A) (A) (A) (A) (A) (A) (A) (A)
                 (A) (A) (A) (A) (A) (A) (A) (A) (A) (A) (A) (A)
                 (A) (A) (A) (A) (A) (A) (A) (A) (A) (A) (A) (A)
                 (A) (A) (A) (A) (A) (A) (A) (A) (A) (A) (A) (A)
                 (A) (A) (A) (A) (A) (A) (A) (A) (A) (A) (A) (A)
                 (A) (A) (A) (A) (A) (A) (A) (A) (A) (A) (A) (A)
                 (A) (A) (A) (A) (A) (A) (A) (A) (A) (A) (A) (A)
                 (A) (A) (A) (A) (A) (A) (A) (A) (A) (A) (A) (A)
                 (A) (A) (A) (A) (A) (A) (A) (A) (A) (A) (A) (A)
                 (A) (A) (A) (A) (A) (A) (A) (A) (A) (A) (A) (A)
                 (A) (A) (A) (A) (A) (A) (A) (A) (A) (A) (A) (A)
                 (A) (A) (A) (A) (A) (A) (A) (A) (A) (A) (A) (A)
                 (A) (A) (A) (A) (A) (A) (A) (A) (A) (A) (A) (A)
                 (A) (A) (A) (A) (A) (A) (A) (A) (A) (A) (A) (A)
                 (A) (A) (A) (A) (A) (A) (A) (A) (A) (A) (A) (A)
                 (A) (A) (A) (A) (A) (A) (A) (A) (A) (A) (A) (A)
                 (A) (A) (A) (A) (A) (A) (A) (A) (A) (A) (A) (A)
                 (A) (A) (A) (A) (A) (A) (A) (A) (A) (A) (A) (A)
                 (A) (A) (A) (A) (A) (A) (A) (A) (A) (A) (A) (A)
                 (A) (A) (A) (A) (A) (A) (A) (A) (A) (A) (A) (A)
                 (A) (A) (A) (A) (A) (A) (A) (A) (A) (A) (A) (A)
                 (A) (A) (A) (A) (A) (A) (A) (A) (A) (A) (A) (A)
                 (A) (A) (A) (A) (A) (A) (A) (A) (A) (A) (A) (A)
                 (A) (A) (A) (A) (A) (A) (A) (A) (A) (A) (A) (A)
                 (A) (A) (A) (A) (A) (A) (A) (A) (A) (A) (A) (A)
                 (A) (A) (A) (A) (A) (A) (A) (A) (A) (A) (A) (A)
                 (A) (A) (A) (A) (A) (A) (A) (A) (A) (A) (A) (A)
                 (A) (A) (A) (A) (A) (A) (A) (A) (A) (A) (A) (A)
                 (A) (A) (A) (A) (A) (A) (A) (A) (A) (A) (A) (A)
                 (A) (A) (A) (A) (A) (A) (A) (A) (A) (A) (A) (A)
                 (A) (A) (A) (A) (A) (A) (A) (A) (A)
 The electronic state is 1-A.
 Alpha  occ. eigenvalues --  -10.52747 -10.52632 -10.52409 -10.52277 -10.52219
 Alpha  occ. eigenvalues --  -10.52055 -10.51682  -0.92144  -0.88417  -0.82067
 Alpha  occ. eigenvalues --   -0.76722  -0.71711  -0.64786  -0.62553  -0.55038
 Alpha  occ. eigenvalues --   -0.53274  -0.51796  -0.49864  -0.48283  -0.46292
 Alpha  occ. eigenvalues --   -0.43987  -0.42631  -0.42232  -0.40051  -0.39525
 Alpha  occ. eigenvalues --   -0.37101  -0.36477  -0.35775  -0.34911
 Alpha virt. eigenvalues --    0.06302   0.07564   0.08519   0.08989   0.10759
 Alpha virt. eigenvalues --    0.11084   0.12163   0.12582   0.13168   0.14324
 Alpha virt. eigenvalues --    0.16051   0.16781   0.18168   0.19163   0.20760
 Alpha virt. eigenvalues --    0.22145   0.22335   0.23190   0.24180   0.26800
 Alpha virt. eigenvalues --    0.27159   0.28170   0.30240   0.31040   0.31544
 Alpha virt. eigenvalues --    0.31879   0.33373   0.34892   0.36532   0.37859
 Alpha virt. eigenvalues --    0.38921   0.39992   0.40874   0.41217   0.43710
 Alpha virt. eigenvalues --    0.45074   0.45526   0.45995   0.46594   0.48042
 Alpha virt. eigenvalues --    0.48780   0.49300   0.50010   0.50580   0.51465
 Alpha virt. eigenvalues --    0.51948   0.52220   0.52834   0.53253   0.53320
 Alpha virt. eigenvalues --    0.54211   0.54935   0.55440   0.56608   0.57454
 Alpha virt. eigenvalues --    0.57766   0.58253   0.60150   0.60812   0.61704
 Alpha virt. eigenvalues --    0.64462   0.65497   0.68885   0.73296   0.77504
 Alpha virt. eigenvalues --    0.80285   0.82352   0.83612   0.84428   0.85093
 Alpha virt. eigenvalues --    0.87010   0.87809   0.88817   0.92667   0.93484
 Alpha virt. eigenvalues --    0.93839   0.95484   0.97229   0.98167   0.99438
 Alpha virt. eigenvalues --    1.00087   1.01261   1.02236   1.02792   1.04228
 Alpha virt. eigenvalues --    1.04980   1.07703   1.09090   1.09751   1.10322
 Alpha virt. eigenvalues --    1.10573   1.11520   1.12864   1.12908   1.14245
 Alpha virt. eigenvalues --    1.15556   1.16398   1.17028   1.17943   1.19519
 Alpha virt. eigenvalues --    1.20854   1.21750   1.22874   1.23401   1.23831
 Alpha virt. eigenvalues --    1.24699   1.25661   1.27288   1.28761   1.29688
 Alpha virt. eigenvalues --    1.30173   1.30801   1.31357   1.32212   1.33343
 Alpha virt. eigenvalues --    1.34116   1.35594   1.36319   1.37466   1.39147
 Alpha virt. eigenvalues --    1.40464   1.41104   1.43015   1.43736   1.45240
 Alpha virt. eigenvalues --    1.45921   1.47751   1.49300   1.49837   1.50033
 Alpha virt. eigenvalues --    1.51254   1.52624   1.52980   1.54812   1.55479
 Alpha virt. eigenvalues --    1.55702   1.56892   1.59078   1.60016   1.62007
 Alpha virt. eigenvalues --    1.62540   1.67230   1.69094   1.72326   1.74441
 Alpha virt. eigenvalues --    1.77149   1.79820   1.81203   1.85041   2.17697
 Alpha virt. eigenvalues --    2.24963   2.25340   2.27973   2.28837   2.32098
 Alpha virt. eigenvalues --    2.35028   2.36246   2.39420   2.42762   2.44231
 Alpha virt. eigenvalues --    2.45276   2.48135   2.48531   2.53483   2.54759
 Alpha virt. eigenvalues --    2.55601   2.57259   2.58619   2.59765   2.61233
 Alpha virt. eigenvalues --    2.62491   2.63274   2.65758   2.66273   2.67090
 Alpha virt. eigenvalues --    2.68516   2.69459   2.70765   2.70898   2.73964
 Alpha virt. eigenvalues --    2.75733   2.76532   2.77867   2.79030   2.79844
 Alpha virt. eigenvalues --    2.81844   2.83268   2.84368   2.84912   2.85973
 Alpha virt. eigenvalues --    2.86262   2.87257   2.90110   2.91519   2.93337
 Alpha virt. eigenvalues --    2.94271   2.95618   2.95900   2.96681   2.98567
 Alpha virt. eigenvalues --    2.99054   3.00621   3.00761   3.02162   3.02502
 Alpha virt. eigenvalues --    3.03872   3.05250   3.06228   3.08250   3.09055
 Alpha virt. eigenvalues --    3.09497   3.10581   3.11009   3.11264   3.13004
 Alpha virt. eigenvalues --    3.14077   3.14873   3.15865   3.16091   3.17316
 Alpha virt. eigenvalues --    3.19092   3.19573   3.21303   3.21958   3.23476
 Alpha virt. eigenvalues --    3.24143   3.25447   3.25964   3.28414   3.30485
 Alpha virt. eigenvalues --    3.31635   3.32298   3.34586   3.35395   3.36207
 Alpha virt. eigenvalues --    3.37748   3.38397   3.38720   3.40253   3.41457
 Alpha virt. eigenvalues --    3.43224   3.44250   3.46028   3.46904   3.47501
 Alpha virt. eigenvalues --    3.50144   3.51233   3.52414   3.52586   3.55551
 Alpha virt. eigenvalues --    3.57278   3.57762   3.58322   3.59476   3.60285
 Alpha virt. eigenvalues --    3.61101   3.61577   3.64061   3.64751   3.65719
 Alpha virt. eigenvalues --    3.68631   3.69853   3.71303   3.72611   3.73351
 Alpha virt. eigenvalues --    3.73980   3.75681   3.76914   3.77594   3.78591
 Alpha virt. eigenvalues --    3.79486   3.80559   3.83401   3.83684   3.84494
 Alpha virt. eigenvalues --    3.87715   3.88053   3.88580   3.90396   3.90575
 Alpha virt. eigenvalues --    3.91505   3.93250   3.93872   3.95437   3.95947
 Alpha virt. eigenvalues --    3.96550   3.99254   4.00266   4.01303   4.02636
 Alpha virt. eigenvalues --    4.03096   4.04772   4.05269   4.06910   4.07514
 Alpha virt. eigenvalues --    4.07978   4.08835   4.09163   4.10347   4.11604
 Alpha virt. eigenvalues --    4.12963   4.15313   4.15956   4.16310   4.18976
 Alpha virt. eigenvalues --    4.19905   4.20506   4.21393   4.21996   4.23481
 Alpha virt. eigenvalues --    4.24475   4.25143   4.26644   4.28318   4.29184
 Alpha virt. eigenvalues --    4.31747   4.32948   4.34505   4.36495   4.38201
 Alpha virt. eigenvalues --    4.39041   4.40466   4.43837   4.44941   4.46409
 Alpha virt. eigenvalues --    4.47309   4.50340   4.51140   4.54979   4.57063
 Alpha virt. eigenvalues --    4.57921   4.60049   4.60708   4.62220   4.63066
 Alpha virt. eigenvalues --    4.66737   4.69596   4.71576   4.73448   4.76303
 Alpha virt. eigenvalues --    4.76460   4.78710   4.79822   4.81558   4.83635
 Alpha virt. eigenvalues --    4.85010   4.86226   4.88300   4.89745   4.91286
 Alpha virt. eigenvalues --    4.92605   4.97105   4.97738   4.99565   5.00994
 Alpha virt. eigenvalues --    5.02944   5.04031   5.05587   5.06322   5.08311
 Alpha virt. eigenvalues --    5.10479   5.11248   5.13349   5.13671   5.16231
 Alpha virt. eigenvalues --    5.18839   5.19793   5.23729   5.25347   5.26231
 Alpha virt. eigenvalues --    5.26805   5.28192   5.29631   5.32608   5.33936
 Alpha virt. eigenvalues --    5.36634   5.37108   5.40666   5.43544   5.44829
 Alpha virt. eigenvalues --    5.47969   5.49906   5.51885   5.53756   5.54773
 Alpha virt. eigenvalues --    5.56935   5.67570   5.73573   5.76354   5.78469
 Alpha virt. eigenvalues --    5.79077   5.82217   5.84621   5.90397   5.93870
 Alpha virt. eigenvalues --    5.95565   6.01047   6.06501  11.23518  11.64386
 Alpha virt. eigenvalues --   12.19562  12.88629  13.28226  13.67484  13.89496
          Condensed to atoms (all electrons):
               1          2          3          4          5          6
     1  C    5.088920   0.283785  -0.049953   0.316141   0.005828  -0.046816
     2  C    0.283785   5.265291   0.294005  -0.050153  -0.043971  -0.005156
     3  C   -0.049953   0.294005   5.071232   0.006593   0.302649  -0.001849
     4  C    0.316141  -0.050153   0.006593   5.048758  -0.000551   0.282698
     5  C    0.005828  -0.043971   0.302649  -0.000551   5.007911   0.000124
     6  C   -0.046816  -0.005156  -0.001849   0.282698   0.000124   5.008375
     7  C    0.000267  -0.034735  -0.043791  -0.000064   0.310834  -0.000011
     8  H   -0.047435   0.011104  -0.000667   0.417914   0.000036  -0.045269
     9  H   -0.043211  -0.008546   0.000268   0.413597  -0.000000  -0.051960
    10  H    0.418440  -0.063706  -0.011372  -0.043654   0.000320  -0.006749
    11  H    0.412866  -0.049632   0.005949  -0.042172  -0.000016   0.009662
    12  H   -0.054346   0.410225  -0.046916  -0.005095   0.007380   0.000485
    13  H   -0.044405   0.422507  -0.036779   0.004709  -0.020470  -0.000055
    14  H   -0.012973  -0.056589   0.421370   0.000866  -0.045484   0.000008
    15  H    0.007883  -0.045650   0.411978  -0.000443  -0.040599  -0.000300
    16  H   -0.000546   0.005779  -0.048987   0.000029   0.418846  -0.000000
    17  H    0.000472   0.004568  -0.047100  -0.000013   0.415514  -0.000002
    18  H   -0.002471   0.003166  -0.002868  -0.061609   0.000196   0.405595
    19  H    0.005624  -0.000564   0.000073  -0.044420  -0.000008   0.404565
    20  H    0.005008  -0.000446   0.000099  -0.040436  -0.000002   0.404612
    21  H    0.001787  -0.019958  -0.001242  -0.000139  -0.040827  -0.000004
    22  H   -0.000779  -0.001629   0.001449   0.000060  -0.047484   0.000001
    23  H   -0.000043   0.002072   0.006732   0.000002  -0.037136   0.000000
               7          8          9         10         11         12
     1  C    0.000267  -0.047435  -0.043211   0.418440   0.412866  -0.054346
     2  C   -0.034735   0.011104  -0.008546  -0.063706  -0.049632   0.410225
     3  C   -0.043791  -0.000667   0.000268  -0.011372   0.005949  -0.046916
     4  C   -0.000064   0.417914   0.413597  -0.043654  -0.042172  -0.005095
     5  C    0.310834   0.000036  -0.000000   0.000320  -0.000016   0.007380
     6  C   -0.000011  -0.045269  -0.051960  -0.006749   0.009662   0.000485
     7  C    4.984420   0.000007  -0.000039   0.000003   0.000481   0.000873
     8  H    0.000007   0.609827  -0.036058  -0.007720  -0.006507   0.000619
     9  H   -0.000039  -0.036058   0.612011   0.009269  -0.007504   0.000336
    10  H    0.000003  -0.007720   0.009269   0.601577  -0.035511   0.005613
    11  H    0.000481  -0.006507  -0.007504  -0.035511   0.603022   0.007467
    12  H    0.000873   0.000619   0.000336   0.005613   0.007467   0.573921
    13  H   -0.014672  -0.000508   0.001411   0.006288  -0.019894  -0.036309
    14  H    0.006069  -0.000111  -0.000018   0.002193   0.001534   0.006290
    15  H    0.004723   0.000028   0.000065   0.001131  -0.000735  -0.020078
    16  H   -0.043176  -0.000001  -0.000001  -0.000098   0.000064   0.000054
    17  H   -0.042980  -0.000003   0.000002  -0.000175  -0.000050  -0.000613
    18  H    0.000012   0.006000   0.006330  -0.000096   0.000436  -0.001660
    19  H    0.000001   0.006735  -0.019658  -0.000232  -0.000612  -0.001117
    20  H    0.000000  -0.019191   0.006719   0.001483  -0.000477   0.000051
    21  H    0.411450   0.000001  -0.000001  -0.000163   0.000376  -0.000314
    22  H    0.410234  -0.000002  -0.000002  -0.000064   0.001041   0.000434
    23  H    0.402074  -0.000000   0.000000   0.000018  -0.000065  -0.000037
              13         14         15         16         17         18
     1  C   -0.044405  -0.012973   0.007883  -0.000546   0.000472  -0.002471
     2  C    0.422507  -0.056589  -0.045650   0.005779   0.004568   0.003166
     3  C   -0.036779   0.421370   0.411978  -0.048987  -0.047100  -0.002868
     4  C    0.004709   0.000866  -0.000443   0.000029  -0.000013  -0.061609
     5  C   -0.020470  -0.045484  -0.040599   0.418846   0.415514   0.000196
     6  C   -0.000055   0.000008  -0.000300  -0.000000  -0.000002   0.405595
     7  C   -0.014672   0.006069   0.004723  -0.043176  -0.042980   0.000012
     8  H   -0.000508  -0.000111   0.000028  -0.000001  -0.000003   0.006000
     9  H    0.001411  -0.000018   0.000065  -0.000001   0.000002   0.006330
    10  H    0.006288   0.002193   0.001131  -0.000098  -0.000175  -0.000096
    11  H   -0.019894   0.001534  -0.000735   0.000064  -0.000050   0.000436
    12  H   -0.036309   0.006290  -0.020078   0.000054  -0.000613  -0.001660
    13  H    0.587402   0.005507   0.006646   0.000781   0.000549   0.000283
    14  H    0.005507   0.608043  -0.042681   0.006927  -0.019065  -0.000745
    15  H    0.006646  -0.042681   0.608675  -0.019494   0.007007   0.001213
    16  H    0.000781   0.006927  -0.019494   0.624456  -0.042792  -0.000014
    17  H    0.000549  -0.019065   0.007007  -0.042792   0.617279  -0.000004
    18  H    0.000283  -0.000745   0.001213  -0.000014  -0.000004   0.598909
    19  H    0.000034  -0.000024   0.000110  -0.000000   0.000000  -0.037391
    20  H    0.000009   0.000057  -0.000040   0.000000   0.000000  -0.032757
    21  H   -0.010063  -0.000479   0.000372  -0.002829   0.008038  -0.000006
    22  H   -0.003943   0.000571  -0.000562   0.008655  -0.013311  -0.000001
    23  H    0.001249  -0.000348  -0.000190  -0.011112  -0.000472   0.000000
              19         20         21         22         23
     1  C    0.005624   0.005008   0.001787  -0.000779  -0.000043
     2  C   -0.000564  -0.000446  -0.019958  -0.001629   0.002072
     3  C    0.000073   0.000099  -0.001242   0.001449   0.006732
     4  C   -0.044420  -0.040436  -0.000139   0.000060   0.000002
     5  C   -0.000008  -0.000002  -0.040827  -0.047484  -0.037136
     6  C    0.404565   0.404612  -0.000004   0.000001   0.000000
     7  C    0.000001   0.000000   0.411450   0.410234   0.402074
     8  H    0.006735  -0.019191   0.000001  -0.000002  -0.000000
     9  H   -0.019658   0.006719  -0.000001  -0.000002   0.000000
    10  H   -0.000232   0.001483  -0.000163  -0.000064   0.000018
    11  H   -0.000612  -0.000477   0.000376   0.001041  -0.000065
    12  H   -0.001117   0.000051  -0.000314   0.000434  -0.000037
    13  H    0.000034   0.000009  -0.010063  -0.003943   0.001249
    14  H   -0.000024   0.000057  -0.000479   0.000571  -0.000348
    15  H    0.000110  -0.000040   0.000372  -0.000562  -0.000190
    16  H   -0.000000   0.000000  -0.002829   0.008655  -0.011112
    17  H    0.000000   0.000000   0.008038  -0.013311  -0.000472
    18  H   -0.037391  -0.032757  -0.000006  -0.000001   0.000000
    19  H    0.610067  -0.030734  -0.000000  -0.000000  -0.000000
    20  H   -0.030734   0.593089   0.000000  -0.000000  -0.000000
    21  H   -0.000000   0.000000   0.613846  -0.042878  -0.030324
    22  H   -0.000000  -0.000000  -0.042878   0.604938  -0.028162
    23  H   -0.000000  -0.000000  -0.030324  -0.028162   0.586956
 Mulliken charges:
               1
     1  C   -0.244044
     2  C   -0.321766
     3  C   -0.230874
     4  C   -0.202617
     5  C   -0.193090
     6  C   -0.357956
     7  C   -0.351979
     8  H    0.111199
     9  H    0.116990
    10  H    0.123206
    11  H    0.120275
    12  H    0.152737
    13  H    0.149724
    14  H    0.119083
    15  H    0.120940
    16  H    0.103460
    17  H    0.113149
    18  H    0.117482
    19  H    0.107551
    20  H    0.112954
    21  H    0.113355
    22  H    0.111435
    23  H    0.108787
 Sum of Mulliken charges =  -0.00000
 Mulliken charges with hydrogens summed into heavy atoms:
               1
     1  C   -0.000563
     2  C   -0.019305
     3  C    0.009148
     4  C    0.025571
     5  C    0.023519
     6  C   -0.019969
     7  C   -0.018402
 APT charges:
               1
     1  C   -0.593090
     2  C   -0.492772
     3  C   -0.559962
     4  C   -0.826272
     5  C   -0.951918
     6  C   -1.171621
     7  C   -1.111728
     8  H    0.491836
     9  H    0.338049
    10  H    0.288804
    11  H    0.341125
    12  H    0.330444
    13  H    0.366104
    14  H    0.291078
    15  H    0.354147
    16  H    0.468354
    17  H    0.387939
    18  H    0.110841
    19  H    0.383379
    20  H    0.562846
    21  H    0.114363
    22  H    0.252356
    23  H    0.625697
 Sum of APT charges =  -0.00000
 APT charges with hydrogens summed into heavy atoms:
               1
     1  C    0.036840
     2  C    0.203776
     3  C    0.085263
     4  C    0.003613
     5  C   -0.095625
     6  C   -0.114555
     7  C   -0.119312
 Electronic spatial extent (au):  <R**2>=           1275.4725
 Charge=             -0.0000 electrons
 Dipole moment (field-independent basis, Debye):
    X=              0.1142    Y=             -0.0445    Z=             -0.0198  Tot=              0.1241
 Quadrupole moment (field-independent basis, Debye-Ang):
   XX=            -49.5107   YY=            -49.5739   ZZ=            -48.4863
   XY=              0.2658   XZ=             -0.1598   YZ=             -0.0880
 Traceless Quadrupole moment (field-independent basis, Debye-Ang):
   XX=             -0.3204   YY=             -0.3836   ZZ=              0.7040
   XY=              0.2658   XZ=             -0.1598   YZ=             -0.0880
 Octapole moment (field-independent basis, Debye-Ang**2):
  XXX=             -0.2721  YYY=             -0.7142  ZZZ=              0.0164  XYY=              1.1224
  XXY=              0.3352  XXZ=              0.9973  XZZ=             -0.6458  YZZ=              0.4606
  YYZ=             -0.3313  XYZ=             -0.8788
 Hexadecapole moment (field-independent basis, Debye-Ang**3):
 XXXX=          -1406.6181 YYYY=           -267.4374 ZZZZ=           -136.5584 XXXY=              4.0513
 XXXZ=            -11.4457 YYYX=              4.5159 YYYZ=             -2.6320 ZZZX=              4.4812
 ZZZY=              1.2466 XXYY=           -288.3273 XXZZ=           -254.3482 YYZZ=            -66.9260
 XXYZ=             -2.0096 YYXZ=             -1.3674 ZZXY=              1.0432
 N-N= 3.242509295342D+02 E-N=-1.286995678293D+03  KE= 2.745465708220D+02
  Exact polarizability:   0.000   0.000   0.000   0.000   0.000   0.000
 Approx polarizability:  98.613   0.411  97.101  -0.422  -0.016  97.882
 No NMR shielding tensors so no spin-rotation constants.
 Leave Link  601 at Sun Sep 29 07:01:32 2019, MaxMem=   671088640 cpu:              63.7 elap:              31.9
 (Enter /shared/centos7/gaussian/g16/l701.exe)
 SCFChk:  SCF convergence  5.46D-09 required  1.00D-08
 ... and contract with generalized density number  0.
 Compute integral second derivatives.
 Entering OneElI...
 Calculate overlap and kinetic energy integrals
    NBasis = 485  MinDer = 2  MaxDer = 2
 Requested accuracy = 0.1000D-12
 PrmmSu-InSpLW:  IPartL=    0 NPrtUS=   20 NPrtUL=    1 DoSpLW=F IThBeg=    0 IThEnd=   19 NThAct=   20.
 PrsmSu:  NPrtUS=  20 ThrOK=T IAlg=1 NPAlg=1 LenDen=           0 ISkipM=0 DoSpLW=F IThBeg=    0 IThEnd=   19.
 Prism:   IPart=     0 DynPar=F LinDyn=F Incr=           6.
 PRISM was handed    33204844 working-precision words and 13526 shell-pairs
 PRISM was handed    33204844 working-precision words and 13526 shell-pairs
 PRISM was handed    33204844 working-precision words and 13526 shell-pairs
 PRISM was handed    33204844 working-precision words and 13526 shell-pairs
 PRISM was handed    33204844 working-precision words and 13526 shell-pairs
 PRISM was handed    33204844 working-precision words and 13526 shell-pairs
 PRISM was handed    33204844 working-precision words and 13526 shell-pairs
 PRISM was handed    33204844 working-precision words and 13526 shell-pairs
 PRISM was handed    33204844 working-precision words and 13526 shell-pairs
 PRISM was handed    33204844 working-precision words and 13526 shell-pairs
 PRISM was handed    33204844 working-precision words and 13526 shell-pairs
 PRISM was handed    33204844 working-precision words and 13526 shell-pairs
 IPart=  0 NShTot=         713 NBatch=          80 AvBLen=         8.9
 PRISM was handed    33204844 working-precision words and 13526 shell-pairs
 PRISM was handed    33204844 working-precision words and 13526 shell-pairs
 PRISM was handed    33204844 working-precision words and 13526 shell-pairs
 PRISM was handed    33204844 working-precision words and 13526 shell-pairs
 PRISM was handed    33204844 working-precision words and 13526 shell-pairs
 IPart= 10 NShTot=         674 NBatch=          58 AvBLen=        11.6
 IPart= 16 NShTot=         656 NBatch=          50 AvBLen=        13.1
 IPart=  1 NShTot=         709 NBatch=          80 AvBLen=         8.9
 PRISM was handed    33204844 working-precision words and 13526 shell-pairs
 IPart= 15 NShTot=         657 NBatch=          51 AvBLen=        12.9
 IPart=  7 NShTot=         681 NBatch=          61 AvBLen=        11.2
 PRISM was handed    33204844 working-precision words and 13526 shell-pairs
 IPart= 12 NShTot=         667 NBatch=          54 AvBLen=        12.4
 PRISM was handed    33204844 working-precision words and 13526 shell-pairs
 IPart=  5 NShTot=         693 NBatch=          68 AvBLen=        10.2
 IPart=  8 NShTot=         675 NBatch=          59 AvBLen=        11.4
 IPart=  2 NShTot=         702 NBatch=          74 AvBLen=         9.5
 IPart=  6 NShTot=         689 NBatch=          66 AvBLen=        10.4
 IPart= 13 NShTot=         661 NBatch=          52 AvBLen=        12.7
 IPart= 18 NShTot=         650 NBatch=          47 AvBLen=        13.8
 IPart= 14 NShTot=         660 NBatch=          51 AvBLen=        12.9
 IPart= 11 NShTot=         669 NBatch=          56 AvBLen=        11.9
 IPart=  4 NShTot=         696 NBatch=          70 AvBLen=         9.9
 IPart=  3 NShTot=         698 NBatch=          72 AvBLen=         9.7
 IPart=  9 NShTot=         675 NBatch=          59 AvBLen=        11.4
 IPart= 19 NShTot=         649 NBatch=          47 AvBLen=        13.8
 IPart= 17 NShTot=         652 NBatch=          48 AvBLen=        13.6
 PrSmSu:  NxtVal=            121.
 Entering OneElI...
 Calculate potential energy integrals
    NBasis = 485  MinDer = 2  MaxDer = 2
 Requested accuracy = 0.1000D-12
 PrmmSu-InSpLW:  IPartL=    0 NPrtUS=   20 NPrtUL=    1 DoSpLW=F IThBeg=    0 IThEnd=   19 NThAct=   20.
 PrsmSu:  NPrtUS=  20 ThrOK=T IAlg=1 NPAlg=1 LenDen=           0 ISkipM=0 DoSpLW=F IThBeg=    0 IThEnd=   19.
 Prism:   IPart=     0 DynPar=F LinDyn=F Incr=         138.
 PRISM was handed    33270433 working-precision words and 12004 shell-pairs
 PRISM was handed    33270433 working-precision words and 12004 shell-pairs
 PRISM was handed    33270433 working-precision words and 12004 shell-pairs
 PRISM was handed    33270433 working-precision words and 12004 shell-pairs
 PRISM was handed    33270433 working-precision words and 12004 shell-pairs
 PRISM was handed    33270433 working-precision words and 12004 shell-pairs
 PRISM was handed    33270433 working-precision words and 12004 shell-pairs
 PRISM was handed    33270433 working-precision words and 12004 shell-pairs
 PRISM was handed    33270433 working-precision words and 12004 shell-pairs
 PRISM was handed    33270433 working-precision words and 12004 shell-pairs
 PRISM was handed    33270433 working-precision words and 12004 shell-pairs
 PRISM was handed    33270433 working-precision words and 12004 shell-pairs
 PRISM was handed    33270433 working-precision words and 12004 shell-pairs
 PRISM was handed    33270433 working-precision words and 12004 shell-pairs
 PRISM was handed    33270433 working-precision words and 12004 shell-pairs
 PRISM was handed    33270433 working-precision words and 12004 shell-pairs
 PRISM was handed    33270433 working-precision words and 12004 shell-pairs
 PRISM was handed    33270433 working-precision words and 12004 shell-pairs
 PRISM was handed    33270433 working-precision words and 12004 shell-pairs
 PRISM was handed    33270433 working-precision words and 12004 shell-pairs
 IPart= 16 NShTot=       13363 NBatch=         582 AvBLen=        23.0
 IPart=  2 NShTot=       14421 NBatch=         629 AvBLen=        22.9
 IPart=  1 NShTot=       14444 NBatch=         630 AvBLen=        22.9
 IPart= 10 NShTot=       13731 NBatch=         598 AvBLen=        23.0
 IPart=  6 NShTot=       14030 NBatch=         611 AvBLen=        23.0
 IPart= 12 NShTot=       13593 NBatch=         592 AvBLen=        23.0
 IPart= 15 NShTot=       13455 NBatch=         586 AvBLen=        23.0
 IPart=  7 NShTot=       13754 NBatch=         599 AvBLen=        23.0
 IPart= 18 NShTot=       13225 NBatch=         576 AvBLen=        23.0
 IPart= 14 NShTot=       13501 NBatch=         588 AvBLen=        23.0
 IPart= 13 NShTot=       13524 NBatch=         589 AvBLen=        23.0
 IPart= 17 NShTot=       13248 NBatch=         577 AvBLen=        23.0
 IPart= 11 NShTot=       13662 NBatch=         595 AvBLen=        23.0
 IPart=  9 NShTot=       13754 NBatch=         599 AvBLen=        23.0
 IPart=  8 NShTot=       13754 NBatch=         599 AvBLen=        23.0
 IPart=  0 NShTot=       14513 NBatch=         633 AvBLen=        22.9
 IPart=  5 NShTot=       14214 NBatch=         619 AvBLen=        23.0
 IPart=  3 NShTot=       14398 NBatch=         628 AvBLen=        22.9
 IPart= 19 NShTot=       13202 NBatch=         575 AvBLen=        23.0
 IPart=  4 NShTot=       14306 NBatch=         624 AvBLen=        22.9
 PrSmSu:  NxtVal=           2761.
 Polarizability after L701:
                1             2             3 
      1  0.000000D+00
      2  0.000000D+00  0.000000D+00
      3  0.000000D+00  0.000000D+00  0.000000D+00
 Dipole Derivatives after L701:
                 1             2             3             4             5 
      1   0.340493D-01 -0.440637D-01  0.553791D+00 -0.305563D+00  0.347942D+00
      2   0.251234D+00 -0.965325D+00  0.325630D+00  0.319708D+00 -0.446465D+00
      3  -0.132771D+00  0.154835D-01 -0.847994D+00 -0.141364D+00 -0.525046D-01
                 6             7             8             9            10 
      1  -0.126713D+00  0.192724D+00 -0.389759D+00 -0.159325D-01 -0.116235D+01
      2  -0.521979D-01  0.377811D+00 -0.110013D+01 -0.587308D-01 -0.476641D+00
      3  -0.726288D+00  0.220800D+00  0.532742D-01 -0.772484D+00  0.279544D+00
                11            12            13            14            15 
      1  -0.184323D+01  0.131404D-01 -0.154014D+01 -0.134931D+01 -0.610247D+00
      2  -0.613065D+00 -0.196996D+00 -0.611019D+00 -0.504258D+00  0.487608D-01
      3  -0.119738D+00 -0.703398D+00 -0.154718D+00  0.108887D+00 -0.811353D+00
                16            17            18            19            20 
      1  -0.159316D+01  0.172241D+01 -0.380705D+00 -0.141120D+01  0.148258D+01
      2   0.256794D-01 -0.936004D+00  0.240758D-01  0.851633D-01 -0.959907D+00
      3  -0.393884D-01  0.782321D-01 -0.985703D+00  0.171450D-01  0.194824D-01
                21            22            23            24            25 
      1   0.403608D+00  0.834291D+00  0.450693D+00 -0.728667D+00  0.190145D+00
      2   0.637050D-01  0.241489D+00  0.318717D+00 -0.282681D+00  0.677251D-02
      3  -0.964074D+00 -0.194536D+00 -0.129021D+00  0.322500D+00  0.329121D-01
                26            27            28            29            30 
      1   0.407834D+00  0.724670D+00  0.133317D+00 -0.125630D+00 -0.285570D+00
      2   0.374235D+00  0.367915D+00  0.195645D-01  0.124285D+00 -0.341482D-01
      3   0.158527D+00  0.449766D+00  0.194021D-01  0.272028D+00  0.608810D+00
                31            32            33            34            35 
      1   0.973382D-01  0.228915D+00 -0.566282D-01  0.247128D+00 -0.554633D-01
      2  -0.155158D+00  0.766133D+00 -0.814134D-01 -0.241097D-01  0.207878D+00
      3   0.369531D-01 -0.250986D+00  0.159905D+00  0.213494D+00 -0.195375D+00
                36            37            38            39            40 
      1   0.145709D+00  0.422681D+00 -0.222414D+00 -0.713915D-01  0.958800D-01
      2  -0.736019D-01 -0.277485D+00  0.468682D+00  0.753994D-01 -0.111789D+00
      3   0.536326D+00 -0.206485D+00  0.205755D+00  0.206951D+00 -0.118028D+00
                41            42            43            44            45 
      1   0.672554D-01  0.177718D+00  0.129057D+00  0.252974D+00 -0.139797D+00
      2   0.222604D+00  0.376874D+00 -0.470096D-01  0.673249D+00 -0.386456D+00
      3   0.102606D+00  0.554749D+00  0.283156D-01 -0.171340D+00  0.260135D+00
                46            47            48            49            50 
      1   0.705166D+00  0.735405D+00 -0.484958D+00  0.390946D+00  0.731907D-01
      2   0.247860D+00  0.503208D+00 -0.263225D+00  0.526179D-01  0.153618D+00
      3  -0.750941D-01 -0.119004D+00  0.196689D+00  0.110901D+00  0.341707D-01
                51            52            53            54            55 
      1   0.883111D+00 -0.282746D+00 -0.477948D+00 -0.766399D-01  0.357271D+00
      2   0.231954D+00  0.370604D+00  0.505130D+00  0.100533D+00 -0.798214D-01
      3   0.619252D+00  0.396550D-01  0.208350D-01  0.110141D+00  0.129746D+00
                56            57            58            59            60 
      1  -0.105478D+00  0.110286D+01  0.128441D+01 -0.250828D+00 -0.788490D+00
      2   0.157367D+00 -0.264654D+00 -0.281749D+00  0.192430D+00  0.161400D+00
      3  -0.158299D-01  0.635499D+00 -0.164610D+00  0.377739D-02  0.211701D+00
                61            62            63            64            65 
      1  -0.384331D+00 -0.294541D+00 -0.539146D+00 -0.620394D-01 -0.615766D+00
      2   0.234446D+00  0.225192D+00  0.255589D+00  0.104848D+00  0.508472D+00
      3   0.326502D+00  0.132662D+00  0.502228D+00 -0.432889D-01 -0.151501D+00
                66            67            68            69 
      1   0.609723D+00  0.162713D+01  0.523833D-02 -0.309444D+00
      2  -0.395019D+00 -0.273017D+00  0.123949D+00  0.572871D-01
      3   0.310634D+00 -0.185087D+00 -0.420962D-03  0.126009D+00
 Hessian after L701:
                1             2             3             4             5 
      1  0.145938D+02
      2 -0.220192D-01  0.172557D+02
      3  0.149711D-01  0.597733D+00  0.175870D+02
      4 -0.415748D+01  0.102085D+01 -0.161354D+01  0.148515D+02
      5  0.103241D+01 -0.543801D+01 -0.902632D+00 -0.104766D+01  0.173462D+02
      6 -0.160166D+01 -0.887147D+00 -0.493879D+01  0.174364D+00 -0.480878D-01
      7  0.165559D+00  0.205952D+00 -0.151037D-02 -0.450918D+01  0.185220D+01
      8  0.155290D+00  0.388034D-01  0.752216D-03  0.185964D+01 -0.407032D+01
      9 -0.127049D+00 -0.965785D-01 -0.484574D-01  0.895087D+00  0.884779D+00
     10 -0.250869D+01 -0.281924D+00  0.116124D+01  0.401822D+00  0.108037D+00
     11 -0.302373D+00 -0.611794D+01 -0.486612D-01  0.383725D-01 -0.117063D+00
     12  0.117238D+01 -0.459219D-01 -0.578748D+01 -0.253103D+00 -0.683526D-01
     13  0.210359D+00  0.144981D+00 -0.291769D-03  0.327540D+00  0.102497D+00
     14  0.144761D+00 -0.814345D-01 -0.634638D-02  0.120809D+00 -0.438428D-01
     15 -0.463911D-01 -0.135143D-01 -0.155021D+00  0.108635D+00  0.472207D-01
     16  0.147775D+00 -0.289746D+00  0.606046D-01  0.259114D+00 -0.123329D+00
     17 -0.228388D+00  0.102084D+00 -0.845064D-01 -0.522677D-01 -0.161612D+00
     18  0.119033D+00 -0.129706D+00 -0.127683D+00 -0.489191D-01  0.347064D-02
     19  0.178556D+00 -0.250794D-01 -0.348051D-01  0.188416D+00 -0.115308D+00
     20  0.332038D-01 -0.119029D+00  0.659035D-02  0.258928D-01 -0.109984D+00
     21 -0.742525D-01  0.333049D-02 -0.100732D+00  0.114285D+00 -0.820822D-02
     22 -0.975082D-01 -0.285320D-01  0.517195D-02  0.153197D+00  0.786148D-01
     23 -0.329494D-01  0.989093D-01 -0.210620D-01  0.880988D-01 -0.239018D-01
     24 -0.333116D-02 -0.215021D-01  0.133077D+00 -0.932975D-01 -0.331186D-01
     25 -0.198311D-01 -0.651665D-02 -0.138162D+00  0.194438D-03 -0.281162D-01
     26 -0.731336D-02  0.121265D+00  0.110057D-01 -0.910510D-02 -0.183611D-01
     27 -0.852801D-01  0.375688D-01  0.255435D-01  0.138919D-01  0.319880D-02
     28 -0.457895D+01  0.230048D-01  0.753343D-01  0.947840D-01 -0.297229D-01
     29  0.466945D-01 -0.404695D+01  0.977461D+00 -0.415778D-01  0.214180D+00
     30  0.143659D+00  0.110540D+01 -0.219408D+01  0.196376D+00  0.100389D+00
     31 -0.430831D+01 -0.488581D+00  0.118593D+00  0.570903D-01 -0.123593D+00
     32 -0.554724D+00 -0.210038D+01 -0.544373D+00 -0.118373D+00  0.129388D+00
     33  0.140866D+00 -0.566717D+00 -0.420677D+01  0.103062D+00  0.984412D-01
     34  0.127012D+00 -0.901309D-01  0.195305D+00 -0.422544D+01 -0.307022D+00
     35 -0.767681D-01  0.126546D+00  0.928702D-01 -0.338041D+00 -0.441857D+01
     36  0.184475D+00  0.101742D+00 -0.890825D-01  0.101509D+01 -0.620674D+00
     37  0.299088D-01 -0.659533D-01  0.137958D+00 -0.389750D+01 -0.116110D+01
     38 -0.719230D-01  0.178260D+00  0.229261D-01 -0.129747D+01 -0.320475D+01
     39  0.139162D+00  0.319282D-01 -0.224439D-01 -0.608184D+00  0.746966D+00
     40 -0.875690D-02 -0.416561D-01 -0.176892D-01  0.140136D+00 -0.953730D-01
     41 -0.228626D-01 -0.441881D-01 -0.107329D-01 -0.831333D-01 -0.258160D-01
     42  0.439352D-02 -0.568715D-02  0.244323D-01 -0.945958D-01 -0.159172D+00
     43 -0.147667D-02  0.755745D-01 -0.288748D-01  0.684710D-01 -0.119210D+00
     44  0.964910D-01  0.878687D-01 -0.492215D-01 -0.101946D+00 -0.580507D-01
     45 -0.387518D-01 -0.622273D-01 -0.310073D-01 -0.765537D-02 -0.594391D-01
     46  0.719616D-02  0.528441D-02  0.361327D-02  0.101428D+00  0.690656D-01
     47  0.131634D-01 -0.166830D-02  0.323303D-02  0.898663D-01 -0.642904D-03
     48 -0.724212D-02 -0.358015D-02 -0.882305D-02 -0.126334D-01 -0.607496D-02
     49  0.339020D-01  0.155318D-01  0.146559D-01  0.626457D-01  0.243015D-01
     50  0.187616D-01 -0.830939D-02  0.594664D-02  0.308471D-01 -0.329869D-01
[...]
 0044055,-0.00564437,-0.01010668,-0.00832013,-0.05641153,-0.15215875,-0
 .11416107,0.00010232,0.00018117,0.00014689,0.00673838,0.01060911,0.013
 37238,-0.00002098,-0.00005506,-0.00003824,-0.00002759,-0.00144173,0.00
 268531,-0.00005850,0.00002318,0.00005337,0.00018786,-0.00000495,-0.000
 03336,-0.00045408,0.00053823,0.00006128,0.00001121,0.00001955,0.000028
 32,0.00020271,-0.00004866,0.00015759,-0.00242855,0.00007966,0.00162567
 ,0.06532178,0.16533060,-0.00047029,0.00052007,0.00031611,0.00499787,0.
 00769740,0.00746309,-0.06255699,-0.11310070,-0.16844753,0.00005310,0.0
 0025105,0.00014214,-0.01017086,-0.01928895,-0.02120378,-0.00003253,-0.
 00003856,0.00000501,0.00078384,0.00495771,-0.00435345,-0.00005657,-0.0
 0003967,-0.00001158,0.00006888,-0.00004886,-0.00009405,-0.00050672,-0.
 00001481,-0.00002594,0.00003880,-0.00007005,0.00001037,-0.00058989,-0.
 00008906,0.00084947,0.00265527,0.00096872,0.00017665,0.06684822,0.1209
 6491,0.18650793,-0.00358499,-0.00506494,0.00234586,-0.02131048,0.02216
 704,0.00344559,-0.16003549,0.12684775,0.01402880,-0.00084773,0.0018367
 0,-0.00010169,-0.00148048,0.00161127,0.00040984,-0.00010223,0.00005163
 ,-0.00014492,-0.00027309,0.00006201,0.00031413,-0.00063419,-0.00022519
 ,0.00025693,-0.00000208,-0.00007216,-0.00005893,0.00021520,0.00000195,
 0.00011747,0.00025852,-0.00007124,-0.00023752,0.00109804,0.00001009,0.
 00020922,0.00079051,0.00005771,-0.00084919,0.00786511,-0.00855733,-0.0
 0036481,0.17611625,-0.00195533,-0.00085226,0.00076744,-0.01088770,0.01
 037337,0.00160798,0.12765588,-0.18982265,-0.01886725,-0.00053694,0.000
 59246,0.00015714,0.01054832,-0.01463366,-0.00016002,0.00003717,0.00002
 104,-0.00004951,-0.00074659,0.00087997,-0.00059207,-0.00022338,-0.0000
 8048,0.00008199,0.00007082,0.00001286,-0.00003826,-0.00012110,0.000222
 99,0.00023610,-0.00012483,-0.00000029,-0.00008584,0.00074373,0.0005709
 8,-0.00042879,0.00063268,0.00066920,-0.00029152,0.01335583,-0.01567588
 ,-0.00174698,-0.13779615,0.20727563,0.00194849,0.00170473,-0.00036373,
 0.00666288,-0.00837696,-0.00185214,0.01466681,-0.01893454,-0.04971858,
 0.00042498,-0.00055016,0.00038016,-0.02021038,0.02425866,0.00020844,-0
 .00000180,-0.00005849,0.00005313,-0.00021745,0.00109413,0.00203533,0.0
 0024335,0.00008615,-0.00010098,0.00007443,0.00004454,-0.00000799,-0.00
 031914,0.00039716,0.00009282,0.00023477,-0.00002963,0.00011277,-0.0001
 7510,-0.00047057,-0.00010867,-0.00033414,0.00036953,0.00045221,0.01538
 839,-0.01633138,-0.00230101,-0.01850887,0.01546427,0.05502407,-0.00008
 865,0.00004334,-0.00039598,0.00094328,0.00053193,-0.00046203,0.0029636
 2,0.00189255,-0.00155528,0.00019546,-0.00009517,0.00014543,-0.26992696
 ,-0.06990619,0.06407106,-0.00011976,-0.00003139,-0.00000113,-0.0115396
 3,-0.00344209,0.00199667,0.00000197,0.00001242,-0.00000533,-0.00000651
 ,-0.00000551,-0.00000284,0.00001932,0.00001955,0.00004814,0.00028392,-
 0.00019825,0.00018269,-0.00003354,0.00001912,-0.00007617,0.00005256,0.
 00009205,-0.00008132,0.00019537,-0.00006553,0.00069693,0.00071461,-0.0
 0040441,0.00020282,0.29211946,0.00067574,-0.00005526,0.00023627,0.0018
 5823,-0.00075776,0.00313299,-0.01597138,-0.00642199,0.00582575,-0.0002
 1626,0.00013829,-0.00017218,-0.06869196,-0.07034908,0.01898804,0.00009
 755,-0.00000877,0.00000254,-0.01881414,-0.00621067,0.00404581,-0.00005
 498,-0.00000632,0.00002025,0.00004420,0.00002136,0.,-0.00006409,0.0000
 0834,0.00008641,-0.00022536,0.00012166,-0.00038363,-0.00096226,-0.0003
 7289,0.00046271,0.00017329,0.00015586,-0.00029034,0.00041723,0.0005274
 7,-0.00032679,-0.00027787,0.00013433,-0.00064608,0.07752304,0.07542479
 ,-0.00055712,0.00049293,0.00005788,-0.00241103,0.00210977,-0.00492398,
 0.02830623,0.00930090,-0.00944516,-0.00004109,-0.00010521,-0.00004171,
 0.06402215,0.01968833,-0.06361780,0.00008645,0.00009635,-0.00000323,-0
 .02554528,-0.00791920,0.00490007,0.00008676,-0.00001199,-0.00002714,-0
 .00000092,0.00004759,-0.00000639,0.00000961,-0.00007999,0.00000311,-0.
 00006476,-0.00013358,0.00001933,0.00145537,0.00085618,-0.00059722,-0.0
 0001637,0.00019915,0.00010115,0.00012695,-0.00092865,0.00062393,-0.000
 31126,-0.00014812,0.00135085,-0.06704109,-0.02168829,0.07494112,-0.000
 87079,-0.00016112,0.00009485,0.00009532,-0.00050835,-0.00035871,-0.001
 65068,0.00165176,-0.00098713,0.00014138,-0.00022644,0.00010376,-0.1289
 2086,0.12004862,0.01583797,-0.00002749,0.00000232,0.00001374,0.0078134
 0,-0.01274800,-0.00185941,0.00006634,0.00001517,-0.00002036,-0.0000095
 3,-0.00000370,0.00000095,0.00006467,0.00016545,-0.00018545,-0.00163453
 ,-0.00086116,0.00137744,0.00001702,0.00018269,-0.00002594,0.00000308,-
 0.00003922,0.00007773,0.00001781,0.00009687,-0.00041714,0.00107819,-0.
 00034871,-0.00077838,-0.01733295,0.02499171,0.00305891,0.14032479,0.00
 073307,-0.00000303,0.00067339,0.00083451,-0.00018856,-0.00053529,0.009
 16632,-0.01333714,-0.00087056,-0.00049394,0.00029522,-0.00044791,0.118
 17417,-0.22460772,-0.02155943,0.00026778,0.00004269,-0.00000195,0.0098
 2753,-0.01654057,-0.00306297,-0.00006013,-0.00002595,0.00003754,0.0000
 6694,0.00004912,0.00001542,-0.00010384,-0.00013230,0.00013853,-0.00080
 165,0.00030891,-0.00052883,-0.00020885,0.00018479,0.00004753,-0.000003
 92,0.00005266,0.00004552,-0.00022874,0.00085539,0.00013007,-0.00005366
 ,-0.00032669,0.00300478,-0.00461593,0.00826476,0.00073156,-0.13051812,
 0.24495544,0.00072795,0.00018335,0.00038290,-0.00034966,-0.00064300,0.
 00095530,-0.01848012,0.02547299,0.00222988,0.00006948,-0.00013815,-0.0
 0009788,0.01569177,-0.02217160,-0.04967948,-0.00006031,0.00002779,0.00
 000140,0.01374901,-0.02178150,-0.00383384,0.00001917,0.00001829,-0.000
 00656,-0.00006510,-0.00003865,0.00001774,-0.00002087,-0.00022924,-0.00
 026664,0.00103543,0.00029097,-0.00036679,-0.00004021,-0.00024488,0.000
 04686,0.00005395,0.00005051,-0.00006937,-0.00004831,-0.00073739,0.0012
 5303,-0.00010039,0.00352505,-0.00519349,0.00479955,-0.00728081,-0.0016
 1248,-0.01500623,0.02496324,0.05815023,0.00074337,0.00077782,0.0010597
 4,-0.00001406,-0.00004640,-0.00004195,-0.00001748,-0.00003744,-0.00001
 576,-0.00164721,-0.00189751,-0.00150499,0.00001734,-0.00000855,0.00000
 517,-0.08250189,-0.06637637,-0.05919434,-0.00000328,0.00001195,-0.0000
 0133,-0.00027399,-0.00017561,-0.00014132,0.00074936,0.00048165,-0.0000
 9195,0.00034877,-0.00003931,-0.00017105,-0.00004411,0.00007687,0.00000
 298,0.00002467,0.00011024,-0.00022667,0.00001849,0.00001367,-0.0001351
 0,-0.00002059,-0.00001553,-0.00000037,0.00002565,-0.00000347,-0.000018
 26,0.00001154,0.00000245,-0.00001338,-0.00000624,-0.00000832,0.0000065
 4,0.08456903,0.00055181,0.00117276,0.00011164,0.00008945,0.00007608,-0
 .00012666,-0.00006850,-0.00001856,-0.00004166,0.00450451,0.00943880,0.
 00848106,0.00002681,0.00003338,0.00000650,-0.06663314,-0.17618015,-0.1
 1437443,0.00000018,-0.00000953,0.00000752,0.00006026,0.00066837,-0.000
 77933,-0.00001721,0.00014504,0.00320213,0.00019898,-0.00007200,-0.0005
 6520,0.00023285,0.00010323,-0.00007379,-0.00000650,-0.00018746,-0.0001
 7238,0.00004352,-0.00005500,0.00013563,0.00003199,0.00004783,-0.000001
 22,0.00001578,-0.00000413,-0.00000525,0.00000828,0.00000150,-0.0000145
 7,-0.00000194,-0.00001452,0.00000570,0.07374071,0.18883595,-0.00103344
 ,-0.00162001,0.00148192,0.00030656,0.00010251,-0.00004520,0.00003956,-
 0.00005366,-0.00000041,-0.01100512,-0.02239209,-0.02160193,0.00002359,
 -0.00000149,-0.00000423,-0.05887322,-0.11394828,-0.14644295,-0.0000431
 0,-0.00001293,0.00001233,-0.00012693,0.00017337,0.00113178,-0.00049649
 ,0.00337293,-0.00537987,0.00089775,0.00085505,0.00009589,-0.00010908,0
 .00026439,0.00056938,0.00006539,-0.00015064,-0.00014477,-0.00016069,0.
 00014010,0.00016092,0.00006342,0.00003833,-0.00000126,0.00002115,0.000
 01075,-0.00000341,0.00000276,0.00000836,0.00000577,-0.00000306,0.00000
 837,-0.00000524,0.06604805,0.12386322,0.16298457,0.00012162,-0.0004199
 4,-0.00035270,-0.00077180,0.00017653,0.00010618,0.00012151,-0.00017061
 ,0.00010305,-0.00167085,0.00136739,-0.00102426,-0.00004727,-0.00000939
 ,0.00001984,-0.14505065,0.12961031,-0.00412091,-0.00000878,0.00000522,
 -0.00000822,0.00101405,-0.00029422,-0.00058585,-0.00000142,0.00002840,
 -0.00027975,0.00000133,-0.00002982,0.00001403,0.00000736,0.00014946,-0
 .00005466,-0.00144376,-0.00070611,0.00182240,0.00004827,0.00010367,-0.
 00008040,-0.00000821,-0.00000730,-0.00000054,0.00006029,0.00001210,-0.
 00001948,0.00001033,-0.00000962,0.00000089,-0.00000314,-0.00002058,-0.
 00000040,0.00798766,-0.01067988,0.00108000,0.15687559,0.00083497,-0.00
 026902,-0.00032036,0.00070685,-0.00022146,0.00075922,-0.00042051,0.000
 25068,-0.00044398,0.00636729,-0.00900619,0.00014522,0.00023790,-0.0000
 0471,0.00001089,0.12899217,-0.21859783,0.00492850,0.00000936,0.0000477
 8,-0.00001418,-0.00024978,0.00064822,0.00233410,-0.00037623,0.00085748
 ,0.00014504,-0.00001257,0.00001266,0.00005109,-0.00021878,0.00016530,0
 .00004815,-0.00060473,0.00063942,-0.00057957,-0.00012506,-0.00012969,-
 0.00008899,0.00001361,-0.00000724,0.00002447,-0.00004521,-0.00001802,0
 .00003109,-0.00000192,0.00005296,-0.00008460,-0.00001768,0.00004434,-0
 .00001534,0.01393835,-0.01758860,0.00087681,-0.14317047,0.23478921,-0.
 00034569,-0.00041561,0.00112391,0.00042849,0.00004675,0.00013467,0.000
 19539,-0.00017503,0.00004306,-0.02095003,0.02621280,-0.00028374,-0.000
 12934,0.00002239,-0.00000587,-0.00350568,0.00379827,-0.04686188,0.0000
 1048,-0.00002063,0.00001749,-0.00009675,0.00274470,-0.00611450,-0.0000
 9183,-0.00074103,0.00160689,0.00011849,0.00001631,-0.00006381,0.000026
 42,-0.00024593,0.00009893,0.00133758,0.00024087,-0.00046667,-0.0000510
 8,-0.00015007,-0.00022632,-0.00006667,-0.00005106,0.00000705,0.0000211
 6,0.00002112,-0.00001028,-0.00000375,-0.00002646,0.00004953,0.00000643
 ,-0.00001717,-0.00000278,0.01343032,-0.01520117,0.00009472,0.00405606,
 -0.00701958,0.05161668,0.00071874,0.00041237,-0.00061809,-0.00007766,0
 .00010203,-0.00038968,0.00020196,-0.00009313,0.00015649,0.00446869,0.0
 0203843,-0.00242194,-0.00011128,-0.00000200,-0.00001842,-0.26699575,-0
 .06852761,0.08110621,0.00001190,-0.00002482,0.00000884,0.00071026,-0.0
 0033631,0.00038663,0.00011697,-0.00007018,0.00063667,0.00007364,0.0001
 8201,-0.00007739,0.00003769,0.00013777,-0.00008283,0.00028591,-0.00024
 062,0.00025641,0.00000844,0.00001045,0.00008907,0.00000047,-0.00000296
 ,-0.00000613,-0.00000910,0.00001391,0.00000403,-0.00001450,-0.00002320
 ,0.00005640,0.00001544,0.00000160,-0.00000308,-0.00997545,-0.00210513,
 0.00329130,-0.01725968,-0.00585264,0.00561849,0.28781521,0.00124112,-0
 .00057467,0.00289529,0.00061527,-0.00019701,0.00026228,-0.00020481,0.0
 0013456,-0.00018225,-0.01126551,-0.00478945,0.00330922,0.00011178,-0.0
 0001686,-0.00000549,-0.06780623,-0.06777070,0.02418482,0.00000715,0.00
 001900,-0.00000722,-0.00022287,-0.00002207,-0.00043489,0.00038998,0.00
 033095,-0.00013390,0.00040958,0.00036475,-0.00009026,-0.00078473,-0.00
 005765,0.00062985,-0.00024609,0.00013568,-0.00044854,-0.00006495,0.000
 01634,0.00001174,0.00002860,0.00000905,0.00000487,-0.00005126,-0.00000
 457,0.00002342,-0.00002077,0.00003211,-0.00002840,-0.00000192,0.000053
 43,-0.00001385,-0.02054502,-0.00639745,0.00846323,0.02405524,0.0083554
 6,-0.00905064,0.07437929,0.07039709,-0.00262955,0.00156150,-0.00565183
 ,-0.00055553,0.00055240,0.00000721,0.00001950,-0.00011141,-0.00000514,
 0.02935084,0.00878134,-0.00969519,0.00002504,0.00007792,0.00001065,0.0
 7991629,0.02410041,-0.07568050,-0.00000277,-0.00000723,0.00001559,-0.0
 0026428,-0.00008936,0.00154195,0.00002969,-0.00090673,0.00070356,-0.00
 005328,0.00017609,0.00014889,0.00159464,0.00079997,-0.00066489,0.00002
 195,-0.00015939,0.00013077,0.00002764,-0.00006451,0.00000393,0.0000065
 4,0.00003550,0.00000109,0.00008663,-0.00000402,-0.00002297,0.00005038,
 -0.00003599,-0.00003143,0.00000192,-0.00010162,0.00002524,-0.01899559,
 -0.00445833,0.00707904,-0.00067497,-0.00078339,-0.00075541,-0.08799134
 ,-0.02938688,0.08282888,-0.00008503,0.00009991,-0.00020470,0.00004889,
 0.00042464,0.00006643,0.00080361,-0.00011961,0.00058728,0.00005131,0.0
 0002884,0.00005421,0.00737559,-0.01219979,-0.00108033,-0.00003904,0.00
 000763,0.00000351,-0.11695208,0.11602598,0.01045193,0.00000698,-0.0000
 1374,-0.00001285,0.00000009,0.00002590,-0.00003389,0.00005658,-0.00009
 558,0.00014829,0.00012479,-0.00022221,-0.00007361,0.00002494,-0.000080
 96,-0.00000892,-0.00028346,-0.00010744,-0.00005562,-0.00006303,-0.0001
 1384,0.00022505,-0.00015915,0.00031874,0.00035287,0.00057161,0.0001642
 1,0.00075223,-0.00015995,-0.00182358,-0.00244192,0.00000248,-0.0000056
 7,0.00000283,0.00001049,-0.00001184,0.00001495,-0.00000335,-0.00001189
 ,0.00001627,0.12349777,0.00003530,0.00008896,0.00019966,0.00002264,0.0
 0023975,-0.00027911,0.00001784,0.00100486,0.00134499,-0.00005439,0.000
 02561,-0.00004649,0.00997864,-0.01758802,-0.00220951,0.00003701,0.0000
 1230,0.00000009,0.11589443,-0.23985465,-0.01571494,-0.00000275,-0.0000
 0262,0.00000140,0.00001716,0.00001526,-0.00000374,-0.00004876,-0.00001
 134,0.00007382,-0.00009905,-0.00002379,-0.00004459,0.00006921,0.000022
 14,-0.00006331,0.00016155,-0.00009996,-0.00027670,-0.00024849,0.000222
 03,0.00020604,-0.00019051,0.00050445,-0.00086719,-0.00024352,0.0001455
 2,0.00043628,-0.00250185,-0.00097650,-0.00275416,-0.00000368,-0.000001
 42,0.00000470,-0.00000637,-0.00000072,-0.00000089,0.00000734,0.0000054
 5,-0.00001524,-0.12662267,0.26198591,0.00001979,-0.00019255,0.00006468
 ,0.00003682,-0.00006265,-0.00004747,0.00129854,-0.00089835,0.00151571,
 -0.00007027,0.00007314,-0.00003173,0.01347704,-0.02175402,-0.00324707,
 0.00003225,-0.00000832,-0.00000261,0.01023353,-0.01542373,-0.04809461,
 -0.00002769,-0.00000302,0.00001198,0.00002131,0.00000631,0.00000913,0.
 00000005,0.00007657,0.00000310,-0.00017676,0.00004641,-0.00000153,0.00
 002405,0.00011096,0.00003543,0.00026748,0.00013263,-0.00000352,-0.0001
 7426,0.00024295,0.00038300,-0.00054276,0.00055147,-0.00011464,-0.00005
 029,0.00076189,0.00074243,-0.00234101,-0.00310972,-0.00343810,0.000001
 50,0.00000075,0.00000261,-0.00000092,0.00001452,-0.00001002,-0.0000067
 7,0.00000907,-0.00000904,-0.00949696,0.02092167,0.05073674,0.00037653,
 -0.00000995,0.00025209,-0.00036699,-0.00083456,0.00012106,-0.00034688,
 -0.00038744,0.00059414,0.00009238,0.00003147,-0.00001519,-0.01149050,-
 0.00284930,0.00163015,-0.00001342,-0.00002830,-0.00000294,-0.29176706,
 -0.05487088,0.04712873,-0.00001117,0.00000499,0.00000390,0.00003843,-0
 .00003368,-0.00009413,-0.00004333,0.00006411,0.00007808,0.00005686,0.0
 0004035,-0.00028286,0.00023604,0.00035161,0.00026512,0.00043941,0.0006
 3879,0.00057030,0.00016000,0.00009007,-0.00017625,0.00005937,-0.000034
 74,0.00001557,0.00071949,-0.00130782,-0.00213986,0.00073176,-0.0000392
 1,-0.00010020,0.00000406,0.00001095,0.00000111,0.00000511,0.00000691,-
 0.00001573,-0.00001338,-0.00000653,0.00001014,-0.01531506,-0.00379741,
 0.00319722,0.31703727,-0.00015938,0.00028766,-0.00045400,0.00004368,0.
 00044548,0.00025180,0.00065594,0.00010149,0.00053210,0.00017045,0.0000
 2103,0.00013896,-0.01967176,-0.00559559,0.00402299,-0.00008382,-0.0000
 2347,-0.00000449,-0.05489377,-0.05932389,0.01104752,0.00002380,-0.0000
 2021,-0.00003716,-0.00003538,-0.00001051,-0.00004597,0.00006062,-0.000
 10355,0.00017283,0.00021049,-0.00045295,-0.00020890,0.00016017,-0.0000
 3450,-0.00002031,0.00013192,-0.00018754,0.00088981,-0.00004275,-0.0000
 1748,0.00004395,0.00001666,0.00003258,-0.00002941,-0.00147902,-0.00171
 074,-0.00360872,0.00015733,0.00047200,0.00084015,0.00000173,0.00000112
 ,-0.00000731,0.00001449,-0.00002107,0.00001988,-0.00000040,-0.00002130
 ,0.00003239,0.02727432,0.00710308,-0.00565926,0.06285172,0.06310679,0.
 00001781,0.00022850,-0.00037056,0.00011642,0.00063722,-0.00101101,-0.0
 0029222,0.00028250,0.00114804,0.00010266,0.00000806,0.00003167,-0.0248
 4684,-0.00496869,0.00564451,-0.00006972,-0.00000785,0.00000539,0.04821
 577,0.01093553,-0.05595845,-0.00003244,0.00002410,0.00003372,0.0000494
 5,0.00002367,0.00002596,-0.00006205,0.00003013,0.00025675,0.00015132,-
 0.00056998,0.00008537,0.00005342,-0.00002101,0.00019306,0.00005919,0.0
 0066732,-0.00176483,0.00032363,-0.00001695,0.00014719,0.00000539,-0.00
 003608,-0.00010273,-0.00217803,-0.00300854,-0.00356676,0.00077224,0.00
 062045,0.00109864,0.00000920,0.00000019,0.00000450,0.00000850,0.000005
 86,-0.00000690,-0.00002012,-0.00001541,0.00003617,0.00132907,0.0006152
 7,-0.00165990,-0.05159034,-0.01028265,0.06067922,0.00011454,0.00005396
 ,-0.00006854,-0.00029172,-0.00065410,0.00009094,-0.00088989,-0.0026400
 8,-0.00186396,0.00004829,-0.00004162,-0.00001048,-0.00069756,0.0074394
 7,-0.01218852,-0.00001472,0.00000411,0.00000366,-0.04749734,-0.0060737
 5,0.01292633,-0.00000369,0.00001604,0.00001399,0.00004270,0.00002020,-
 0.00001090,-0.00001575,0.00004841,0.00007511,0.00004994,-0.00014485,0.
 00000859,0.00014791,0.00020759,0.00017242,0.00011314,0.00051448,0.0002
 7600,0.00014723,0.00024134,-0.00101888,0.00015728,-0.00020584,0.000363
 61,0.00025996,0.00067126,0.00018018,0.00024696,-0.00009143,0.00056394,
 0.00000189,0.00000187,0.00000764,0.00000193,0.00000002,-0.00000771,-0.
 00000516,-0.00000543,0.00000985,0.00048505,0.00757832,-0.01572187,-0.0
 0058890,-0.01540704,0.02787771,0.04818790,0.00006284,0.00006940,0.0000
 5590,-0.00033520,-0.00045750,-0.00000973,-0.00154098,-0.00260848,-0.00
 229893,0.00002520,-0.00001635,-0.00001238,0.00120149,0.01044705,-0.019
 12679,-0.00000283,-0.00000378,-0.00000306,-0.00578672,-0.10906368,0.11
 431323,-0.00000308,0.00000935,0.00000570,0.00002037,0.00000225,0.00000
 252,-0.00006550,0.00006104,0.00001477,-0.00000573,-0.00001780,0.000013
 66,0.00009404,0.00013186,0.00010388,0.00027531,0.00027776,0.00013233,-
 0.00029159,0.00055981,-0.00100363,-0.00027303,0.00012877,-0.00017880,0
 .00036744,0.00086453,0.00079229,0.00062627,0.00057421,0.00067052,0.000
 00179,0.00000477,0.00000430,0.00000149,0.00000104,-0.00000783,-0.00000
 618,-0.00000214,0.00000657,-0.00294136,-0.01281631,0.02416326,0.000108
 85,-0.00404846,0.00484837,0.00846707,0.11590267,-0.00006127,0.00012458
 ,-0.00003422,-0.00044844,-0.00032668,0.00043808,-0.00178015,-0.0046556
 3,-0.00193476,-0.00000843,-0.00006829,0.00001857,0.00148841,0.01228038
 ,-0.01979308,0.00002747,0.00001902,-0.00000083,0.01232535,0.11338966,-
 0.25418045,0.00006079,-0.00000962,-0.00003131,-0.00000640,0.00001940,-
 0.00000063,-0.00002013,-0.00000070,-0.00001469,-0.00003277,0.00003569,
 0.00001692,0.00003312,0.00002028,-0.00004305,0.00000559,-0.00005572,0.
 00016654,-0.00011556,0.00076519,-0.00144747,-0.00004181,0.00002516,0.0
 0019086,-0.00034319,0.00028810,0.00107814,0.00063690,-0.00018096,0.000
 41144,-0.00001144,-0.00000037,0.00000584,-0.00000791,-0.00002499,0.000
 01524,0.00002525,0.00000393,-0.00001657,-0.00059613,-0.00152805,0.0031
 5544,0.00054990,0.00236578,-0.00494905,-0.01167910,-0.12248616,0.27694
 903\\0.00000016,-0.00000022,0.00000081,-0.00000070,0.00000017,-0.00000
 050,0.00000032,-0.00000049,0.00000024,0.00000044,0.00000058,-0.0000000
 9,0.00000057,-0.00000020,0.00000064,-0.00000065,-0.00000037,-0.0000004
 7,0.00000063,0.00000122,0.00000005,0.00000055,0.00000090,0.00000036,-0
 .00000055,0.00000114,-0.00000080,0.00000057,-0.00000066,0.00000080,0.0
 0000075,0.00000073,0.00000059,-0.00000083,-0.00000130,-0.00000056,-0.0
 0000106,0.00000018,-0.00000093,0.00000053,-0.00000162,0.00000036,-0.00
 000058,-0.00000150,-0.00000043,0.00000070,-0.00000053,0.00000091,0.000
 00133,0.00000012,0.00000159,-0.00000006,-0.00000138,0.00000002,-0.0000
 0104,-0.00000119,-0.00000115,-0.00000073,-0.00000024,-0.00000081,-0.00
 000073,0.00000129,-0.00000079,0.,0.00000162,-0.00000027,0.00000039,0.0
 0000175,0.00000044\\\@


 TO ERR IS HUMAN - AND TO BLAME IT ON A COMPUTER IS EVEN MORE SO.
 Job cpu time:       0 days  5 hours 25 minutes 51.5 seconds.
 Elapsed time:       0 days  2 hours 42 minutes 57.6 seconds.
 File lengths (MBytes):  RWF=   1488 Int=      0 D2E=      0 Chk=     32 Scr=     32
 Normal termination of Gaussian 16 at Sun Sep 29 19:19:36 2019.
