 Entering Gaussian System, Link 0=g16
 Input=loose/species/CCCCCCC/conformers/CCCCCCC_349.com
 Output=loose/species/CCCCCCC/conformers/CCCCCCC_349.log
 Initial command:
 /shared/centos7/gaussian/g16/l1.exe "/scratch/harms.n/gauss_scrdir/Gau-6236.inp" -scrdir="/scratch/harms.n/gauss_scrdir/"
 Entering Link 1 = /shared/centos7/gaussian/g16/l1.exe PID=      6237.
  
 Copyright (c) 1988,1990,1992,1993,1995,1998,2003,2009,2016,
            Gaussian, Inc.  All Rights Reserved.
  
 This is part of the Gaussian(R) 16 program.  It is based on
 the Gaussian(R) 09 system (copyright 2009, Gaussian, Inc.),
 the Gaussian(R) 03 system (copyright 2003, Gaussian, Inc.),
 the Gaussian(R) 98 system (copyright 1998, Gaussian, Inc.),
 the Gaussian(R) 94 system (copyright 1995, Gaussian, Inc.),
 the Gaussian 92(TM) system (copyright 1992, Gaussian, Inc.),
 the Gaussian 90(TM) system (copyright 1990, Gaussian, Inc.),
 the Gaussian 88(TM) system (copyright 1988, Gaussian, Inc.),
 the Gaussian 86(TM) system (copyright 1986, Carnegie Mellon
 University), and the Gaussian 82(TM) system (copyright 1983,
 Carnegie Mellon University). Gaussian is a federally registered
 trademark of Gaussian, Inc.
  
 This software contains proprietary and confidential information,
 including trade secrets, belonging to Gaussian, Inc.
  
 This software is provided under written license and may be
 used, copied, transmitted, or stored only in accord with that
 written license.
  
 The following legend is applicable only to US Government
 contracts under FAR:
  
                    RESTRICTED RIGHTS LEGEND
  
 Use, reproduction and disclosure by the US Government is
 subject to restrictions as set forth in subparagraphs (a)
 and (c) of the Commercial Computer Software - Restricted
 Rights clause in FAR 52.227-19.
  
 Gaussian, Inc.
 340 Quinnipiac St., Bldg. 40, Wallingford CT 06492
  
  
 ---------------------------------------------------------------
 Warning -- This program may not be used in any manner that
 competes with the business of Gaussian, Inc. or will provide
 assistance to any competitor of Gaussian, Inc.  The licensee
 of this program is prohibited from giving any competitor of
 Gaussian, Inc. access to this program.  By using this program,
 the user acknowledges that Gaussian, Inc. is engaged in the
 business of creating and licensing software in the field of
 computational chemistry and represents and warrants to the
 licensee that it is not a competitor of Gaussian, Inc. and that
 it will not use this program in any manner prohibited above.
 ---------------------------------------------------------------
  

 Cite this work as:
 Gaussian 16, Revision A.03,
 M. J. Frisch, G. W. Trucks, H. B. Schlegel, G. E. Scuseria, 
 M. A. Robb, J. R. Cheeseman, G. Scalmani, V. Barone, 
 G. A. Petersson, H. Nakatsuji, X. Li, M. Caricato, A. V. Marenich, 
 J. Bloino, B. G. Janesko, R. Gomperts, B. Mennucci, H. P. Hratchian, 
 J. V. Ortiz, A. F. Izmaylov, J. L. Sonnenberg, D. Williams-Young, 
 F. Ding, F. Lipparini, F. Egidi, J. Goings, B. Peng, A. Petrone, 
 T. Henderson, D. Ranasinghe, V. G. Zakrzewski, J. Gao, N. Rega, 
 G. Zheng, W. Liang, M. Hada, M. Ehara, K. Toyota, R. Fukuda, 
 J. Hasegawa, M. Ishida, T. Nakajima, Y. Honda, O. Kitao, H. Nakai, 
 T. Vreven, K. Throssell, J. A. Montgomery, Jr., J. E. Peralta, 
 F. Ogliaro, M. J. Bearpark, J. J. Heyd, E. N. Brothers, K. N. Kudin, 
 V. N. Staroverov, T. A. Keith, R. Kobayashi, J. Normand, 
 K. Raghavachari, A. P. Rendell, J. C. Burant, S. S. Iyengar, 
 J. Tomasi, M. Cossi, J. M. Millam, M. Klene, C. Adamo, R. Cammi, 
 J. W. Ochterski, R. L. Martin, K. Morokuma, O. Farkas, 
 J. B. Foresman, and D. J. Fox, Gaussian, Inc., Wallingford CT, 2016.
 
 ******************************************
 Gaussian 16:  EM64L-G16RevA.03 25-Dec-2016
                30-Sep-2019 
 ******************************************
 %nprocshared=20
 Will use up to   20 processors via shared memory.
 %mem=5GB
 ----------------------------------------------------------------------
 #p m062x/cc-pVTZ opt=(calcfc,maxcycles=900,Tight) freq IOP(7/33=1,2/16
 =3) scf=(maxcycle=900)
 ----------------------------------------------------------------------
 1/6=900,7=10,10=4,18=20,19=15,26=3,38=1/1,3;
 2/9=110,12=2,16=3,17=6,18=5,40=1/2;
 3/5=16,6=1,11=2,25=1,30=1,71=2,74=-55,140=1/1,2,3;
 4//1;
 5/5=2,7=900,38=5/2;
 8/6=4,10=90,11=11/1;
 11/6=1,8=1,9=11,15=111,16=1/1,2,10;
 10/6=1,13=1/2;
 6/7=2,8=2,9=2,10=2,28=1/1;
 7/10=1,18=20,25=1,33=1/1,2,3,16;
 1/6=900,7=10,10=4,18=20,19=15,26=3/3(2);
 2/9=110,16=3/2;
 99//99;
 2/9=110,16=3/2;
 3/5=16,6=1,11=2,25=1,30=1,71=1,74=-55/1,2,3;
 4/5=5,16=3,69=1/1;
 5/5=2,7=900,38=5/2;
 7/33=1/1,2,3,16;
 1/6=900,7=10,18=20,19=15,26=3/3(-5);
 2/9=110,16=3/2;
 6/7=2,8=2,9=2,10=2,19=2,28=1/1;
 99/9=1/99;
 Leave Link    1 at Mon Sep 30 08:29:46 2019, MaxMem=   671088640 cpu:               2.8 elap:               1.4
 (Enter /shared/centos7/gaussian/g16/l101.exe)
 ------------------------------
 Gaussian input prepared by ASE
 ------------------------------
 Symbolic Z-matrix:
 Charge =  0 Multiplicity = 1
 C                     1.40916  -1.11248   0.54906 
 C                     0.14783  -0.41272   0.92503 
 C                     0.28845   0.96824   1.51507 
 C                     2.19992  -0.51236  -0.56431 
 C                    -0.32395   2.0257    0.62714 
 C                     2.7887    0.82503  -0.37904 
 C                     0.16862   2.00502  -0.79655 
 H                     1.5411   -0.48819  -1.47783 
 H                     3.00895  -1.23864  -0.81676 
 H                     1.1144   -2.12963   0.21424 
 H                     2.04675  -1.25331   1.44588 
 H                    -0.39711  -1.06349   1.62662 
 H                    -0.50527  -0.34501   0.02941 
 H                     1.34969   1.20032   1.70751 
 H                    -0.22341   1.00792   2.49872 
 H                    -1.43175   1.85165   0.62465 
 H                    -0.18521   3.02701   1.06917 
 H                     2.54726   1.27126   0.60405 
 H                     3.91362   0.80292  -0.48677 
 H                     2.42177   1.52964  -1.15516 
 H                     0.41687   0.99286  -1.11823 
 H                     1.08234   2.64943  -0.92193 
 H                    -0.61604   2.40116  -1.50314 
 
 ITRead=  0  0  0  0  0  0  0  0  0  0  0  0  0  0  0  0  0  0  0  0
 ITRead=  0  0  0
 MicOpt= -1 -1 -1 -1 -1 -1 -1 -1 -1 -1 -1 -1 -1 -1 -1 -1 -1 -1 -1 -1
 MicOpt= -1 -1 -1
 NAtoms=     23 NQM=       23 NQMF=       0 NMMI=      0 NMMIF=      0
                NMic=       0 NMicF=      0.
                    Isotopes and Nuclear Properties:
 (Nuclear quadrupole moments (NQMom) in fm**2, nuclear magnetic moments (NMagM)
  in nuclear magnetons)

  Atom         1           2           3           4           5           6           7           8           9          10
 IAtWgt=          12          12          12          12          12          12          12           1           1           1
 AtmWgt=  12.0000000  12.0000000  12.0000000  12.0000000  12.0000000  12.0000000  12.0000000   1.0078250   1.0078250   1.0078250
 NucSpn=           0           0           0           0           0           0           0           1           1           1
 AtZEff=  -0.0000000  -0.0000000  -0.0000000  -0.0000000  -0.0000000  -0.0000000  -0.0000000  -0.0000000  -0.0000000  -0.0000000
 NQMom=    0.0000000   0.0000000   0.0000000   0.0000000   0.0000000   0.0000000   0.0000000   0.0000000   0.0000000   0.0000000
 NMagM=    0.0000000   0.0000000   0.0000000   0.0000000   0.0000000   0.0000000   0.0000000   2.7928460   2.7928460   2.7928460
 AtZNuc=   6.0000000   6.0000000   6.0000000   6.0000000   6.0000000   6.0000000   6.0000000   1.0000000   1.0000000   1.0000000

  Atom        11          12          13          14          15          16          17          18          19          20
 IAtWgt=           1           1           1           1           1           1           1           1           1           1
 AtmWgt=   1.0078250   1.0078250   1.0078250   1.0078250   1.0078250   1.0078250   1.0078250   1.0078250   1.0078250   1.0078250
 NucSpn=           1           1           1           1           1           1           1           1           1           1
 AtZEff=  -0.0000000  -0.0000000  -0.0000000  -0.0000000  -0.0000000  -0.0000000  -0.0000000  -0.0000000  -0.0000000  -0.0000000
 NQMom=    0.0000000   0.0000000   0.0000000   0.0000000   0.0000000   0.0000000   0.0000000   0.0000000   0.0000000   0.0000000
 NMagM=    2.7928460   2.7928460   2.7928460   2.7928460   2.7928460   2.7928460   2.7928460   2.7928460   2.7928460   2.7928460
 AtZNuc=   1.0000000   1.0000000   1.0000000   1.0000000   1.0000000   1.0000000   1.0000000   1.0000000   1.0000000   1.0000000

  Atom        21          22          23
 IAtWgt=           1           1           1
 AtmWgt=   1.0078250   1.0078250   1.0078250
 NucSpn=           1           1           1
 AtZEff=  -0.0000000  -0.0000000  -0.0000000
 NQMom=    0.0000000   0.0000000   0.0000000
 NMagM=    2.7928460   2.7928460   2.7928460
 AtZNuc=   1.0000000   1.0000000   1.0000000
 Leave Link  101 at Mon Sep 30 08:29:48 2019, MaxMem=   671088640 cpu:               3.9 elap:               2.0
 (Enter /shared/centos7/gaussian/g16/l103.exe)

 GradGradGradGradGradGradGradGradGradGradGradGradGradGradGradGradGradGrad
 Berny optimization.
 Initialization pass.
                           ----------------------------
                           !    Initial Parameters    !
                           ! (Angstroms and Degrees)  !
 --------------------------                            --------------------------
 ! Name  Definition              Value          Derivative Info.                !
 --------------------------------------------------------------------------------
 ! R1    R(1,2)                  1.4906         calculate D2E/DX2 analytically  !
 ! R2    R(1,4)                  1.4917         calculate D2E/DX2 analytically  !
 ! R3    R(1,10)                 1.1107         calculate D2E/DX2 analytically  !
 ! R4    R(1,11)                 1.1093         calculate D2E/DX2 analytically  !
 ! R5    R(2,3)                  1.5083         calculate D2E/DX2 analytically  !
 ! R6    R(2,12)                 1.1012         calculate D2E/DX2 analytically  !
 ! R7    R(2,13)                 1.1105         calculate D2E/DX2 analytically  !
 ! R8    R(3,5)                  1.5105         calculate D2E/DX2 analytically  !
 ! R9    R(3,14)                 1.1032         calculate D2E/DX2 analytically  !
 ! R10   R(3,15)                 1.1096         calculate D2E/DX2 analytically  !
 ! R11   R(4,6)                  1.473          calculate D2E/DX2 analytically  !
 ! R12   R(4,8)                  1.1266         calculate D2E/DX2 analytically  !
 ! R13   R(4,9)                  1.1161         calculate D2E/DX2 analytically  !
 ! R14   R(5,7)                  1.5066         calculate D2E/DX2 analytically  !
 ! R15   R(5,16)                 1.1214         calculate D2E/DX2 analytically  !
 ! R16   R(5,17)                 1.1033         calculate D2E/DX2 analytically  !
 ! R17   R(6,18)                 1.1063         calculate D2E/DX2 analytically  !
 ! R18   R(6,19)                 1.1303         calculate D2E/DX2 analytically  !
 ! R19   R(6,20)                 1.1106         calculate D2E/DX2 analytically  !
 ! R20   R(7,21)                 1.0907         calculate D2E/DX2 analytically  !
 ! R21   R(7,22)                 1.1251         calculate D2E/DX2 analytically  !
 ! R22   R(7,23)                 1.1278         calculate D2E/DX2 analytically  !
 ! A1    A(2,1,4)              116.6135         calculate D2E/DX2 analytically  !
 ! A2    A(2,1,10)             106.3421         calculate D2E/DX2 analytically  !
 ! A3    A(2,1,11)             110.0006         calculate D2E/DX2 analytically  !
 ! A4    A(4,1,10)             106.5068         calculate D2E/DX2 analytically  !
 ! A5    A(4,1,11)             110.475          calculate D2E/DX2 analytically  !
 ! A6    A(10,1,11)            106.2587         calculate D2E/DX2 analytically  !
 ! A7    A(1,2,3)              116.7168         calculate D2E/DX2 analytically  !
 ! A8    A(1,2,12)             107.5784         calculate D2E/DX2 analytically  !
 ! A9    A(1,2,13)             108.8353         calculate D2E/DX2 analytically  !
 ! A10   A(3,2,12)             109.7523         calculate D2E/DX2 analytically  !
 ! A11   A(3,2,13)             108.3305         calculate D2E/DX2 analytically  !
 ! A12   A(12,2,13)            105.0006         calculate D2E/DX2 analytically  !
 ! A13   A(2,3,5)              111.9133         calculate D2E/DX2 analytically  !
 ! A14   A(2,3,14)             110.5192         calculate D2E/DX2 analytically  !
 ! A15   A(2,3,15)             109.666          calculate D2E/DX2 analytically  !
 ! A16   A(5,3,14)             110.1974         calculate D2E/DX2 analytically  !
 ! A17   A(5,3,15)             108.0024         calculate D2E/DX2 analytically  !
 ! A18   A(14,3,15)            106.3559         calculate D2E/DX2 analytically  !
 ! A19   A(1,4,6)              118.9018         calculate D2E/DX2 analytically  !
 ! A20   A(1,4,8)              107.69           calculate D2E/DX2 analytically  !
 ! A21   A(1,4,9)              106.9349         calculate D2E/DX2 analytically  !
 ! A22   A(6,4,8)              108.4381         calculate D2E/DX2 analytically  !
 ! A23   A(6,4,9)              109.2402         calculate D2E/DX2 analytically  !
 ! A24   A(8,4,9)              104.7408         calculate D2E/DX2 analytically  !
 ! A25   A(3,5,7)              114.4131         calculate D2E/DX2 analytically  !
 ! A26   A(3,5,16)             107.047          calculate D2E/DX2 analytically  !
 ! A27   A(3,5,17)             110.4174         calculate D2E/DX2 analytically  !
 ! A28   A(7,5,16)             108.5868         calculate D2E/DX2 analytically  !
 ! A29   A(7,5,17)             110.4836         calculate D2E/DX2 analytically  !
 ! A30   A(16,5,17)            105.4249         calculate D2E/DX2 analytically  !
 ! A31   A(4,6,18)             113.0027         calculate D2E/DX2 analytically  !
 ! A32   A(4,6,19)             111.5975         calculate D2E/DX2 analytically  !
 ! A33   A(4,6,20)             110.8596         calculate D2E/DX2 analytically  !
 ! A34   A(18,6,19)            108.0473         calculate D2E/DX2 analytically  !
 ! A35   A(18,6,20)            107.0363         calculate D2E/DX2 analytically  !
 ! A36   A(19,6,20)            105.939          calculate D2E/DX2 analytically  !
 ! A37   A(5,7,21)             111.4601         calculate D2E/DX2 analytically  !
 ! A38   A(5,7,22)             111.2816         calculate D2E/DX2 analytically  !
 ! A39   A(5,7,23)             111.0852         calculate D2E/DX2 analytically  !
 ! A40   A(21,7,22)            108.2885         calculate D2E/DX2 analytically  !
 ! A41   A(21,7,23)            107.4303         calculate D2E/DX2 analytically  !
 ! A42   A(22,7,23)            107.0995         calculate D2E/DX2 analytically  !
 ! D1    D(4,1,2,3)            -65.8142         calculate D2E/DX2 analytically  !
 ! D2    D(4,1,2,12)           170.3833         calculate D2E/DX2 analytically  !
 ! D3    D(4,1,2,13)            57.1214         calculate D2E/DX2 analytically  !
 ! D4    D(10,1,2,3)           175.6244         calculate D2E/DX2 analytically  !
 ! D5    D(10,1,2,12)           51.822          calculate D2E/DX2 analytically  !
 ! D6    D(10,1,2,13)          -61.44           calculate D2E/DX2 analytically  !
 ! D7    D(11,1,2,3)            60.9655         calculate D2E/DX2 analytically  !
 ! D8    D(11,1,2,12)          -62.8369         calculate D2E/DX2 analytically  !
 ! D9    D(11,1,2,13)         -176.0989         calculate D2E/DX2 analytically  !
 ! D10   D(2,1,4,6)             64.5597         calculate D2E/DX2 analytically  !
 ! D11   D(2,1,4,8)            -59.171          calculate D2E/DX2 analytically  !
 ! D12   D(2,1,4,9)           -171.2756         calculate D2E/DX2 analytically  !
 ! D13   D(10,1,4,6)          -176.9682         calculate D2E/DX2 analytically  !
 ! D14   D(10,1,4,8)            59.3011         calculate D2E/DX2 analytically  !
 ! D15   D(10,1,4,9)           -52.8035         calculate D2E/DX2 analytically  !
 ! D16   D(11,1,4,6)           -61.985          calculate D2E/DX2 analytically  !
 ! D17   D(11,1,4,8)           174.2843         calculate D2E/DX2 analytically  !
 ! D18   D(11,1,4,9)            62.1797         calculate D2E/DX2 analytically  !
 ! D19   D(1,2,3,5)            115.4141         calculate D2E/DX2 analytically  !
 ! D20   D(1,2,3,14)            -7.8095         calculate D2E/DX2 analytically  !
 ! D21   D(1,2,3,15)          -124.7497         calculate D2E/DX2 analytically  !
 ! D22   D(12,2,3,5)          -121.9039         calculate D2E/DX2 analytically  !
 ! D23   D(12,2,3,14)          114.8724         calculate D2E/DX2 analytically  !
 ! D24   D(12,2,3,15)           -2.0677         calculate D2E/DX2 analytically  !
 ! D25   D(13,2,3,5)            -7.7822         calculate D2E/DX2 analytically  !
 ! D26   D(13,2,3,14)         -131.0058         calculate D2E/DX2 analytically  !
 ! D27   D(13,2,3,15)          112.054          calculate D2E/DX2 analytically  !
 ! D28   D(2,3,5,7)            -53.2046         calculate D2E/DX2 analytically  !
 ! D29   D(2,3,5,16)            67.1467         calculate D2E/DX2 analytically  !
 ! D30   D(2,3,5,17)          -178.5864         calculate D2E/DX2 analytically  !
 ! D31   D(14,3,5,7)            70.2007         calculate D2E/DX2 analytically  !
 ! D32   D(14,3,5,16)         -169.448          calculate D2E/DX2 analytically  !
 ! D33   D(14,3,5,17)          -55.1811         calculate D2E/DX2 analytically  !
 ! D34   D(15,3,5,7)          -174.0111         calculate D2E/DX2 analytically  !
 ! D35   D(15,3,5,16)          -53.6598         calculate D2E/DX2 analytically  !
 ! D36   D(15,3,5,17)           60.6071         calculate D2E/DX2 analytically  !
 ! D37   D(1,4,6,18)            -1.5201         calculate D2E/DX2 analytically  !
 ! D38   D(1,4,6,19)           120.488          calculate D2E/DX2 analytically  !
 ! D39   D(1,4,6,20)          -121.6777         calculate D2E/DX2 analytically  !
 ! D40   D(8,4,6,18)           121.8426         calculate D2E/DX2 analytically  !
 ! D41   D(8,4,6,19)          -116.1493         calculate D2E/DX2 analytically  !
 ! D42   D(8,4,6,20)             1.685          calculate D2E/DX2 analytically  !
 ! D43   D(9,4,6,18)          -124.5514         calculate D2E/DX2 analytically  !
 ! D44   D(9,4,6,19)            -2.5433         calculate D2E/DX2 analytically  !
 ! D45   D(9,4,6,20)           115.291          calculate D2E/DX2 analytically  !
 ! D46   D(3,5,7,21)            31.8595         calculate D2E/DX2 analytically  !
 ! D47   D(3,5,7,22)           -89.1361         calculate D2E/DX2 analytically  !
 ! D48   D(3,5,7,23)           151.6299         calculate D2E/DX2 analytically  !
 ! D49   D(16,5,7,21)          -87.6319         calculate D2E/DX2 analytically  !
 ! D50   D(16,5,7,22)          151.3725         calculate D2E/DX2 analytically  !
 ! D51   D(16,5,7,23)           32.1385         calculate D2E/DX2 analytically  !
 ! D52   D(17,5,7,21)          157.2065         calculate D2E/DX2 analytically  !
 ! D53   D(17,5,7,22)           36.2109         calculate D2E/DX2 analytically  !
 ! D54   D(17,5,7,23)          -83.0231         calculate D2E/DX2 analytically  !
 --------------------------------------------------------------------------------
 Trust Radius=3.00D-01 FncErr=1.00D-07 GrdErr=1.00D-06 EigMax=2.50D+02 EigMin=1.00D-04
 Number of steps in this run=    138 maximum allowed number of steps=    138.
 GradGradGradGradGradGradGradGradGradGradGradGradGradGradGradGradGradGrad

 Leave Link  103 at Mon Sep 30 08:29:49 2019, MaxMem=   671088640 cpu:               0.9 elap:               0.5
 (Enter /shared/centos7/gaussian/g16/l202.exe)
                          Input orientation:                          
 ---------------------------------------------------------------------
 Center     Atomic      Atomic             Coordinates (Angstroms)
 Number     Number       Type             X           Y           Z
 ---------------------------------------------------------------------
      1          6           0        1.409162   -1.112478    0.549057
      2          6           0        0.147831   -0.412725    0.925025
      3          6           0        0.288452    0.968236    1.515072
      4          6           0        2.199917   -0.512359   -0.564312
      5          6           0       -0.323948    2.025705    0.627137
      6          6           0        2.788699    0.825025   -0.379038
      7          6           0        0.168619    2.005023   -0.796547
      8          1           0        1.541103   -0.488189   -1.477830
      9          1           0        3.008949   -1.238644   -0.816760
     10          1           0        1.114397   -2.129625    0.214242
     11          1           0        2.046753   -1.253312    1.445878
     12          1           0       -0.397107   -1.063487    1.626621
     13          1           0       -0.505269   -0.345010    0.029407
     14          1           0        1.349692    1.200316    1.707507
     15          1           0       -0.223412    1.007916    2.498721
     16          1           0       -1.431748    1.851654    0.624645
     17          1           0       -0.185212    3.027013    1.069171
     18          1           0        2.547256    1.271262    0.604047
     19          1           0        3.913617    0.802918   -0.486775
     20          1           0        2.421769    1.529645   -1.155161
     21          1           0        0.416872    0.992861   -1.118227
     22          1           0        1.082338    2.649426   -0.921929
     23          1           0       -0.616037    2.401163   -1.503139
 ---------------------------------------------------------------------
                    Distance matrix (angstroms):
                    1          2          3          4          5
     1  C    0.000000
     2  C    1.490625   0.000000
     3  C    2.553144   1.508304   0.000000
     4  C    1.491652   2.537540   3.188995   0.000000
     5  C    3.585800   2.501450   1.510531   3.772427   0.000000
     6  C    2.553116   3.194807   3.139968   1.472952   3.484622
     7  C    3.615026   2.968122   2.536310   3.243041   1.506627
     8  H    2.124952   2.778600   3.556371   1.126559   3.772130
     9  H    2.107295   3.449921   4.208190   1.116134   4.883546
    10  H    1.110665   2.094567   3.459926   2.097630   4.416570
    11  H    1.109344   2.140977   2.834023   2.147867   4.128258
    12  H    2.103842   1.101220   2.147169   3.442159   3.247680
    13  H    2.126991   1.110520   2.135838   2.774623   2.451621
    14  H    2.587384   2.158390   1.103233   2.969393   2.156279
    15  H    3.310975   2.152338   1.109570   4.191172   2.132798
    16  H    4.106406   2.777177   2.128938   4.493458   1.121392
    17  H    4.466311   3.458828   2.159108   4.569929   1.103295
    18  H    2.642064   2.948912   2.454381   2.160326   2.968760
    19  H    3.318732   4.201442   4.144459   2.161651   4.548952
    20  H    3.303111   3.642906   3.463576   2.137311   3.310834
    21  H    2.863029   2.494581   2.636543   2.398282   2.159137
    22  H    4.052473   3.696121   3.065228   3.372500   2.183179
    23  H    4.545175   3.794396   3.461355   4.159279   2.182741
                    6          7          8          9         10
     6  C    0.000000
     7  C    2.903710   0.000000
     8  H    2.118578   2.926425   0.000000
     9  H    2.121048   4.311527   1.776167   0.000000
    10  H    3.447496   4.360219   2.395726   2.333697   0.000000
    11  H    2.863615   4.378654   3.064175   2.458774   1.775990
    12  H    4.211711   3.950638   3.704760   4.195475   2.327253
    13  H    3.519380   2.580500   2.545566   3.723481   2.417092
    14  H    2.562275   2.883188   3.610271   3.882471   3.657009
    15  H    4.169863   3.465069   4.600522   5.146611   4.105209
    16  H    4.457973   2.145806   4.328177   5.598874   4.743614
    17  H    3.973689   2.156517   4.671619   5.652896   5.386168
    18  H    1.106291   2.856219   2.905551   2.920870   3.710939
    19  H    1.130281   3.945381   2.877146   2.257275   4.114227
    20  H    1.110627   2.330509   2.225161   2.850039   4.120042
    21  H    2.490007   1.090678   1.893864   3.433565   3.465825
    22  H    2.556332   1.125104   3.219336   4.340505   4.912356
    23  H    3.916637   1.127778   3.605863   5.182648   5.145080
                   11         12         13         14         15
    11  H    0.000000
    12  H    2.457876   0.000000
    13  H    3.056831   1.754708   0.000000
    14  H    2.564105   2.860534   2.940226   0.000000
    15  H    3.372726   2.254205   2.829728   1.771354   0.000000
    16  H    4.734471   3.251536   2.457235   3.055035   2.384141
    17  H    4.841979   4.133744   3.543174   2.469863   2.474232
    18  H    2.707888   3.894354   3.501493   1.629974   3.366860
    19  H    3.383550   5.150947   4.594642   3.398015   5.105900
    20  H    3.827648   4.733783   3.672204   3.074519   4.540929
    21  H    3.778418   3.524957   1.989298   2.982945   3.673214
    22  H    4.665616   4.740210   3.520253   3.014188   4.012528
    23  H    5.398365   4.674091   3.146813   3.951503   4.255605
                   16         17         18         19         20
    16  H    0.000000
    17  H    1.770007   0.000000
    18  H    4.021164   3.281064   0.000000
    19  H    5.559499   4.916092   1.810022   0.000000
    20  H    4.256876   3.739800   1.782504   1.788989   0.000000
    21  H    2.681889   3.047128   2.753593   3.558376   2.075840
    22  H    3.057607   2.390341   2.524663   3.408092   1.761358
    23  H    2.344102   2.682178   3.965266   4.909700   3.179449
                   21         22         23
    21  H    0.000000
    22  H    1.795991   0.000000
    23  H    1.788399   1.812159   0.000000
 Stoichiometry    C7H16
 Framework group  C1[X(C7H16)]
 Deg. of freedom    63
 Full point group                 C1      NOp   1
 Largest Abelian subgroup         C1      NOp   1
 Largest concise Abelian subgroup C1      NOp   1
                         Standard orientation:                         
 ---------------------------------------------------------------------
 Center     Atomic      Atomic             Coordinates (Angstroms)
 Number     Number       Type             X           Y           Z
 ---------------------------------------------------------------------
      1          6           0        1.417192   -1.039134   -0.169197
      2          6           0       -0.016785   -1.417420   -0.319443
      3          6           0       -0.969657   -0.892307    0.725197
      4          6           0        1.746545    0.407339   -0.324975
      5          6           0       -1.981619    0.062089    0.136333
      6          6           0        1.207162    1.369417    0.651273
      7          6           0       -1.381789    1.197107   -0.652250
      8          1           0        1.419218    0.723915   -1.355398
      9          1           0        2.859666    0.487156   -0.343557
     10          1           0        1.967685   -1.576203   -0.970503
     11          1           0        1.812881   -1.425847    0.792327
     12          1           0       -0.069064   -2.516922   -0.351786
     13          1           0       -0.373139   -1.083256   -1.316741
     14          1           0       -0.414888   -0.402205    1.543217
     15          1           0       -1.522387   -1.737426    1.184989
     16          1           0       -2.641066   -0.537000   -0.544654
     17          1           0       -2.649018    0.449977    0.924610
     18          1           0        0.564378    0.894617    1.416305
     19          1           0        2.032504    1.927675    1.184840
     20          1           0        0.592757    2.143946    0.145206
     21          1           0       -0.454617    0.896660   -1.141804
     22          1           0       -1.162108    2.081521    0.007608
     23          1           0       -2.089097    1.550838   -1.456287
 ---------------------------------------------------------------------
 Rotational constants (GHZ):           3.1871489           2.0932356           1.5490064
 Leave Link  202 at Mon Sep 30 08:29:50 2019, MaxMem=   671088640 cpu:               2.3 elap:               1.2
 (Enter /shared/centos7/gaussian/g16/l301.exe)
 Standard basis: CC-pVTZ (5D, 7F)
 Ernie: Thresh=  0.10000D-02 Tol=  0.10000D-05 Strict=F.
 Ernie:  21 primitive shells out of 310 were deleted.
 There are   485 symmetry adapted cartesian basis functions of A   symmetry.
 There are   434 symmetry adapted basis functions of A   symmetry.
   434 basis functions,   636 primitive gaussians,   485 cartesian basis functions
    29 alpha electrons       29 beta electrons
       nuclear repulsion energy       343.3995996692 Hartrees.
 IExCor= 4336 DFT=T Ex+Corr=M062X ExCW=0 ScaHFX=  0.540000
 ScaDFX=  1.000000  1.000000  1.000000  1.000000 ScalE2=  1.000000  1.000000
 IRadAn=      5 IRanWt=     -1 IRanGd=            0 ICorTp=0 IEmpDi=  4
 NAtoms=   23 NActive=   23 NUniq=   23 SFac= 1.00D+00 NAtFMM=   60 NAOKFM=F Big=F
 Integral buffers will be    131072 words long.
 Raffenetti 2 integral format.
 Two-electron integral symmetry is turned on.
 Leave Link  301 at Mon Sep 30 08:29:51 2019, MaxMem=   671088640 cpu:               1.8 elap:               0.9
 (Enter /shared/centos7/gaussian/g16/l302.exe)
 NPDir=0 NMtPBC=     1 NCelOv=     1 NCel=       1 NClECP=     1 NCelD=      1
         NCelK=      1 NCelE2=     1 NClLst=     1 CellRange=     0.0.
 One-electron integrals computed using PRISM.
 One-electron integral symmetry used in STVInt
 NBasis=   434 RedAO= T EigKep=  2.26D-04  NBF=   434
 NBsUse=   434 1.00D-06 EigRej= -1.00D+00 NBFU=   434
 Precomputing XC quadrature grid using
 IXCGrd= 4 IRadAn=           5 IRanWt=          -1 IRanGd=           0 AccXCQ= 0.00D+00.
 Generated NRdTot=       0 NPtTot=           0 NUsed=           0 NTot=          32
 NSgBfM=   485   485   485   485   485 MxSgAt=    23 MxSgA2=    23.
 Leave Link  302 at Mon Sep 30 08:31:00 2019, MaxMem=   671088640 cpu:             138.9 elap:              69.5
 (Enter /shared/centos7/gaussian/g16/l303.exe)
 DipDrv:  MaxL=1.
 Leave Link  303 at Mon Sep 30 08:31:04 2019, MaxMem=   671088640 cpu:               7.3 elap:               3.7
 (Enter /shared/centos7/gaussian/g16/l401.exe)
 ExpMin= 1.03D-01 ExpMax= 8.24D+03 ExpMxC= 2.81D+02 IAcc=3 IRadAn=         5 AccDes= 0.00D+00
 Harris functional with IExCor= 1009 and IRadAn=       5 diagonalized for initial guess.
 HarFok:  IExCor= 1009 AccDes= 0.00D+00 IRadAn=         5 IDoV= 1 UseB2=F ITyADJ=14
 ICtDFT=  3500011 ScaDFX=  1.000000  1.000000  1.000000  1.000000
 FoFCou: FMM=F IPFlag=           0 FMFlag=      100000 FMFlg1=           0
         NFxFlg=           0 DoJE=T BraDBF=F KetDBF=T FulRan=T
         wScrn=  0.000000 ICntrl=       500 IOpCl=  0 I1Cent=   200000004 NGrid=           0
         NMat0=    1 NMatS0=      1 NMatT0=    0 NMatD0=    1 NMtDS0=    0 NMtDT0=    0
 Petite list used in FoFCou.
 Harris En= -276.298473458865    
 JPrj=0 DoOrth=F DoCkMO=F.
 Leave Link  401 at Mon Sep 30 08:31:52 2019, MaxMem=   671088640 cpu:              96.8 elap:              48.5
 (Enter /shared/centos7/gaussian/g16/l502.exe)
 Integral symmetry usage will be decided dynamically.
 Closed shell SCF:
 Using DIIS extrapolation, IDIIS=  1040.
 NGot=   671088640 LenX=   670604095 LenY=   670368385
 Requested convergence on RMS density matrix=1.00D-08 within 900 cycles.
 Requested convergence on MAX density matrix=1.00D-06.
 Requested convergence on             energy=1.00D-06.
 No special actions if energy rises.
 Fock matrices will be formed incrementally for  20 cycles.
 Integral accuracy reduced to 1.0D-05 until final iterations.

 Cycle   1  Pass 0  IDiag  1:
 FoFJK:  IHMeth= 1 ICntrl=       0 DoSepK=F KAlg= 0 I1Cent=           0 FoldK=F
 IRaf= 970000000 NMat=       1 IRICut=       1 DoRegI=T DoRafI=F ISym2E= 0 IDoP0=0 IntGTp=1.
 FoFCou: FMM=F IPFlag=           0 FMFlag=      100000 FMFlg1=           0
         NFxFlg=           0 DoJE=F BraDBF=F KetDBF=F FulRan=T
         wScrn=  0.000000 ICntrl=         0 IOpCl=  0 I1Cent=           0 NGrid=           0
         NMat0=    1 NMatS0=      1 NMatT0=    0 NMatD0=    1 NMtDS0=    0 NMtDT0=    0
 Symmetry not used in FoFCou.
 E= -275.940360912366    
 DIIS: error= 2.10D-02 at cycle   1 NSaved=   1.
 NSaved= 1 IEnMin= 1 EnMin= -275.940360912366     IErMin= 1 ErrMin= 2.10D-02
 ErrMax= 2.10D-02  0.00D+00 EMaxC= 1.00D-01 BMatC= 3.75D-01 BMatP= 3.75D-01
 IDIUse=3 WtCom= 7.90D-01 WtEn= 2.10D-01
 Coeff-Com:  0.100D+01
 Coeff-En:   0.100D+01
 Coeff:      0.100D+01
 Gap=     0.370 Goal=   None    Shift=    0.000
 GapD=    0.370 DampG=1.000 DampE=0.500 DampFc=0.5000 IDamp=-1.
 Damping current iteration by 5.00D-01
 RMSDP=1.95D-03 MaxDP=6.89D-02              OVMax= 1.66D-01

 Cycle   2  Pass 0  IDiag  1:
 RMSU=  9.73D-04    CP:  9.90D-01
 E= -276.112361500464     Delta-E=       -0.172000588098 Rises=F Damp=T
 DIIS: error= 3.48D-03 at cycle   2 NSaved=   2.
 NSaved= 2 IEnMin= 2 EnMin= -276.112361500464     IErMin= 2 ErrMin= 3.48D-03
 ErrMax= 3.48D-03  0.00D+00 EMaxC= 1.00D-01 BMatC= 2.07D-02 BMatP= 3.75D-01
 IDIUse=3 WtCom= 9.65D-01 WtEn= 3.48D-02
 Coeff-Com: -0.297D-01 0.103D+01
 Coeff-En:   0.000D+00 0.100D+01
 Coeff:     -0.287D-01 0.103D+01
 Gap=     0.445 Goal=   None    Shift=    0.000
 RMSDP=5.98D-04 MaxDP=2.29D-02 DE=-1.72D-01 OVMax= 9.49D-02

 Cycle   3  Pass 0  IDiag  1:
 RMSU=  5.90D-04    CP:  9.99D-01  9.21D-01
 E= -276.292503584169     Delta-E=       -0.180142083706 Rises=F Damp=F
 DIIS: error= 4.04D-03 at cycle   3 NSaved=   3.
 NSaved= 3 IEnMin= 3 EnMin= -276.292503584169     IErMin= 2 ErrMin= 3.48D-03
 ErrMax= 4.04D-03  0.00D+00 EMaxC= 1.00D-01 BMatC= 4.81D-03 BMatP= 2.07D-02
 IDIUse=3 WtCom= 9.60D-01 WtEn= 4.04D-02
 Coeff-Com: -0.558D-01 0.305D+00 0.751D+00
 Coeff-En:   0.000D+00 0.000D+00 0.100D+01
 Coeff:     -0.536D-01 0.293D+00 0.761D+00
 Gap=     0.411 Goal=   None    Shift=    0.000
 RMSDP=1.35D-04 MaxDP=4.48D-03 DE=-1.80D-01 OVMax= 1.47D-02

 Cycle   4  Pass 0  IDiag  1:
 RMSU=  1.01D-04    CP:  9.97D-01  9.73D-01  8.77D-01
 E= -276.296772372489     Delta-E=       -0.004268788319 Rises=F Damp=F
 DIIS: error= 7.88D-04 at cycle   4 NSaved=   4.
 NSaved= 4 IEnMin= 4 EnMin= -276.296772372489     IErMin= 4 ErrMin= 7.88D-04
 ErrMax= 7.88D-04  0.00D+00 EMaxC= 1.00D-01 BMatC= 2.88D-04 BMatP= 4.81D-03
 IDIUse=3 WtCom= 9.92D-01 WtEn= 7.88D-03
 Coeff-Com: -0.125D-01 0.319D-01 0.228D+00 0.752D+00
 Coeff-En:   0.000D+00 0.000D+00 0.000D+00 0.100D+01
 Coeff:     -0.124D-01 0.316D-01 0.227D+00 0.754D+00
 Gap=     0.412 Goal=   None    Shift=    0.000
 RMSDP=3.53D-05 MaxDP=1.17D-03 DE=-4.27D-03 OVMax= 2.92D-03

 Cycle   5  Pass 0  IDiag  1:
 RMSU=  1.76D-05    CP:  9.98D-01  9.69D-01  9.17D-01  8.13D-01
 E= -276.297042640500     Delta-E=       -0.000270268011 Rises=F Damp=F
 DIIS: error= 1.27D-04 at cycle   5 NSaved=   5.
 NSaved= 5 IEnMin= 5 EnMin= -276.297042640500     IErMin= 5 ErrMin= 1.27D-04
 ErrMax= 1.27D-04  0.00D+00 EMaxC= 1.00D-01 BMatC= 1.25D-05 BMatP= 2.88D-04
 IDIUse=3 WtCom= 9.99D-01 WtEn= 1.27D-03
 Coeff-Com: -0.176D-02 0.105D-02 0.462D-01 0.243D+00 0.712D+00
 Coeff-En:   0.000D+00 0.000D+00 0.000D+00 0.000D+00 0.100D+01
 Coeff:     -0.176D-02 0.104D-02 0.462D-01 0.242D+00 0.712D+00
 Gap=     0.412 Goal=   None    Shift=    0.000
 RMSDP=6.17D-06 MaxDP=2.84D-04 DE=-2.70D-04 OVMax= 6.84D-04

 Initial convergence to 1.0D-05 achieved.  Increase integral accuracy.
 Cycle   6  Pass 1  IDiag  1:
 E= -276.297038930146     Delta-E=        0.000003710354 Rises=F Damp=F
 DIIS: error= 3.96D-05 at cycle   1 NSaved=   1.
 NSaved= 1 IEnMin= 1 EnMin= -276.297038930146     IErMin= 1 ErrMin= 3.96D-05
 ErrMax= 3.96D-05  0.00D+00 EMaxC= 1.00D-01 BMatC= 1.88D-06 BMatP= 1.88D-06
 IDIUse=1 WtCom= 1.00D+00 WtEn= 0.00D+00
 Coeff-Com:  0.100D+01
 Coeff:      0.100D+01
 Gap=     0.412 Goal=   None    Shift=    0.000
 RMSDP=6.17D-06 MaxDP=2.84D-04 DE= 3.71D-06 OVMax= 2.96D-04

 Cycle   7  Pass 1  IDiag  1:
 RMSU=  1.00D-05    CP:  1.00D+00
 E= -276.297039590161     Delta-E=       -0.000000660016 Rises=F Damp=F
 DIIS: error= 3.10D-05 at cycle   2 NSaved=   2.
 NSaved= 2 IEnMin= 2 EnMin= -276.297039590161     IErMin= 2 ErrMin= 3.10D-05
 ErrMax= 3.10D-05  0.00D+00 EMaxC= 1.00D-01 BMatC= 7.73D-07 BMatP= 1.88D-06
 IDIUse=1 WtCom= 1.00D+00 WtEn= 0.00D+00
 Coeff-Com:  0.369D+00 0.631D+00
 Coeff:      0.369D+00 0.631D+00
 Gap=     0.412 Goal=   None    Shift=    0.000
 RMSDP=1.57D-06 MaxDP=6.95D-05 DE=-6.60D-07 OVMax= 1.67D-04

 Cycle   8  Pass 1  IDiag  1:
 RMSU=  1.54D-06    CP:  1.00D+00  9.75D-01
 E= -276.297040293509     Delta-E=       -0.000000703347 Rises=F Damp=F
 DIIS: error= 8.58D-06 at cycle   3 NSaved=   3.
 NSaved= 3 IEnMin= 3 EnMin= -276.297040293509     IErMin= 3 ErrMin= 8.58D-06
 ErrMax= 8.58D-06  0.00D+00 EMaxC= 1.00D-01 BMatC= 5.00D-08 BMatP= 7.73D-07
 IDIUse=1 WtCom= 1.00D+00 WtEn= 0.00D+00
 Coeff-Com: -0.506D-02 0.192D+00 0.813D+00
 Coeff:     -0.506D-02 0.192D+00 0.813D+00
 Gap=     0.412 Goal=   None    Shift=    0.000
 RMSDP=4.41D-07 MaxDP=1.58D-05 DE=-7.03D-07 OVMax= 3.81D-05

 Cycle   9  Pass 1  IDiag  1:
 RMSU=  3.13D-07    CP:  1.00D+00  9.99D-01  8.73D-01
 E= -276.297040341828     Delta-E=       -0.000000048319 Rises=F Damp=F
 DIIS: error= 1.86D-06 at cycle   4 NSaved=   4.
 NSaved= 4 IEnMin= 4 EnMin= -276.297040341828     IErMin= 4 ErrMin= 1.86D-06
 ErrMax= 1.86D-06  0.00D+00 EMaxC= 1.00D-01 BMatC= 1.45D-09 BMatP= 5.00D-08
 IDIUse=1 WtCom= 1.00D+00 WtEn= 0.00D+00
 Coeff-Com: -0.102D-01 0.497D-01 0.266D+00 0.694D+00
 Coeff:     -0.102D-01 0.497D-01 0.266D+00 0.694D+00
 Gap=     0.412 Goal=   None    Shift=    0.000
 RMSDP=8.16D-08 MaxDP=2.59D-06 DE=-4.83D-08 OVMax= 7.96D-06

 Cycle  10  Pass 1  IDiag  1:
 RMSU=  7.85D-08    CP:  1.00D+00  1.00D+00  8.77D-01  9.78D-01
 E= -276.297040343269     Delta-E=       -0.000000001442 Rises=F Damp=F
 DIIS: error= 3.56D-07 at cycle   5 NSaved=   5.
 NSaved= 5 IEnMin= 5 EnMin= -276.297040343269     IErMin= 5 ErrMin= 3.56D-07
 ErrMax= 3.56D-07  0.00D+00 EMaxC= 1.00D-01 BMatC= 9.28D-11 BMatP= 1.45D-09
 IDIUse=1 WtCom= 1.00D+00 WtEn= 0.00D+00
 Coeff-Com: -0.141D-02-0.904D-02-0.286D-01 0.132D+00 0.907D+00
 Coeff:     -0.141D-02-0.904D-02-0.286D-01 0.132D+00 0.907D+00
 Gap=     0.412 Goal=   None    Shift=    0.000
 RMSDP=3.62D-08 MaxDP=9.50D-07 DE=-1.44D-09 OVMax= 2.78D-06

 Cycle  11  Pass 1  IDiag  1:
 RMSU=  1.93D-08    CP:  1.00D+00  1.00D+00  8.79D-01  1.07D+00  1.07D+00
 E= -276.297040343368     Delta-E=       -0.000000000099 Rises=F Damp=F
 DIIS: error= 1.55D-07 at cycle   6 NSaved=   6.
 NSaved= 6 IEnMin= 6 EnMin= -276.297040343368     IErMin= 6 ErrMin= 1.55D-07
 ErrMax= 1.55D-07  0.00D+00 EMaxC= 1.00D-01 BMatC= 2.06D-11 BMatP= 9.28D-11
 IDIUse=1 WtCom= 1.00D+00 WtEn= 0.00D+00
 Coeff-Com:  0.335D-03-0.847D-02-0.368D-01-0.749D-02 0.397D+00 0.656D+00
 Coeff:      0.335D-03-0.847D-02-0.368D-01-0.749D-02 0.397D+00 0.656D+00
 Gap=     0.412 Goal=   None    Shift=    0.000
 RMSDP=8.42D-09 MaxDP=2.65D-07 DE=-9.91D-11 OVMax= 8.40D-07

 SCF Done:  E(RM062X) =  -276.297040343     A.U. after   11 cycles
            NFock= 11  Conv=0.84D-08     -V/T= 2.0062
 KE= 2.746044254695D+02 PE=-1.325284715082D+03 EE= 4.309836496001D+02
 Leave Link  502 at Mon Sep 30 08:50:47 2019, MaxMem=   671088640 cpu:            2268.3 elap:            1134.4
 (Enter /shared/centos7/gaussian/g16/l801.exe)
 DoSCS=F DFT=T ScalE2(SS,OS)=  1.000000  1.000000
 Range of M.O.s used for correlation:     1   434
 NBasis=   434 NAE=    29 NBE=    29 NFC=     0 NFV=     0
 NROrb=    434 NOA=    29 NOB=    29 NVA=   405 NVB=   405

 **** Warning!!: The largest alpha MO coefficient is  0.11352290D+02

 Leave Link  801 at Mon Sep 30 08:50:48 2019, MaxMem=   671088640 cpu:               1.8 elap:               0.9
 (Enter /shared/centos7/gaussian/g16/l1101.exe)
 Using compressed storage, NAtomX=    23.
 Will process     24 centers per pass.
 Leave Link 1101 at Mon Sep 30 08:51:23 2019, MaxMem=   671088640 cpu:              71.2 elap:              35.6
 (Enter /shared/centos7/gaussian/g16/l1102.exe)
 Symmetrizing basis deriv contribution to polar:
 IMax=3 JMax=2 DiffMx= 0.00D+00
 Leave Link 1102 at Mon Sep 30 08:51:26 2019, MaxMem=   671088640 cpu:               4.4 elap:               2.3
 (Enter /shared/centos7/gaussian/g16/l1110.exe)
 Forming Gx(P) for the SCF density, NAtomX=    23.
 Integral derivatives from FoFJK, PRISM(SPDF).
 Do as many integral derivatives as possible in FoFJK.
 G2DrvN: MDV=     671086848.
 G2DrvN: will do    24 centers at a time, making    1 passes.
 Calling FoFCou, ICntrl=  3107 FMM=F I1Cent=   0 AccDes= 0.00D+00.
 FoFJK:  IHMeth= 1 ICntrl=    3107 DoSepK=F KAlg= 0 I1Cent=           0 FoldK=F
 IRaf=         0 NMat=       1 IRICut=       1 DoRegI=T DoRafI=F ISym2E= 0 IDoP0=0 IntGTp=1.
 FoFCou: FMM=F IPFlag=           0 FMFlag=      100000 FMFlg1=           0
         NFxFlg=           0 DoJE=F BraDBF=F KetDBF=F FulRan=T
         wScrn=  0.000000 ICntrl=      3107 IOpCl=  0 I1Cent=           0 NGrid=           0
         NMat0=    1 NMatS0=      1 NMatT0=    0 NMatD0=    1 NMtDS0=    0 NMtDT0=    0
 Symmetry not used in FoFCou.
 End of G2Drv F.D. properties file   721 does not exist.
 End of G2Drv F.D. properties file   722 does not exist.
 End of G2Drv F.D. properties file   788 does not exist.
 Leave Link 1110 at Mon Sep 30 09:40:38 2019, MaxMem=   671088640 cpu:            5903.5 elap:            2952.0
 (Enter /shared/centos7/gaussian/g16/l1002.exe)
 Minotr:  Closed shell wavefunction.
          IDoAtm=11111111111111111111111
          Direct CPHF calculation.
          Differentiating once with respect to nuclear coordinates.
          Requested convergence is 1.0D-08 RMS, and 1.0D-07 maximum.
          Secondary convergence is 1.0D-12 RMS, and 1.0D-12 maximum.
          NewPWx=T KeepS1=F KeepF1=F KeepIn=T MapXYZ=F SortEE=F KeepMc=T.
         6869 words used for storage of precomputed grid.
 Two-electron integrals replicated using symmetry.
          MDV=     671088640 using IRadAn=       1.
          Solving linear equations simultaneously, MaxMat=     380.
 FoF2E skips out because all densities are zero.
 CalDSu exits because no D1Ps are significant.
 FoFJK:  IHMeth= 1 ICntrl=       0 DoSepK=F KAlg= 0 I1Cent=           0 FoldK=F
 IRaf= 960000000 NMat=      69 IRICut=     172 DoRegI=T DoRafI=T ISym2E= 2 IDoP0=3 IntGTp=3.
 FoFCou: FMM=F IPFlag=           0 FMFlag=      100000 FMFlg1=           0
         NFxFlg=           0 DoJE=F BraDBF=F KetDBF=F FulRan=T
         wScrn=  0.000000 ICntrl=         0 IOpCl=  0 I1Cent=           0 NGrid=           0
         NMat0=   69 NMatS0=     69 NMatT0=    0 NMatD0=   69 NMtDS0=    0 NMtDT0=    0
 Integrals replicated using symmetry in FoFCou.
 Raff kept on since  93.11% of shell-pairs survive, threshold=   0.20 IRatSp=93.
          There are    72 degrees of freedom in the 1st order CPHF.  IDoFFX=6 NUNeed=     0.
     66 vectors produced by pass  0 Test12= 1.63D-14 1.39D-09 XBig12= 5.46D-02 3.64D-02.
 AX will form    66 AO Fock derivatives at one time.
     66 vectors produced by pass  1 Test12= 1.63D-14 1.39D-09 XBig12= 3.19D-03 6.04D-03.
     66 vectors produced by pass  2 Test12= 1.63D-14 1.39D-09 XBig12= 5.39D-05 8.20D-04.
     66 vectors produced by pass  3 Test12= 1.63D-14 1.39D-09 XBig12= 4.55D-07 7.34D-05.
     66 vectors produced by pass  4 Test12= 1.63D-14 1.39D-09 XBig12= 2.23D-09 3.98D-06.
     66 vectors produced by pass  5 Test12= 1.63D-14 1.39D-09 XBig12= 1.10D-11 3.23D-07.
     24 vectors produced by pass  6 Test12= 1.63D-14 1.39D-09 XBig12= 4.06D-14 1.87D-08.
 InvSVY:  IOpt=1 It=  1 EMax= 3.33D-16
 Solved reduced A of dimension   420 with    72 vectors.
 End of Minotr F.D. properties file   721 does not exist.
 End of Minotr F.D. properties file   722 does not exist.
 End of Minotr F.D. properties file   788 does not exist.
 Leave Link 1002 at Mon Sep 30 11:02:21 2019, MaxMem=   671088640 cpu:            9806.6 elap:            4903.7
 (Enter /shared/centos7/gaussian/g16/l601.exe)
 Copying SCF densities to generalized density rwf, IOpCl= 0 IROHF=0.

 **********************************************************************

            Population analysis using the SCF density.

 **********************************************************************

 Orbital symmetries:
       Occupied  (A) (A) (A) (A) (A) (A) (A) (A) (A) (A) (A) (A)
                 (A) (A) (A) (A) (A) (A) (A) (A) (A) (A) (A) (A)
                 (A) (A) (A) (A) (A)
       Virtual   (A) (A) (A) (A) (A) (A) (A) (A) (A) (A) (A) (A)
                 (A) (A) (A) (A) (A) (A) (A) (A) (A) (A) (A) (A)
                 (A) (A) (A) (A) (A) (A) (A) (A) (A) (A) (A) (A)
                 (A) (A) (A) (A) (A) (A) (A) (A) (A) (A) (A) (A)
                 (A) (A) (A) (A) (A) (A) (A) (A) (A) (A) (A) (A)
                 (A) (A) (A) (A) (A) (A) (A) (A) (A) (A) (A) (A)
                 (A) (A) (A) (A) (A) (A) (A) (A) (A) (A) (A) (A)
                 (A) (A) (A) (A) (A) (A) (A) (A) (A) (A) (A) (A)
                 (A) (A) (A) (A) (A) (A) (A) (A) (A) (A) (A) (A)
                 (A) (A) (A) (A) (A) (A) (A) (A) (A) (A) (A) (A)
                 (A) (A) (A) (A) (A) (A) (A) (A) (A) (A) (A) (A)
                 (A) (A) (A) (A) (A) (A) (A) (A) (A) (A) (A) (A)
                 (A) (A) (A) (A) (A) (A) (A) (A) (A) (A) (A) (A)
                 (A) (A) (A) (A) (A) (A) (A) (A) (A) (A) (A) (A)
                 (A) (A) (A) (A) (A) (A) (A) (A) (A) (A) (A) (A)
                 (A) (A) (A) (A) (A) (A) (A) (A) (A) (A) (A) (A)
                 (A) (A) (A) (A) (A) (A) (A) (A) (A) (A) (A) (A)
                 (A) (A) (A) (A) (A) (A) (A) (A) (A) (A) (A) (A)
                 (A) (A) (A) (A) (A) (A) (A) (A) (A) (A) (A) (A)
                 (A) (A) (A) (A) (A) (A) (A) (A) (A) (A) (A) (A)
                 (A) (A) (A) (A) (A) (A) (A) (A) (A) (A) (A) (A)
                 (A) (A) (A) (A) (A) (A) (A) (A) (A) (A) (A) (A)
                 (A) (A) (A) (A) (A) (A) (A) (A) (A) (A) (A) (A)
                 (A) (A) (A) (A) (A) (A) (A) (A) (A) (A) (A) (A)
                 (A) (A) (A) (A) (A) (A) (A) (A) (A) (A) (A) (A)
                 (A) (A) (A) (A) (A) (A) (A) (A) (A) (A) (A) (A)
                 (A) (A) (A) (A) (A) (A) (A) (A) (A) (A) (A) (A)
                 (A) (A) (A) (A) (A) (A) (A) (A) (A) (A) (A) (A)
                 (A) (A) (A) (A) (A) (A) (A) (A) (A) (A) (A) (A)
                 (A) (A) (A) (A) (A) (A) (A) (A) (A) (A) (A) (A)
                 (A) (A) (A) (A) (A) (A) (A) (A) (A) (A) (A) (A)
                 (A) (A) (A) (A) (A) (A) (A) (A) (A) (A) (A) (A)
                 (A) (A) (A) (A) (A) (A) (A) (A) (A) (A) (A) (A)
                 (A) (A) (A) (A) (A) (A) (A) (A) (A)
 The electronic state is 1-A.
 Alpha  occ. eigenvalues --  -10.52840 -10.52598 -10.52481 -10.52305 -10.52212
 Alpha  occ. eigenvalues --  -10.52097 -10.51628  -0.92681  -0.87685  -0.83095
 Alpha  occ. eigenvalues --   -0.76611  -0.71450  -0.64794  -0.63445  -0.55240
 Alpha  occ. eigenvalues --   -0.53128  -0.51980  -0.49608  -0.48005  -0.46587
 Alpha  occ. eigenvalues --   -0.44683  -0.44236  -0.41025  -0.40404  -0.38814
 Alpha  occ. eigenvalues --   -0.37695  -0.36270  -0.36055  -0.34373
 Alpha virt. eigenvalues --    0.06837   0.07778   0.08402   0.08930   0.10448
 Alpha virt. eigenvalues --    0.12467   0.12686   0.13187   0.13344   0.15475
 Alpha virt. eigenvalues --    0.16519   0.16848   0.17399   0.18886   0.22004
 Alpha virt. eigenvalues --    0.22777   0.24188   0.25253   0.26200   0.27287
 Alpha virt. eigenvalues --    0.28205   0.29145   0.30232   0.31094   0.31403
 Alpha virt. eigenvalues --    0.32020   0.32802   0.33403   0.36585   0.37879
 Alpha virt. eigenvalues --    0.39132   0.40561   0.41860   0.43941   0.44447
 Alpha virt. eigenvalues --    0.45132   0.45638   0.46271   0.47418   0.48170
 Alpha virt. eigenvalues --    0.49470   0.50197   0.50450   0.51293   0.51600
 Alpha virt. eigenvalues --    0.52037   0.52314   0.52947   0.53461   0.54515
 Alpha virt. eigenvalues --    0.55494   0.55820   0.56818   0.57512   0.57853
 Alpha virt. eigenvalues --    0.60424   0.61092   0.62653   0.63887   0.65066
 Alpha virt. eigenvalues --    0.65547   0.67346   0.73194   0.74648   0.75605
 Alpha virt. eigenvalues --    0.76235   0.81075   0.83089   0.85919   0.86844
 Alpha virt. eigenvalues --    0.89599   0.90632   0.91575   0.94280   0.95304
 Alpha virt. eigenvalues --    0.95723   0.96760   0.97627   1.00838   1.01636
 Alpha virt. eigenvalues --    1.02257   1.03773   1.04468   1.04787   1.06461
 Alpha virt. eigenvalues --    1.07007   1.08148   1.08520   1.09082   1.09232
 Alpha virt. eigenvalues --    1.10711   1.11661   1.13976   1.14967   1.16196
 Alpha virt. eigenvalues --    1.16640   1.18801   1.20107   1.20486   1.21073
 Alpha virt. eigenvalues --    1.22228   1.23384   1.23942   1.24858   1.26056
 Alpha virt. eigenvalues --    1.26545   1.28593   1.28664   1.30123   1.31007
 Alpha virt. eigenvalues --    1.32258   1.32661   1.33105   1.34344   1.35252
 Alpha virt. eigenvalues --    1.35842   1.36518   1.37258   1.38836   1.39273
 Alpha virt. eigenvalues --    1.40303   1.42120   1.44797   1.45626   1.47143
 Alpha virt. eigenvalues --    1.47268   1.48662   1.50215   1.51672   1.52600
 Alpha virt. eigenvalues --    1.52767   1.55535   1.55910   1.57541   1.58796
 Alpha virt. eigenvalues --    1.59640   1.61180   1.65059   1.66900   1.67880
 Alpha virt. eigenvalues --    1.70415   1.70981   1.73659   1.75008   1.78447
 Alpha virt. eigenvalues --    1.80522   1.85765   1.87884   1.99549   2.23307
 Alpha virt. eigenvalues --    2.27625   2.30839   2.32316   2.34615   2.36896
 Alpha virt. eigenvalues --    2.38614   2.39979   2.43434   2.47044   2.47287
 Alpha virt. eigenvalues --    2.50294   2.52849   2.54023   2.55105   2.55853
 Alpha virt. eigenvalues --    2.56704   2.58345   2.60043   2.61972   2.63314
 Alpha virt. eigenvalues --    2.63690   2.65175   2.65786   2.66980   2.68887
 Alpha virt. eigenvalues --    2.69329   2.70623   2.71043   2.72499   2.73446
 Alpha virt. eigenvalues --    2.74174   2.77406   2.78338   2.79892   2.81360
 Alpha virt. eigenvalues --    2.82859   2.84042   2.84391   2.85511   2.86987
 Alpha virt. eigenvalues --    2.88124   2.89287   2.91309   2.92908   2.93737
 Alpha virt. eigenvalues --    2.94693   2.96706   2.97188   2.98777   2.99714
 Alpha virt. eigenvalues --    2.99932   3.00804   3.02630   3.04649   3.04855
 Alpha virt. eigenvalues --    3.06134   3.08798   3.09229   3.10229   3.10697
 Alpha virt. eigenvalues --    3.12221   3.12879   3.12952   3.14513   3.14689
 Alpha virt. eigenvalues --    3.16254   3.16987   3.17994   3.18655   3.21526
 Alpha virt. eigenvalues --    3.21734   3.22889   3.24104   3.25143   3.26291
 Alpha virt. eigenvalues --    3.27261   3.28433   3.29634   3.30478   3.32291
 Alpha virt. eigenvalues --    3.33047   3.34558   3.35449   3.37405   3.38080
 Alpha virt. eigenvalues --    3.40061   3.41060   3.42154   3.44708   3.45561
 Alpha virt. eigenvalues --    3.45780   3.47654   3.49039   3.50471   3.52417
 Alpha virt. eigenvalues --    3.52813   3.54152   3.55710   3.56320   3.56919
 Alpha virt. eigenvalues --    3.58781   3.60954   3.61958   3.63319   3.63881
 Alpha virt. eigenvalues --    3.64775   3.65611   3.67196   3.68059   3.68980
 Alpha virt. eigenvalues --    3.69767   3.70838   3.71517   3.73368   3.74662
 Alpha virt. eigenvalues --    3.75396   3.76601   3.77245   3.77987   3.81294
 Alpha virt. eigenvalues --    3.82306   3.83471   3.84591   3.86246   3.87385
 Alpha virt. eigenvalues --    3.88561   3.90935   3.91499   3.92430   3.92811
 Alpha virt. eigenvalues --    3.94928   3.95418   3.97119   3.97492   3.98015
 Alpha virt. eigenvalues --    3.99573   4.01569   4.02482   4.03238   4.04096
 Alpha virt. eigenvalues --    4.04834   4.06650   4.06944   4.08364   4.09087
 Alpha virt. eigenvalues --    4.10472   4.11861   4.12178   4.15710   4.16685
 Alpha virt. eigenvalues --    4.17300   4.18300   4.19952   4.20739   4.22008
 Alpha virt. eigenvalues --    4.22520   4.23880   4.24257   4.25987   4.27003
 Alpha virt. eigenvalues --    4.28314   4.29159   4.32599   4.32843   4.34585
 Alpha virt. eigenvalues --    4.34928   4.36138   4.38407   4.39305   4.42245
 Alpha virt. eigenvalues --    4.42738   4.44069   4.45108   4.46241   4.48307
 Alpha virt. eigenvalues --    4.50377   4.51383   4.54067   4.54913   4.58608
 Alpha virt. eigenvalues --    4.59362   4.62590   4.64385   4.66066   4.69975
 Alpha virt. eigenvalues --    4.71122   4.71396   4.73623   4.76418   4.77375
 Alpha virt. eigenvalues --    4.78799   4.81077   4.82734   4.83281   4.84701
 Alpha virt. eigenvalues --    4.85870   4.87387   4.88275   4.90812   4.92259
 Alpha virt. eigenvalues --    4.93806   4.94585   4.96651   5.00489   5.01560
 Alpha virt. eigenvalues --    5.03666   5.05179   5.05793   5.09586   5.09893
 Alpha virt. eigenvalues --    5.13032   5.13562   5.16282   5.19011   5.20000
 Alpha virt. eigenvalues --    5.22008   5.23077   5.24726   5.26825   5.29111
 Alpha virt. eigenvalues --    5.29841   5.30560   5.33518   5.36062   5.38786
 Alpha virt. eigenvalues --    5.39630   5.40187   5.43307   5.44157   5.45375
 Alpha virt. eigenvalues --    5.47618   5.48769   5.53376   5.54306   5.57662
 Alpha virt. eigenvalues --    5.61387   5.64848   5.74223   5.77182   5.84232
 Alpha virt. eigenvalues --    5.85447   5.91661   5.95355   5.96445   5.99533
 Alpha virt. eigenvalues --    6.04858   6.07011   6.14470  11.85130  12.07910
 Alpha virt. eigenvalues --   12.33737  12.90101  13.43884  13.69352  14.06035
          Condensed to atoms (all electrons):
               1          2          3          4          5          6
     1  C    5.064878   0.295971  -0.043839   0.308319   0.006333  -0.038871
     2  C    0.295971   5.129199   0.287745  -0.032786  -0.052290  -0.005451
     3  C   -0.043839   0.287745   5.170817   0.000574   0.309778  -0.005619
     4  C    0.308319  -0.032786   0.000574   5.078116   0.000542   0.271944
     5  C    0.006333  -0.052290   0.309778   0.000542   5.020836   0.000188
     6  C   -0.038871  -0.005451  -0.005619   0.271944   0.000188   5.102737
     7  C   -0.003009  -0.011248  -0.040217  -0.006228   0.294014  -0.018988
     8  H   -0.041500  -0.007305  -0.001486   0.408240   0.001099  -0.053334
     9  H   -0.044120   0.009447  -0.000651   0.413757  -0.000102  -0.043548
    10  H    0.424956  -0.052261   0.010697  -0.049575  -0.000898   0.009070
    11  H    0.415226  -0.046365  -0.008753  -0.048168   0.000737  -0.003554
    12  H   -0.042110   0.410009  -0.041644   0.008972   0.005489  -0.000755
    13  H   -0.038447   0.413496  -0.068080  -0.007432   0.003279  -0.000324
    14  H    0.002280  -0.060895   0.411051  -0.001444  -0.038204  -0.019537
    15  H    0.006062  -0.042127   0.410414  -0.000818  -0.038590   0.001051
    16  H    0.000733  -0.006873  -0.048661  -0.000121   0.422504  -0.000360
    17  H   -0.000933   0.010043  -0.042201   0.000125   0.411318   0.000088
    18  H    0.000751  -0.002907  -0.010668  -0.061994  -0.001466   0.412828
    19  H    0.005553  -0.000699   0.000356  -0.041891  -0.000030   0.400636
    20  H    0.004997   0.000617   0.000679  -0.047481   0.000407   0.423545
    21  H   -0.010582   0.006286  -0.006708   0.005936  -0.055685  -0.014624
    22  H    0.000715  -0.000243  -0.000647  -0.000334  -0.041051  -0.016013
    23  H    0.000013   0.000262   0.007317  -0.000104  -0.035789   0.001883
               7          8          9         10         11         12
     1  C   -0.003009  -0.041500  -0.044120   0.424956   0.415226  -0.042110
     2  C   -0.011248  -0.007305   0.009447  -0.052261  -0.046365   0.410009
     3  C   -0.040217  -0.001486  -0.000651   0.010697  -0.008753  -0.041644
     4  C   -0.006228   0.408240   0.413757  -0.049575  -0.048168   0.008972
     5  C    0.294014   0.001099  -0.000102  -0.000898   0.000737   0.005489
     6  C   -0.018988  -0.053334  -0.043548   0.009070  -0.003554  -0.000755
     7  C    5.065188  -0.009685   0.000751   0.000099  -0.000332   0.000435
     8  H   -0.009685   0.633334  -0.037427  -0.007692   0.009319  -0.000014
     9  H    0.000751  -0.037427   0.601620  -0.009398  -0.007132  -0.000628
    10  H    0.000099  -0.007692  -0.009398   0.593499  -0.029301  -0.009666
    11  H   -0.000332   0.009319  -0.007132  -0.029301   0.575263  -0.006640
    12  H    0.000435  -0.000014  -0.000628  -0.009666  -0.006640   0.590444
    13  H   -0.013049   0.003760  -0.000064  -0.006631   0.008759  -0.035503
    14  H   -0.003313   0.000309  -0.000669   0.000209   0.002390   0.005604
    15  H    0.008586  -0.000034   0.000069  -0.000447   0.000642  -0.018195
    16  H   -0.051349   0.000006  -0.000011   0.000037  -0.000044   0.001263
    17  H   -0.039854  -0.000048   0.000009   0.000037   0.000002  -0.000441
    18  H   -0.001206   0.006952   0.005832  -0.000107   0.002057  -0.000533
    19  H    0.001431   0.007006  -0.021441  -0.000409   0.000922   0.000059
    20  H   -0.018029  -0.019527   0.005567  -0.000524  -0.000299   0.000050
    21  H    0.415795  -0.004450   0.001084   0.000620   0.000005   0.000473
    22  H    0.408249   0.001302  -0.000216  -0.000006   0.000058  -0.000040
    23  H    0.405307   0.000571   0.000003  -0.000021   0.000003   0.000016
              13         14         15         16         17         18
     1  C   -0.038447   0.002280   0.006062   0.000733  -0.000933   0.000751
     2  C    0.413496  -0.060895  -0.042127  -0.006873   0.010043  -0.002907
     3  C   -0.068080   0.411051   0.410414  -0.048661  -0.042201  -0.010668
     4  C   -0.007432  -0.001444  -0.000818  -0.000121   0.000125  -0.061994
     5  C    0.003279  -0.038204  -0.038590   0.422504   0.411318  -0.001466
     6  C   -0.000324  -0.019537   0.001051  -0.000360   0.000088   0.412828
     7  C   -0.013049  -0.003313   0.008586  -0.051349  -0.039854  -0.001206
     8  H    0.003760   0.000309  -0.000034   0.000006  -0.000048   0.006952
     9  H   -0.000064  -0.000669   0.000069  -0.000011   0.000009   0.005832
    10  H   -0.006631   0.000209  -0.000447   0.000037   0.000037  -0.000107
    11  H    0.008759   0.002390   0.000642  -0.000044   0.000002   0.002057
    12  H   -0.035503   0.005604  -0.018195   0.001263  -0.000441  -0.000533
    13  H    0.606139   0.006459   0.005005   0.000108   0.000453   0.000573
    14  H    0.006459   0.593787  -0.035538   0.008870  -0.007171  -0.014948
    15  H    0.005005  -0.035538   0.585752  -0.011468  -0.003832   0.001866
    16  H    0.000108   0.008870  -0.011468   0.609874  -0.035008  -0.000164
    17  H    0.000453  -0.007171  -0.003832  -0.035008   0.582843   0.000288
    18  H    0.000573  -0.014948   0.001866  -0.000164   0.000288   0.596748
    19  H   -0.000018   0.001785  -0.000052   0.000019  -0.000040  -0.028211
    20  H    0.000008   0.000660  -0.000070  -0.000073   0.000029  -0.041506
    21  H   -0.003561   0.001127   0.000005   0.000768   0.007130  -0.000487
    22  H    0.000889   0.002038  -0.000280   0.008472  -0.012306  -0.000653
    23  H   -0.000326  -0.000340  -0.000423  -0.015091   0.000808   0.000263
              19         20         21         22         23
     1  C    0.005553   0.004997  -0.010582   0.000715   0.000013
     2  C   -0.000699   0.000617   0.006286  -0.000243   0.000262
     3  C    0.000356   0.000679  -0.006708  -0.000647   0.007317
     4  C   -0.041891  -0.047481   0.005936  -0.000334  -0.000104
     5  C   -0.000030   0.000407  -0.055685  -0.041051  -0.035789
     6  C    0.400636   0.423545  -0.014624  -0.016013   0.001883
     7  C    0.001431  -0.018029   0.415795   0.408249   0.405307
     8  H    0.007006  -0.019527  -0.004450   0.001302   0.000571
     9  H   -0.021441   0.005567   0.001084  -0.000216   0.000003
    10  H   -0.000409  -0.000524   0.000620  -0.000006  -0.000021
    11  H    0.000922  -0.000299   0.000005   0.000058   0.000003
    12  H    0.000059   0.000050   0.000473  -0.000040   0.000016
    13  H   -0.000018   0.000008  -0.003561   0.000889  -0.000326
    14  H    0.001785   0.000660   0.001127   0.002038  -0.000340
    15  H   -0.000052  -0.000070   0.000005  -0.000280  -0.000423
    16  H    0.000019  -0.000073   0.000768   0.008472  -0.015091
    17  H   -0.000040   0.000029   0.007130  -0.012306   0.000808
    18  H   -0.028211  -0.041506  -0.000487  -0.000653   0.000263
    19  H    0.596569  -0.031009   0.000798   0.001626  -0.000073
    20  H   -0.031009   0.614614  -0.007443  -0.014426   0.002253
    21  H    0.000798  -0.007443   0.620615  -0.040528  -0.035888
    22  H    0.001626  -0.014426  -0.040528   0.614017  -0.028071
    23  H   -0.000073   0.002253  -0.035888  -0.028071   0.584562
 Mulliken charges:
               1
     1  C   -0.273376
     2  C   -0.241627
     3  C   -0.290254
     4  C   -0.198150
     5  C   -0.212420
     6  C   -0.402993
     7  C   -0.383348
     8  H    0.110605
     9  H    0.127267
    10  H    0.127709
    11  H    0.135205
    12  H    0.133355
    13  H    0.124503
    14  H    0.145487
    15  H    0.132420
    16  H    0.116565
    17  H    0.128662
    18  H    0.136692
    19  H    0.107112
    20  H    0.126962
    21  H    0.119315
    22  H    0.117446
    23  H    0.112864
 Sum of Mulliken charges =  -0.00000
 Mulliken charges with hydrogens summed into heavy atoms:
               1
     1  C   -0.010463
     2  C    0.016230
     3  C   -0.012347
     4  C    0.039723
     5  C    0.032808
     6  C   -0.032228
     7  C   -0.033724
 APT charges:
               1
     1  C   -0.910036
     2  C   -0.631348
     3  C   -0.639613
     4  C   -0.679196
     5  C   -0.930697
     6  C   -0.998866
     7  C   -0.925312
     8  H    0.249658
     9  H    0.497755
    10  H    0.439781
    11  H    0.383905
    12  H    0.453395
    13  H    0.253166
    14  H    0.243680
    15  H    0.462709
    16  H    0.413124
    17  H    0.448275
    18  H    0.178202
    19  H    0.499819
    20  H    0.267376
    21  H    0.147474
    22  H    0.294774
    23  H    0.481976
 Sum of APT charges =  -0.00000
 APT charges with hydrogens summed into heavy atoms:
               1
     1  C   -0.086351
     2  C    0.075214
     3  C    0.066775
     4  C    0.068217
     5  C   -0.069298
     6  C   -0.053470
     7  C   -0.001088
 Electronic spatial extent (au):  <R**2>=            926.5969
 Charge=             -0.0000 electrons
 Dipole moment (field-independent basis, Debye):
    X=             -0.0039    Y=             -0.1362    Z=             -0.0187  Tot=              0.1375
 Quadrupole moment (field-independent basis, Debye-Ang):
   XX=            -49.3280   YY=            -49.3336   ZZ=            -49.1250
   XY=              0.0104   XZ=             -0.0817   YZ=              0.0456
 Traceless Quadrupole moment (field-independent basis, Debye-Ang):
   XX=             -0.0658   YY=             -0.0714   ZZ=              0.1371
   XY=              0.0104   XZ=             -0.0817   YZ=              0.0456
 Octapole moment (field-independent basis, Debye-Ang**2):
  XXX=              1.6612  YYY=             -2.7442  ZZZ=             -0.4481  XYY=             -0.7237
  XXY=             -0.3703  XXZ=              0.4345  XZZ=             -0.7139  YZZ=             -0.3526
  YYZ=              0.4072  XYZ=             -0.0202
 Hexadecapole moment (field-independent basis, Debye-Ang**3):
 XXXX=           -681.5045 YYYY=           -442.3716 ZZZZ=           -190.3488 XXXY=              3.3179
 XXXZ=              2.3948 YYYX=              1.3489 YYYZ=             -0.4907 ZZZX=             -0.6249
 ZZZY=             -0.2110 XXYY=           -188.7962 XXZZ=           -143.2945 YYZZ=           -107.0549
 XXYZ=              1.9423 YYXZ=             -1.5161 ZZXY=             -2.4486
 N-N= 3.433995996692D+02 E-N=-1.325284638914D+03  KE= 2.746044254695D+02
  Exact polarizability:   0.000   0.000   0.000   0.000   0.000   0.000
 Approx polarizability:  99.364   0.585  98.053   1.454  -0.196  98.789
 No NMR shielding tensors so no spin-rotation constants.
 Leave Link  601 at Mon Sep 30 11:02:51 2019, MaxMem=   671088640 cpu:              58.8 elap:              29.5
 (Enter /shared/centos7/gaussian/g16/l701.exe)
 SCFChk:  SCF convergence  8.42D-09 required  1.00D-08
 ... and contract with generalized density number  0.
 Compute integral second derivatives.
 Entering OneElI...
 Calculate overlap and kinetic energy integrals
    NBasis = 485  MinDer = 2  MaxDer = 2
 Requested accuracy = 0.1000D-12
 PrmmSu-InSpLW:  IPartL=    0 NPrtUS=   20 NPrtUL=    1 DoSpLW=F IThBeg=    0 IThEnd=   19 NThAct=   20.
 PrsmSu:  NPrtUS=  20 ThrOK=T IAlg=1 NPAlg=1 LenDen=           0 ISkipM=0 DoSpLW=F IThBeg=    0 IThEnd=   19.
 Prism:   IPart=     0 DynPar=F LinDyn=F Incr=           6.
 PRISM was handed    33191284 working-precision words and 13840 shell-pairs
 PRISM was handed    33191284 working-precision words and 13840 shell-pairs
 PRISM was handed    33191284 working-precision words and 13840 shell-pairs
 PRISM was handed    33191284 working-precision words and 13840 shell-pairs
 PRISM was handed    33191284 working-precision words and 13840 shell-pairs
 PRISM was handed    33191284 working-precision words and 13840 shell-pairs
 PRISM was handed    33191284 working-precision words and 13840 shell-pairs
 PRISM was handed    33191284 working-precision words and 13840 shell-pairs
 PRISM was handed    33191284 working-precision words and 13840 shell-pairs
 PRISM was handed    33191284 working-precision words and 13840 shell-pairs
 PRISM was handed    33191284 working-precision words and 13840 shell-pairs
 IPart=  5 NShTot=         711 NBatch=          71 AvBLen=        10.0
 IPart=  1 NShTot=         723 NBatch=          75 AvBLen=         9.6
 PRISM was handed    33191284 working-precision words and 13840 shell-pairs
 PRISM was handed    33191284 working-precision words and 13840 shell-pairs
 IPart= 19 NShTot=         666 NBatch=          48 AvBLen=        13.9
 PRISM was handed    33191284 working-precision words and 13840 shell-pairs
 PRISM was handed    33191284 working-precision words and 13840 shell-pairs
 PRISM was handed    33191284 working-precision words and 13840 shell-pairs
 IPart= 18 NShTot=         666 NBatch=          48 AvBLen=        13.9
 PRISM was handed    33191284 working-precision words and 13840 shell-pairs
 PRISM was handed    33191284 working-precision words and 13840 shell-pairs
 PRISM was handed    33191284 working-precision words and 13840 shell-pairs
 IPart= 12 NShTot=         677 NBatch=          54 AvBLen=        12.5
 PRISM was handed    33191284 working-precision words and 13840 shell-pairs
 IPart= 16 NShTot=         670 NBatch=          49 AvBLen=        13.7
 IPart=  0 NShTot=         727 NBatch=          79 AvBLen=         9.2
 IPart=  2 NShTot=         718 NBatch=          73 AvBLen=         9.8
 IPart= 13 NShTot=         676 NBatch=          53 AvBLen=        12.8
 IPart= 11 NShTot=         685 NBatch=          60 AvBLen=        11.4
 IPart= 15 NShTot=         673 NBatch=          52 AvBLen=        12.9
 IPart=  9 NShTot=         688 NBatch=          60 AvBLen=        11.5
 IPart=  3 NShTot=         716 NBatch=          72 AvBLen=         9.9
 IPart=  7 NShTot=         699 NBatch=          62 AvBLen=        11.3
 IPart= 10 NShTot=         686 NBatch=          60 AvBLen=        11.4
 IPart= 14 NShTot=         673 NBatch=          52 AvBLen=        12.9
 IPart= 17 NShTot=         669 NBatch=          49 AvBLen=        13.7
 IPart=  8 NShTot=         695 NBatch=          60 AvBLen=        11.6
 IPart=  4 NShTot=         714 NBatch=          72 AvBLen=         9.9
 IPart=  6 NShTot=         708 NBatch=          70 AvBLen=        10.1
 PrSmSu:  NxtVal=            121.
 Entering OneElI...
 Calculate potential energy integrals
    NBasis = 485  MinDer = 2  MaxDer = 2
 Requested accuracy = 0.1000D-12
 PrmmSu-InSpLW:  IPartL=    0 NPrtUS=   20 NPrtUL=    1 DoSpLW=F IThBeg=    0 IThEnd=   19 NThAct=   20.
 PrsmSu:  NPrtUS=  20 ThrOK=T IAlg=1 NPAlg=1 LenDen=           0 ISkipM=0 DoSpLW=F IThBeg=    0 IThEnd=   19.
 Prism:   IPart=     0 DynPar=F LinDyn=F Incr=         148.
 PRISM was handed    33250416 working-precision words and 12899 shell-pairs
 PRISM was handed    33250416 working-precision words and 12899 shell-pairs
 PRISM was handed    33250416 working-precision words and 12899 shell-pairs
 PRISM was handed    33250416 working-precision words and 12899 shell-pairs
 PRISM was handed    33250416 working-precision words and 12899 shell-pairs
 PRISM was handed    33250416 working-precision words and 12899 shell-pairs
 PRISM was handed    33250416 working-precision words and 12899 shell-pairs
 PRISM was handed    33250416 working-precision words and 12899 shell-pairs
 PRISM was handed    33250416 working-precision words and 12899 shell-pairs
 PRISM was handed    33250416 working-precision words and 12899 shell-pairs
 PRISM was handed    33250416 working-precision words and 12899 shell-pairs
 PRISM was handed    33250416 working-precision words and 12899 shell-pairs
 PRISM was handed    33250416 working-precision words and 12899 shell-pairs
 PRISM was handed    33250416 working-precision words and 12899 shell-pairs
 PRISM was handed    33250416 working-precision words and 12899 shell-pairs
 PRISM was handed    33250416 working-precision words and 12899 shell-pairs
 PRISM was handed    33250416 working-precision words and 12899 shell-pairs
 PRISM was handed    33250416 working-precision words and 12899 shell-pairs
 PRISM was handed    33250416 working-precision words and 12899 shell-pairs
 PRISM was handed    33250416 working-precision words and 12899 shell-pairs
 IPart=  1 NShTot=       15571 NBatch=         679 AvBLen=        22.9
 IPart=  5 NShTot=       15341 NBatch=         669 AvBLen=        22.9
 IPart= 18 NShTot=       14260 NBatch=         621 AvBLen=        23.0
 IPart= 12 NShTot=       14536 NBatch=         633 AvBLen=        23.0
 IPart= 19 NShTot=       14260 NBatch=         621 AvBLen=        23.0
 IPart=  8 NShTot=       14766 NBatch=         643 AvBLen=        23.0
 IPart=  4 NShTot=       15433 NBatch=         673 AvBLen=        22.9
 IPart= 16 NShTot=       14306 NBatch=         623 AvBLen=        23.0
 IPart= 17 NShTot=       14283 NBatch=         622 AvBLen=        23.0
 IPart=  7 NShTot=       14904 NBatch=         650 AvBLen=        22.9
 IPart=  6 NShTot=       15180 NBatch=         662 AvBLen=        22.9
 IPart= 14 NShTot=       14421 NBatch=         628 AvBLen=        23.0
 IPart= 10 NShTot=       14651 NBatch=         638 AvBLen=        23.0
 IPart=  2 NShTot=       15502 NBatch=         676 AvBLen=        22.9
 IPart=  9 NShTot=       14674 NBatch=         639 AvBLen=        23.0
 IPart= 13 NShTot=       14467 NBatch=         630 AvBLen=        23.0
 IPart= 15 NShTot=       14375 NBatch=         626 AvBLen=        23.0
 IPart= 11 NShTot=       14628 NBatch=         637 AvBLen=        23.0
 IPart=  0 NShTot=       15640 NBatch=         682 AvBLen=        22.9
 IPart=  3 NShTot=       15479 NBatch=         675 AvBLen=        22.9
 PrSmSu:  NxtVal=           2961.
 Polarizability after L701:
                1             2             3 
      1  0.000000D+00
      2  0.000000D+00  0.000000D+00
      3  0.000000D+00  0.000000D+00  0.000000D+00
 Dipole Derivatives after L701:
                 1             2             3             4             5 
      1  -0.102379D+01  0.930824D+00 -0.728536D-01 -0.425970D-01 -0.452001D-01
      2   0.787120D+00 -0.811242D+00  0.909515D-02 -0.310549D+00 -0.121899D+01
      3   0.161236D+00 -0.173833D+00 -0.895076D+00 -0.265773D+00  0.624805D-01
                 6             7             8             9            10 
      1  -0.230675D+00 -0.328065D+00 -0.463128D+00  0.567168D+00 -0.138230D+01
      2  -0.602794D+00 -0.344066D+00 -0.687205D+00  0.646402D+00 -0.298987D+00
      3  -0.632451D+00 -0.844345D-01  0.138728D+00 -0.903571D+00 -0.102095D+00
                11            12            13            14            15 
      1  -0.352396D+00  0.812754D+00 -0.192489D+01 -0.318696D+00  0.724189D-01
      2  -0.250115D-01  0.498695D+00  0.392238D-01 -0.281229D+00 -0.418737D+00
      3   0.292761D+00 -0.630279D+00  0.118266D+00 -0.421176D+00 -0.585969D+00
                16            17            18            19            20 
      1  -0.548588D+00 -0.686682D+00 -0.656529D+00 -0.490500D+00  0.883829D+00
      2   0.160412D+00 -0.146596D+01 -0.428507D+00  0.207515D-01 -0.122829D+01
      3  -0.873250D-02 -0.111811D+00 -0.982045D+00  0.521802D-02  0.167388D+00
                21            22            23            24            25 
      1  -0.486341D+00 -0.494175D-01  0.126917D+00 -0.410371D+00  0.116339D+01
      2   0.195620D+00 -0.139675D+00  0.237448D+00 -0.215925D+00  0.174472D+00
      3  -0.105714D+01  0.209793D+00 -0.151205D+00  0.560943D+00 -0.980783D-01
                26            27            28            29            30 
      1   0.864398D-01  0.131436D-01  0.478542D+00 -0.300596D+00 -0.548040D+00
      2   0.184880D+00  0.311519D-01 -0.236666D+00  0.419236D+00  0.440937D+00
      3   0.217220D-01  0.144993D+00 -0.174146D+00  0.172678D+00  0.421563D+00
                31            32            33            34            35 
      1   0.398623D+00 -0.225729D+00  0.556630D+00  0.171701D+00  0.261458D-01
      2  -0.179660D+00  0.335686D+00 -0.442829D+00  0.486665D-01  0.104633D+01
      3   0.121835D+00 -0.120798D+00  0.417407D+00 -0.214185D-01  0.976436D-01
                36            37            38            39            40 
      1  -0.271769D-01  0.185812D+00 -0.816998D-01  0.120323D+00  0.998151D-01
      2   0.154856D-01  0.920571D-01  0.130967D-01  0.302314D+00 -0.452375D-01
      3   0.142157D+00  0.158369D+00 -0.203510D+00  0.560589D+00  0.335751D+00
                41            42            43            44            45 
      1  -0.561933D-01 -0.911564D-01  0.423156D+00  0.436653D+00 -0.208106D+00
      2   0.875030D-01 -0.784803D-01  0.299623D+00  0.673653D+00 -0.222095D+00
      3   0.367486D+00  0.543721D+00 -0.213565D+00 -0.334666D+00  0.291319D+00
                46            47            48            49            50 
      1   0.683902D+00  0.486160D+00  0.584131D+00  0.720605D+00 -0.354382D+00
      2   0.120075D+00  0.267020D+00  0.111521D+00 -0.106651D+00  0.220022D+00
      3   0.137841D+00  0.958411D-01  0.288450D+00 -0.222978D+00  0.137648D+00
                51            52            53            54            55 
      1  -0.682542D+00  0.533430D-02 -0.450259D-01  0.894483D-01  0.752778D+00
      2   0.130152D+00 -0.179880D+00  0.416132D-01  0.153067D+00  0.558332D+00
      3   0.404199D+00 -0.394491D+00 -0.285228D+00  0.487658D+00  0.352803D+00
                56            57            58            59            60 
      1   0.379907D+00  0.300146D+00  0.217741D-02  0.101481D+00 -0.688871D-01
      2   0.462512D+00  0.306286D+00 -0.620732D+00  0.627645D+00 -0.426334D+00
      3   0.254663D+00  0.284167D+00 -0.207015D-02  0.486623D-02  0.172305D+00
                61            62            63            64            65 
      1   0.656323D-01 -0.228170D-01  0.189900D-01 -0.814102D-02 -0.304393D+00
      2   0.239293D+00  0.105474D+00 -0.691484D-01  0.293975D+00  0.717665D+00
      3  -0.390588D+00  0.105099D+00  0.271316D+00 -0.327048D-02  0.428175D-01
                66            67            68            69 
      1  -0.262712D+00  0.646820D+00 -0.201419D+00  0.610238D+00
      2   0.511629D+00 -0.371896D+00  0.278155D+00 -0.447507D+00
      3   0.174798D+00  0.380529D+00 -0.159594D+00  0.520953D+00
 Hessian after L701:
                1             2             3             4             5 
      1  0.158616D+02
      2 -0.402687D+00  0.159227D+02
      3  0.242008D+00 -0.267809D+00  0.181366D+02
      4 -0.262769D+01  0.108407D+01  0.371830D+00  0.155440D+02
      5  0.111945D+01 -0.602317D+01  0.935848D-01 -0.131135D+00  0.168255D+02
      6  0.346969D+00  0.688837D-01 -0.628232D+01  0.392803D+00 -0.335719D+00
      7  0.278574D+00 -0.387605D-01 -0.343109D+00 -0.427580D+01 -0.942927D+00
      8 -0.881765D-01 -0.120866D+00  0.558571D-01 -0.881776D+00 -0.550547D+01
      9 -0.217807D+00  0.495879D-01  0.319839D-01 -0.172469D+01  0.862603D+00
     10 -0.612200D+01  0.101388D+01 -0.831421D-01  0.132323D+00  0.256873D+00
     11  0.966589D+00 -0.243089D+01 -0.315626D+00  0.269585D+00  0.155348D+00
     12 -0.605434D-01 -0.281984D+00 -0.629410D+01  0.335588D-01  0.519214D-01
     13  0.240401D+00 -0.112012D+00 -0.178587D-01  0.141253D+00 -0.178939D+00
     14 -0.117318D+00 -0.111015D+00 -0.914110D-03 -0.291601D+00  0.983444D-01
     15 -0.131598D-01 -0.560602D-02 -0.155723D+00 -0.208405D+00  0.142904D+00
     16 -0.132052D+00 -0.874244D-01 -0.445162D-01 -0.819081D-01  0.135274D+00
     17 -0.609550D-01  0.282098D+00  0.258831D+00  0.110696D+00  0.131261D+00
     18 -0.420853D-01  0.167860D+00 -0.450940D-01  0.206109D-01  0.759955D-01
     19  0.742572D-01 -0.139479D+00  0.235019D-01 -0.196254D-01 -0.219587D+00
     20 -0.114764D+00 -0.971045D-02 -0.153602D-01 -0.190780D+00  0.105359D+00
     21  0.968537D-02 -0.794736D-02 -0.124652D+00  0.123247D-01 -0.290783D-01
     22  0.107068D+00 -0.206722D-01  0.315579D-01 -0.651099D-02 -0.178585D-01
     23  0.406302D-01 -0.903073D-01  0.912258D-01 -0.304861D-02 -0.182375D-01
     24 -0.150446D-01  0.867338D-01  0.105012D+00 -0.418715D-02 -0.113344D-02
     25  0.933112D-01 -0.103960D+00  0.714031D-02  0.130418D+00  0.116726D+00
     26 -0.103263D+00 -0.311409D-01  0.453811D-02  0.102103D+00  0.108388D-01
     27  0.109349D-01  0.960565D-02  0.875819D-01 -0.685839D-02 -0.324494D-02
     28 -0.368933D+01 -0.694471D+00 -0.952128D+00 -0.135269D+00 -0.138962D-01
     29 -0.684642D+00 -0.369883D+01  0.938981D+00  0.604759D-02  0.146730D+00
     30 -0.893424D+00  0.892059D+00 -0.307117D+01  0.463746D-01  0.314633D-01
     31 -0.399430D+01 -0.442001D+00  0.967220D+00 -0.870989D-01 -0.465149D-01
     32 -0.435419D+00 -0.402654D+01 -0.918464D+00 -0.204331D-01  0.123297D+00
     33  0.854191D+00 -0.825306D+00 -0.249842D+01 -0.804951D-01 -0.467325D-01
     34 -0.332917D-01 -0.104200D+00 -0.577876D-02 -0.440298D+01  0.159031D+00
     35 -0.112118D+00  0.991801D-01 -0.637154D-02  0.164304D+00 -0.201499D+01
     36 -0.115774D-01 -0.889710D-02  0.870692D-01  0.326044D-01  0.217914D+00
     37 -0.104636D+00  0.174511D-01 -0.821329D-01 -0.448780D+01 -0.263694D+00
     38 -0.401363D-01  0.104604D+00 -0.416074D-01 -0.194523D+00 -0.452529D+01
     39 -0.863880D-01 -0.251272D-02  0.112906D+00  0.866317D+00 -0.806880D+00
     40  0.298322D-01  0.407850D-02 -0.313650D-01  0.180771D+00  0.115112D+00
     41 -0.202048D-01 -0.504795D-01  0.209768D-01  0.766347D-01  0.140650D+00
     42 -0.771365D-01 -0.654874D-02  0.322779D-02  0.170309D+00 -0.190701D+00
     43  0.927525D-01  0.393382D-01 -0.695659D-01  0.143055D-01  0.603471D-01
     44  0.515145D-01 -0.238885D-01 -0.302338D-01  0.580661D-01  0.170182D+00
     45 -0.710414D-01 -0.197462D-01 -0.104884D-01  0.101803D+00 -0.507492D-01
     46  0.414595D-01 -0.207956D-02  0.336094D-02 -0.949205D-02 -0.863656D-02
     47  0.369292D-02 -0.118208D-01  0.115537D-03  0.991792D-02 -0.215881D-02
     48  0.125332D-01  0.861015D-03 -0.135437D-01  0.195377D-01 -0.303527D-02
     49 -0.847749D-03  0.877280D-03 -0.476920D-02  0.109041D+00 -0.108581D+00
     50 -0.229166D-02 -0.647740D-02  0.231006D-02 -0.101967D+00  0.137039D-01
[...]
     56  0.170290D-02  0.280515D-02 -0.504590D-03  0.460688D-02  0.174187D-01
     57 -0.197848D-03  0.224456D-02  0.491696D-03  0.262181D-02 -0.122996D-02
     58 -0.259567D-03 -0.338095D-02  0.286449D-03 -0.311901D-02 -0.166523D-02
     59  0.792187D-03  0.438001D-02  0.288718D-02  0.862167D-02  0.140634D-02
     60 -0.121242D-02 -0.143988D-03  0.122215D-02 -0.290356D-02  0.204801D-03
     61 -0.919533D-03  0.301062D-02  0.162510D-01  0.781351D-02 -0.103433D-01
     62 -0.277686D-02  0.122063D-01 -0.378523D-01  0.739616D-02 -0.535497D-03
     63 -0.278912D-02 -0.815508D-03  0.115709D-02  0.151950D-03  0.427707D-02
     64 -0.329870D-03 -0.421721D-02 -0.435791D-02 -0.138708D-02 -0.832419D-02
     65  0.813869D-03 -0.304464D-02  0.146437D-01  0.171916D-01 -0.144928D-01
     66 -0.406144D-03 -0.442101D-03  0.741375D-02  0.337713D-02  0.298289D-02
     67  0.396011D-03 -0.909057D-03 -0.294253D-02 -0.504264D-02  0.244997D-02
     68 -0.727394D-03 -0.237556D-02  0.143052D-02  0.400350D-02 -0.167441D-02
     69 -0.656052D-03  0.273761D-03 -0.549066D-03 -0.646765D-02  0.441530D-02
               41            42            43            44            45 
     41  0.422827D+01
     42 -0.935622D+00  0.271201D+01
     43 -0.189288D+00 -0.559806D-01  0.365857D+01
     44 -0.869384D-01 -0.724830D-01 -0.107850D+01  0.269628D+01
     45 -0.592910D-01  0.143081D+00  0.608192D+00  0.107247D+01  0.364120D+01
     46  0.128674D-01  0.947920D-01  0.468073D-02  0.325169D-01 -0.456586D-01
     47 -0.321859D-01  0.134179D-01  0.248893D-01 -0.930305D-03  0.467129D-01
     48  0.112224D-01  0.513705D-01 -0.397281D-01  0.440309D-01 -0.301081D-01
     49  0.310721D-01 -0.185144D-01 -0.191166D-02  0.960501D-02 -0.135026D-02
     50  0.872707D-02  0.732789D-02  0.153793D-01 -0.138818D-01  0.274665D-02
     51  0.428693D-02  0.121214D-01 -0.253106D-03  0.875744D-02  0.560699D-02
     52 -0.474960D-01  0.423908D-02  0.449464D-02  0.165397D-01  0.500843D-03
     53 -0.304217D-01  0.282276D-02  0.190490D-01  0.153723D-01  0.229481D-03
     54 -0.563742D-02  0.266928D-01  0.670270D-02  0.909595D-02 -0.904476D-02
     55  0.157397D-01 -0.100086D-01  0.240598D-02  0.428454D-02 -0.160711D-02
     56  0.766712D-02 -0.878638D-02  0.240144D-02  0.278584D-02 -0.126739D-02
     57 -0.136215D-02 -0.847267D-02  0.123621D-02  0.163856D-02 -0.864129D-03
     58  0.562027D-02  0.149243D-03 -0.242292D-02 -0.257316D-02  0.105059D-02
     59  0.594875D-02 -0.160622D-01  0.279274D-02  0.448481D-02 -0.219330D-02
     60 -0.550117D-02  0.370409D-02 -0.175398D-02 -0.323221D-02  0.497113D-03
     61 -0.178725D-02 -0.829821D-02  0.182534D-02  0.830835D-02 -0.579235D-02
     62 -0.382656D-02 -0.958387D-02  0.175164D-02  0.237624D-02 -0.401397D-02
     63 -0.545173D-02  0.197069D-01 -0.343055D-02 -0.710099D-02  0.290576D-02
     64 -0.750095D-02  0.391231D-02  0.331023D-03  0.282663D-02 -0.122435D-02
     65  0.151235D-01 -0.277044D-01  0.298918D-02  0.511422D-02 -0.199814D-02
     66 -0.139305D-01 -0.197770D-02  0.106314D-02  0.337683D-02 -0.233223D-02
     67  0.217258D-02  0.406259D-02 -0.107294D-02 -0.315592D-02  0.173619D-02
     68 -0.243836D-02 -0.186890D-02  0.272641D-02 -0.223406D-02  0.220185D-02
     69  0.286901D-02  0.430460D-02 -0.298820D-02 -0.146290D-02 -0.991036D-05
               46            47            48            49            50 
     46  0.272418D+01
     47 -0.974666D+00  0.355295D+01
     48 -0.104308D+01 -0.903085D+00  0.336573D+01
     49  0.153445D+00  0.673737D-02  0.406733D-02  0.282257D+01
     50 -0.438862D-02  0.103090D-01 -0.181650D+00  0.644101D+00  0.398344D+01
     51 -0.129545D-01 -0.181266D+00 -0.141212D+00  0.128898D+01 -0.604614D+00
     52 -0.272533D-02 -0.106261D-02 -0.115164D-02  0.622319D-02  0.152305D-02
     53 -0.149087D-02 -0.236789D-02 -0.122490D-02 -0.186938D-02 -0.281788D-02
     54  0.468136D-02  0.289549D-02  0.260184D-02  0.785077D-02 -0.102730D-02
     55  0.432741D-02  0.324898D-02  0.323866D-02  0.509745D-02 -0.870642D-03
     56  0.309507D-02  0.142234D-02  0.194823D-02  0.299644D-02 -0.129649D-02
     57  0.224819D-02  0.138895D-02  0.814304D-03  0.159245D-02 -0.353815D-03
     58 -0.227504D-02 -0.773536D-03 -0.123972D-02  0.186109D-03  0.188873D-02
     59  0.493319D-02  0.316210D-02  0.273067D-02  0.776097D-02 -0.125586D-02
     60 -0.180760D-02 -0.169167D-02 -0.228893D-02 -0.503789D-02 -0.104854D-03
     61  0.246707D-01  0.211026D-01  0.144055D-03  0.521292D-01  0.683242D-02
     62  0.145622D-01  0.232542D-02 -0.247519D-02  0.149524D-01 -0.282178D-01
     63 -0.101411D-01 -0.640975D-02 -0.776060D-02 -0.737631D-01 -0.549759D-02
     64  0.824080D-02  0.575298D-01  0.181956D-01 -0.116369D-01 -0.513165D-01
     65  0.773692D-01  0.863245D-01  0.350857D-01 -0.605594D-01 -0.289852D-01
     66  0.197296D-01  0.310107D-01 -0.216240D-01  0.369317D-01  0.337144D-01
     67  0.323321D-01 -0.288973D-01  0.980683D-02 -0.960172D-02  0.244352D-02
     68 -0.390793D-01 -0.797577D-01  0.537959D-01  0.557798D-02 -0.362989D-02
     69  0.173643D-01  0.543929D-01  0.159417D-01 -0.133172D-01 -0.770366D-02
               51            52            53            54            55 
     51  0.301307D+01
     52  0.131421D-02  0.339461D+01
     53  0.159569D-02 -0.539207D+00  0.421074D+01
     54 -0.612598D-02  0.108192D+01  0.608650D+00  0.297080D+01
     55 -0.304738D-02 -0.959900D-01 -0.126337D+00  0.290339D-01  0.264514D+01
     56 -0.164140D-02 -0.140434D+00  0.122391D-02  0.201341D-01 -0.109278D+01
     57 -0.180469D-02  0.339640D-01  0.204386D-01  0.114840D+00 -0.917633D+00
     58  0.231420D-03  0.200383D+00 -0.199745D-01  0.126936D-01 -0.881672D-01
     59 -0.434851D-02  0.120296D-01 -0.823200D-01  0.306749D+00  0.356323D-01
     60  0.954789D-03 -0.205392D-01  0.247662D+00 -0.102960D+00 -0.136602D+00
     61 -0.732898D-01 -0.888807D-03  0.240605D-02 -0.848455D-02  0.126726D-02
     62 -0.123651D-01  0.415503D-03 -0.218180D-02  0.329037D-02  0.629061D-02
     63  0.403101D-01 -0.525094D-02 -0.328431D-02  0.490452D-02  0.138736D-01
     64  0.270703D-01 -0.296406D-02 -0.446227D-03  0.254439D-03  0.230305D-01
     65  0.364309D-01  0.210099D-02  0.360083D-02 -0.912026D-02 -0.983190D-02
     66  0.126492D-01 -0.107505D-02  0.138178D-02 -0.574898D-02  0.646333D-02
     67  0.119266D-02  0.787795D-04 -0.385897D-02  0.971882D-02  0.354299D-02
     68 -0.140642D-01 -0.530306D-03 -0.147225D-02 -0.303820D-02 -0.121218D-02
     69  0.254620D-01  0.276078D-02 -0.454026D-02  0.856262D-02  0.439040D-02
               56            57            58            59            60 
     56  0.295919D+01
     57 -0.614377D+00  0.322176D+01
     58  0.351563D-01 -0.144257D+00  0.345874D+01
     59  0.121106D+00  0.249686D-01  0.102982D+01  0.270947D+01
     60  0.218740D-01 -0.249299D-02 -0.533780D+00  0.779093D+00  0.413028D+01
     61  0.313753D-02  0.675877D-02  0.560161D-02 -0.224244D-01 -0.163915D-01
     62 -0.189674D-02  0.524953D-02 -0.154864D-01  0.236379D-02 -0.186481D-01
     63  0.704242D-02  0.688012D-02 -0.195064D-01 -0.150744D-01 -0.957769D-02
     64  0.924998D-03  0.118255D-01 -0.755983D-01 -0.739020D-02 -0.216765D-01
     65 -0.908977D-02 -0.416648D-02  0.255093D-02  0.279931D-01  0.361584D-02
     66 -0.566040D-03 -0.495039D-02 -0.189564D-01 -0.409647D-02  0.292969D-01
     67  0.232580D-02  0.245716D-02  0.177224D-01  0.143024D-01  0.157589D-01
     68 -0.101338D-02 -0.591343D-03  0.455899D-02 -0.857524D-02  0.257641D-02
     69  0.216548D-02  0.173283D-02  0.164765D-01  0.104349D-01 -0.526655D-03
               61            62            63            64            65 
     61  0.274026D+01
     62  0.413718D+00  0.466498D+01
     63  0.101028D+01 -0.120250D+00  0.408687D+01
     64  0.121389D+00  0.161350D+00  0.167358D+00  0.404367D+01
     65  0.147923D+00 -0.641535D-01 -0.275710D+00 -0.387006D+00  0.221506D+01
     66  0.124546D+00 -0.224580D+00 -0.583245D-01 -0.349244D+00 -0.110782D+01
     67 -0.177187D+00  0.114272D+00 -0.665060D-01  0.237311D-01 -0.471382D-01
     68  0.131062D+00  0.786937D-01  0.245231D-01 -0.484110D-01  0.842642D-01
     69 -0.645383D-01  0.218199D-01  0.138924D+00 -0.105853D+00 -0.631522D-01
               66            67            68            69 
     66  0.348674D+01
     67 -0.106477D+00  0.295236D+01
     68 -0.651936D-01  0.625301D+00  0.355042D+01
     69 -0.852244D-01 -0.113492D+01  0.680642D+00  0.240795D+01
 Leave Link  701 at Mon Sep 30 11:03:18 2019, MaxMem=   671088640 cpu:              54.6 elap:              27.4
 (Enter /shared/centos7/gaussian/g16/l702.exe)
 L702 exits ... SP integral derivatives will be done elsewhere.
 Leave Link  702 at Mon Sep 30 11:03:20 2019, MaxMem=   671088640 cpu:               1.3 elap:               1.3
 (Enter /shared/centos7/gaussian/g16/l703.exe)
 Integral derivatives from FoFJK, PRISM(SPDF).
 Compute integral second derivatives, UseDBF=F ICtDFT=           0.
 ICntrl=    100147.
 Calling FoFJK, ICntrl=    100147 FMM=F ISym2X=0 I1Cent= 0 IOpClX= 0 NMat=1 NMatS=1 NMatT=0.
 FoFJK:  IHMeth= 1 ICntrl=  100147 DoSepK=F KAlg= 0 I1Cent=           0 FoldK=F
 IRaf=         0 NMat=       1 IRICut=       1 DoRegI=T DoRafI=F ISym2E= 0 IDoP0=0 IntGTp=1.
 FoFCou: FMM=F IPFlag=           0 FMFlag=      100000 FMFlg1=         800
         NFxFlg=           0 DoJE=F BraDBF=F KetDBF=F FulRan=T
         wScrn=  0.000000 ICntrl=    100147 IOpCl=  0 I1Cent=           0 NGrid=           0
         NMat0=    1 NMatS0=      1 NMatT0=    0 NMatD0=    1 NMtDS0=    0 NMtDT0=    0
 Symmetry not used in FoFCou.
 FoFCou:  KetSym=F NOpSet=  1 NOpAb=1 NOp=  1.
 FoFCou:  CnvScl= 1.00D+00 Thresh= 1.00D-08 IAcrcy=      12.
 PrismS was handed   669966856 working-precision words and 13385 shell-pairs
 FoFCou: LinMIO=F DoNuc=F BraDBF=F KetDBF=F HaveP=T PDBF=F HaveZ=T HaveW=F
         NIJTC =      10 NIJTAt=       0 NIJTCD=       0 NIJTT =      10
         IJTBeg=       1 IJTEnd=      10 KLTBeg=       1 KLTEnd=      10
         IPTBeg=       1 IPTEnd=      10 IPTBCv=       1 IPTECv=      10
         IZTBeg=       1 IZTEnd=      10 IZTBCv=       1 IZTECv=      10
         IWTBeg=      11 IWTEnd=      10 IWTBCv=      11 IWTECv=      10
         INTBeg=       1 INTEnd=       0 IFTBCv=       1 IFTECv=      10
 NCel replicated for PrismC:     1
 CoulSu-InSpLW:  IPartL=    0 NPrtUS=   20 NPrtUL=    1 DoSpLW=F IThBeg=    0 IThEnd=   19 NThAct=   20.
 CoulSu:  IncDef=  1024 NBBP=       89585805 NTPThr=   100 NPartT=   20 Incr=        1024 LDynOK=F GPUOK=T.
 CoulSu:  NPrtUS=  20 ThrOK=T IAlg=1 NPAlg=1 LenDen=           0 LWGrdD=           0 DoCopy=F ISkipM=0
          DoSpLW=F IThBeg=    0 IThEnd=   19.
 Enter PrismC:  IPart=  0 JobTyp=22 DoJE=F Cont=F.
 PrismC:  IPart=     0 DynPar=T LinDyn=F Incr=        1024 UseFst=F UseS4=T ISplat=2.
 PrismC was handed    33252965 working-precision words and 13385 shell-pairs
 Enter PrismC:  IPart=  4 JobTyp=22 DoJE=F Cont=F.
 PrismC:  IPart=     4 DynPar=T LinDyn=F Incr=        1024 UseFst=F UseS4=T ISplat=2.
 PrismC was handed    33252965 working-precision words and 13385 shell-pairs
 Enter PrismC:  IPart=  8 JobTyp=22 DoJE=F Cont=F.
 PrismC:  IPart=     8 DynPar=T LinDyn=F Incr=        1024 UseFst=F UseS4=T ISplat=2.
 PrismC was handed    33252965 working-precision words and 13385 shell-pairs
 Enter PrismC:  IPart=  2 JobTyp=22 DoJE=F Cont=F.
 PrismC:  IPart=     2 DynPar=T LinDyn=F Incr=        1024 UseFst=F UseS4=T ISplat=2.
 PrismC was handed    33252965 working-precision words and 13385 shell-pairs
 Enter PrismC:  IPart= 14 JobTyp=22 DoJE=F Cont=F.
 PrismC:  IPart=    14 DynPar=T LinDyn=F Incr=        1024 UseFst=F UseS4=T ISplat=2.
 PrismC was handed    33252965 working-precision words and 13385 shell-pairs
 Enter PrismC:  IPart= 11 JobTyp=22 DoJE=F Cont=F.
 PrismC:  IPart=    11 DynPar=T LinDyn=F Incr=        1024 UseFst=F UseS4=T ISplat=2.
 PrismC was handed    33252965 working-precision words and 13385 shell-pairs
 Enter PrismC:  IPart= 17 JobTyp=22 DoJE=F Cont=F.
 PrismC:  IPart=    17 DynPar=T LinDyn=F Incr=        1024 UseFst=F UseS4=T ISplat=2.
 PrismC was handed    33252965 working-precision words and 13385 shell-pairs
 Enter PrismC:  IPart= 16 JobTyp=22 DoJE=F Cont=F.
 PrismC:  IPart=    16 DynPar=T LinDyn=F Incr=        1024 UseFst=F UseS4=T ISplat=2.
 PrismC was handed    33252965 working-precision words and 13385 shell-pairs
 Enter PrismC:  IPart=  9 JobTyp=22 DoJE=F Cont=F.
 PrismC:  IPart=     9 DynPar=T LinDyn=F Incr=        1024 UseFst=F UseS4=T ISplat=2.
 PrismC was handed    33252965 working-precision words and 13385 shell-pairs
 Enter PrismC:  IPart= 19 JobTyp=22 DoJE=F Cont=F.
 PrismC:  IPart=    19 DynPar=T LinDyn=F Incr=        1024 UseFst=F UseS4=T ISplat=2.
 PrismC was handed    33252965 working-precision words and 13385 shell-pairs
 Enter PrismC:  IPart=  1 JobTyp=22 DoJE=F Cont=F.
 PrismC:  IPart=     1 DynPar=T LinDyn=F Incr=        1024 UseFst=F UseS4=T ISplat=2.
 PrismC was handed    33252965 working-precision words and 13385 shell-pairs
 Enter PrismC:  IPart=  6 JobTyp=22 DoJE=F Cont=F.
 PrismC:  IPart=     6 DynPar=T LinDyn=F Incr=        1024 UseFst=F UseS4=T ISplat=2.
 PrismC was handed    33252965 working-precision words and 13385 shell-pairs
 Enter PrismC:  IPart=  5 JobTyp=22 DoJE=F Cont=F.
 PrismC:  IPart=     5 DynPar=T LinDyn=F Incr=        1024 UseFst=F UseS4=T ISplat=2.
 PrismC was handed    33252965 working-precision words and 13385 shell-pairs
 Enter PrismC:  IPart= 15 JobTyp=22 DoJE=F Cont=F.
 PrismC:  IPart=    15 DynPar=T LinDyn=F Incr=        1024 UseFst=F UseS4=T ISplat=2.
 PrismC was handed    33252965 working-precision words and 13385 shell-pairs
 Enter PrismC:  IPart= 12 JobTyp=22 DoJE=F Cont=F.
 PrismC:  IPart=    12 DynPar=T LinDyn=F Incr=        1024 UseFst=F UseS4=T ISplat=2.
 PrismC was handed    33252965 working-precision words and 13385 shell-pairs
 Enter PrismC:  IPart= 13 JobTyp=22 DoJE=F Cont=F.
 PrismC:  IPart=    13 DynPar=T LinDyn=F Incr=        1024 UseFst=F UseS4=T ISplat=2.
 PrismC was handed    33252965 working-precision words and 13385 shell-pairs
 Enter PrismC:  IPart=  7 JobTyp=22 DoJE=F Cont=F.
 PrismC:  IPart=     7 DynPar=T LinDyn=F Incr=        1024 UseFst=F UseS4=T ISplat=2.
 PrismC was handed    33252965 working-precision words and 13385 shell-pairs
 Enter PrismC:  IPart= 18 JobTyp=22 DoJE=F Cont=F.
 PrismC:  IPart=    18 DynPar=T LinDyn=F Incr=        1024 UseFst=F UseS4=T ISplat=2.
 PrismC was handed    33252965 working-precision words and 13385 shell-pairs
 Enter PrismC:  IPart= 10 JobTyp=22 DoJE=F Cont=F.
 PrismC:  IPart=    10 DynPar=T LinDyn=F Incr=        1024 UseFst=F UseS4=T ISplat=2.
 PrismC was handed    33252965 working-precision words and 13385 shell-pairs
 Enter PrismC:  IPart=  3 JobTyp=22 DoJE=F Cont=F.
 PrismC:  IPart=     3 DynPar=T LinDyn=F Incr=        1024 UseFst=F UseS4=T ISplat=2.
 PrismC was handed    33252965 working-precision words and 13385 shell-pairs
 IPart=  6 NShTot=     2299300 NShNF=     2299300 NShFF=           0 MinMC=       7
           NShCPU=     2299300 NBCPU=      103094 AvBCPU=        22.3
           NShGPU=           0 NBGPU=           0 AvBGPU=         0.0
 IPart= 17 NShTot=     3063763 NShNF=     3063763 NShFF=           0 MinMC=       7
           NShCPU=     3063763 NBCPU=       99094 AvBCPU=        30.9
           NShGPU=           0 NBGPU=           0 AvBGPU=         0.0
 IPart=  1 NShTot=     3069062 NShNF=     3069062 NShFF=           0 MinMC=       7
           NShCPU=     3069062 NBCPU=       96288 AvBCPU=        31.9
           NShGPU=           0 NBGPU=           0 AvBGPU=         0.0
 IPart=  2 NShTot=     3174711 NShNF=     3174711 NShFF=           0 MinMC=       7
           NShCPU=     3174711 NBCPU=      109077 AvBCPU=        29.1
           NShGPU=           0 NBGPU=           0 AvBGPU=         0.0
 IPart= 15 NShTot=     1968125 NShNF=     1968125 NShFF=           0 MinMC=       7
           NShCPU=     1968125 NBCPU=       81023 AvBCPU=        24.3
           NShGPU=           0 NBGPU=           0 AvBGPU=         0.0
 IPart= 14 NShTot=     3258054 NShNF=     3258054 NShFF=           0 MinMC=       7
           NShCPU=     3258054 NBCPU=      110617 AvBCPU=        29.5
           NShGPU=           0 NBGPU=           0 AvBGPU=         0.0
 IPart= 19 NShTot=     2019807 NShNF=     2019807 NShFF=           0 MinMC=       7
           NShCPU=     2019807 NBCPU=       82642 AvBCPU=        24.4
           NShGPU=           0 NBGPU=           0 AvBGPU=         0.0
 IPart=  5 NShTot=     2077933 NShNF=     2077933 NShFF=           0 MinMC=       7
           NShCPU=     2077933 NBCPU=       82034 AvBCPU=        25.3
           NShGPU=           0 NBGPU=           0 AvBGPU=         0.0
 IPart=  8 NShTot=     1946882 NShNF=     1946882 NShFF=           0 MinMC=       7
           NShCPU=     1946882 NBCPU=       78068 AvBCPU=        24.9
           NShGPU=           0 NBGPU=           0 AvBGPU=         0.0
 IPart= 18 NShTot=     2509889 NShNF=     2509889 NShFF=           0 MinMC=       7
           NShCPU=     2509889 NBCPU=      102545 AvBCPU=        24.5
           NShGPU=           0 NBGPU=           0 AvBGPU=         0.0
 IPart= 12 NShTot=     2514934 NShNF=     2514934 NShFF=           0 MinMC=       7
           NShCPU=     2514934 NBCPU=      101089 AvBCPU=        24.9
           NShGPU=           0 NBGPU=           0 AvBGPU=         0.0
 IPart=  9 NShTot=     2288650 NShNF=     2288650 NShFF=           0 MinMC=       7
           NShCPU=     2288650 NBCPU=      101305 AvBCPU=        22.6
           NShGPU=           0 NBGPU=           0 AvBGPU=         0.0
 IPart= 16 NShTot=     2998278 NShNF=     2998278 NShFF=           0 MinMC=       7
           NShCPU=     2998278 NBCPU=       94375 AvBCPU=        31.8
           NShGPU=           0 NBGPU=           0 AvBGPU=         0.0
 IPart=  7 NShTot=     1993165 NShNF=     1993165 NShFF=           0 MinMC=       7
           NShCPU=     1993165 NBCPU=       82294 AvBCPU=        24.2
           NShGPU=           0 NBGPU=           0 AvBGPU=         0.0
 IPart=  3 NShTot=     2534833 NShNF=     2534833 NShFF=           0 MinMC=       7
           NShCPU=     2534833 NBCPU=      101956 AvBCPU=        24.9
           NShGPU=           0 NBGPU=           0 AvBGPU=         0.0
 IPart=  0 NShTot=     2120145 NShNF=     2120145 NShFF=           0 MinMC=       7
           NShCPU=     2120145 NBCPU=       83839 AvBCPU=        25.3
           NShGPU=           0 NBGPU=           0 AvBGPU=         0.0
 IPart=  4 NShTot=     1970166 NShNF=     1970166 NShFF=           0 MinMC=       7
           NShCPU=     1970166 NBCPU=       81044 AvBCPU=        24.3
           NShGPU=           0 NBGPU=           0 AvBGPU=         0.0
 IPart= 11 NShTot=     2261940 NShNF=     2261940 NShFF=           0 MinMC=       7
           NShCPU=     2261940 NBCPU=       95449 AvBCPU=        23.7
           NShGPU=           0 NBGPU=           0 AvBGPU=         0.0
 IPart= 10 NShTot=     2504926 NShNF=     2504926 NShFF=           0 MinMC=       7
           NShCPU=     2504926 NBCPU=       99035 AvBCPU=        25.3
           NShGPU=           0 NBGPU=           0 AvBGPU=         0.0
 IPart= 13 NShTot=     2441637 NShNF=     2441637 NShFF=           0 MinMC=       7
           NShCPU=     2441637 NBCPU=      104340 AvBCPU=        23.4
           NShGPU=           0 NBGPU=           0 AvBGPU=         0.0
 CoulSu:  NxtVal=       96699393 LenVP=       33252966 MinMC=       7.
 ReadGW:  IGet=0 IStart=           1 Next=           1 LGW=           0.
 Remaining memory in FofDFT      639.77 Mw
 CkSvGd:  ISavGI=        -1 IRadAn=       5 IRASav=       5 ISavGd=        -1.
 CalDSu-InSpLW:  IPartL=    0 NPrtUS=   20 NPrtUL=    1 DoSpLW=F IThBeg=    0 IThEnd=   19 NThAct=   20.
 CalDSu:  NPrtUS=  20 ThrOK=T IAlg=1 NPAlg=2 DoDPD=T LenP=      117855 LenD1P=             0 GPUOK=F
          ISkipM=0 DoSpLW=F IThBeg=    0 IThEnd=   19.
 IPart=  0 IRanGd=          0 ScrnBf=T ScrnGd=T RCrit=4.00D+00 DoMicB=T.
