 Entering Gaussian System, Link 0=g16
 Input=loose/species/CCCCCCC/conformers/CCCCCCC_348.com
 Output=loose/species/CCCCCCC/conformers/CCCCCCC_348.log
 Initial command:
 /shared/centos7/gaussian/g16/l1.exe "/scratch/harms.n/gauss_scrdir/Gau-16126.inp" -scrdir="/scratch/harms.n/gauss_scrdir/"
 Entering Link 1 = /shared/centos7/gaussian/g16/l1.exe PID=     16127.
  
 Copyright (c) 1988,1990,1992,1993,1995,1998,2003,2009,2016,
            Gaussian, Inc.  All Rights Reserved.
  
 This is part of the Gaussian(R) 16 program.  It is based on
 the Gaussian(R) 09 system (copyright 2009, Gaussian, Inc.),
 the Gaussian(R) 03 system (copyright 2003, Gaussian, Inc.),
 the Gaussian(R) 98 system (copyright 1998, Gaussian, Inc.),
 the Gaussian(R) 94 system (copyright 1995, Gaussian, Inc.),
 the Gaussian 92(TM) system (copyright 1992, Gaussian, Inc.),
 the Gaussian 90(TM) system (copyright 1990, Gaussian, Inc.),
 the Gaussian 88(TM) system (copyright 1988, Gaussian, Inc.),
 the Gaussian 86(TM) system (copyright 1986, Carnegie Mellon
 University), and the Gaussian 82(TM) system (copyright 1983,
 Carnegie Mellon University). Gaussian is a federally registered
 trademark of Gaussian, Inc.
  
 This software contains proprietary and confidential information,
 including trade secrets, belonging to Gaussian, Inc.
  
 This software is provided under written license and may be
 used, copied, transmitted, or stored only in accord with that
 written license.
  
 The following legend is applicable only to US Government
 contracts under FAR:
  
                    RESTRICTED RIGHTS LEGEND
  
 Use, reproduction and disclosure by the US Government is
 subject to restrictions as set forth in subparagraphs (a)
 and (c) of the Commercial Computer Software - Restricted
 Rights clause in FAR 52.227-19.
  
 Gaussian, Inc.
 340 Quinnipiac St., Bldg. 40, Wallingford CT 06492
  
  
 ---------------------------------------------------------------
 Warning -- This program may not be used in any manner that
 competes with the business of Gaussian, Inc. or will provide
 assistance to any competitor of Gaussian, Inc.  The licensee
 of this program is prohibited from giving any competitor of
 Gaussian, Inc. access to this program.  By using this program,
 the user acknowledges that Gaussian, Inc. is engaged in the
 business of creating and licensing software in the field of
 computational chemistry and represents and warrants to the
 licensee that it is not a competitor of Gaussian, Inc. and that
 it will not use this program in any manner prohibited above.
 ---------------------------------------------------------------
  

 Cite this work as:
 Gaussian 16, Revision A.03,
 M. J. Frisch, G. W. Trucks, H. B. Schlegel, G. E. Scuseria, 
 M. A. Robb, J. R. Cheeseman, G. Scalmani, V. Barone, 
 G. A. Petersson, H. Nakatsuji, X. Li, M. Caricato, A. V. Marenich, 
 J. Bloino, B. G. Janesko, R. Gomperts, B. Mennucci, H. P. Hratchian, 
 J. V. Ortiz, A. F. Izmaylov, J. L. Sonnenberg, D. Williams-Young, 
 F. Ding, F. Lipparini, F. Egidi, J. Goings, B. Peng, A. Petrone, 
 T. Henderson, D. Ranasinghe, V. G. Zakrzewski, J. Gao, N. Rega, 
 G. Zheng, W. Liang, M. Hada, M. Ehara, K. Toyota, R. Fukuda, 
 J. Hasegawa, M. Ishida, T. Nakajima, Y. Honda, O. Kitao, H. Nakai, 
 T. Vreven, K. Throssell, J. A. Montgomery, Jr., J. E. Peralta, 
 F. Ogliaro, M. J. Bearpark, J. J. Heyd, E. N. Brothers, K. N. Kudin, 
 V. N. Staroverov, T. A. Keith, R. Kobayashi, J. Normand, 
 K. Raghavachari, A. P. Rendell, J. C. Burant, S. S. Iyengar, 
 J. Tomasi, M. Cossi, J. M. Millam, M. Klene, C. Adamo, R. Cammi, 
 J. W. Ochterski, R. L. Martin, K. Morokuma, O. Farkas, 
 J. B. Foresman, and D. J. Fox, Gaussian, Inc., Wallingford CT, 2016.
 
 ******************************************
 Gaussian 16:  EM64L-G16RevA.03 25-Dec-2016
                30-Sep-2019 
 ******************************************
 %nprocshared=20
 Will use up to   20 processors via shared memory.
 %mem=5GB
 ----------------------------------------------------------------------
 #p m062x/cc-pVTZ opt=(calcfc,maxcycles=900,Tight) freq IOP(7/33=1,2/16
 =3) scf=(maxcycle=900)
 ----------------------------------------------------------------------
 1/6=900,7=10,10=4,18=20,19=15,26=3,38=1/1,3;
 2/9=110,12=2,16=3,17=6,18=5,40=1/2;
 3/5=16,6=1,11=2,25=1,30=1,71=2,74=-55,140=1/1,2,3;
 4//1;
 5/5=2,7=900,38=5/2;
 8/6=4,10=90,11=11/1;
 11/6=1,8=1,9=11,15=111,16=1/1,2,10;
 10/6=1,13=1/2;
 6/7=2,8=2,9=2,10=2,28=1/1;
 7/10=1,18=20,25=1,33=1/1,2,3,16;
 1/6=900,7=10,10=4,18=20,19=15,26=3/3(2);
 2/9=110,16=3/2;
 99//99;
 2/9=110,16=3/2;
 3/5=16,6=1,11=2,25=1,30=1,71=1,74=-55/1,2,3;
 4/5=5,16=3,69=1/1;
 5/5=2,7=900,38=5/2;
 7/33=1/1,2,3,16;
 1/6=900,7=10,18=20,19=15,26=3/3(-5);
 2/9=110,16=3/2;
 6/7=2,8=2,9=2,10=2,19=2,28=1/1;
 99/9=1/99;
 Leave Link    1 at Mon Sep 30 09:03:36 2019, MaxMem=   671088640 cpu:               4.3 elap:               2.1
 (Enter /shared/centos7/gaussian/g16/l101.exe)
 ------------------------------
 Gaussian input prepared by ASE
 ------------------------------
 Symbolic Z-matrix:
 Charge =  0 Multiplicity = 1
 C                     1.3677   -1.11099   0.45601 
 C                     0.14998  -0.39117   0.92608 
 C                     0.14859  -0.11588   2.40904 
 C                     2.14176  -0.48752  -0.65626 
 C                     0.1921   -1.3474    3.28264 
 C                     2.64834   0.86633  -0.3733 
 C                     1.42598  -2.19358   3.1053 
 H                     1.53309  -0.47672  -1.60417 
 H                     2.99574  -1.1771   -0.8586 
 H                     1.07649  -2.13932   0.15383 
 H                     2.06954  -1.23372   1.30631 
 H                    -0.75572  -0.96074   0.66531 
 H                     0.02397   0.57232   0.38843 
 H                    -0.76056   0.45808   2.65631 
 H                     1.00492   0.54548   2.65489 
 H                     0.10742  -1.0292    4.3546 
 H                    -0.70377  -1.95808   3.07827 
 H                     2.35334   1.2265    0.63026 
 H                     3.77822   0.87472  -0.40213 
 H                     2.28866   1.61061  -1.11503 
 H                     2.30935  -1.57579   2.93927 
 H                     1.31786  -2.85976   2.20509 
 H                     1.61559  -2.86474   3.99158 
 
 ITRead=  0  0  0  0  0  0  0  0  0  0  0  0  0  0  0  0  0  0  0  0
 ITRead=  0  0  0
 MicOpt= -1 -1 -1 -1 -1 -1 -1 -1 -1 -1 -1 -1 -1 -1 -1 -1 -1 -1 -1 -1
 MicOpt= -1 -1 -1
 NAtoms=     23 NQM=       23 NQMF=       0 NMMI=      0 NMMIF=      0
                NMic=       0 NMicF=      0.
                    Isotopes and Nuclear Properties:
 (Nuclear quadrupole moments (NQMom) in fm**2, nuclear magnetic moments (NMagM)
  in nuclear magnetons)

  Atom         1           2           3           4           5           6           7           8           9          10
 IAtWgt=          12          12          12          12          12          12          12           1           1           1
 AtmWgt=  12.0000000  12.0000000  12.0000000  12.0000000  12.0000000  12.0000000  12.0000000   1.0078250   1.0078250   1.0078250
 NucSpn=           0           0           0           0           0           0           0           1           1           1
 AtZEff=  -0.0000000  -0.0000000  -0.0000000  -0.0000000  -0.0000000  -0.0000000  -0.0000000  -0.0000000  -0.0000000  -0.0000000
 NQMom=    0.0000000   0.0000000   0.0000000   0.0000000   0.0000000   0.0000000   0.0000000   0.0000000   0.0000000   0.0000000
 NMagM=    0.0000000   0.0000000   0.0000000   0.0000000   0.0000000   0.0000000   0.0000000   2.7928460   2.7928460   2.7928460
 AtZNuc=   6.0000000   6.0000000   6.0000000   6.0000000   6.0000000   6.0000000   6.0000000   1.0000000   1.0000000   1.0000000

  Atom        11          12          13          14          15          16          17          18          19          20
 IAtWgt=           1           1           1           1           1           1           1           1           1           1
 AtmWgt=   1.0078250   1.0078250   1.0078250   1.0078250   1.0078250   1.0078250   1.0078250   1.0078250   1.0078250   1.0078250
 NucSpn=           1           1           1           1           1           1           1           1           1           1
 AtZEff=  -0.0000000  -0.0000000  -0.0000000  -0.0000000  -0.0000000  -0.0000000  -0.0000000  -0.0000000  -0.0000000  -0.0000000
 NQMom=    0.0000000   0.0000000   0.0000000   0.0000000   0.0000000   0.0000000   0.0000000   0.0000000   0.0000000   0.0000000
 NMagM=    2.7928460   2.7928460   2.7928460   2.7928460   2.7928460   2.7928460   2.7928460   2.7928460   2.7928460   2.7928460
 AtZNuc=   1.0000000   1.0000000   1.0000000   1.0000000   1.0000000   1.0000000   1.0000000   1.0000000   1.0000000   1.0000000

  Atom        21          22          23
 IAtWgt=           1           1           1
 AtmWgt=   1.0078250   1.0078250   1.0078250
 NucSpn=           1           1           1
 AtZEff=  -0.0000000  -0.0000000  -0.0000000
 NQMom=    0.0000000   0.0000000   0.0000000
 NMagM=    2.7928460   2.7928460   2.7928460
 AtZNuc=   1.0000000   1.0000000   1.0000000
 Leave Link  101 at Mon Sep 30 09:03:37 2019, MaxMem=   671088640 cpu:               2.1 elap:               1.1
 (Enter /shared/centos7/gaussian/g16/l103.exe)

 GradGradGradGradGradGradGradGradGradGradGradGradGradGradGradGradGradGrad
 Berny optimization.
 Initialization pass.
                           ----------------------------
                           !    Initial Parameters    !
                           ! (Angstroms and Degrees)  !
 --------------------------                            --------------------------
 ! Name  Definition              Value          Derivative Info.                !
 --------------------------------------------------------------------------------
 ! R1    R(1,2)                  1.4906         calculate D2E/DX2 analytically  !
 ! R2    R(1,4)                  1.4917         calculate D2E/DX2 analytically  !
 ! R3    R(1,10)                 1.1107         calculate D2E/DX2 analytically  !
 ! R4    R(1,11)                 1.1093         calculate D2E/DX2 analytically  !
 ! R5    R(2,3)                  1.5083         calculate D2E/DX2 analytically  !
 ! R6    R(2,12)                 1.1012         calculate D2E/DX2 analytically  !
 ! R7    R(2,13)                 1.1105         calculate D2E/DX2 analytically  !
 ! R8    R(3,5)                  1.5105         calculate D2E/DX2 analytically  !
 ! R9    R(3,14)                 1.1032         calculate D2E/DX2 analytically  !
 ! R10   R(3,15)                 1.1096         calculate D2E/DX2 analytically  !
 ! R11   R(4,6)                  1.473          calculate D2E/DX2 analytically  !
 ! R12   R(4,8)                  1.1266         calculate D2E/DX2 analytically  !
 ! R13   R(4,9)                  1.1161         calculate D2E/DX2 analytically  !
 ! R14   R(5,7)                  1.5066         calculate D2E/DX2 analytically  !
 ! R15   R(5,16)                 1.1214         calculate D2E/DX2 analytically  !
 ! R16   R(5,17)                 1.1033         calculate D2E/DX2 analytically  !
 ! R17   R(6,18)                 1.1063         calculate D2E/DX2 analytically  !
 ! R18   R(6,19)                 1.1303         calculate D2E/DX2 analytically  !
 ! R19   R(6,20)                 1.1106         calculate D2E/DX2 analytically  !
 ! R20   R(7,21)                 1.0907         calculate D2E/DX2 analytically  !
 ! R21   R(7,22)                 1.1251         calculate D2E/DX2 analytically  !
 ! R22   R(7,23)                 1.1278         calculate D2E/DX2 analytically  !
 ! A1    A(2,1,4)              117.2084         calculate D2E/DX2 analytically  !
 ! A2    A(2,1,10)             108.584          calculate D2E/DX2 analytically  !
 ! A3    A(2,1,11)             109.1808         calculate D2E/DX2 analytically  !
 ! A4    A(4,1,10)             108.6737         calculate D2E/DX2 analytically  !
 ! A5    A(4,1,11)             106.8268         calculate D2E/DX2 analytically  !
 ! A6    A(10,1,11)            105.7829         calculate D2E/DX2 analytically  !
 ! A7    A(1,2,3)              113.5117         calculate D2E/DX2 analytically  !
 ! A8    A(1,2,12)             110.331          calculate D2E/DX2 analytically  !
 ! A9    A(1,2,13)             111.0375         calculate D2E/DX2 analytically  !
 ! A10   A(3,2,12)             109.0541         calculate D2E/DX2 analytically  !
 ! A11   A(3,2,13)             108.5149         calculate D2E/DX2 analytically  !
 ! A12   A(12,2,13)            103.9327         calculate D2E/DX2 analytically  !
 ! A13   A(2,3,5)              114.8214         calculate D2E/DX2 analytically  !
 ! A14   A(2,3,14)             108.4255         calculate D2E/DX2 analytically  !
 ! A15   A(2,3,15)             109.0218         calculate D2E/DX2 analytically  !
 ! A16   A(5,3,14)             108.5586         calculate D2E/DX2 analytically  !
 ! A17   A(5,3,15)             109.6083         calculate D2E/DX2 analytically  !
 ! A18   A(14,3,15)            106.0356         calculate D2E/DX2 analytically  !
 ! A19   A(1,4,6)              114.7966         calculate D2E/DX2 analytically  !
 ! A20   A(1,4,8)              110.5516         calculate D2E/DX2 analytically  !
 ! A21   A(1,4,9)              105.9011         calculate D2E/DX2 analytically  !
 ! A22   A(6,4,8)              109.7948         calculate D2E/DX2 analytically  !
 ! A23   A(6,4,9)              109.85           calculate D2E/DX2 analytically  !
 ! A24   A(8,4,9)              105.4727         calculate D2E/DX2 analytically  !
 ! A25   A(3,5,7)              114.4196         calculate D2E/DX2 analytically  !
 ! A26   A(3,5,16)             108.6219         calculate D2E/DX2 analytically  !
 ! A27   A(3,5,17)             108.7083         calculate D2E/DX2 analytically  !
 ! A28   A(7,5,16)             109.495          calculate D2E/DX2 analytically  !
 ! A29   A(7,5,17)             109.4098         calculate D2E/DX2 analytically  !
 ! A30   A(16,5,17)            105.8318         calculate D2E/DX2 analytically  !
 ! A31   A(4,6,18)             112.4454         calculate D2E/DX2 analytically  !
 ! A32   A(4,6,19)             110.2259         calculate D2E/DX2 analytically  !
 ! A33   A(4,6,20)             112.1034         calculate D2E/DX2 analytically  !
 ! A34   A(18,6,19)            106.6952         calculate D2E/DX2 analytically  !
 ! A35   A(18,6,20)            107.5356         calculate D2E/DX2 analytically  !
 ! A36   A(19,6,20)            107.5613         calculate D2E/DX2 analytically  !
 ! A37   A(5,7,21)             111.2902         calculate D2E/DX2 analytically  !
 ! A38   A(5,7,22)             110.3665         calculate D2E/DX2 analytically  !
 ! A39   A(5,7,23)             112.2986         calculate D2E/DX2 analytically  !
 ! A40   A(21,7,22)            106.9425         calculate D2E/DX2 analytically  !
 ! A41   A(21,7,23)            108.6961         calculate D2E/DX2 analytically  !
 ! A42   A(22,7,23)            107.0117         calculate D2E/DX2 analytically  !
 ! D1    D(4,1,2,3)           -125.6166         calculate D2E/DX2 analytically  !
 ! D2    D(4,1,2,12)           111.6404         calculate D2E/DX2 analytically  !
 ! D3    D(4,1,2,13)            -3.0445         calculate D2E/DX2 analytically  !
 ! D4    D(10,1,2,3)           110.8324         calculate D2E/DX2 analytically  !
 ! D5    D(10,1,2,12)          -11.9106         calculate D2E/DX2 analytically  !
 ! D6    D(10,1,2,13)         -126.5954         calculate D2E/DX2 analytically  !
 ! D7    D(11,1,2,3)            -4.0515         calculate D2E/DX2 analytically  !
 ! D8    D(11,1,2,12)         -126.7945         calculate D2E/DX2 analytically  !
 ! D9    D(11,1,2,13)          118.5206         calculate D2E/DX2 analytically  !
 ! D10   D(2,1,4,6)             59.0485         calculate D2E/DX2 analytically  !
 ! D11   D(2,1,4,8)            -65.814          calculate D2E/DX2 analytically  !
 ! D12   D(2,1,4,9)           -179.5832         calculate D2E/DX2 analytically  !
 ! D13   D(10,1,4,6)          -177.4463         calculate D2E/DX2 analytically  !
 ! D14   D(10,1,4,8)            57.6913         calculate D2E/DX2 analytically  !
 ! D15   D(10,1,4,9)           -56.0779         calculate D2E/DX2 analytically  !
 ! D16   D(11,1,4,6)           -63.7329         calculate D2E/DX2 analytically  !
 ! D17   D(11,1,4,8)           171.4046         calculate D2E/DX2 analytically  !
 ! D18   D(11,1,4,9)            57.6355         calculate D2E/DX2 analytically  !
 ! D19   D(1,2,3,5)            -61.092          calculate D2E/DX2 analytically  !
 ! D20   D(1,2,3,14)           177.3268         calculate D2E/DX2 analytically  !
 ! D21   D(1,2,3,15)            62.3132         calculate D2E/DX2 analytically  !
 ! D22   D(12,2,3,5)            62.3522         calculate D2E/DX2 analytically  !
 ! D23   D(12,2,3,14)          -59.229          calculate D2E/DX2 analytically  !
 ! D24   D(12,2,3,15)         -174.2426         calculate D2E/DX2 analytically  !
 ! D25   D(13,2,3,5)           174.953          calculate D2E/DX2 analytically  !
 ! D26   D(13,2,3,14)           53.3718         calculate D2E/DX2 analytically  !
 ! D27   D(13,2,3,15)          -61.6418         calculate D2E/DX2 analytically  !
 ! D28   D(2,3,5,7)             61.6422         calculate D2E/DX2 analytically  !
 ! D29   D(2,3,5,16)          -175.6911         calculate D2E/DX2 analytically  !
 ! D30   D(2,3,5,17)           -60.9792         calculate D2E/DX2 analytically  !
 ! D31   D(14,3,5,7)          -176.8491         calculate D2E/DX2 analytically  !
 ! D32   D(14,3,5,16)          -54.1824         calculate D2E/DX2 analytically  !
 ! D33   D(14,3,5,17)           60.5295         calculate D2E/DX2 analytically  !
 ! D34   D(15,3,5,7)           -61.4494         calculate D2E/DX2 analytically  !
 ! D35   D(15,3,5,16)           61.2173         calculate D2E/DX2 analytically  !
 ! D36   D(15,3,5,17)          175.9292         calculate D2E/DX2 analytically  !
 ! D37   D(1,4,6,18)            -1.2185         calculate D2E/DX2 analytically  !
 ! D38   D(1,4,6,19)           117.6929         calculate D2E/DX2 analytically  !
 ! D39   D(1,4,6,20)          -122.5255         calculate D2E/DX2 analytically  !
 ! D40   D(8,4,6,18)           124.0403         calculate D2E/DX2 analytically  !
 ! D41   D(8,4,6,19)          -117.0484         calculate D2E/DX2 analytically  !
 ! D42   D(8,4,6,20)             2.7332         calculate D2E/DX2 analytically  !
 ! D43   D(9,4,6,18)          -120.4048         calculate D2E/DX2 analytically  !
 ! D44   D(9,4,6,19)            -1.4934         calculate D2E/DX2 analytically  !
 ! D45   D(9,4,6,20)           118.2882         calculate D2E/DX2 analytically  !
 ! D46   D(3,5,7,21)            37.1053         calculate D2E/DX2 analytically  !
 ! D47   D(3,5,7,22)           -81.4676         calculate D2E/DX2 analytically  !
 ! D48   D(3,5,7,23)           159.2219         calculate D2E/DX2 analytically  !
 ! D49   D(16,5,7,21)          -85.0867         calculate D2E/DX2 analytically  !
 ! D50   D(16,5,7,22)          156.3404         calculate D2E/DX2 analytically  !
 ! D51   D(16,5,7,23)           37.0299         calculate D2E/DX2 analytically  !
 ! D52   D(17,5,7,21)          159.3452         calculate D2E/DX2 analytically  !
 ! D53   D(17,5,7,22)           40.7724         calculate D2E/DX2 analytically  !
 ! D54   D(17,5,7,23)          -78.5382         calculate D2E/DX2 analytically  !
 --------------------------------------------------------------------------------
 Trust Radius=3.00D-01 FncErr=1.00D-07 GrdErr=1.00D-06 EigMax=2.50D+02 EigMin=1.00D-04
 Number of steps in this run=    138 maximum allowed number of steps=    138.
 GradGradGradGradGradGradGradGradGradGradGradGradGradGradGradGradGradGrad

 Leave Link  103 at Mon Sep 30 09:03:38 2019, MaxMem=   671088640 cpu:               1.6 elap:               0.8
 (Enter /shared/centos7/gaussian/g16/l202.exe)
                          Input orientation:                          
 ---------------------------------------------------------------------
 Center     Atomic      Atomic             Coordinates (Angstroms)
 Number     Number       Type             X           Y           Z
 ---------------------------------------------------------------------
      1          6           0        1.367705   -1.110989    0.456009
      2          6           0        0.149975   -0.391172    0.926075
      3          6           0        0.148591   -0.115882    2.409044
      4          6           0        2.141760   -0.487516   -0.656262
      5          6           0        0.192098   -1.347402    3.282638
      6          6           0        2.648336    0.866330   -0.373299
      7          6           0        1.425976   -2.193584    3.105305
      8          1           0        1.533087   -0.476721   -1.604173
      9          1           0        2.995743   -1.177102   -0.858596
     10          1           0        1.076486   -2.139316    0.153831
     11          1           0        2.069543   -1.233717    1.306306
     12          1           0       -0.755718   -0.960740    0.665314
     13          1           0        0.023974    0.572319    0.388429
     14          1           0       -0.760557    0.458082    2.656306
     15          1           0        1.004921    0.545483    2.654889
     16          1           0        0.107421   -1.029198    4.354597
     17          1           0       -0.703766   -1.958076    3.078271
     18          1           0        2.353342    1.226505    0.630260
     19          1           0        3.778219    0.874724   -0.402131
     20          1           0        2.288657    1.610612   -1.115032
     21          1           0        2.309346   -1.575790    2.939275
     22          1           0        1.317862   -2.859756    2.205091
     23          1           0        1.615587   -2.864741    3.991578
 ---------------------------------------------------------------------
                    Distance matrix (angstroms):
                    1          2          3          4          5
     1  C    0.000000
     2  C    1.490625   0.000000
     3  C    2.508150   1.508304   0.000000
     4  C    1.491652   2.545639   3.675177   0.000000
     5  C    3.070468   2.543529   1.510531   4.478339   0.000000
     6  C    2.497511   3.084071   3.867156   1.472952   4.929462
     7  C    2.862547   3.102565   2.536402   4.191944   1.506627
     8  H    2.161943   2.884870   4.260627   1.126559   5.141718
     9  H    2.093577   3.449801   4.462054   1.116134   5.003923
    10  H    1.110665   2.123862   3.168795   2.125912   3.346447
    11  H    1.109344   2.130539   2.481056   2.100882   2.728298
    12  H    2.138997   1.101220   2.138260   3.219609   2.810382
    13  H    2.154925   1.110520   2.138232   2.588367   3.477074
    14  H    3.439882   2.131666   1.103233   4.504520   2.135326
    15  H    2.776794   2.144074   1.109570   3.650097   2.153547
    16  H    4.098047   3.487642   2.149656   5.435132   1.121392
    17  H    3.447435   2.795713   2.137302   4.919990   1.103295
    18  H    2.542778   2.749402   3.134804   2.153549   4.281481
    19  H    3.238832   4.065806   4.696615   2.144359   5.601395
    20  H    3.274665   3.570325   4.469873   2.152717   5.699553
    21  H    2.696171   3.181066   2.661079   3.760360   2.157035
    22  H    2.473855   3.015584   2.989588   3.807055   2.171559
    23  H    3.954407   4.202840   3.494670   5.246948   2.198007
                    6          7          8          9         10
     6  C    0.000000
     7  C    4.791443   0.000000
     8  H    2.136029   5.013808   0.000000
     9  H    2.128807   4.382911   1.784876   0.000000
    10  H    3.432563   2.972590   2.462374   2.373691   0.000000
    11  H    2.750686   2.138205   3.054786   2.355388   1.770444
    12  H    4.000562   3.497606   3.259367   4.054944   2.237773
    13  H    2.748445   4.122771   2.710787   3.667008   2.918181
    14  H    4.578834   3.466101   4.928117   5.397976   4.047664
    15  H    3.460301   2.807605   4.411743   4.390358   3.669954
    16  H    5.692300   2.157571   6.151804   5.961682   4.451728
    17  H    5.579176   2.142894   5.396592   5.458498   3.428483
    18  H    1.106291   4.322367   2.926857   2.899430   3.631266
    19  H    1.130281   5.220121   2.883041   2.242904   4.085693
    20  H    1.110627   5.746944   2.273126   2.887400   4.140209
    21  H    4.129408   1.090678   4.738508   3.879937   3.097774
    22  H    4.722496   1.125104   4.498408   3.877213   2.187456
    23  H    5.834348   1.127778   6.084560   5.317625   3.942737
                   11         12         13         14         15
    11  H    0.000000
    12  H    2.909895   0.000000
    13  H    2.878996   1.742085   0.000000
    14  H    3.562885   2.444817   2.402458   0.000000
    15  H    2.473388   3.054009   2.469782   1.767641   0.000000
    16  H    3.630954   3.789526   4.278120   2.418591   2.484780
    17  H    3.369836   2.611463   3.764009   2.453386   3.060502
    18  H    2.567152   3.801516   2.431542   3.793639   2.526094
    19  H    3.206844   5.006491   3.848478   5.488908   4.140646
    20  H    3.741804   4.364597   2.909851   4.984879   4.122473
    21  H    1.685558   3.865722   4.042786   3.693374   2.506432
    22  H    2.004206   3.205762   4.093110   3.940999   3.449044
    23  H    3.174429   4.506921   5.227743   4.297693   3.713392
                   16         17         18         19         20
    16  H    0.000000
    17  H    1.774781   0.000000
    18  H    4.899290   5.047794   0.000000
    19  H    6.302867   6.342408   1.794395   0.000000
    20  H    6.453156   6.266891   1.788230   1.807915   0.000000
    21  H    2.674019   3.040445   3.631300   4.396316   5.156645
    22  H    3.071887   2.379590   4.499982   5.176610   5.652419
    23  H    2.403241   2.652464   5.346123   6.161594   6.823435
                   21         22         23
    21  H    0.000000
    22  H    1.780628   0.000000
    23  H    1.802786   1.811132   0.000000
 Stoichiometry    C7H16
 Framework group  C1[X(C7H16)]
 Deg. of freedom    63
 Full point group                 C1      NOp   1
 Largest Abelian subgroup         C1      NOp   1
 Largest concise Abelian subgroup C1      NOp   1
                         Standard orientation:                         
 ---------------------------------------------------------------------
 Center     Atomic      Atomic             Coordinates (Angstroms)
 Number     Number       Type             X           Y           Z
 ---------------------------------------------------------------------
      1          6           0        0.620067    0.439988    0.604996
      2          6           0        0.015247   -0.920644    0.674550
      3          6           0       -1.113666   -1.128053   -0.303979
      4          6           0        2.095008    0.520937    0.397572
      5          6           0       -2.294285   -0.204946   -0.114994
      6          6           0        2.581286   -0.118932   -0.836805
      7          6           0       -1.974870    1.257592   -0.284946
      8          1           0        2.643180    0.099762    1.287097
      9          1           0        2.342521    1.609186    0.383202
     10          1           0        0.360886    0.990476    1.534170
     11          1           0        0.147695    1.006918   -0.223314
     12          1           0       -0.349693   -1.125518    1.693143
     13          1           0        0.780657   -1.706459    0.501641
     14          1           0       -1.464972   -2.170091   -0.215299
     15          1           0       -0.721017   -1.023796   -1.336501
     16          1           0       -3.098309   -0.499029   -0.839273
     17          1           0       -2.717923   -0.373378    0.889705
     18          1           0        1.765727   -0.587440   -1.419251
     19          1           0        3.062443    0.649416   -1.511836
     20          1           0        3.338696   -0.904437   -0.629918
     21          1           0       -1.245384    1.413773   -1.080581
     22          1           0       -1.524359    1.672254    0.658958
     23          1           0       -2.892870    1.872710   -0.510313
 ---------------------------------------------------------------------
 Rotational constants (GHZ):           4.3800365           1.3612176           1.2411154
 Leave Link  202 at Mon Sep 30 09:03:40 2019, MaxMem=   671088640 cpu:               3.6 elap:               1.8
 (Enter /shared/centos7/gaussian/g16/l301.exe)
 Standard basis: CC-pVTZ (5D, 7F)
 Ernie: Thresh=  0.10000D-02 Tol=  0.10000D-05 Strict=F.
 Ernie:  21 primitive shells out of 310 were deleted.
 There are   485 symmetry adapted cartesian basis functions of A   symmetry.
 There are   434 symmetry adapted basis functions of A   symmetry.
   434 basis functions,   636 primitive gaussians,   485 cartesian basis functions
    29 alpha electrons       29 beta electrons
       nuclear repulsion energy       332.2486419647 Hartrees.
 IExCor= 4336 DFT=T Ex+Corr=M062X ExCW=0 ScaHFX=  0.540000
 ScaDFX=  1.000000  1.000000  1.000000  1.000000 ScalE2=  1.000000  1.000000
 IRadAn=      5 IRanWt=     -1 IRanGd=            0 ICorTp=0 IEmpDi=  4
 NAtoms=   23 NActive=   23 NUniq=   23 SFac= 1.00D+00 NAtFMM=   60 NAOKFM=F Big=F
 Integral buffers will be    131072 words long.
 Raffenetti 2 integral format.
 Two-electron integral symmetry is turned on.
 Leave Link  301 at Mon Sep 30 09:03:41 2019, MaxMem=   671088640 cpu:               1.5 elap:               0.7
 (Enter /shared/centos7/gaussian/g16/l302.exe)
 NPDir=0 NMtPBC=     1 NCelOv=     1 NCel=       1 NClECP=     1 NCelD=      1
         NCelK=      1 NCelE2=     1 NClLst=     1 CellRange=     0.0.
 One-electron integrals computed using PRISM.
 One-electron integral symmetry used in STVInt
 NBasis=   434 RedAO= T EigKep=  2.86D-04  NBF=   434
 NBsUse=   434 1.00D-06 EigRej= -1.00D+00 NBFU=   434
 Precomputing XC quadrature grid using
 IXCGrd= 4 IRadAn=           5 IRanWt=          -1 IRanGd=           0 AccXCQ= 0.00D+00.
 Generated NRdTot=       0 NPtTot=           0 NUsed=           0 NTot=          32
 NSgBfM=   485   485   485   485   485 MxSgAt=    23 MxSgA2=    23.
 Leave Link  302 at Mon Sep 30 09:04:51 2019, MaxMem=   671088640 cpu:             141.2 elap:              70.6
 (Enter /shared/centos7/gaussian/g16/l303.exe)
 DipDrv:  MaxL=1.
 Leave Link  303 at Mon Sep 30 09:04:56 2019, MaxMem=   671088640 cpu:              10.0 elap:               5.0
 (Enter /shared/centos7/gaussian/g16/l401.exe)
 ExpMin= 1.03D-01 ExpMax= 8.24D+03 ExpMxC= 2.81D+02 IAcc=3 IRadAn=         5 AccDes= 0.00D+00
 Harris functional with IExCor= 1009 and IRadAn=       5 diagonalized for initial guess.
 HarFok:  IExCor= 1009 AccDes= 0.00D+00 IRadAn=         5 IDoV= 1 UseB2=F ITyADJ=14
 ICtDFT=  3500011 ScaDFX=  1.000000  1.000000  1.000000  1.000000
 FoFCou: FMM=F IPFlag=           0 FMFlag=      100000 FMFlg1=           0
         NFxFlg=           0 DoJE=T BraDBF=F KetDBF=T FulRan=T
         wScrn=  0.000000 ICntrl=       500 IOpCl=  0 I1Cent=   200000004 NGrid=           0
         NMat0=    1 NMatS0=      1 NMatT0=    0 NMatD0=    1 NMtDS0=    0 NMtDT0=    0
 Petite list used in FoFCou.
 Harris En= -276.312417920412    
 JPrj=0 DoOrth=F DoCkMO=F.
 Leave Link  401 at Mon Sep 30 09:05:39 2019, MaxMem=   671088640 cpu:              85.6 elap:              42.8
 (Enter /shared/centos7/gaussian/g16/l502.exe)
 Integral symmetry usage will be decided dynamically.
 Closed shell SCF:
 Using DIIS extrapolation, IDIIS=  1040.
 NGot=   671088640 LenX=   670604095 LenY=   670368385
 Requested convergence on RMS density matrix=1.00D-08 within 900 cycles.
 Requested convergence on MAX density matrix=1.00D-06.
 Requested convergence on             energy=1.00D-06.
 No special actions if energy rises.
 Fock matrices will be formed incrementally for  20 cycles.
 Integral accuracy reduced to 1.0D-05 until final iterations.

 Cycle   1  Pass 0  IDiag  1:
 FoFJK:  IHMeth= 1 ICntrl=       0 DoSepK=F KAlg= 0 I1Cent=           0 FoldK=F
 IRaf= 950000000 NMat=       1 IRICut=       1 DoRegI=T DoRafI=F ISym2E= 0 IDoP0=0 IntGTp=1.
 FoFCou: FMM=F IPFlag=           0 FMFlag=      100000 FMFlg1=           0
         NFxFlg=           0 DoJE=F BraDBF=F KetDBF=F FulRan=T
         wScrn=  0.000000 ICntrl=         0 IOpCl=  0 I1Cent=           0 NGrid=           0
         NMat0=    1 NMatS0=      1 NMatT0=    0 NMatD0=    1 NMtDS0=    0 NMtDT0=    0
 Symmetry not used in FoFCou.
 E= -275.943745415620    
 DIIS: error= 2.54D-02 at cycle   1 NSaved=   1.
 NSaved= 1 IEnMin= 1 EnMin= -275.943745415620     IErMin= 1 ErrMin= 2.54D-02
 ErrMax= 2.54D-02  0.00D+00 EMaxC= 1.00D-01 BMatC= 3.76D-01 BMatP= 3.76D-01
 IDIUse=3 WtCom= 7.46D-01 WtEn= 2.54D-01
 Coeff-Com:  0.100D+01
 Coeff-En:   0.100D+01
 Coeff:      0.100D+01
 Gap=     0.344 Goal=   None    Shift=    0.000
 GapD=    0.344 DampG=1.000 DampE=0.500 DampFc=0.5000 IDamp=-1.
 Damping current iteration by 5.00D-01
 RMSDP=1.94D-03 MaxDP=7.16D-02              OVMax= 1.63D-01

 Cycle   2  Pass 0  IDiag  1:
 RMSU=  9.65D-04    CP:  9.90D-01
 E= -276.121522681841     Delta-E=       -0.177777266221 Rises=F Damp=T
 DIIS: error= 4.13D-03 at cycle   2 NSaved=   2.
 NSaved= 2 IEnMin= 2 EnMin= -276.121522681841     IErMin= 2 ErrMin= 4.13D-03
 ErrMax= 4.13D-03  0.00D+00 EMaxC= 1.00D-01 BMatC= 1.92D-02 BMatP= 3.76D-01
 IDIUse=3 WtCom= 9.59D-01 WtEn= 4.13D-02
 Coeff-Com: -0.438D-01 0.104D+01
 Coeff-En:   0.000D+00 0.100D+01
 Coeff:     -0.420D-01 0.104D+01
 Gap=     0.433 Goal=   None    Shift=    0.000
 RMSDP=5.64D-04 MaxDP=2.11D-02 DE=-1.78D-01 OVMax= 9.25D-02

 Cycle   3  Pass 0  IDiag  1:
 RMSU=  5.57D-04    CP:  9.98D-01  9.33D-01
 E= -276.302524183703     Delta-E=       -0.181001501862 Rises=F Damp=F
 DIIS: error= 2.56D-03 at cycle   3 NSaved=   3.
 NSaved= 3 IEnMin= 3 EnMin= -276.302524183703     IErMin= 3 ErrMin= 2.56D-03
 ErrMax= 2.56D-03  0.00D+00 EMaxC= 1.00D-01 BMatC= 3.15D-03 BMatP= 1.92D-02
 IDIUse=3 WtCom= 9.74D-01 WtEn= 2.56D-02
 Coeff-Com: -0.521D-01 0.258D+00 0.794D+00
 Coeff-En:   0.000D+00 0.000D+00 0.100D+01
 Coeff:     -0.508D-01 0.252D+00 0.799D+00
 Gap=     0.406 Goal=   None    Shift=    0.000
 RMSDP=1.08D-04 MaxDP=2.77D-03 DE=-1.81D-01 OVMax= 1.08D-02

 Cycle   4  Pass 0  IDiag  1:
 RMSU=  8.27D-05    CP:  9.97D-01  9.80D-01  9.08D-01
 E= -276.305309663996     Delta-E=       -0.002785480293 Rises=F Damp=F
 DIIS: error= 6.62D-04 at cycle   4 NSaved=   4.
 NSaved= 4 IEnMin= 4 EnMin= -276.305309663996     IErMin= 4 ErrMin= 6.62D-04
 ErrMax= 6.62D-04  0.00D+00 EMaxC= 1.00D-01 BMatC= 2.57D-04 BMatP= 3.15D-03
 IDIUse=3 WtCom= 9.93D-01 WtEn= 6.62D-03
 Coeff-Com: -0.129D-01 0.352D-01 0.256D+00 0.721D+00
 Coeff-En:   0.000D+00 0.000D+00 0.000D+00 0.100D+01
 Coeff:     -0.129D-01 0.350D-01 0.255D+00 0.723D+00
 Gap=     0.407 Goal=   None    Shift=    0.000
 RMSDP=3.34D-05 MaxDP=1.06D-03 DE=-2.79D-03 OVMax= 2.96D-03

 Cycle   5  Pass 0  IDiag  1:
 RMSU=  1.89D-05    CP:  9.97D-01  9.75D-01  9.43D-01  7.77D-01
 E= -276.305545240062     Delta-E=       -0.000235576066 Rises=F Damp=F
 DIIS: error= 1.70D-04 at cycle   5 NSaved=   5.
 NSaved= 5 IEnMin= 5 EnMin= -276.305545240062     IErMin= 5 ErrMin= 1.70D-04
 ErrMax= 1.70D-04  0.00D+00 EMaxC= 1.00D-01 BMatC= 1.99D-05 BMatP= 2.57D-04
 IDIUse=3 WtCom= 9.98D-01 WtEn= 1.70D-03
 Coeff-Com: -0.192D-02 0.137D-02 0.566D-01 0.276D+00 0.668D+00
 Coeff-En:   0.000D+00 0.000D+00 0.000D+00 0.000D+00 0.100D+01
 Coeff:     -0.192D-02 0.137D-02 0.565D-01 0.276D+00 0.668D+00
 Gap=     0.407 Goal=   None    Shift=    0.000
 RMSDP=7.01D-06 MaxDP=3.05D-04 DE=-2.36D-04 OVMax= 7.75D-04

 Initial convergence to 1.0D-05 achieved.  Increase integral accuracy.
 Cycle   6  Pass 1  IDiag  1:
 E= -276.305498867879     Delta-E=        0.000046372183 Rises=F Damp=F
 DIIS: error= 4.76D-05 at cycle   1 NSaved=   1.
 NSaved= 1 IEnMin= 1 EnMin= -276.305498867879     IErMin= 1 ErrMin= 4.76D-05
 ErrMax= 4.76D-05  0.00D+00 EMaxC= 1.00D-01 BMatC= 1.67D-06 BMatP= 1.67D-06
 IDIUse=1 WtCom= 1.00D+00 WtEn= 0.00D+00
 Coeff-Com:  0.100D+01
 Coeff:      0.100D+01
 Gap=     0.407 Goal=   None    Shift=    0.000
 RMSDP=7.01D-06 MaxDP=3.05D-04 DE= 4.64D-05 OVMax= 2.91D-04

 Cycle   7  Pass 1  IDiag  1:
 RMSU=  9.80D-06    CP:  1.00D+00
 E= -276.305499638015     Delta-E=       -0.000000770136 Rises=F Damp=F
 DIIS: error= 2.88D-05 at cycle   2 NSaved=   2.
 NSaved= 2 IEnMin= 2 EnMin= -276.305499638015     IErMin= 2 ErrMin= 2.88D-05
 ErrMax= 2.88D-05  0.00D+00 EMaxC= 1.00D-01 BMatC= 5.82D-07 BMatP= 1.67D-06
 IDIUse=1 WtCom= 1.00D+00 WtEn= 0.00D+00
 Coeff-Com:  0.339D+00 0.661D+00
 Coeff:      0.339D+00 0.661D+00
 Gap=     0.407 Goal=   None    Shift=    0.000
 RMSDP=1.46D-06 MaxDP=6.15D-05 DE=-7.70D-07 OVMax= 1.60D-04

 Cycle   8  Pass 1  IDiag  1:
 RMSU=  1.45D-06    CP:  1.00D+00  9.88D-01
 E= -276.305500147474     Delta-E=       -0.000000509459 Rises=F Damp=F
 DIIS: error= 8.48D-06 at cycle   3 NSaved=   3.
 NSaved= 3 IEnMin= 3 EnMin= -276.305500147474     IErMin= 3 ErrMin= 8.48D-06
 ErrMax= 8.48D-06  0.00D+00 EMaxC= 1.00D-01 BMatC= 6.04D-08 BMatP= 5.82D-07
 IDIUse=1 WtCom= 1.00D+00 WtEn= 0.00D+00
 Coeff-Com: -0.421D-02 0.232D+00 0.772D+00
 Coeff:     -0.421D-02 0.232D+00 0.772D+00
 Gap=     0.407 Goal=   None    Shift=    0.000
 RMSDP=4.61D-07 MaxDP=1.80D-05 DE=-5.09D-07 OVMax= 4.43D-05

 Cycle   9  Pass 1  IDiag  1:
 RMSU=  3.27D-07    CP:  1.00D+00  1.01D+00  8.36D-01
 E= -276.305500205614     Delta-E=       -0.000000058140 Rises=F Damp=F
 DIIS: error= 2.15D-06 at cycle   4 NSaved=   4.
 NSaved= 4 IEnMin= 4 EnMin= -276.305500205614     IErMin= 4 ErrMin= 2.15D-06
 ErrMax= 2.15D-06  0.00D+00 EMaxC= 1.00D-01 BMatC= 2.08D-09 BMatP= 6.04D-08
 IDIUse=1 WtCom= 1.00D+00 WtEn= 0.00D+00
 Coeff-Com: -0.132D-01 0.570D-01 0.262D+00 0.695D+00
 Coeff:     -0.132D-01 0.570D-01 0.262D+00 0.695D+00
 Gap=     0.407 Goal=   None    Shift=    0.000
 RMSDP=9.53D-08 MaxDP=3.34D-06 DE=-5.81D-08 OVMax= 8.12D-06

 Cycle  10  Pass 1  IDiag  1:
 RMSU=  8.70D-08    CP:  1.00D+00  1.01D+00  8.37D-01  9.19D-01
 E= -276.305500207721     Delta-E=       -0.000000002107 Rises=F Damp=F
 DIIS: error= 4.04D-07 at cycle   5 NSaved=   5.
 NSaved= 5 IEnMin= 5 EnMin= -276.305500207721     IErMin= 5 ErrMin= 4.04D-07
 ErrMax= 4.04D-07  0.00D+00 EMaxC= 1.00D-01 BMatC= 8.30D-11 BMatP= 2.08D-09
 IDIUse=1 WtCom= 1.00D+00 WtEn= 0.00D+00
 Coeff-Com: -0.132D-02-0.112D-01-0.286D-01 0.876D-01 0.953D+00
 Coeff:     -0.132D-02-0.112D-01-0.286D-01 0.876D-01 0.953D+00
 Gap=     0.407 Goal=   None    Shift=    0.000
 RMSDP=3.68D-08 MaxDP=1.01D-06 DE=-2.11D-09 OVMax= 3.08D-06

 Cycle  11  Pass 1  IDiag  1:
 RMSU=  1.91D-08    CP:  1.00D+00  1.01D+00  8.41D-01  1.01D+00  1.09D+00
 E= -276.305500207859     Delta-E=       -0.000000000138 Rises=F Damp=F
 DIIS: error= 1.94D-07 at cycle   6 NSaved=   6.
 NSaved= 6 IEnMin= 6 EnMin= -276.305500207859     IErMin= 6 ErrMin= 1.94D-07
 ErrMax= 1.94D-07  0.00D+00 EMaxC= 1.00D-01 BMatC= 2.22D-11 BMatP= 8.30D-11
 IDIUse=1 WtCom= 1.00D+00 WtEn= 0.00D+00
 Coeff-Com:  0.415D-03-0.940D-02-0.332D-01-0.162D-01 0.423D+00 0.635D+00
 Coeff:      0.415D-03-0.940D-02-0.332D-01-0.162D-01 0.423D+00 0.635D+00
 Gap=     0.407 Goal=   None    Shift=    0.000
 RMSDP=8.09D-09 MaxDP=3.02D-07 DE=-1.38D-10 OVMax= 8.56D-07

 SCF Done:  E(RM062X) =  -276.305500208     A.U. after   11 cycles
            NFock= 11  Conv=0.81D-08     -V/T= 2.0064
 KE= 2.745485048911D+02 PE=-1.302964713022D+03 EE= 4.198620659585D+02
 Leave Link  502 at Mon Sep 30 09:21:09 2019, MaxMem=   671088640 cpu:            1858.5 elap:             929.3
 (Enter /shared/centos7/gaussian/g16/l801.exe)
 DoSCS=F DFT=T ScalE2(SS,OS)=  1.000000  1.000000
 Range of M.O.s used for correlation:     1   434
 NBasis=   434 NAE=    29 NBE=    29 NFC=     0 NFV=     0
 NROrb=    434 NOA=    29 NOB=    29 NVA=   405 NVB=   405

 **** Warning!!: The largest alpha MO coefficient is  0.11973978D+02

 Leave Link  801 at Mon Sep 30 09:21:09 2019, MaxMem=   671088640 cpu:               1.5 elap:               0.8
 (Enter /shared/centos7/gaussian/g16/l1101.exe)
 Using compressed storage, NAtomX=    23.
 Will process     24 centers per pass.
 Leave Link 1101 at Mon Sep 30 09:21:46 2019, MaxMem=   671088640 cpu:              72.9 elap:              36.4
 (Enter /shared/centos7/gaussian/g16/l1102.exe)
 Symmetrizing basis deriv contribution to polar:
 IMax=3 JMax=2 DiffMx= 0.00D+00
 Leave Link 1102 at Mon Sep 30 09:21:48 2019, MaxMem=   671088640 cpu:               4.8 elap:               2.4
 (Enter /shared/centos7/gaussian/g16/l1110.exe)
 Forming Gx(P) for the SCF density, NAtomX=    23.
 Integral derivatives from FoFJK, PRISM(SPDF).
 Do as many integral derivatives as possible in FoFJK.
 G2DrvN: MDV=     671086848.
 G2DrvN: will do    24 centers at a time, making    1 passes.
 Calling FoFCou, ICntrl=  3107 FMM=F I1Cent=   0 AccDes= 0.00D+00.
 FoFJK:  IHMeth= 1 ICntrl=    3107 DoSepK=F KAlg= 0 I1Cent=           0 FoldK=F
 IRaf=         0 NMat=       1 IRICut=       1 DoRegI=T DoRafI=F ISym2E= 0 IDoP0=0 IntGTp=1.
 FoFCou: FMM=F IPFlag=           0 FMFlag=      100000 FMFlg1=           0
         NFxFlg=           0 DoJE=F BraDBF=F KetDBF=F FulRan=T
         wScrn=  0.000000 ICntrl=      3107 IOpCl=  0 I1Cent=           0 NGrid=           0
         NMat0=    1 NMatS0=      1 NMatT0=    0 NMatD0=    1 NMtDS0=    0 NMtDT0=    0
 Symmetry not used in FoFCou.
 End of G2Drv F.D. properties file   721 does not exist.
 End of G2Drv F.D. properties file   722 does not exist.
 End of G2Drv F.D. properties file   788 does not exist.
 Leave Link 1110 at Mon Sep 30 10:03:02 2019, MaxMem=   671088640 cpu:            4947.9 elap:            2474.2
 (Enter /shared/centos7/gaussian/g16/l1002.exe)
 Minotr:  Closed shell wavefunction.
          IDoAtm=11111111111111111111111
          Direct CPHF calculation.
          Differentiating once with respect to nuclear coordinates.
          Requested convergence is 1.0D-08 RMS, and 1.0D-07 maximum.
          Secondary convergence is 1.0D-12 RMS, and 1.0D-12 maximum.
          NewPWx=T KeepS1=F KeepF1=F KeepIn=T MapXYZ=F SortEE=F KeepMc=T.
         6904 words used for storage of precomputed grid.
 Two-electron integrals replicated using symmetry.
          MDV=     671088640 using IRadAn=       1.
          Solving linear equations simultaneously, MaxMat=     380.
 FoF2E skips out because all densities are zero.
 CalDSu exits because no D1Ps are significant.
 FoFJK:  IHMeth= 1 ICntrl=       0 DoSepK=F KAlg= 0 I1Cent=           0 FoldK=F
 IRaf= 930000000 NMat=      69 IRICut=     172 DoRegI=T DoRafI=T ISym2E= 2 IDoP0=3 IntGTp=3.
 FoFCou: FMM=F IPFlag=           0 FMFlag=      100000 FMFlg1=           0
         NFxFlg=           0 DoJE=F BraDBF=F KetDBF=F FulRan=T
         wScrn=  0.000000 ICntrl=         0 IOpCl=  0 I1Cent=           0 NGrid=           0
         NMat0=   69 NMatS0=     69 NMatT0=    0 NMatD0=   69 NMtDS0=    0 NMtDT0=    0
 Integrals replicated using symmetry in FoFCou.
 Raff kept on since  89.48% of shell-pairs survive, threshold=   0.20 IRatSp=89.
          There are    72 degrees of freedom in the 1st order CPHF.  IDoFFX=6 NUNeed=     0.
     66 vectors produced by pass  0 Test12= 1.63D-14 1.39D-09 XBig12= 5.48D-02 4.88D-02.
 AX will form    66 AO Fock derivatives at one time.
     66 vectors produced by pass  1 Test12= 1.63D-14 1.39D-09 XBig12= 2.98D-03 6.70D-03.
     66 vectors produced by pass  2 Test12= 1.63D-14 1.39D-09 XBig12= 5.09D-05 1.02D-03.
     66 vectors produced by pass  3 Test12= 1.63D-14 1.39D-09 XBig12= 4.34D-07 8.33D-05.
     66 vectors produced by pass  4 Test12= 1.63D-14 1.39D-09 XBig12= 1.90D-09 5.33D-06.
     66 vectors produced by pass  5 Test12= 1.63D-14 1.39D-09 XBig12= 9.07D-12 3.13D-07.
     23 vectors produced by pass  6 Test12= 1.63D-14 1.39D-09 XBig12= 3.16D-14 1.64D-08.
 InvSVY:  IOpt=1 It=  1 EMax= 2.78D-16
 Solved reduced A of dimension   419 with    72 vectors.
 End of Minotr F.D. properties file   721 does not exist.
 End of Minotr F.D. properties file   722 does not exist.
 End of Minotr F.D. properties file   788 does not exist.
 Leave Link 1002 at Mon Sep 30 11:12:21 2019, MaxMem=   671088640 cpu:            8317.4 elap:            4159.0
 (Enter /shared/centos7/gaussian/g16/l601.exe)
 Copying SCF densities to generalized density rwf, IOpCl= 0 IROHF=0.

 **********************************************************************

            Population analysis using the SCF density.

 **********************************************************************

 Orbital symmetries:
       Occupied  (A) (A) (A) (A) (A) (A) (A) (A) (A) (A) (A) (A)
                 (A) (A) (A) (A) (A) (A) (A) (A) (A) (A) (A) (A)
                 (A) (A) (A) (A) (A)
       Virtual   (A) (A) (A) (A) (A) (A) (A) (A) (A) (A) (A) (A)
                 (A) (A) (A) (A) (A) (A) (A) (A) (A) (A) (A) (A)
                 (A) (A) (A) (A) (A) (A) (A) (A) (A) (A) (A) (A)
                 (A) (A) (A) (A) (A) (A) (A) (A) (A) (A) (A) (A)
                 (A) (A) (A) (A) (A) (A) (A) (A) (A) (A) (A) (A)
                 (A) (A) (A) (A) (A) (A) (A) (A) (A) (A) (A) (A)
                 (A) (A) (A) (A) (A) (A) (A) (A) (A) (A) (A) (A)
                 (A) (A) (A) (A) (A) (A) (A) (A) (A) (A) (A) (A)
                 (A) (A) (A) (A) (A) (A) (A) (A) (A) (A) (A) (A)
                 (A) (A) (A) (A) (A) (A) (A) (A) (A) (A) (A) (A)
                 (A) (A) (A) (A) (A) (A) (A) (A) (A) (A) (A) (A)
                 (A) (A) (A) (A) (A) (A) (A) (A) (A) (A) (A) (A)
                 (A) (A) (A) (A) (A) (A) (A) (A) (A) (A) (A) (A)
                 (A) (A) (A) (A) (A) (A) (A) (A) (A) (A) (A) (A)
                 (A) (A) (A) (A) (A) (A) (A) (A) (A) (A) (A) (A)
                 (A) (A) (A) (A) (A) (A) (A) (A) (A) (A) (A) (A)
                 (A) (A) (A) (A) (A) (A) (A) (A) (A) (A) (A) (A)
                 (A) (A) (A) (A) (A) (A) (A) (A) (A) (A) (A) (A)
                 (A) (A) (A) (A) (A) (A) (A) (A) (A) (A) (A) (A)
                 (A) (A) (A) (A) (A) (A) (A) (A) (A) (A) (A) (A)
                 (A) (A) (A) (A) (A) (A) (A) (A) (A) (A) (A) (A)
                 (A) (A) (A) (A) (A) (A) (A) (A) (A) (A) (A) (A)
                 (A) (A) (A) (A) (A) (A) (A) (A) (A) (A) (A) (A)
                 (A) (A) (A) (A) (A) (A) (A) (A) (A) (A) (A) (A)
                 (A) (A) (A) (A) (A) (A) (A) (A) (A) (A) (A) (A)
                 (A) (A) (A) (A) (A) (A) (A) (A) (A) (A) (A) (A)
                 (A) (A) (A) (A) (A) (A) (A) (A) (A) (A) (A) (A)
                 (A) (A) (A) (A) (A) (A) (A) (A) (A) (A) (A) (A)
                 (A) (A) (A) (A) (A) (A) (A) (A) (A) (A) (A) (A)
                 (A) (A) (A) (A) (A) (A) (A) (A) (A) (A) (A) (A)
                 (A) (A) (A) (A) (A) (A) (A) (A) (A) (A) (A) (A)
                 (A) (A) (A) (A) (A) (A) (A) (A) (A) (A) (A) (A)
                 (A) (A) (A) (A) (A) (A) (A) (A) (A) (A) (A) (A)
                 (A) (A) (A) (A) (A) (A) (A) (A) (A)
 The electronic state is 1-A.
 Alpha  occ. eigenvalues --  -10.52993 -10.52638 -10.52476 -10.52304 -10.52223
 Alpha  occ. eigenvalues --  -10.52201 -10.51620  -0.92460  -0.88094  -0.82201
 Alpha  occ. eigenvalues --   -0.77411  -0.70739  -0.64891  -0.63468  -0.54880
 Alpha  occ. eigenvalues --   -0.52483  -0.51964  -0.50401  -0.47580  -0.45805
 Alpha  occ. eigenvalues --   -0.45095  -0.43694  -0.41829  -0.40556  -0.39160
 Alpha  occ. eigenvalues --   -0.37870  -0.36347  -0.35834  -0.34485
 Alpha virt. eigenvalues --    0.06188   0.07831   0.08351   0.09241   0.10762
 Alpha virt. eigenvalues --    0.11266   0.12337   0.13526   0.13994   0.14503
 Alpha virt. eigenvalues --    0.15916   0.16411   0.18504   0.19291   0.20375
 Alpha virt. eigenvalues --    0.21322   0.22251   0.24039   0.24931   0.25719
 Alpha virt. eigenvalues --    0.27907   0.29706   0.30021   0.31005   0.31812
 Alpha virt. eigenvalues --    0.32480   0.32718   0.34329   0.35290   0.36342
 Alpha virt. eigenvalues --    0.38120   0.38433   0.40358   0.43958   0.44949
 Alpha virt. eigenvalues --    0.45416   0.46173   0.46750   0.47251   0.47402
 Alpha virt. eigenvalues --    0.49259   0.49720   0.50209   0.51019   0.52097
 Alpha virt. eigenvalues --    0.52249   0.52729   0.53518   0.54324   0.55007
 Alpha virt. eigenvalues --    0.55199   0.55722   0.56125   0.56701   0.57618
 Alpha virt. eigenvalues --    0.57870   0.58454   0.60351   0.60714   0.62754
 Alpha virt. eigenvalues --    0.67625   0.69371   0.71042   0.75704   0.77014
 Alpha virt. eigenvalues --    0.77061   0.79116   0.81305   0.82912   0.84912
 Alpha virt. eigenvalues --    0.87242   0.89370   0.91690   0.93006   0.93299
 Alpha virt. eigenvalues --    0.94569   0.96310   0.98192   0.98563   0.99893
 Alpha virt. eigenvalues --    1.00753   1.02687   1.03623   1.03903   1.05431
 Alpha virt. eigenvalues --    1.06395   1.06968   1.08413   1.09708   1.10002
 Alpha virt. eigenvalues --    1.10817   1.12241   1.13172   1.14250   1.14945
 Alpha virt. eigenvalues --    1.15355   1.16808   1.18290   1.18719   1.19694
 Alpha virt. eigenvalues --    1.20329   1.21542   1.22474   1.22651   1.23858
 Alpha virt. eigenvalues --    1.24674   1.25928   1.26918   1.28644   1.30038
 Alpha virt. eigenvalues --    1.31060   1.31955   1.32799   1.33854   1.34198
 Alpha virt. eigenvalues --    1.35214   1.35738   1.37364   1.38282   1.38807
 Alpha virt. eigenvalues --    1.41172   1.42574   1.43539   1.44788   1.45447
 Alpha virt. eigenvalues --    1.46133   1.49162   1.49219   1.49892   1.51163
 Alpha virt. eigenvalues --    1.52337   1.54081   1.54198   1.56093   1.56560
 Alpha virt. eigenvalues --    1.57388   1.58969   1.60427   1.62821   1.64812
 Alpha virt. eigenvalues --    1.66200   1.67219   1.68452   1.69964   1.75107
 Alpha virt. eigenvalues --    1.78034   1.80717   1.88316   1.91994   2.24170
 Alpha virt. eigenvalues --    2.27015   2.31084   2.33267   2.33788   2.34882
 Alpha virt. eigenvalues --    2.37460   2.38919   2.42141   2.45220   2.47161
 Alpha virt. eigenvalues --    2.47616   2.49446   2.52943   2.53520   2.55053
 Alpha virt. eigenvalues --    2.55461   2.57323   2.59217   2.59739   2.61253
 Alpha virt. eigenvalues --    2.61756   2.63319   2.63756   2.66009   2.67460
 Alpha virt. eigenvalues --    2.68177   2.70369   2.70761   2.71679   2.73366
 Alpha virt. eigenvalues --    2.75849   2.76717   2.77493   2.78237   2.79762
 Alpha virt. eigenvalues --    2.81367   2.82349   2.84144   2.84830   2.85603
 Alpha virt. eigenvalues --    2.87811   2.89159   2.90244   2.92645   2.94126
 Alpha virt. eigenvalues --    2.94295   2.96090   2.96835   2.98623   2.99775
 Alpha virt. eigenvalues --    3.00751   3.01603   3.02932   3.04054   3.05073
 Alpha virt. eigenvalues --    3.05648   3.06058   3.06938   3.07756   3.08954
 Alpha virt. eigenvalues --    3.10227   3.11268   3.12305   3.12639   3.13347
 Alpha virt. eigenvalues --    3.14042   3.15800   3.16662   3.17222   3.19321
 Alpha virt. eigenvalues --    3.19558   3.19667   3.21664   3.22096   3.22864
 Alpha virt. eigenvalues --    3.25233   3.26574   3.28640   3.30296   3.31685
 Alpha virt. eigenvalues --    3.33248   3.34145   3.35493   3.36619   3.37272
 Alpha virt. eigenvalues --    3.38510   3.39782   3.40549   3.42561   3.43953
 Alpha virt. eigenvalues --    3.44702   3.45089   3.46302   3.48747   3.49588
 Alpha virt. eigenvalues --    3.51371   3.52567   3.54060   3.54839   3.55608
 Alpha virt. eigenvalues --    3.56205   3.57668   3.58386   3.59717   3.61467
 Alpha virt. eigenvalues --    3.62667   3.63036   3.64699   3.65487   3.65837
 Alpha virt. eigenvalues --    3.66699   3.69959   3.70391   3.70795   3.72079
 Alpha virt. eigenvalues --    3.73676   3.75942   3.76424   3.78118   3.79512
 Alpha virt. eigenvalues --    3.82276   3.83056   3.84064   3.84663   3.86093
 Alpha virt. eigenvalues --    3.86623   3.86847   3.88237   3.90121   3.91248
 Alpha virt. eigenvalues --    3.92953   3.94229   3.94917   3.97308   3.97725
 Alpha virt. eigenvalues --    3.98408   3.99757   4.00556   4.01157   4.02750
 Alpha virt. eigenvalues --    4.03351   4.03797   4.05089   4.06076   4.07172
 Alpha virt. eigenvalues --    4.07736   4.08972   4.09912   4.10904   4.12805
 Alpha virt. eigenvalues --    4.14043   4.16456   4.16773   4.17001   4.19172
 Alpha virt. eigenvalues --    4.20717   4.22765   4.23275   4.23404   4.24886
 Alpha virt. eigenvalues --    4.26065   4.26666   4.27494   4.29917   4.31070
 Alpha virt. eigenvalues --    4.32526   4.34286   4.36199   4.37657   4.40401
 Alpha virt. eigenvalues --    4.41207   4.42410   4.44483   4.46428   4.46824
 Alpha virt. eigenvalues --    4.48176   4.50909   4.53463   4.55909   4.57415
 Alpha virt. eigenvalues --    4.57499   4.60844   4.63075   4.66515   4.66913
 Alpha virt. eigenvalues --    4.68544   4.69241   4.70921   4.72561   4.75201
 Alpha virt. eigenvalues --    4.75580   4.78591   4.79751   4.82182   4.83905
 Alpha virt. eigenvalues --    4.84987   4.87096   4.88841   4.90264   4.92684
 Alpha virt. eigenvalues --    4.93522   4.96178   4.97685   5.00097   5.00541
 Alpha virt. eigenvalues --    5.03760   5.03959   5.06213   5.08505   5.09642
 Alpha virt. eigenvalues --    5.12202   5.14781   5.15556   5.16090   5.17861
 Alpha virt. eigenvalues --    5.21925   5.23750   5.24788   5.26501   5.27606
 Alpha virt. eigenvalues --    5.29265   5.30520   5.32275   5.34526   5.34851
 Alpha virt. eigenvalues --    5.38447   5.41323   5.41813   5.42792   5.43955
 Alpha virt. eigenvalues --    5.46051   5.47499   5.50388   5.51104   5.56716
 Alpha virt. eigenvalues --    5.60166   5.66203   5.69233   5.78707   5.80056
 Alpha virt. eigenvalues --    5.82487   5.85896   5.91982   5.93460   5.96509
 Alpha virt. eigenvalues --    5.96624   6.03068   6.05624  11.80686  11.95337
 Alpha virt. eigenvalues --   12.29440  12.97982  13.39756  13.70714  13.99840
          Condensed to atoms (all electrons):
               1          2          3          4          5          6
     1  C    5.204527   0.256401  -0.041242   0.315362  -0.007408  -0.048005
     2  C    0.256401   5.203319   0.290966  -0.042350  -0.037352  -0.004867
     3  C   -0.041242   0.290966   5.083050   0.006306   0.309332  -0.002757
     4  C    0.315362  -0.042350   0.006306   5.062998  -0.000464   0.282593
     5  C   -0.007408  -0.037352   0.309332  -0.000464   5.029021   0.000293
     6  C   -0.048005  -0.004867  -0.002757   0.282593   0.000293   5.016621
     7  C   -0.019241   0.004070  -0.048675   0.002745   0.311885  -0.000104
     8  H   -0.045856  -0.007932   0.000250   0.415565  -0.000031  -0.049713
     9  H   -0.046867   0.011575  -0.000910   0.418587   0.000052  -0.046551
    10  H    0.414598  -0.049718   0.003767  -0.033143   0.002018   0.009629
    11  H    0.432142  -0.079025   0.006136  -0.049656  -0.006182  -0.009027
    12  H   -0.045982   0.402386  -0.034236   0.004681  -0.006527  -0.000278
    13  H   -0.057017   0.418401  -0.046662  -0.006905   0.008369   0.000691
    14  H    0.010380  -0.048368   0.420666  -0.000644  -0.045724   0.000036
    15  H   -0.003638  -0.048426   0.412220   0.000308  -0.042485  -0.000626
    16  H   -0.000542   0.009160  -0.047437   0.000058   0.418741   0.000003
    17  H   -0.002143  -0.003779  -0.042019  -0.000056   0.404127  -0.000013
    18  H    0.001823   0.001114  -0.003249  -0.065343   0.000121   0.407673
    19  H    0.004845  -0.000400   0.000187  -0.042883  -0.000013   0.401876
    20  H    0.005469  -0.000344   0.000118  -0.041956  -0.000006   0.405917
    21  H   -0.021294   0.001141   0.000680   0.000501  -0.053500   0.000116
    22  H   -0.006239   0.003683  -0.004458   0.002570  -0.038250  -0.000011
    23  H    0.002258  -0.001173   0.008217  -0.000104  -0.036762   0.000007
               7          8          9         10         11         12
     1  C   -0.019241  -0.045856  -0.046867   0.414598   0.432142  -0.045982
     2  C    0.004070  -0.007932   0.011575  -0.049718  -0.079025   0.402386
     3  C   -0.048675   0.000250  -0.000910   0.003767   0.006136  -0.034236
     4  C    0.002745   0.415565   0.418587  -0.033143  -0.049656   0.004681
     5  C    0.311885  -0.000031   0.000052   0.002018  -0.006182  -0.006527
     6  C   -0.000104  -0.049713  -0.046551   0.009629  -0.009027  -0.000278
     7  C    5.000171  -0.000162   0.000335  -0.007734  -0.024826  -0.000439
     8  H   -0.000162   0.608686  -0.035638  -0.006747   0.010623   0.001339
     9  H    0.000335  -0.035638   0.611543  -0.006293  -0.012332  -0.000488
    10  H   -0.007734  -0.006747  -0.006293   0.584514  -0.035088  -0.017406
    11  H   -0.024826   0.010623  -0.012332  -0.035088   0.620488   0.007227
    12  H   -0.000439   0.001339  -0.000488  -0.017406   0.007227   0.570124
    13  H   -0.000906   0.000720   0.000392   0.006405   0.006352  -0.029414
    14  H    0.008500   0.000033   0.000033  -0.000568   0.000566  -0.005740
    15  H   -0.007645  -0.000012  -0.000038   0.000039   0.000871   0.007961
    16  H   -0.043034  -0.000001  -0.000002  -0.000014  -0.000952  -0.000016
    17  H   -0.043208  -0.000006   0.000000   0.000362   0.000758   0.003597
    18  H   -0.000073   0.006151   0.006023   0.000697  -0.000812   0.000246
    19  H   -0.000013   0.007121  -0.021234  -0.000512   0.001919   0.000017
    20  H    0.000004  -0.018766   0.006339  -0.000609  -0.000005   0.000039
    21  H    0.416197  -0.000124   0.000185   0.001743  -0.014987   0.000010
    22  H    0.406487  -0.000139   0.000094  -0.003662  -0.018681   0.000047
    23  H    0.400075   0.000006  -0.000009   0.000131   0.003830   0.000016
              13         14         15         16         17         18
     1  C   -0.057017   0.010380  -0.003638  -0.000542  -0.002143   0.001823
     2  C    0.418401  -0.048368  -0.048426   0.009160  -0.003779   0.001114
     3  C   -0.046662   0.420666   0.412220  -0.047437  -0.042019  -0.003249
     4  C   -0.006905  -0.000644   0.000308   0.000058  -0.000056  -0.065343
     5  C    0.008369  -0.045724  -0.042485   0.418741   0.404127   0.000121
     6  C    0.000691   0.000036  -0.000626   0.000003  -0.000013   0.407673
     7  C   -0.000906   0.008500  -0.007645  -0.043034  -0.043208  -0.000073
     8  H    0.000720   0.000033  -0.000012  -0.000001  -0.000006   0.006151
     9  H    0.000392   0.000033  -0.000038  -0.000002   0.000000   0.006023
    10  H    0.006405  -0.000568   0.000039  -0.000014   0.000362   0.000697
    11  H    0.006352   0.000566   0.000871  -0.000952   0.000758  -0.000812
    12  H   -0.029414  -0.005740   0.007961  -0.000016   0.003597   0.000246
    13  H    0.570178  -0.006363  -0.007170  -0.000529  -0.000051  -0.001229
    14  H   -0.006363   0.580402  -0.029176  -0.007661  -0.004904   0.000382
    15  H   -0.007170  -0.029176   0.573433  -0.005445   0.007996   0.001457
    16  H   -0.000529  -0.007661  -0.005445   0.599778  -0.033789  -0.000001
    17  H   -0.000051  -0.004904   0.007996  -0.033789   0.590893  -0.000003
    18  H   -0.001229   0.000382   0.001457  -0.000001  -0.000003   0.597777
    19  H    0.000018  -0.000007   0.000026  -0.000000   0.000000  -0.034132
    20  H   -0.001095  -0.000000   0.000045   0.000000   0.000001  -0.037462
    21  H   -0.000316   0.000220   0.002803  -0.000331   0.007898   0.000077
    22  H   -0.000217  -0.000697   0.000391   0.008297  -0.011039  -0.000036
    23  H    0.000064  -0.000361   0.000079  -0.013047   0.000351   0.000006
              19         20         21         22         23
     1  C    0.004845   0.005469  -0.021294  -0.006239   0.002258
     2  C   -0.000400  -0.000344   0.001141   0.003683  -0.001173
     3  C    0.000187   0.000118   0.000680  -0.004458   0.008217
     4  C   -0.042883  -0.041956   0.000501   0.002570  -0.000104
     5  C   -0.000013  -0.000006  -0.053500  -0.038250  -0.036762
     6  C    0.401876   0.405917   0.000116  -0.000011   0.000007
     7  C   -0.000013   0.000004   0.416197   0.406487   0.400075
     8  H    0.007121  -0.018766  -0.000124  -0.000139   0.000006
     9  H   -0.021234   0.006339   0.000185   0.000094  -0.000009
    10  H   -0.000512  -0.000609   0.001743  -0.003662   0.000131
    11  H    0.001919  -0.000005  -0.014987  -0.018681   0.003830
    12  H    0.000017   0.000039   0.000010   0.000047   0.000016
    13  H    0.000018  -0.001095  -0.000316  -0.000217   0.000064
    14  H   -0.000007  -0.000000   0.000220  -0.000697  -0.000361
    15  H    0.000026   0.000045   0.002803   0.000391   0.000079
    16  H   -0.000000   0.000000  -0.000331   0.008297  -0.013047
    17  H    0.000000   0.000001   0.007898  -0.011039   0.000351
    18  H   -0.034132  -0.037462   0.000077  -0.000036   0.000006
    19  H    0.606110  -0.028296   0.000003  -0.000004   0.000000
    20  H   -0.028296   0.592595  -0.000007   0.000004  -0.000000
    21  H    0.000003  -0.000007   0.611941  -0.037029  -0.031523
    22  H   -0.000004   0.000004  -0.037029   0.613075  -0.031574
    23  H    0.000000  -0.000000  -0.031523  -0.031574   0.592702
 Mulliken charges:
               1
     1  C   -0.302333
     2  C   -0.278480
     3  C   -0.270250
     4  C   -0.228770
     5  C   -0.209256
     6  C   -0.363503
     7  C   -0.354410
     8  H    0.114634
     9  H    0.115203
    10  H    0.137594
    11  H    0.160662
    12  H    0.142834
    13  H    0.146284
    14  H    0.128996
    15  H    0.137029
    16  H    0.116766
    17  H    0.125026
    18  H    0.118793
    19  H    0.105371
    20  H    0.118018
    21  H    0.115593
    22  H    0.117389
    23  H    0.106811
 Sum of Mulliken charges =  -0.00000
 Mulliken charges with hydrogens summed into heavy atoms:
               1
     1  C   -0.004077
     2  C    0.010638
     3  C   -0.004225
     4  C    0.001067
     5  C    0.032535
     6  C   -0.021321
     7  C   -0.014617
 APT charges:
               1
     1  C   -0.447303
     2  C   -0.709696
     3  C   -0.709526
     4  C   -0.856664
     5  C   -0.918463
     6  C   -1.143781
     7  C   -0.935834
     8  H    0.420875
     9  H    0.391110
    10  H    0.363849
    11  H    0.295216
    12  H    0.382307
    13  H    0.360021
    14  H    0.451929
    15  H    0.269639
    16  H    0.504663
    17  H    0.377545
    18  H    0.126584
    19  H    0.436757
    20  H    0.468525
    21  H    0.126692
    22  H    0.188331
    23  H    0.557225
 Sum of APT charges =  -0.00000
 APT charges with hydrogens summed into heavy atoms:
               1
     1  C    0.211761
     2  C    0.032632
     3  C    0.012042
     4  C   -0.044680
     5  C   -0.036255
     6  C   -0.111915
     7  C   -0.063585
 Electronic spatial extent (au):  <R**2>=           1104.4533
 Charge=              0.0000 electrons
 Dipole moment (field-independent basis, Debye):
    X=             -0.1373    Y=              0.0022    Z=              0.0593  Tot=              0.1496
 Quadrupole moment (field-independent basis, Debye-Ang):
   XX=            -49.6316   YY=            -49.2565   ZZ=            -48.9721
   XY=              0.2075   XZ=              0.0106   YZ=             -0.3649
 Traceless Quadrupole moment (field-independent basis, Debye-Ang):
   XX=             -0.3449   YY=              0.0303   ZZ=              0.3146
   XY=              0.2075   XZ=              0.0106   YZ=             -0.3649
 Octapole moment (field-independent basis, Debye-Ang**2):
  XXX=             -1.6134  YYY=             -0.9287  ZZZ=              1.9343  XYY=              1.2695
  XXY=             -0.9002  XXZ=              0.3178  XZZ=             -1.7188  YZZ=              0.5542
  YYZ=              0.0157  XYZ=             -1.0806
 Hexadecapole moment (field-independent basis, Debye-Ang**3):
 XXXX=          -1074.6866 YYYY=           -307.8246 ZZZZ=           -195.0937 XXXY=             -4.6676
 XXXZ=              6.8631 YYYX=              4.7777 YYYZ=             -0.8249 ZZZX=              0.1936
 ZZZY=             -0.3735 XXYY=           -225.6570 XXZZ=           -212.9826 YYZZ=            -84.6518
 XXYZ=             -5.2035 YYXZ=             -1.3217 ZZXY=              2.1625
 N-N= 3.322486419647D+02 E-N=-1.302964636275D+03  KE= 2.745485048911D+02
  Exact polarizability:   0.000   0.000   0.000   0.000   0.000   0.000
 Approx polarizability:  99.208  -0.577  97.991   0.667  -0.722  98.534
 No NMR shielding tensors so no spin-rotation constants.
 Leave Link  601 at Mon Sep 30 11:12:46 2019, MaxMem=   671088640 cpu:              49.3 elap:              24.7
 (Enter /shared/centos7/gaussian/g16/l701.exe)
 SCFChk:  SCF convergence  8.09D-09 required  1.00D-08
 ... and contract with generalized density number  0.
 Compute integral second derivatives.
 Entering OneElI...
 Calculate overlap and kinetic energy integrals
    NBasis = 485  MinDer = 2  MaxDer = 2
 Requested accuracy = 0.1000D-12
 PrmmSu-InSpLW:  IPartL=    0 NPrtUS=   20 NPrtUL=    1 DoSpLW=F IThBeg=    0 IThEnd=   19 NThAct=   20.
 PrsmSu:  NPrtUS=  20 ThrOK=T IAlg=1 NPAlg=1 LenDen=           0 ISkipM=0 DoSpLW=F IThBeg=    0 IThEnd=   19.
 Prism:   IPart=     0 DynPar=F LinDyn=F Incr=           6.
 PRISM was handed    33198702 working-precision words and 13706 shell-pairs
 PRISM was handed    33198702 working-precision words and 13706 shell-pairs
 PRISM was handed    33198702 working-precision words and 13706 shell-pairs
 PRISM was handed    33198702 working-precision words and 13706 shell-pairs
 PRISM was handed    33198702 working-precision words and 13706 shell-pairs
 PRISM was handed    33198702 working-precision words and 13706 shell-pairs
 PRISM was handed    33198702 working-precision words and 13706 shell-pairs
 PRISM was handed    33198702 working-precision words and 13706 shell-pairs
 PRISM was handed    33198702 working-precision words and 13706 shell-pairs
 PRISM was handed    33198702 working-precision words and 13706 shell-pairs
 PRISM was handed    33198702 working-precision words and 13706 shell-pairs
 PRISM was handed    33198702 working-precision words and 13706 shell-pairs
 PRISM was handed    33198702 working-precision words and 13706 shell-pairs
 PRISM was handed    33198702 working-precision words and 13706 shell-pairs
 PRISM was handed    33198702 working-precision words and 13706 shell-pairs
 PRISM was handed    33198702 working-precision words and 13706 shell-pairs
 PRISM was handed    33198702 working-precision words and 13706 shell-pairs
 IPart= 10 NShTot=         679 NBatch=          57 AvBLen=        11.9
 IPart= 16 NShTot=         663 NBatch=          49 AvBLen=        13.5
 PRISM was handed    33198702 working-precision words and 13706 shell-pairs
 PRISM was handed    33198702 working-precision words and 13706 shell-pairs
 IPart= 19 NShTot=         658 NBatch=          47 AvBLen=        14.0
 PRISM was handed    33198702 working-precision words and 13706 shell-pairs
 IPart=  0 NShTot=         720 NBatch=          80 AvBLen=         9.0
 IPart=  8 NShTot=         689 NBatch=          60 AvBLen=        11.5
 IPart= 18 NShTot=         658 NBatch=          47 AvBLen=        14.0
 IPart= 11 NShTot=         676 NBatch=          57 AvBLen=        11.9
 IPart=  2 NShTot=         715 NBatch=          76 AvBLen=         9.4
 IPart=  3 NShTot=         712 NBatch=          74 AvBLen=         9.6
 IPart= 13 NShTot=         668 NBatch=          52 AvBLen=        12.8
 IPart=  5 NShTot=         705 NBatch=          72 AvBLen=         9.8
 IPart= 17 NShTot=         660 NBatch=          48 AvBLen=        13.8
 IPart=  7 NShTot=         692 NBatch=          60 AvBLen=        11.5
 IPart=  1 NShTot=         717 NBatch=          78 AvBLen=         9.2
 IPart= 14 NShTot=         666 NBatch=          51 AvBLen=        13.1
 IPart=  9 NShTot=         682 NBatch=          58 AvBLen=        11.8
 IPart=  4 NShTot=         708 NBatch=          73 AvBLen=         9.7
 IPart=  6 NShTot=         699 NBatch=          66 AvBLen=        10.6
 IPart= 15 NShTot=         665 NBatch=          51 AvBLen=        13.0
 IPart= 12 NShTot=         674 NBatch=          55 AvBLen=        12.3
 PrSmSu:  NxtVal=            121.
 Entering OneElI...
 Calculate potential energy integrals
    NBasis = 485  MinDer = 2  MaxDer = 2
 Requested accuracy = 0.1000D-12
 PrmmSu-InSpLW:  IPartL=    0 NPrtUS=   20 NPrtUL=    1 DoSpLW=F IThBeg=    0 IThEnd=   19 NThAct=   20.
 PrsmSu:  NPrtUS=  20 ThrOK=T IAlg=1 NPAlg=1 LenDen=           0 ISkipM=0 DoSpLW=F IThBeg=    0 IThEnd=   19.
 Prism:   IPart=     0 DynPar=F LinDyn=F Incr=         142.
 PRISM was handed    33261293 working-precision words and 12423 shell-pairs
 PRISM was handed    33261293 working-precision words and 12423 shell-pairs
 PRISM was handed    33261293 working-precision words and 12423 shell-pairs
 PRISM was handed    33261293 working-precision words and 12423 shell-pairs
 PRISM was handed    33261293 working-precision words and 12423 shell-pairs
 PRISM was handed    33261293 working-precision words and 12423 shell-pairs
 PRISM was handed    33261293 working-precision words and 12423 shell-pairs
 PRISM was handed    33261293 working-precision words and 12423 shell-pairs
 PRISM was handed    33261293 working-precision words and 12423 shell-pairs
 PRISM was handed    33261293 working-precision words and 12423 shell-pairs
 PRISM was handed    33261293 working-precision words and 12423 shell-pairs
 PRISM was handed    33261293 working-precision words and 12423 shell-pairs
 PRISM was handed    33261293 working-precision words and 12423 shell-pairs
 PRISM was handed    33261293 working-precision words and 12423 shell-pairs
 PRISM was handed    33261293 working-precision words and 12423 shell-pairs
 PRISM was handed    33261293 working-precision words and 12423 shell-pairs
 PRISM was handed    33261293 working-precision words and 12423 shell-pairs
 PRISM was handed    33261293 working-precision words and 12423 shell-pairs
 PRISM was handed    33261293 working-precision words and 12423 shell-pairs
 PRISM was handed    33261293 working-precision words and 12423 shell-pairs
 IPart= 16 NShTot=       13846 NBatch=         603 AvBLen=        23.0
 IPart= 19 NShTot=       13685 NBatch=         596 AvBLen=        23.0
 IPart=  8 NShTot=       14352 NBatch=         625 AvBLen=        23.0
 IPart= 13 NShTot=       13892 NBatch=         605 AvBLen=        23.0
 IPart=  9 NShTot=       14260 NBatch=         621 AvBLen=        23.0
 IPart=  4 NShTot=       14766 NBatch=         644 AvBLen=        22.9
 IPart=  6 NShTot=       14559 NBatch=         635 AvBLen=        22.9
 IPart=  3 NShTot=       14812 NBatch=         646 AvBLen=        22.9
 IPart= 17 NShTot=       13800 NBatch=         601 AvBLen=        23.0
 IPart= 18 NShTot=       13731 NBatch=         598 AvBLen=        23.0
 IPart= 12 NShTot=       13938 NBatch=         607 AvBLen=        23.0
 IPart= 10 NShTot=       14168 NBatch=         617 AvBLen=        23.0
 IPart=  0 NShTot=       15065 NBatch=         657 AvBLen=        22.9
 IPart= 14 NShTot=       13892 NBatch=         605 AvBLen=        23.0
 IPart= 15 NShTot=       13869 NBatch=         604 AvBLen=        23.0
 IPart= 11 NShTot=       14122 NBatch=         615 AvBLen=        23.0
 IPart=  2 NShTot=       14904 NBatch=         650 AvBLen=        22.9
 IPart=  1 NShTot=       14973 NBatch=         653 AvBLen=        22.9
 IPart=  5 NShTot=       14720 NBatch=         642 AvBLen=        22.9
 IPart=  7 NShTot=       14375 NBatch=         626 AvBLen=        23.0
 PrSmSu:  NxtVal=           2841.
 Polarizability after L701:
                1             2             3 
      1  0.000000D+00
      2  0.000000D+00  0.000000D+00
      3  0.000000D+00  0.000000D+00  0.000000D+00
 Dipole Derivatives after L701:
                 1             2             3             4             5 
      1   0.100955D+00 -0.114850D+00  0.490646D-01 -0.499120D+00  0.296541D+00
      2   0.318006D+00 -0.554593D+00 -0.101823D+00  0.472299D+00 -0.799162D+00
      3   0.132603D+00 -0.435410D+00 -0.888272D+00  0.141782D+00  0.435152D+00
                 6             7             8             9            10 
      1   0.231905D+00 -0.128615D+00 -0.725709D+00 -0.304287D+00 -0.112196D+01
      2   0.436100D+00 -0.268607D+00 -0.122175D+01 -0.418525D+00 -0.287113D+00
      3  -0.830806D+00  0.212730D+00 -0.392431D-01 -0.778215D+00 -0.362672D+00
                11            12            13            14            15 
      1  -0.881897D+00 -0.144448D+01 -0.193136D+01 -0.613636D+00  0.231004D+00
      2  -0.904304D+00 -0.108461D-01 -0.214198D+00 -0.507691D-01 -0.896825D-02
      3   0.134424D+00 -0.543726D+00 -0.176049D+00 -0.639429D-01 -0.773260D+00
                16            17            18            19            20 
      1  -0.146729D+01  0.680866D+00  0.138349D+01 -0.616864D+00  0.126161D+01
      2  -0.269285D-01 -0.908897D+00  0.126878D+00  0.969104D-02 -0.122668D+01
      3   0.437325D-01 -0.275977D-01 -0.105515D+01  0.502106D-01  0.124573D+00
                21            22            23            24            25 
      1  -0.784431D-01  0.633646D+00 -0.395982D+00  0.701877D+00  0.308499D+00
      2   0.652919D-02 -0.191284D-01  0.129765D+00  0.205110D-01  0.117932D+00
      3  -0.963954D+00  0.233395D+00 -0.180609D+00  0.499214D+00  0.644554D-03
                26            27            28            29            30 
      1   0.813024D+00 -0.907292D-01  0.134825D+00  0.708159D-01  0.993756D-01
      2   0.720428D+00 -0.544364D-01 -0.810142D-01  0.314888D+00  0.305238D+00
      3   0.120458D+00  0.144402D+00 -0.159629D+00  0.242565D+00  0.641833D+00
                31            32            33            34            35 
      1   0.216993D+00  0.274676D-01 -0.270375D-01  0.180525D+00  0.419091D-01
      2  -0.236839D+00  0.392154D+00 -0.260751D+00  0.147662D+00  0.226855D+00
      3   0.591107D-01 -0.650188D-01  0.276500D+00 -0.207301D+00 -0.748978D-01
                36            37            38            39            40 
      1  -0.133419D+00  0.376911D+00 -0.205086D+00 -0.589772D-01  0.330477D+00
      2  -0.351256D+00 -0.422246D+00  0.588430D+00  0.122928D+00  0.261862D+00
      3   0.739539D+00  0.112287D+00 -0.110518D+00  0.114723D+00  0.334494D-01
                41            42            43            44            45 
      1   0.499958D+00 -0.456429D-01  0.726198D-01 -0.148519D-01  0.231929D+00
      2   0.905788D+00 -0.944422D-01 -0.130675D+00  0.116177D+00  0.316964D+00
      3   0.580190D-01  0.119521D+00 -0.177611D+00 -0.524391D-01  0.620121D+00
                46            47            48            49            50 
      1   0.968802D+00  0.256144D+00  0.734621D+00  0.492838D+00  0.137124D+00
      2   0.121023D+00  0.201172D+00  0.120990D+00  0.559646D-01  0.169004D+00
      3   0.254177D+00  0.807968D-01  0.344015D+00 -0.137159D+00 -0.426604D-01
                51            52            53            54            55 
      1  -0.877753D+00 -0.210798D+00 -0.235970D+00 -0.299295D+00  0.533513D+00
      2  -0.118086D+00  0.174075D+00  0.200926D+00  0.124622D+00  0.119017D+00
      3   0.470793D+00  0.360655D+00  0.233771D+00  0.389624D+00 -0.242184D+00
                56            57            58            59            60 
      1   0.851327D+00 -0.638879D+00  0.930436D+00 -0.913472D+00  0.303002D+00
      2   0.348408D+00 -0.135555D+00 -0.257364D+00  0.368999D+00 -0.922986D-01
      3  -0.411721D+00  0.428352D+00 -0.122007D+00  0.146657D+00  0.106140D+00
                61            62            63            64            65 
      1  -0.210004D+00 -0.790910D-01  0.215260D+00 -0.131987D+00 -0.159682D+00
      2   0.416235D+00  0.178798D+00 -0.288139D+00  0.312940D+00  0.302325D+00
      3  -0.358976D+00 -0.547141D-01  0.411283D+00  0.134523D+00  0.837053D-01
                66            67            68            69 
      1  -0.424494D+00  0.103696D+01 -0.596560D+00  0.241908D+00
      2   0.497415D+00 -0.582594D+00  0.502041D+00 -0.143048D+00
      3   0.394656D+00  0.174288D+00 -0.101349D+00  0.132672D+00
 Hessian after L701:
                1             2             3             4             5 
      1  0.154346D+02
      2 -0.666190D+00  0.177380D+02
      3  0.484674D+00 -0.175449D+00  0.180300D+02
      4 -0.531486D+01  0.157202D+01 -0.761329D-01  0.151408D+02
      5  0.159755D+01 -0.330750D+01 -0.132218D-01 -0.598257D+00  0.169208D+02
      6 -0.117029D+00 -0.353039D-01 -0.598813D+01 -0.714493D+00  0.284554D+00
      7  0.179513D+00  0.289570D+00  0.121712D+00 -0.373069D+01  0.424833D+00
      8  0.330161D+00  0.200501D+00  0.112919D+00  0.418572D+00 -0.607204D+01
      9  0.772743D-01  0.661214D-01 -0.169483D+00  0.190726D+01  0.306515D+00
     10 -0.237997D+01  0.294245D+00 -0.792064D+00  0.179866D+00  0.263218D+00
     11  0.215976D+00 -0.629747D+01 -0.619804D-01  0.355971D+00  0.148065D+00
     12 -0.770002D+00 -0.695104D-01 -0.605323D+01 -0.161970D+00 -0.866012D-01
     13  0.183437D+00  0.363287D-01  0.140492D+00  0.383206D+00 -0.100872D+00
     14  0.719141D-01 -0.135683D+00  0.310738D-01 -0.180463D+00 -0.863302D-01
     15  0.161232D+00  0.218511D-01 -0.132262D+00  0.204052D+00 -0.174791D-01
     16  0.141021D+00 -0.851550D-01 -0.314328D+00  0.168173D+00  0.434474D-01
     17 -0.919130D-01 -0.918620D-01  0.119279D+00  0.152345D+00 -0.160204D+00
     18 -0.221520D+00  0.106574D+00  0.102822D+00 -0.147604D+00 -0.167894D-01
     19  0.312759D+00 -0.248882D+00  0.134670D+00  0.203362D-01 -0.225170D+00
     20 -0.717327D-01 -0.147677D+00 -0.160011D-01 -0.233585D+00  0.688203D-01
     21  0.105309D+00 -0.700967D-01 -0.197354D+00  0.116860D+00 -0.112378D+00
     22 -0.875480D-01  0.779293D-01 -0.206030D-01 -0.160624D-01 -0.136108D-01
     23  0.332101D-01  0.103524D+00 -0.169293D-01 -0.822847D-02 -0.359218D-03
     24 -0.168330D-01  0.425045D-02  0.152813D+00  0.214877D-02 -0.104226D-01
     25 -0.864401D-01 -0.122904D+00  0.264992D-01  0.649662D-01  0.135099D+00
     26 -0.101268D+00  0.984667D-01  0.122899D-01  0.155875D+00  0.954326D-01
     27  0.118584D-01  0.854071D-02  0.932378D-01 -0.901630D-02 -0.116810D-01
     28 -0.443764D+01 -0.303277D+00 -0.445260D+00  0.130790D+00 -0.100075D+00
     29 -0.341407D+00 -0.384417D+01  0.107822D+01 -0.764159D-01 -0.130455D+00
     30 -0.515889D+00  0.109319D+01 -0.272985D+01 -0.312621D-01 -0.501272D-01
     31 -0.444058D+01 -0.710939D+00  0.896480D+00  0.305249D+00 -0.116507D+00
     32 -0.853804D+00 -0.401042D+01 -0.125220D+01 -0.740781D-01 -0.299594D+00
     33  0.988344D+00 -0.114625D+01 -0.340374D+01  0.501438D-01  0.175932D+00
     34  0.975461D-01 -0.106739D+00  0.716383D-02 -0.425716D+01  0.146245D+00
     35 -0.113959D+00 -0.113267D+00  0.758050D-01  0.172788D+00 -0.429756D+01
     36  0.626515D-02  0.950090D-01  0.182922D+00 -0.730899D+00 -0.541569D+00
     37  0.230062D+00 -0.759568D-01 -0.177390D-01 -0.331324D+01 -0.132140D+01
     38 -0.654790D-01 -0.204774D+00  0.811102D-02 -0.145217D+01 -0.307058D+01
     39 -0.136802D-01  0.313512D-01  0.176524D+00 -0.160652D+00  0.161158D+00
     40  0.407653D-01  0.116064D+00  0.339138D-01 -0.203946D-01 -0.761120D-01
     41  0.140768D+00  0.101642D+00  0.513443D-01 -0.849135D-01  0.110729D+00
     42  0.306746D-01  0.415978D-01 -0.463424D-01 -0.821809D-01 -0.713289D-01
     43 -0.287803D-03  0.346259D-03  0.670754D-02  0.855265D-01  0.870775D-02
     44  0.123520D-01 -0.280446D-01 -0.150211D-02 -0.720204D-02  0.131755D+00
     45  0.421912D-01 -0.193514D-02  0.176196D-01 -0.137038D+00  0.223678D-01
     46  0.241274D-01 -0.170261D-02  0.145403D-01  0.141831D+00 -0.170555D-01
     47  0.102456D-01 -0.110425D-01  0.425338D-02 -0.113552D-01 -0.477292D-01
     48  0.181081D-01 -0.234436D-02 -0.308663D-02  0.997807D-01 -0.836804D-02
     49  0.265991D-01 -0.449814D-02 -0.578671D-02  0.227286D-01  0.490268D-02
     50  0.916015D-02 -0.129283D-01 -0.147781D-02  0.253526D-02 -0.183994D-01
[...]
     56 -0.432200D-02 -0.961388D-03  0.552625D-02 -0.170528D-02  0.259791D-02
     57  0.386742D-02  0.228433D-04 -0.563675D-02 -0.349683D-03 -0.164764D-02
     58 -0.716742D-02 -0.509522D-02  0.536726D-02  0.752816D-03  0.401848D-02
     59  0.341349D-02 -0.830363D-03 -0.450565D-02  0.655392D-03 -0.126378D-02
     60  0.126333D-03  0.214022D-02  0.665818D-03 -0.196289D-02  0.416540D-03
     61 -0.424820D-02 -0.407011D-02  0.485867D-02 -0.870306D-03 -0.122662D-02
     62 -0.583651D-02 -0.894392D-03 -0.923811D-04  0.968197D-03  0.168788D-02
     63  0.730533D-02  0.238826D-02 -0.286688D-02 -0.899885D-03 -0.155195D-02
     64 -0.109203D-02 -0.246809D-02  0.195454D-02  0.182308D-03  0.118457D-02
     65 -0.867854D-02 -0.233282D-02  0.180260D-02  0.729151D-03  0.130308D-02
     66 -0.664593D-02 -0.361371D-02  0.447092D-02 -0.185225D-03  0.145196D-02
     67  0.629736D-02  0.490115D-02 -0.556018D-02  0.228218D-03 -0.134280D-02
     68 -0.549982D-02 -0.464462D-02  0.393058D-02 -0.159483D-03  0.382230D-02
     69  0.190117D-02  0.151141D-02 -0.143324D-02 -0.873409D-03 -0.321020D-03
               41            42            43            44            45 
     41  0.169195D+01
     42  0.219068D-01  0.427800D+01
     43 -0.910771D-01  0.883246D-01  0.415006D+01
     44 -0.207976D-01  0.150904D+00 -0.489584D-01  0.440937D+01
     45  0.155803D+00 -0.172784D-01  0.918207D+00 -0.754370D-01  0.182849D+01
     46  0.302933D-01 -0.945712D-02 -0.261893D-01  0.113615D-01  0.339445D-02
     47 -0.161021D-01  0.113719D-01  0.918562D-02  0.100088D-01 -0.406697D-02
     48  0.802330D-02  0.146981D-01  0.107734D-01 -0.176941D-02  0.714969D-02
     49  0.161652D-01  0.112473D-01  0.300198D-01 -0.194541D-01 -0.789182D-01
     50 -0.127197D-01 -0.156614D-01 -0.116683D-01 -0.251745D-01  0.187964D-01
     51 -0.770918D-02  0.290667D-02 -0.695431D-01  0.234353D-01  0.615743D-01
     52  0.349507D-02 -0.261576D-02  0.140667D-01  0.508151D-02  0.218157D-02
     53 -0.194835D-02 -0.104338D-02  0.279092D-02 -0.105816D-01 -0.174758D-02
     54 -0.608286D-02 -0.782863D-03 -0.389663D-02 -0.895716D-03 -0.147600D-01
     55  0.340846D-02 -0.736116D-03  0.228929D-02  0.234939D-02  0.384159D-02
     56  0.340951D-02 -0.794791D-03  0.197453D-02 -0.171175D-03  0.389073D-02
     57 -0.266365D-02 -0.115699D-03 -0.454922D-03 -0.636804D-03 -0.389052D-02
     58  0.478160D-02 -0.669060D-03  0.340362D-02 -0.248218D-03  0.679178D-02
     59 -0.300558D-02  0.255511D-03 -0.464929D-03 -0.148369D-02 -0.316455D-02
     60  0.624798D-03 -0.875775D-03  0.902188D-03 -0.138246D-03  0.684348D-04
     61  0.778954D-02 -0.148264D-02 -0.151372D-01 -0.264823D-02  0.380092D-02
     62  0.120040D-01 -0.336795D-02 -0.111790D-01  0.227568D-01  0.151745D-01
     63 -0.818499D-02 -0.122577D-02  0.974371D-03 -0.871756D-03 -0.182253D-01
     64  0.436872D-02  0.811717D-04 -0.403751D-02 -0.180081D-02  0.390454D-03
     65 -0.435194D-02 -0.152783D-02 -0.530294D-02  0.769367D-02  0.139302D-01
     66  0.390493D-02  0.240127D-03 -0.525437D-02  0.979667D-02  0.105051D-01
     67 -0.430474D-02  0.300812D-03  0.462334D-02 -0.592062D-02 -0.781249D-02
     68 -0.235205D-03 -0.500181D-03 -0.732503D-02  0.442571D-02  0.730651D-02
     69 -0.118385D-02 -0.626851D-04 -0.941235D-03  0.126547D-02 -0.221888D-02
               46            47            48            49            50 
     46  0.224538D+01
     47 -0.644676D+00  0.389914D+01
     48 -0.124857D+01 -0.421790D+00  0.306077D+01
     49  0.124927D+00  0.153336D-02 -0.731001D-01  0.344446D+01
     50 -0.178870D-04  0.122300D+00 -0.284945D-01 -0.189287D+00  0.422512D+01
     51 -0.890451D-01 -0.289372D-01 -0.227727D+00  0.110564D+01  0.430304D+00
     52 -0.155707D-04 -0.165739D-03 -0.651536D-03 -0.426761D-03 -0.173287D-03
     53 -0.222816D-02 -0.138218D-02 -0.945638D-03 -0.150668D-02 -0.106893D-02
     54 -0.304266D-02 -0.485876D-03 -0.215433D-02 -0.300771D-02 -0.245556D-03
     55  0.307470D-02  0.960727D-03  0.123575D-02  0.197023D-02  0.634747D-03
     56  0.284870D-02  0.423789D-03  0.137783D-02  0.187895D-02  0.114496D-03
     57 -0.205782D-02 -0.576258D-03 -0.143489D-02 -0.188081D-02 -0.455630D-03
     58  0.377144D-02  0.566374D-03  0.191966D-02  0.277497D-02  0.226343D-03
     59 -0.244000D-02 -0.866521D-03 -0.135680D-02 -0.182645D-02 -0.639855D-03
     60  0.792164D-03  0.157664D-03  0.510168D-04  0.286373D-04  0.508558D-04
     61  0.160878D-01  0.157327D-01  0.429433D-02  0.953390D-02  0.386282D-01
     62  0.150301D-01  0.834202D-02  0.132246D-02  0.446277D-01  0.136593D-01
     63 -0.716699D-02 -0.419373D-02 -0.689300D-02 -0.512974D-01 -0.525484D-01
     64  0.151563D-01  0.479194D-01  0.387874D-01  0.570846D-02 -0.440562D-01
     65  0.631503D-01  0.394971D-01  0.561541D-01 -0.580810D-01 -0.597699D-01
     66  0.481528D-01  0.549317D-01  0.149525D-01  0.847302D-02  0.100803D-01
     67  0.296829D-01 -0.721620D-02 -0.346874D-02 -0.917101D-02 -0.596484D-02
     68 -0.139757D-01 -0.877406D-01 -0.154101D-01  0.209572D-02  0.171184D-01
     69 -0.136094D-02 -0.143931D-01  0.300623D-01 -0.112801D-02 -0.140241D-01
               51            52            53            54            55 
     51  0.214743D+01
     52  0.467163D-03  0.298878D+01
     53  0.190754D-02 -0.737152D+00  0.356930D+01
     54  0.255934D-02 -0.926494D+00 -0.664535D+00  0.317483D+01
     55 -0.259367D-02 -0.659493D-01 -0.194033D+00  0.176449D-01  0.300237D+01
     56 -0.246572D-02 -0.159694D+00 -0.521828D-01  0.715181D-02 -0.685309D+00
     57  0.180880D-02  0.203075D-01  0.118883D-01  0.135489D+00  0.690225D+00
     58 -0.315037D-02 -0.182970D+00  0.719482D-01 -0.181295D+00  0.101422D+00
     59  0.216932D-02  0.589768D-01  0.142794D+00  0.407700D-01  0.379872D-01
     60 -0.707325D-03 -0.142940D+00  0.395141D-01  0.558406D-01 -0.291388D-01
     61 -0.521446D-01  0.186678D-02 -0.123427D-02  0.679294D-03 -0.916408D-04
     62 -0.590222D-01 -0.234682D-02  0.119835D-02  0.179362D-02 -0.139840D-02
     63  0.411610D-01 -0.725664D-03 -0.195680D-02 -0.398139D-02  0.188993D-02
     64  0.167692D-02 -0.599847D-04 -0.825855D-04  0.138600D-03 -0.456645D-04
     65  0.106046D-01  0.178963D-03  0.876109D-03  0.213348D-02 -0.137527D-02
     66  0.278284D-01  0.834264D-03  0.358619D-02  0.270270D-02 -0.360078D-02
     67  0.943532D-02 -0.759966D-03 -0.349981D-02 -0.274419D-02  0.335097D-02
     68 -0.218310D-01  0.160175D-03  0.132404D-02  0.176461D-02 -0.169754D-02
     69  0.567050D-02 -0.358377D-03 -0.113157D-03 -0.972123D-03  0.122269D-03
               56            57            58            59            60 
     56  0.276554D+01
     57  0.108593D+01  0.264383D+01
     58  0.336885D-01 -0.288255D-01  0.246440D+01
     59 -0.116598D+00  0.120465D+00  0.117097D+01  0.244480D+01
     60  0.110386D+00  0.223650D-01 -0.115002D+00  0.198700D+00  0.385871D+01
     61 -0.140253D-02  0.710629D-03 -0.161027D-02  0.112901D-02 -0.335360D-03
     62 -0.179866D-02  0.616148D-03 -0.188695D-02  0.553616D-03 -0.381371D-03
     63  0.149292D-02 -0.261321D-02  0.249804D-02 -0.214628D-02 -0.168640D-03
     64 -0.559171D-03 -0.133134D-03 -0.264951D-03  0.538196D-04 -0.382308D-03
     65 -0.154258D-02  0.117659D-02 -0.217837D-02  0.109408D-02 -0.588870D-05
     66 -0.221094D-02  0.226118D-02 -0.318808D-02  0.282536D-02 -0.756829D-03
     67  0.228200D-02 -0.235093D-02  0.316046D-02 -0.290969D-02  0.675927D-03
     68 -0.169000D-02  0.121415D-02 -0.211799D-02  0.139834D-02 -0.393924D-03
     69  0.324806D-03 -0.709338D-03  0.527976D-03 -0.464365D-03 -0.194411D-03
               61            62            63            64            65 
     61  0.322092D+01
     62 -0.411215D+00  0.408982D+01
     63  0.122053D+01  0.483158D+00  0.311428D+01
     64  0.156895D+00  0.189989D-01  0.103763D+00  0.369558D+01
     65  0.180415D-01  0.149129D+00 -0.925080D-01 -0.364988D+00  0.350956D+01
     66  0.504810D-01 -0.499374D-01 -0.306217D+00 -0.872148D+00 -0.969431D+00
     67 -0.161443D+00  0.682328D-01  0.909653D-01 -0.638224D-01  0.121844D-01
     68  0.756560D-01  0.911071D-01 -0.383680D-01  0.169342D-01  0.108975D+00
     69  0.935426D-01 -0.356002D-01  0.899896D-01 -0.149936D+00  0.270125D-01
               66            67            68            69 
     66  0.247748D+01
     67 -0.144275D+00  0.218676D+01
     68  0.300395D-01  0.123168D+01  0.277373D+01
     69 -0.201268D-01 -0.360294D+00  0.345234D+00  0.354684D+01
 Leave Link  701 at Mon Sep 30 11:13:13 2019, MaxMem=   671088640 cpu:              53.4 elap:              26.7
 (Enter /shared/centos7/gaussian/g16/l702.exe)
 L702 exits ... SP integral derivatives will be done elsewhere.
 Leave Link  702 at Mon Sep 30 11:13:14 2019, MaxMem=   671088640 cpu:               1.4 elap:               0.7
 (Enter /shared/centos7/gaussian/g16/l703.exe)
 Integral derivatives from FoFJK, PRISM(SPDF).
 Compute integral second derivatives, UseDBF=F ICtDFT=           0.
 ICntrl=    100147.
 Calling FoFJK, ICntrl=    100147 FMM=F ISym2X=0 I1Cent= 0 IOpClX= 0 NMat=1 NMatS=1 NMatT=0.
 FoFJK:  IHMeth= 1 ICntrl=  100147 DoSepK=F KAlg= 0 I1Cent=           0 FoldK=F
 IRaf=         0 NMat=       1 IRICut=       1 DoRegI=T DoRafI=F ISym2E= 0 IDoP0=0 IntGTp=1.
 FoFCou: FMM=F IPFlag=           0 FMFlag=      100000 FMFlg1=         800
         NFxFlg=           0 DoJE=F BraDBF=F KetDBF=F FulRan=T
         wScrn=  0.000000 ICntrl=    100147 IOpCl=  0 I1Cent=           0 NGrid=           0
         NMat0=    1 NMatS0=      1 NMatT0=    0 NMatD0=    1 NMtDS0=    0 NMtDT0=    0
 Symmetry not used in FoFCou.
 FoFCou:  KetSym=F NOpSet=  1 NOpAb=1 NOp=  1.
 FoFCou:  CnvScl= 1.00D+00 Thresh= 1.00D-08 IAcrcy=      12.
 PrismS was handed   669986095 working-precision words and 13038 shell-pairs
 FoFCou: LinMIO=F DoNuc=F BraDBF=F KetDBF=F HaveP=T PDBF=F HaveZ=T HaveW=F
         NIJTC =      10 NIJTAt=       0 NIJTCD=       0 NIJTT =      10
         IJTBeg=       1 IJTEnd=      10 KLTBeg=       1 KLTEnd=      10
         IPTBeg=       1 IPTEnd=      10 IPTBCv=       1 IPTECv=      10
         IZTBeg=       1 IZTEnd=      10 IZTBCv=       1 IZTECv=      10
         IWTBeg=      11 IWTEnd=      10 IWTBCv=      11 IWTECv=      10
         INTBeg=       1 INTEnd=       0 IFTBCv=       1 IFTECv=      10
 NCel replicated for PrismC:     1
 CoulSu-InSpLW:  IPartL=    0 NPrtUS=   20 NPrtUL=    1 DoSpLW=F IThBeg=    0 IThEnd=   19 NThAct=   20.
 CoulSu:  IncDef=  1024 NBBP=       85001241 NTPThr=   100 NPartT=   20 Incr=        1024 LDynOK=F GPUOK=T.
 CoulSu:  NPrtUS=  20 ThrOK=T IAlg=1 NPAlg=1 LenDen=           0 LWGrdD=           0 DoCopy=F ISkipM=0
          DoSpLW=F IThBeg=    0 IThEnd=   19.
 Enter PrismC:  IPart=  0 JobTyp=22 DoJE=F Cont=F.
 PrismC:  IPart=     0 DynPar=T LinDyn=F Incr=        1024 UseFst=F UseS4=T ISplat=2.
 PrismC was handed    33261940 working-precision words and 13038 shell-pairs
 Enter PrismC:  IPart=  2 JobTyp=22 DoJE=F Cont=F.
 PrismC:  IPart=     2 DynPar=T LinDyn=F Incr=        1024 UseFst=F UseS4=T ISplat=2.
 PrismC was handed    33261940 working-precision words and 13038 shell-pairs
 Enter PrismC:  IPart= 16 JobTyp=22 DoJE=F Cont=F.
 PrismC:  IPart=    16 DynPar=T LinDyn=F Incr=        1024 UseFst=F UseS4=T ISplat=2.
 PrismC was handed    33261940 working-precision words and 13038 shell-pairs
 Enter PrismC:  IPart=  1 JobTyp=22 DoJE=F Cont=F.
 PrismC:  IPart=     1 DynPar=T LinDyn=F Incr=        1024 UseFst=F UseS4=T ISplat=2.
 PrismC was handed    33261940 working-precision words and 13038 shell-pairs
 Enter PrismC:  IPart= 10 JobTyp=22 DoJE=F Cont=F.
 PrismC:  IPart=    10 DynPar=T LinDyn=F Incr=        1024 UseFst=F UseS4=T ISplat=2.
 PrismC was handed    33261940 working-precision words and 13038 shell-pairs
 Enter PrismC:  IPart=  8 JobTyp=22 DoJE=F Cont=F.
 PrismC:  IPart=     8 DynPar=T LinDyn=F Incr=        1024 UseFst=F UseS4=T ISplat=2.
 PrismC was handed    33261940 working-precision words and 13038 shell-pairs
 Enter PrismC:  IPart=  7 JobTyp=22 DoJE=F Cont=F.
 PrismC:  IPart=     7 DynPar=T LinDyn=F Incr=        1024 UseFst=F UseS4=T ISplat=2.
 PrismC was handed    33261940 working-precision words and 13038 shell-pairs
 Enter PrismC:  IPart= 12 JobTyp=22 DoJE=F Cont=F.
 PrismC:  IPart=    12 DynPar=T LinDyn=F Incr=        1024 UseFst=F UseS4=T ISplat=2.
 PrismC was handed    33261940 working-precision words and 13038 shell-pairs
 Enter PrismC:  IPart= 18 JobTyp=22 DoJE=F Cont=F.
 PrismC:  IPart=    18 DynPar=T LinDyn=F Incr=        1024 UseFst=F UseS4=T ISplat=2.
 PrismC was handed    33261940 working-precision words and 13038 shell-pairs
 Enter PrismC:  IPart=  9 JobTyp=22 DoJE=F Cont=F.
 PrismC:  IPart=     9 DynPar=T LinDyn=F Incr=        1024 UseFst=F UseS4=T ISplat=2.
 PrismC was handed    33261940 working-precision words and 13038 shell-pairs
 Enter PrismC:  IPart= 14 JobTyp=22 DoJE=F Cont=F.
 PrismC:  IPart=    14 DynPar=T LinDyn=F Incr=        1024 UseFst=F UseS4=T ISplat=2.
 PrismC was handed    33261940 working-precision words and 13038 shell-pairs
 Enter PrismC:  IPart= 15 JobTyp=22 DoJE=F Cont=F.
 PrismC:  IPart=    15 DynPar=T LinDyn=F Incr=        1024 UseFst=F UseS4=T ISplat=2.
 PrismC was handed    33261940 working-precision words and 13038 shell-pairs
 Enter PrismC:  IPart= 19 JobTyp=22 DoJE=F Cont=F.
 PrismC:  IPart=    19 DynPar=T LinDyn=F Incr=        1024 UseFst=F UseS4=T ISplat=2.
 PrismC was handed    33261940 working-precision words and 13038 shell-pairs
 Enter PrismC:  IPart= 11 JobTyp=22 DoJE=F Cont=F.
 PrismC:  IPart=    11 DynPar=T LinDyn=F Incr=        1024 UseFst=F UseS4=T ISplat=2.
 PrismC was handed    33261940 working-precision words and 13038 shell-pairs
 Enter PrismC:  IPart=  5 JobTyp=22 DoJE=F Cont=F.
 PrismC:  IPart=     5 DynPar=T LinDyn=F Incr=        1024 UseFst=F UseS4=T ISplat=2.
 PrismC was handed    33261940 working-precision words and 13038 shell-pairs
 Enter PrismC:  IPart=  3 JobTyp=22 DoJE=F Cont=F.
 PrismC:  IPart=     3 DynPar=T LinDyn=F Incr=        1024 UseFst=F UseS4=T ISplat=2.
 PrismC was handed    33261940 working-precision words and 13038 shell-pairs
 Enter PrismC:  IPart= 17 JobTyp=22 DoJE=F Cont=F.
 PrismC:  IPart=    17 DynPar=T LinDyn=F Incr=        1024 UseFst=F UseS4=T ISplat=2.
 PrismC was handed    33261940 working-precision words and 13038 shell-pairs
 Enter PrismC:  IPart=  4 JobTyp=22 DoJE=F Cont=F.
 PrismC:  IPart=     4 DynPar=T LinDyn=F Incr=        1024 UseFst=F UseS4=T ISplat=2.
 PrismC was handed    33261940 working-precision words and 13038 shell-pairs
 Enter PrismC:  IPart= 13 JobTyp=22 DoJE=F Cont=F.
 PrismC:  IPart=    13 DynPar=T LinDyn=F Incr=        1024 UseFst=F UseS4=T ISplat=2.
 PrismC was handed    33261940 working-precision words and 13038 shell-pairs
 Enter PrismC:  IPart=  6 JobTyp=22 DoJE=F Cont=F.
 PrismC:  IPart=     6 DynPar=T LinDyn=F Incr=        1024 UseFst=F UseS4=T ISplat=2.
 PrismC was handed    33261940 working-precision words and 13038 shell-pairs
 IPart= 13 NShTot=     1648462 NShNF=     1648462 NShFF=           0 MinMC=       7
           NShCPU=     1648462 NBCPU=       63370 AvBCPU=        26.0
           NShGPU=           0 NBGPU=           0 AvBGPU=         0.0
 IPart= 14 NShTot=     1643644 NShNF=     1643644 NShFF=           0 MinMC=       7
           NShCPU=     1643644 NBCPU=       63480 AvBCPU=        25.9
           NShGPU=           0 NBGPU=           0 AvBGPU=         0.0
 IPart= 17 NShTot=     1675098 NShNF=     1675098 NShFF=           0 MinMC=       7
           NShCPU=     1675098 NBCPU=       63468 AvBCPU=        26.4
           NShGPU=           0 NBGPU=           0 AvBGPU=         0.0
 IPart= 19 NShTot=     1648786 NShNF=     1648786 NShFF=           0 MinMC=       7
           NShCPU=     1648786 NBCPU=       63310 AvBCPU=        26.0
           NShGPU=           0 NBGPU=           0 AvBGPU=         0.0
 IPart= 11 NShTot=     4279203 NShNF=     4279203 NShFF=           0 MinMC=       7
           NShCPU=     4279203 NBCPU=      164224 AvBCPU=        26.1
           NShGPU=           0 NBGPU=           0 AvBGPU=         0.0
 IPart= 12 NShTot=     1629800 NShNF=     1629800 NShFF=           0 MinMC=       7
           NShCPU=     1629800 NBCPU=       62799 AvBCPU=        26.0
           NShGPU=           0 NBGPU=           0 AvBGPU=         0.0
 IPart=  6 NShTot=     4258005 NShNF=     4258005 NShFF=           0 MinMC=       7
           NShCPU=     4258005 NBCPU=      163725 AvBCPU=        26.0
           NShGPU=           0 NBGPU=           0 AvBGPU=         0.0
 IPart=  7 NShTot=     1621446 NShNF=     1621446 NShFF=           0 MinMC=       7
           NShCPU=     1621446 NBCPU=       63238 AvBCPU=        25.6
           NShGPU=           0 NBGPU=           0 AvBGPU=         0.0
 IPart= 10 NShTot=     1629425 NShNF=     1629425 NShFF=           0 MinMC=       7
           NShCPU=     1629425 NBCPU=       62975 AvBCPU=        25.9
           NShGPU=           0 NBGPU=           0 AvBGPU=         0.0
 IPart=  5 NShTot=     1643887 NShNF=     1643887 NShFF=           0 MinMC=       7
           NShCPU=     1643887 NBCPU=       63548 AvBCPU=        25.9
           NShGPU=           0 NBGPU=           0 AvBGPU=         0.0
 IPart= 15 NShTot=     1627057 NShNF=     1627057 NShFF=           0 MinMC=       7
           NShCPU=     1627057 NBCPU=       62787 AvBCPU=        25.9
           NShGPU=           0 NBGPU=           0 AvBGPU=         0.0
 IPart=  8 NShTot=     1671653 NShNF=     1671653 NShFF=           0 MinMC=       7
           NShCPU=     1671653 NBCPU=       64222 AvBCPU=        26.0
           NShGPU=           0 NBGPU=           0 AvBGPU=         0.0
 IPart=  2 NShTot=     4281528 NShNF=     4281528 NShFF=           0 MinMC=       7
           NShCPU=     4281528 NBCPU=      164625 AvBCPU=        26.0
           NShGPU=           0 NBGPU=           0 AvBGPU=         0.0
 IPart= 16 NShTot=     4276749 NShNF=     4276749 NShFF=           0 MinMC=       7
           NShCPU=     4276749 NBCPU=      165203 AvBCPU=        25.9
           NShGPU=           0 NBGPU=           0 AvBGPU=         0.0
 IPart=  3 NShTot=     1662893 NShNF=     1662893 NShFF=           0 MinMC=       7
           NShCPU=     1662893 NBCPU=       63333 AvBCPU=        26.3
           NShGPU=           0 NBGPU=           0 AvBGPU=         0.0
 IPart=  0 NShTot=     1676803 NShNF=     1676803 NShFF=           0 MinMC=       7
           NShCPU=     1676803 NBCPU=       63920 AvBCPU=        26.2
           NShGPU=           0 NBGPU=           0 AvBGPU=         0.0
 IPart= 18 NShTot=     1621017 NShNF=     1621017 NShFF=           0 MinMC=       7
           NShCPU=     1621017 NBCPU=       62699 AvBCPU=        25.9
           NShGPU=           0 NBGPU=           0 AvBGPU=         0.0
 IPart=  9 NShTot=     1649938 NShNF=     1649938 NShFF=           0 MinMC=       7
           NShCPU=     1649938 NBCPU=       63772 AvBCPU=        25.9
           NShGPU=           0 NBGPU=           0 AvBGPU=         0.0
 IPart=  4 NShTot=     1648530 NShNF=     1648530 NShFF=           0 MinMC=       7
           NShCPU=     1648530 NBCPU=       63354 AvBCPU=        26.0
           NShGPU=           0 NBGPU=           0 AvBGPU=         0.0
 IPart=  1 NShTot=     1670916 NShNF=     1670916 NShFF=           0 MinMC=       7
           NShCPU=     1670916 NBCPU=       63721 AvBCPU=        26.2
           NShGPU=           0 NBGPU=           0 AvBGPU=         0.0
 CoulSu:  NxtVal=       91866113 LenVP=       33261941 MinMC=       7.
 ReadGW:  IGet=0 IStart=           1 Next=           1 LGW=           0.
 Remaining memory in FofDFT      639.77 Mw
 CkSvGd:  ISavGI=        -1 IRadAn=       5 IRASav=       5 ISavGd=        -1.
 CalDSu-InSpLW:  IPartL=    0 NPrtUS=   20 NPrtUL=    1 DoSpLW=F IThBeg=    0 IThEnd=   19 NThAct=   20.
 CalDSu:  NPrtUS=  20 ThrOK=T IAlg=1 NPAlg=2 DoDPD=T LenP=      117855 LenD1P=             0 GPUOK=F
          ISkipM=0 DoSpLW=F IThBeg=    0 IThEnd=   19.
 IPart=  0 IRanGd=          0 ScrnBf=T ScrnGd=T RCrit=4.00D+00 DoMicB=T.
