 Entering Gaussian System, Link 0=g16
 Input=loose/species/CCCCCCC/conformers/CCCCCCC_999.com
 Output=loose/species/CCCCCCC/conformers/CCCCCCC_999.log
 Initial command:
 /shared/centos7/gaussian/g16/l1.exe "/scratch/harms.n/gauss_scrdir/Gau-46363.inp" -scrdir="/scratch/harms.n/gauss_scrdir/"
 Entering Link 1 = /shared/centos7/gaussian/g16/l1.exe PID=     46364.
  
 Copyright (c) 1988,1990,1992,1993,1995,1998,2003,2009,2016,
            Gaussian, Inc.  All Rights Reserved.
  
 This is part of the Gaussian(R) 16 program.  It is based on
 the Gaussian(R) 09 system (copyright 2009, Gaussian, Inc.),
 the Gaussian(R) 03 system (copyright 2003, Gaussian, Inc.),
 the Gaussian(R) 98 system (copyright 1998, Gaussian, Inc.),
 the Gaussian(R) 94 system (copyright 1995, Gaussian, Inc.),
 the Gaussian 92(TM) system (copyright 1992, Gaussian, Inc.),
 the Gaussian 90(TM) system (copyright 1990, Gaussian, Inc.),
 the Gaussian 88(TM) system (copyright 1988, Gaussian, Inc.),
 the Gaussian 86(TM) system (copyright 1986, Carnegie Mellon
 University), and the Gaussian 82(TM) system (copyright 1983,
 Carnegie Mellon University). Gaussian is a federally registered
 trademark of Gaussian, Inc.
  
 This software contains proprietary and confidential information,
 including trade secrets, belonging to Gaussian, Inc.
  
 This software is provided under written license and may be
 used, copied, transmitted, or stored only in accord with that
 written license.
  
 The following legend is applicable only to US Government
 contracts under FAR:
  
                    RESTRICTED RIGHTS LEGEND
  
 Use, reproduction and disclosure by the US Government is
 subject to restrictions as set forth in subparagraphs (a)
 and (c) of the Commercial Computer Software - Restricted
 Rights clause in FAR 52.227-19.
  
 Gaussian, Inc.
 340 Quinnipiac St., Bldg. 40, Wallingford CT 06492
  
  
 ---------------------------------------------------------------
 Warning -- This program may not be used in any manner that
 competes with the business of Gaussian, Inc. or will provide
 assistance to any competitor of Gaussian, Inc.  The licensee
 of this program is prohibited from giving any competitor of
 Gaussian, Inc. access to this program.  By using this program,
 the user acknowledges that Gaussian, Inc. is engaged in the
 business of creating and licensing software in the field of
 computational chemistry and represents and warrants to the
 licensee that it is not a competitor of Gaussian, Inc. and that
 it will not use this program in any manner prohibited above.
 ---------------------------------------------------------------
  

 Cite this work as:
 Gaussian 16, Revision A.03,
 M. J. Frisch, G. W. Trucks, H. B. Schlegel, G. E. Scuseria, 
 M. A. Robb, J. R. Cheeseman, G. Scalmani, V. Barone, 
 G. A. Petersson, H. Nakatsuji, X. Li, M. Caricato, A. V. Marenich, 
 J. Bloino, B. G. Janesko, R. Gomperts, B. Mennucci, H. P. Hratchian, 
 J. V. Ortiz, A. F. Izmaylov, J. L. Sonnenberg, D. Williams-Young, 
 F. Ding, F. Lipparini, F. Egidi, J. Goings, B. Peng, A. Petrone, 
 T. Henderson, D. Ranasinghe, V. G. Zakrzewski, J. Gao, N. Rega, 
 G. Zheng, W. Liang, M. Hada, M. Ehara, K. Toyota, R. Fukuda, 
 J. Hasegawa, M. Ishida, T. Nakajima, Y. Honda, O. Kitao, H. Nakai, 
 T. Vreven, K. Throssell, J. A. Montgomery, Jr., J. E. Peralta, 
 F. Ogliaro, M. J. Bearpark, J. J. Heyd, E. N. Brothers, K. N. Kudin, 
 V. N. Staroverov, T. A. Keith, R. Kobayashi, J. Normand, 
 K. Raghavachari, A. P. Rendell, J. C. Burant, S. S. Iyengar, 
 J. Tomasi, M. Cossi, J. M. Millam, M. Klene, C. Adamo, R. Cammi, 
 J. W. Ochterski, R. L. Martin, K. Morokuma, O. Farkas, 
 J. B. Foresman, and D. J. Fox, Gaussian, Inc., Wallingford CT, 2016.
 
 ******************************************
 Gaussian 16:  EM64L-G16RevA.03 25-Dec-2016
                28-Sep-2019 
 ******************************************
 %nprocshared=20
 Will use up to   20 processors via shared memory.
 %mem=5GB
 ----------------------------------------------------------------------
 #p m062x/cc-pVTZ opt=(calcfc,maxcycles=900,Tight) freq IOP(7/33=1,2/16
 =3) scf=(maxcycle=900)
 ----------------------------------------------------------------------
 1/6=900,7=10,10=4,18=20,19=15,26=3,38=1/1,3;
 2/9=110,12=2,16=3,17=6,18=5,40=1/2;
 3/5=16,6=1,11=2,25=1,30=1,71=2,74=-55,140=1/1,2,3;
 4//1;
 5/5=2,7=900,38=5/2;
 8/6=4,10=90,11=11/1;
 11/6=1,8=1,9=11,15=111,16=1/1,2,10;
 10/6=1,13=1/2;
 6/7=2,8=2,9=2,10=2,28=1/1;
 7/10=1,18=20,25=1,33=1/1,2,3,16;
 1/6=900,7=10,10=4,18=20,19=15,26=3/3(2);
 2/9=110,16=3/2;
 99//99;
 2/9=110,16=3/2;
 3/5=16,6=1,11=2,25=1,30=1,71=1,74=-55/1,2,3;
 4/5=5,16=3,69=1/1;
 5/5=2,7=900,38=5/2;
 7/33=1/1,2,3,16;
 1/6=900,7=10,18=20,19=15,26=3/3(-5);
 2/9=110,16=3/2;
 6/7=2,8=2,9=2,10=2,19=2,28=1/1;
 99/9=1/99;
 Leave Link    1 at Sat Sep 28 23:00:58 2019, MaxMem=   671088640 cpu:               4.3 elap:               2.1
 (Enter /shared/centos7/gaussian/g16/l101.exe)
 ------------------------------
 Gaussian input prepared by ASE
 ------------------------------
 Symbolic Z-matrix:
 Charge =  0 Multiplicity = 1
 C                     1.58598  -0.77864   0.75377 
 C                     0.25562  -0.10693   0.72354 
 C                    -0.6666   -0.47723  -0.41108 
 C                     2.75558  -0.226     0.01105 
 C                    -0.65298   0.35723  -1.67013 
 C                     2.54444   0.89584  -0.9198 
 C                    -1.45656  -0.3509   -2.72972 
 H                     3.24103  -1.07508  -0.54799 
 H                     3.52223   0.08488   0.76029 
 H                     1.44509  -1.83649   0.44607 
 H                     1.87883  -0.82522   1.82275 
 H                     0.34489   0.98616   0.82295 
 H                    -0.26161  -0.44265   1.64713 
 H                    -1.69993  -0.44373  -0.02607 
 H                    -0.47888  -1.53371  -0.69346 
 H                    -1.10982   1.36159  -1.46992 
 H                     0.37066   0.54657  -2.03561 
 H                     1.49463   1.2448   -0.91673 
 H                     3.19147   1.7824   -0.64978 
 H                     2.82857   0.61498  -1.95608 
 H                    -2.37773  -0.75258  -2.30583 
 H                    -0.86375  -1.21885  -3.13109 
 H                    -1.73098   0.34706  -3.572 
 
 ITRead=  0  0  0  0  0  0  0  0  0  0  0  0  0  0  0  0  0  0  0  0
 ITRead=  0  0  0
 MicOpt= -1 -1 -1 -1 -1 -1 -1 -1 -1 -1 -1 -1 -1 -1 -1 -1 -1 -1 -1 -1
 MicOpt= -1 -1 -1
 NAtoms=     23 NQM=       23 NQMF=       0 NMMI=      0 NMMIF=      0
                NMic=       0 NMicF=      0.
                    Isotopes and Nuclear Properties:
 (Nuclear quadrupole moments (NQMom) in fm**2, nuclear magnetic moments (NMagM)
  in nuclear magnetons)

  Atom         1           2           3           4           5           6           7           8           9          10
 IAtWgt=          12          12          12          12          12          12          12           1           1           1
 AtmWgt=  12.0000000  12.0000000  12.0000000  12.0000000  12.0000000  12.0000000  12.0000000   1.0078250   1.0078250   1.0078250
 NucSpn=           0           0           0           0           0           0           0           1           1           1
 AtZEff=  -0.0000000  -0.0000000  -0.0000000  -0.0000000  -0.0000000  -0.0000000  -0.0000000  -0.0000000  -0.0000000  -0.0000000
 NQMom=    0.0000000   0.0000000   0.0000000   0.0000000   0.0000000   0.0000000   0.0000000   0.0000000   0.0000000   0.0000000
 NMagM=    0.0000000   0.0000000   0.0000000   0.0000000   0.0000000   0.0000000   0.0000000   2.7928460   2.7928460   2.7928460
 AtZNuc=   6.0000000   6.0000000   6.0000000   6.0000000   6.0000000   6.0000000   6.0000000   1.0000000   1.0000000   1.0000000

  Atom        11          12          13          14          15          16          17          18          19          20
 IAtWgt=           1           1           1           1           1           1           1           1           1           1
 AtmWgt=   1.0078250   1.0078250   1.0078250   1.0078250   1.0078250   1.0078250   1.0078250   1.0078250   1.0078250   1.0078250
 NucSpn=           1           1           1           1           1           1           1           1           1           1
 AtZEff=  -0.0000000  -0.0000000  -0.0000000  -0.0000000  -0.0000000  -0.0000000  -0.0000000  -0.0000000  -0.0000000  -0.0000000
 NQMom=    0.0000000   0.0000000   0.0000000   0.0000000   0.0000000   0.0000000   0.0000000   0.0000000   0.0000000   0.0000000
 NMagM=    2.7928460   2.7928460   2.7928460   2.7928460   2.7928460   2.7928460   2.7928460   2.7928460   2.7928460   2.7928460
 AtZNuc=   1.0000000   1.0000000   1.0000000   1.0000000   1.0000000   1.0000000   1.0000000   1.0000000   1.0000000   1.0000000

  Atom        21          22          23
 IAtWgt=           1           1           1
 AtmWgt=   1.0078250   1.0078250   1.0078250
 NucSpn=           1           1           1
 AtZEff=  -0.0000000  -0.0000000  -0.0000000
 NQMom=    0.0000000   0.0000000   0.0000000
 NMagM=    2.7928460   2.7928460   2.7928460
 AtZNuc=   1.0000000   1.0000000   1.0000000
 Leave Link  101 at Sat Sep 28 23:00:59 2019, MaxMem=   671088640 cpu:               3.0 elap:               1.5
 (Enter /shared/centos7/gaussian/g16/l103.exe)

 GradGradGradGradGradGradGradGradGradGradGradGradGradGradGradGradGradGrad
 Berny optimization.
 Initialization pass.
                           ----------------------------
                           !    Initial Parameters    !
                           ! (Angstroms and Degrees)  !
 --------------------------                            --------------------------
 ! Name  Definition              Value          Derivative Info.                !
 --------------------------------------------------------------------------------
 ! R1    R(1,2)                  1.4906         calculate D2E/DX2 analytically  !
 ! R2    R(1,4)                  1.4917         calculate D2E/DX2 analytically  !
 ! R3    R(1,10)                 1.1107         calculate D2E/DX2 analytically  !
 ! R4    R(1,11)                 1.1093         calculate D2E/DX2 analytically  !
 ! R5    R(2,3)                  1.5083         calculate D2E/DX2 analytically  !
 ! R6    R(2,12)                 1.1012         calculate D2E/DX2 analytically  !
 ! R7    R(2,13)                 1.1105         calculate D2E/DX2 analytically  !
 ! R8    R(3,5)                  1.5105         calculate D2E/DX2 analytically  !
 ! R9    R(3,14)                 1.1032         calculate D2E/DX2 analytically  !
 ! R10   R(3,15)                 1.1096         calculate D2E/DX2 analytically  !
 ! R11   R(4,6)                  1.473          calculate D2E/DX2 analytically  !
 ! R12   R(4,8)                  1.1266         calculate D2E/DX2 analytically  !
 ! R13   R(4,9)                  1.1161         calculate D2E/DX2 analytically  !
 ! R14   R(5,7)                  1.5066         calculate D2E/DX2 analytically  !
 ! R15   R(5,16)                 1.1214         calculate D2E/DX2 analytically  !
 ! R16   R(5,17)                 1.1033         calculate D2E/DX2 analytically  !
 ! R17   R(6,18)                 1.1063         calculate D2E/DX2 analytically  !
 ! R18   R(6,19)                 1.1303         calculate D2E/DX2 analytically  !
 ! R19   R(6,20)                 1.1106         calculate D2E/DX2 analytically  !
 ! R20   R(7,21)                 1.0907         calculate D2E/DX2 analytically  !
 ! R21   R(7,22)                 1.1251         calculate D2E/DX2 analytically  !
 ! R22   R(7,23)                 1.1278         calculate D2E/DX2 analytically  !
 ! A1    A(2,1,4)              121.5162         calculate D2E/DX2 analytically  !
 ! A2    A(2,1,10)             108.0815         calculate D2E/DX2 analytically  !
 ! A3    A(2,1,11)             105.9069         calculate D2E/DX2 analytically  !
 ! A4    A(4,1,10)             108.3241         calculate D2E/DX2 analytically  !
 ! A5    A(4,1,11)             106.7598         calculate D2E/DX2 analytically  !
 ! A6    A(10,1,11)            105.0973         calculate D2E/DX2 analytically  !
 ! A7    A(1,2,3)              116.7642         calculate D2E/DX2 analytically  !
 ! A8    A(1,2,12)             111.9081         calculate D2E/DX2 analytically  !
 ! A9    A(1,2,13)             105.223          calculate D2E/DX2 analytically  !
 ! A10   A(3,2,12)             111.1718         calculate D2E/DX2 analytically  !
 ! A11   A(3,2,13)             105.4638         calculate D2E/DX2 analytically  !
 ! A12   A(12,2,13)            105.2336         calculate D2E/DX2 analytically  !
 ! A13   A(2,3,5)              119.0695         calculate D2E/DX2 analytically  !
 ! A14   A(2,3,14)             107.6205         calculate D2E/DX2 analytically  !
 ! A15   A(2,3,15)             108.7692         calculate D2E/DX2 analytically  !
 ! A16   A(5,3,14)             106.4128         calculate D2E/DX2 analytically  !
 ! A17   A(5,3,15)             108.2009         calculate D2E/DX2 analytically  !
 ! A18   A(14,3,15)            106.0332         calculate D2E/DX2 analytically  !
 ! A19   A(1,4,6)              118.9762         calculate D2E/DX2 analytically  !
 ! A20   A(1,4,8)              107.8017         calculate D2E/DX2 analytically  !
 ! A21   A(1,4,9)              107.9106         calculate D2E/DX2 analytically  !
 ! A22   A(6,4,8)              108.7964         calculate D2E/DX2 analytically  !
 ! A23   A(6,4,9)              108.0922         calculate D2E/DX2 analytically  !
 ! A24   A(8,4,9)              104.3035         calculate D2E/DX2 analytically  !
 ! A25   A(3,5,7)              108.7684         calculate D2E/DX2 analytically  !
 ! A26   A(3,5,16)             110.0162         calculate D2E/DX2 analytically  !
 ! A27   A(3,5,17)             112.2892         calculate D2E/DX2 analytically  !
 ! A28   A(7,5,16)             109.2226         calculate D2E/DX2 analytically  !
 ! A29   A(7,5,17)             110.0317         calculate D2E/DX2 analytically  !
 ! A30   A(16,5,17)            106.464          calculate D2E/DX2 analytically  !
 ! A31   A(4,6,18)             111.9942         calculate D2E/DX2 analytically  !
 ! A32   A(4,6,19)             111.3687         calculate D2E/DX2 analytically  !
 ! A33   A(4,6,20)             111.1233         calculate D2E/DX2 analytically  !
 ! A34   A(18,6,19)            107.1665         calculate D2E/DX2 analytically  !
 ! A35   A(18,6,20)            108.9731         calculate D2E/DX2 analytically  !
 ! A36   A(19,6,20)            105.9506         calculate D2E/DX2 analytically  !
 ! A37   A(5,7,21)             110.5014         calculate D2E/DX2 analytically  !
 ! A38   A(5,7,22)             109.4177         calculate D2E/DX2 analytically  !
 ! A39   A(5,7,23)             111.3555         calculate D2E/DX2 analytically  !
 ! A40   A(21,7,22)            107.4302         calculate D2E/DX2 analytically  !
 ! A41   A(21,7,23)            108.2202         calculate D2E/DX2 analytically  !
 ! A42   A(22,7,23)            109.8285         calculate D2E/DX2 analytically  !
 ! D1    D(4,1,2,3)             87.0196         calculate D2E/DX2 analytically  !
 ! D2    D(4,1,2,12)           -42.684          calculate D2E/DX2 analytically  !
 ! D3    D(4,1,2,13)          -156.4464         calculate D2E/DX2 analytically  !
 ! D4    D(10,1,2,3)           -39.0063         calculate D2E/DX2 analytically  !
 ! D5    D(10,1,2,12)         -168.71           calculate D2E/DX2 analytically  !
 ! D6    D(10,1,2,13)           77.5277         calculate D2E/DX2 analytically  !
 ! D7    D(11,1,2,3)          -151.2128         calculate D2E/DX2 analytically  !
 ! D8    D(11,1,2,12)           79.0835         calculate D2E/DX2 analytically  !
 ! D9    D(11,1,2,13)          -34.6788         calculate D2E/DX2 analytically  !
 ! D10   D(2,1,4,6)             -8.6976         calculate D2E/DX2 analytically  !
 ! D11   D(2,1,4,8)           -133.0752         calculate D2E/DX2 analytically  !
 ! D12   D(2,1,4,9)            114.8093         calculate D2E/DX2 analytically  !
 ! D13   D(10,1,4,6)           117.2184         calculate D2E/DX2 analytically  !
 ! D14   D(10,1,4,8)            -7.1592         calculate D2E/DX2 analytically  !
 ! D15   D(10,1,4,9)          -119.2747         calculate D2E/DX2 analytically  !
 ! D16   D(11,1,4,6)          -130.0583         calculate D2E/DX2 analytically  !
 ! D17   D(11,1,4,8)           105.5641         calculate D2E/DX2 analytically  !
 ! D18   D(11,1,4,9)            -6.5514         calculate D2E/DX2 analytically  !
 ! D19   D(1,2,3,5)            -92.8646         calculate D2E/DX2 analytically  !
 ! D20   D(1,2,3,14)           146.0876         calculate D2E/DX2 analytically  !
 ! D21   D(1,2,3,15)            31.6313         calculate D2E/DX2 analytically  !
 ! D22   D(12,2,3,5)            37.1869         calculate D2E/DX2 analytically  !
 ! D23   D(12,2,3,14)          -83.8609         calculate D2E/DX2 analytically  !
 ! D24   D(12,2,3,15)          161.6828         calculate D2E/DX2 analytically  !
 ! D25   D(13,2,3,5)           150.7341         calculate D2E/DX2 analytically  !
 ! D26   D(13,2,3,14)           29.6863         calculate D2E/DX2 analytically  !
 ! D27   D(13,2,3,15)          -84.77           calculate D2E/DX2 analytically  !
 ! D28   D(2,3,5,7)            169.7028         calculate D2E/DX2 analytically  !
 ! D29   D(2,3,5,16)           -70.7017         calculate D2E/DX2 analytically  !
 ! D30   D(2,3,5,17)            47.6782         calculate D2E/DX2 analytically  !
 ! D31   D(14,3,5,7)           -68.6427         calculate D2E/DX2 analytically  !
 ! D32   D(14,3,5,16)           50.9528         calculate D2E/DX2 analytically  !
 ! D33   D(14,3,5,17)          169.3327         calculate D2E/DX2 analytically  !
 ! D34   D(15,3,5,7)            44.9319         calculate D2E/DX2 analytically  !
 ! D35   D(15,3,5,16)          164.5274         calculate D2E/DX2 analytically  !
 ! D36   D(15,3,5,17)          -77.0927         calculate D2E/DX2 analytically  !
 ! D37   D(1,4,6,18)             3.0342         calculate D2E/DX2 analytically  !
 ! D38   D(1,4,6,19)           123.0244         calculate D2E/DX2 analytically  !
 ! D39   D(1,4,6,20)          -119.1028         calculate D2E/DX2 analytically  !
 ! D40   D(8,4,6,18)           126.9266         calculate D2E/DX2 analytically  !
 ! D41   D(8,4,6,19)          -113.0833         calculate D2E/DX2 analytically  !
 ! D42   D(8,4,6,20)             4.7896         calculate D2E/DX2 analytically  !
 ! D43   D(9,4,6,18)          -120.3834         calculate D2E/DX2 analytically  !
 ! D44   D(9,4,6,19)            -0.3932         calculate D2E/DX2 analytically  !
 ! D45   D(9,4,6,20)           117.4796         calculate D2E/DX2 analytically  !
 ! D46   D(3,5,7,21)            43.0864         calculate D2E/DX2 analytically  !
 ! D47   D(3,5,7,22)           -75.0059         calculate D2E/DX2 analytically  !
 ! D48   D(3,5,7,23)           163.3927         calculate D2E/DX2 analytically  !
 ! D49   D(16,5,7,21)          -77.0022         calculate D2E/DX2 analytically  !
 ! D50   D(16,5,7,22)          164.9055         calculate D2E/DX2 analytically  !
 ! D51   D(16,5,7,23)           43.304          calculate D2E/DX2 analytically  !
 ! D52   D(17,5,7,21)          166.472          calculate D2E/DX2 analytically  !
 ! D53   D(17,5,7,22)           48.3797         calculate D2E/DX2 analytically  !
 ! D54   D(17,5,7,23)          -73.2217         calculate D2E/DX2 analytically  !
 --------------------------------------------------------------------------------
 Trust Radius=3.00D-01 FncErr=1.00D-07 GrdErr=1.00D-06 EigMax=2.50D+02 EigMin=1.00D-04
 Number of steps in this run=    138 maximum allowed number of steps=    138.
 GradGradGradGradGradGradGradGradGradGradGradGradGradGradGradGradGradGrad

 Leave Link  103 at Sat Sep 28 23:01:00 2019, MaxMem=   671088640 cpu:               1.7 elap:               0.8
 (Enter /shared/centos7/gaussian/g16/l202.exe)
                          Input orientation:                          
 ---------------------------------------------------------------------
 Center     Atomic      Atomic             Coordinates (Angstroms)
 Number     Number       Type             X           Y           Z
 ---------------------------------------------------------------------
      1          6           0        1.585977   -0.778645    0.753773
      2          6           0        0.255621   -0.106929    0.723536
      3          6           0       -0.666605   -0.477226   -0.411083
      4          6           0        2.755580   -0.225997    0.011052
      5          6           0       -0.652983    0.357231   -1.670129
      6          6           0        2.544438    0.895844   -0.919796
      7          6           0       -1.456560   -0.350900   -2.729723
      8          1           0        3.241030   -1.075084   -0.547988
      9          1           0        3.522229    0.084882    0.760292
     10          1           0        1.445091   -1.836494    0.446069
     11          1           0        1.878835   -0.825224    1.822749
     12          1           0        0.344891    0.986156    0.822947
     13          1           0       -0.261607   -0.442650    1.647128
     14          1           0       -1.699933   -0.443727   -0.026070
     15          1           0       -0.478880   -1.533714   -0.693461
     16          1           0       -1.109820    1.361589   -1.469918
     17          1           0        0.370655    0.546570   -2.035610
     18          1           0        1.494628    1.244799   -0.916726
     19          1           0        3.191468    1.782400   -0.649785
     20          1           0        2.828566    0.614976   -1.956076
     21          1           0       -2.377728   -0.752576   -2.305831
     22          1           0       -0.863751   -1.218851   -3.131093
     23          1           0       -1.730984    0.347057   -3.572001
 ---------------------------------------------------------------------
                    Distance matrix (angstroms):
                    1          2          3          4          5
     1  C    0.000000
     2  C    1.490625   0.000000
     3  C    2.553795   1.508304   0.000000
     4  C    1.491652   2.602231   3.457263   0.000000
     5  C    3.489765   2.602045   1.510531   3.845105   0.000000
     6  C    2.554094   2.990782   3.529151   1.472952   3.328153
     7  C    4.644863   3.862135   2.452770   5.026886   1.506627
     8  H    2.126419   3.386261   3.955476   1.126559   4.298146
     9  H    2.120092   3.272440   4.385705   1.116134   4.838751
    10  H    1.110665   2.117362   2.653597   2.121397   3.700357
    11  H    1.109344   2.087831   3.404463   2.100000   4.473086
    12  H    2.158611   1.101220   2.165050   2.817784   2.758029
    13  H    2.079554   1.110520   2.097963   3.439056   3.434702
    14  H    3.393749   2.121211   1.103233   4.460985   2.107265
    15  H    2.632157   2.140815   1.109570   3.559241   2.135385
    16  H    4.097893   2.971905   2.167675   4.433399   1.121392
    17  H    3.318714   2.837812   2.182465   3.236287   1.103295
    18  H    2.625498   2.460237   2.809266   2.148026   2.442873
    19  H    3.332646   3.751636   4.477457   2.158787   4.225165
    20  H    3.290820   3.784378   3.974435   2.140598   3.502768
    21  H    5.007277   4.065521   2.567846   5.656509   2.147216
    22  H    4.613799   4.165037   2.826187   4.894732   2.159369
    23  H    5.566126   4.754403   3.435659   5.770262   2.186162
                    6          7          8          9         10
     6  C    0.000000
     7  C    4.564887   0.000000
     8  H    2.123214   5.229892   0.000000
     9  H    2.106284   6.095773   1.770929   0.000000
    10  H    3.246510   4.551069   2.189359   2.846915   0.000000
    11  H    3.305549   5.663466   2.745615   2.158205   1.762399
    12  H    2.807724   4.201715   3.809959   3.303285   3.052840
    13  H    4.031694   4.537968   4.181743   3.922013   2.509614
    14  H    4.539590   2.716171   5.008405   5.307426   3.471872
    15  H    3.885155   2.549760   3.750898   4.554352   2.256516
    16  H    3.724668   2.154056   5.071216   5.297140   4.519548
    17  H    2.468271   2.150805   3.616881   4.238235   3.604461
    18  H    1.106291   3.813493   2.927071   2.875580   3.369575
    19  H    1.130281   5.520986   2.859726   2.231431   4.164988
    20  H    1.110627   4.460242   2.238111   2.853213   3.700542
    21  H    5.372718   1.090678   5.896140   6.701637   4.833403
    22  H    4.580123   1.125104   4.852044   6.006615   4.302131
    23  H    5.061086   1.127778   5.990665   6.814231   5.567786
                   11         12         13         14         15
    11  H    0.000000
    12  H    2.575594   0.000000
    13  H    2.181444   1.757442   0.000000
    14  H    4.046140   2.635660   2.206439   0.000000
    15  H    3.520240   3.054151   2.591521   1.767612   0.000000
    16  H    4.955388   2.741234   3.700097   2.385811   3.063292
    17  H    4.363869   2.892273   3.865342   3.050618   2.617376
    18  H    3.455045   2.101250   3.536269   3.721507   3.415365
    19  H    3.825720   3.302415   4.706420   5.410219   4.946714
    20  H    4.153996   3.745582   4.863212   5.035184   4.141288
    21  H    5.930327   4.497232   4.494430   2.398354   2.610659
    22  H    5.676026   4.685862   4.878162   3.307746   2.487834
    23  H    6.596087   4.902374   5.479234   3.633171   3.659380
                   16         17         18         19         20
    16  H    0.000000
    17  H    1.782153   0.000000
    18  H    2.665110   1.732842   0.000000
    19  H    4.398953   3.377096   1.799872   0.000000
    20  H    4.037904   2.460149   1.804527   1.789126   0.000000
    21  H    2.603082   3.051952   4.573212   6.339128   5.394259
    22  H    3.078754   2.416724   4.066319   5.622206   4.286817
    23  H    2.415341   2.610975   4.273289   5.901702   4.844842
                   21         22         23
    21  H    0.000000
    22  H    1.786224   0.000000
    23  H    1.797403   1.843518   0.000000
 Stoichiometry    C7H16
 Framework group  C1[X(C7H16)]
 Deg. of freedom    63
 Full point group                 C1      NOp   1
 Largest Abelian subgroup         C1      NOp   1
 Largest concise Abelian subgroup C1      NOp   1
                         Standard orientation:                         
 ---------------------------------------------------------------------
 Center     Atomic      Atomic             Coordinates (Angstroms)
 Number     Number       Type             X           Y           Z
 ---------------------------------------------------------------------
      1          6           0       -1.528167   -0.930335    0.391809
      2          6           0       -0.401976   -1.246802   -0.532044
      3          6           0        0.989191   -0.937705   -0.037983
      4          6           0       -2.155907    0.422477    0.421286
      5          6           0        1.606383    0.399879   -0.372118
      6          6           0       -1.528521    1.516966   -0.339022
      7          6           0        2.868919    0.565887    0.433097
      8          1           0       -2.248289    0.735881    1.499423
      9          1           0       -3.211184    0.318868    0.072846
     10          1           0       -1.210933   -1.190638    1.423885
     11          1           0       -2.334404   -1.651830    0.146714
     12          1           0       -0.567657   -0.832598   -1.538856
     13          1           0       -0.432054   -2.349338   -0.661523
     14          1           0        1.667425   -1.705132   -0.448079
     15          1           0        1.013149   -1.064861    1.064016
     16          1           0        1.856441    0.445120   -1.464338
     17          1           0        0.918520    1.239384   -0.173788
     18          1           0       -0.647641    1.171440   -0.912207
     19          1           0       -2.251435    1.970993   -1.079825
     20          1           0       -1.219704    2.345470    0.333070
     21          1           0        3.446285   -0.359438    0.433323
     22          1           0        2.603361    0.797693    1.501556
     23          1           0        3.518585    1.386785    0.013639
 ---------------------------------------------------------------------
 Rotational constants (GHZ):           3.7851830           1.4331306           1.1746366
 Leave Link  202 at Sat Sep 28 23:01:02 2019, MaxMem=   671088640 cpu:               3.9 elap:               2.0
 (Enter /shared/centos7/gaussian/g16/l301.exe)
 Standard basis: CC-pVTZ (5D, 7F)
 Ernie: Thresh=  0.10000D-02 Tol=  0.10000D-05 Strict=F.
 Ernie:  21 primitive shells out of 310 were deleted.
 There are   485 symmetry adapted cartesian basis functions of A   symmetry.
 There are   434 symmetry adapted basis functions of A   symmetry.
   434 basis functions,   636 primitive gaussians,   485 cartesian basis functions
    29 alpha electrons       29 beta electrons
       nuclear repulsion energy       328.8339930972 Hartrees.
 IExCor= 4336 DFT=T Ex+Corr=M062X ExCW=0 ScaHFX=  0.540000
 ScaDFX=  1.000000  1.000000  1.000000  1.000000 ScalE2=  1.000000  1.000000
 IRadAn=      5 IRanWt=     -1 IRanGd=            0 ICorTp=0 IEmpDi=  4
 NAtoms=   23 NActive=   23 NUniq=   23 SFac= 1.00D+00 NAtFMM=   60 NAOKFM=F Big=F
 Integral buffers will be    131072 words long.
 Raffenetti 2 integral format.
 Two-electron integral symmetry is turned on.
 Leave Link  301 at Sat Sep 28 23:01:03 2019, MaxMem=   671088640 cpu:               1.7 elap:               0.9
 (Enter /shared/centos7/gaussian/g16/l302.exe)
 NPDir=0 NMtPBC=     1 NCelOv=     1 NCel=       1 NClECP=     1 NCelD=      1
         NCelK=      1 NCelE2=     1 NClLst=     1 CellRange=     0.0.
 One-electron integrals computed using PRISM.
 One-electron integral symmetry used in STVInt
 NBasis=   434 RedAO= T EigKep=  2.31D-04  NBF=   434
 NBsUse=   434 1.00D-06 EigRej= -1.00D+00 NBFU=   434
 Precomputing XC quadrature grid using
 IXCGrd= 4 IRadAn=           5 IRanWt=          -1 IRanGd=           0 AccXCQ= 0.00D+00.
 Generated NRdTot=       0 NPtTot=           0 NUsed=           0 NTot=          32
 NSgBfM=   485   485   485   485   485 MxSgAt=    23 MxSgA2=    23.
 Leave Link  302 at Sat Sep 28 23:02:18 2019, MaxMem=   671088640 cpu:             149.3 elap:              74.7
 (Enter /shared/centos7/gaussian/g16/l303.exe)
 DipDrv:  MaxL=1.
 Leave Link  303 at Sat Sep 28 23:02:23 2019, MaxMem=   671088640 cpu:              10.0 elap:               5.0
 (Enter /shared/centos7/gaussian/g16/l401.exe)
 ExpMin= 1.03D-01 ExpMax= 8.24D+03 ExpMxC= 2.81D+02 IAcc=3 IRadAn=         5 AccDes= 0.00D+00
 Harris functional with IExCor= 1009 and IRadAn=       5 diagonalized for initial guess.
 HarFok:  IExCor= 1009 AccDes= 0.00D+00 IRadAn=         5 IDoV= 1 UseB2=F ITyADJ=14
 ICtDFT=  3500011 ScaDFX=  1.000000  1.000000  1.000000  1.000000
 FoFCou: FMM=F IPFlag=           0 FMFlag=      100000 FMFlg1=           0
         NFxFlg=           0 DoJE=T BraDBF=F KetDBF=T FulRan=T
         wScrn=  0.000000 ICntrl=       500 IOpCl=  0 I1Cent=   200000004 NGrid=           0
         NMat0=    1 NMatS0=      1 NMatT0=    0 NMatD0=    1 NMtDS0=    0 NMtDT0=    0
 Petite list used in FoFCou.
 Harris En= -276.311031123014    
 JPrj=0 DoOrth=F DoCkMO=F.
 Leave Link  401 at Sat Sep 28 23:03:15 2019, MaxMem=   671088640 cpu:             104.8 elap:              52.4
 (Enter /shared/centos7/gaussian/g16/l502.exe)
 Integral symmetry usage will be decided dynamically.
 Closed shell SCF:
 Using DIIS extrapolation, IDIIS=  1040.
 NGot=   671088640 LenX=   670604095 LenY=   670368385
 Requested convergence on RMS density matrix=1.00D-08 within 900 cycles.
 Requested convergence on MAX density matrix=1.00D-06.
 Requested convergence on             energy=1.00D-06.
 No special actions if energy rises.
 Fock matrices will be formed incrementally for  20 cycles.
 Integral accuracy reduced to 1.0D-05 until final iterations.

 Cycle   1  Pass 0  IDiag  1:
 FoFJK:  IHMeth= 1 ICntrl=       0 DoSepK=F KAlg= 0 I1Cent=           0 FoldK=F
 IRaf= 940000000 NMat=       1 IRICut=       1 DoRegI=T DoRafI=F ISym2E= 0 IDoP0=0 IntGTp=1.
 FoFCou: FMM=F IPFlag=           0 FMFlag=      100000 FMFlg1=           0
         NFxFlg=           0 DoJE=F BraDBF=F KetDBF=F FulRan=T
         wScrn=  0.000000 ICntrl=         0 IOpCl=  0 I1Cent=           0 NGrid=           0
         NMat0=    1 NMatS0=      1 NMatT0=    0 NMatD0=    1 NMtDS0=    0 NMtDT0=    0
 Symmetry not used in FoFCou.
 E= -275.941693760039    
 DIIS: error= 2.47D-02 at cycle   1 NSaved=   1.
 NSaved= 1 IEnMin= 1 EnMin= -275.941693760039     IErMin= 1 ErrMin= 2.47D-02
 ErrMax= 2.47D-02  0.00D+00 EMaxC= 1.00D-01 BMatC= 3.74D-01 BMatP= 3.74D-01
 IDIUse=3 WtCom= 7.53D-01 WtEn= 2.47D-01
 Coeff-Com:  0.100D+01
 Coeff-En:   0.100D+01
 Coeff:      0.100D+01
 Gap=     0.353 Goal=   None    Shift=    0.000
 GapD=    0.353 DampG=1.000 DampE=0.500 DampFc=0.5000 IDamp=-1.
 Damping current iteration by 5.00D-01
 RMSDP=1.93D-03 MaxDP=6.98D-02              OVMax= 1.67D-01

 Cycle   2  Pass 0  IDiag  1:
 RMSU=  9.61D-04    CP:  9.91D-01
 E= -276.119527107402     Delta-E=       -0.177833347363 Rises=F Damp=T
 DIIS: error= 3.95D-03 at cycle   2 NSaved=   2.
 NSaved= 2 IEnMin= 2 EnMin= -276.119527107402     IErMin= 2 ErrMin= 3.95D-03
 ErrMax= 3.95D-03  0.00D+00 EMaxC= 1.00D-01 BMatC= 1.90D-02 BMatP= 3.74D-01
 IDIUse=3 WtCom= 9.60D-01 WtEn= 3.95D-02
 Coeff-Com: -0.517D-01 0.105D+01
 Coeff-En:   0.000D+00 0.100D+01
 Coeff:     -0.496D-01 0.105D+01
 Gap=     0.430 Goal=   None    Shift=    0.000
 RMSDP=5.43D-04 MaxDP=1.71D-02 DE=-1.78D-01 OVMax= 8.93D-02

 Cycle   3  Pass 0  IDiag  1:
 RMSU=  5.35D-04    CP:  9.98D-01  9.21D-01
 E= -276.297804527210     Delta-E=       -0.178277419808 Rises=F Damp=F
 DIIS: error= 3.41D-03 at cycle   3 NSaved=   3.
 NSaved= 3 IEnMin= 3 EnMin= -276.297804527210     IErMin= 3 ErrMin= 3.41D-03
 ErrMax= 3.41D-03  0.00D+00 EMaxC= 1.00D-01 BMatC= 3.22D-03 BMatP= 1.90D-02
 IDIUse=3 WtCom= 9.66D-01 WtEn= 3.41D-02
 Coeff-Com: -0.529D-01 0.266D+00 0.787D+00
 Coeff-En:   0.000D+00 0.000D+00 0.100D+01
 Coeff:     -0.511D-01 0.257D+00 0.795D+00
 Gap=     0.401 Goal=   None    Shift=    0.000
 RMSDP=1.08D-04 MaxDP=3.17D-03 DE=-1.78D-01 OVMax= 1.17D-02

 Cycle   4  Pass 0  IDiag  1:
 RMSU=  8.70D-05    CP:  9.97D-01  9.69D-01  9.20D-01
 E= -276.300594007185     Delta-E=       -0.002789479974 Rises=F Damp=F
 DIIS: error= 8.00D-04 at cycle   4 NSaved=   4.
 NSaved= 4 IEnMin= 4 EnMin= -276.300594007185     IErMin= 4 ErrMin= 8.00D-04
 ErrMax= 8.00D-04  0.00D+00 EMaxC= 1.00D-01 BMatC= 3.42D-04 BMatP= 3.22D-03
 IDIUse=3 WtCom= 9.92D-01 WtEn= 8.00D-03
 Coeff-Com: -0.139D-01 0.396D-01 0.281D+00 0.694D+00
 Coeff-En:   0.000D+00 0.000D+00 0.000D+00 0.100D+01
 Coeff:     -0.138D-01 0.392D-01 0.278D+00 0.696D+00
 Gap=     0.401 Goal=   None    Shift=    0.000
 RMSDP=3.36D-05 MaxDP=1.62D-03 DE=-2.79D-03 OVMax= 3.26D-03

 Cycle   5  Pass 0  IDiag  1:
 RMSU=  1.89D-05    CP:  9.97D-01  9.62D-01  9.54D-01  7.69D-01
 E= -276.300907846795     Delta-E=       -0.000313839611 Rises=F Damp=F
 DIIS: error= 1.77D-04 at cycle   5 NSaved=   5.
 NSaved= 5 IEnMin= 5 EnMin= -276.300907846795     IErMin= 5 ErrMin= 1.77D-04
 ErrMax= 1.77D-04  0.00D+00 EMaxC= 1.00D-01 BMatC= 1.96D-05 BMatP= 3.42D-04
 IDIUse=3 WtCom= 9.98D-01 WtEn= 1.77D-03
 Coeff-Com: -0.179D-02 0.129D-02 0.585D-01 0.252D+00 0.690D+00
 Coeff-En:   0.000D+00 0.000D+00 0.000D+00 0.000D+00 0.100D+01
 Coeff:     -0.178D-02 0.129D-02 0.584D-01 0.252D+00 0.690D+00
 Gap=     0.401 Goal=   None    Shift=    0.000
 RMSDP=6.88D-06 MaxDP=4.68D-04 DE=-3.14D-04 OVMax= 9.05D-04

 Initial convergence to 1.0D-05 achieved.  Increase integral accuracy.
 Cycle   6  Pass 1  IDiag  1:
 E= -276.300845765293     Delta-E=        0.000062081502 Rises=F Damp=F
 DIIS: error= 6.53D-05 at cycle   1 NSaved=   1.
 NSaved= 1 IEnMin= 1 EnMin= -276.300845765293     IErMin= 1 ErrMin= 6.53D-05
 ErrMax= 6.53D-05  0.00D+00 EMaxC= 1.00D-01 BMatC= 1.88D-06 BMatP= 1.88D-06
 IDIUse=1 WtCom= 1.00D+00 WtEn= 0.00D+00
 Coeff-Com:  0.100D+01
 Coeff:      0.100D+01
 Gap=     0.401 Goal=   None    Shift=    0.000
 RMSDP=6.88D-06 MaxDP=4.68D-04 DE= 6.21D-05 OVMax= 2.62D-04

 Cycle   7  Pass 1  IDiag  1:
 RMSU=  1.73D-05    CP:  1.00D+00
 E= -276.300846786262     Delta-E=       -0.000001020969 Rises=F Damp=F
 DIIS: error= 2.48D-05 at cycle   2 NSaved=   2.
 NSaved= 2 IEnMin= 2 EnMin= -276.300846786262     IErMin= 2 ErrMin= 2.48D-05
 ErrMax= 2.48D-05  0.00D+00 EMaxC= 1.00D-01 BMatC= 4.37D-07 BMatP= 1.88D-06
 IDIUse=1 WtCom= 1.00D+00 WtEn= 0.00D+00
 Coeff-Com:  0.273D+00 0.727D+00
 Coeff:      0.273D+00 0.727D+00
 Gap=     0.401 Goal=   None    Shift=    0.000
 RMSDP=1.39D-06 MaxDP=7.62D-05 DE=-1.02D-06 OVMax= 1.48D-04

 Cycle   8  Pass 1  IDiag  1:
 RMSU=  1.37D-06    CP:  1.00D+00  1.01D+00
 E= -276.300847141951     Delta-E=       -0.000000355689 Rises=F Damp=F
 DIIS: error= 9.90D-06 at cycle   3 NSaved=   3.
 NSaved= 3 IEnMin= 3 EnMin= -276.300847141951     IErMin= 3 ErrMin= 9.90D-06
 ErrMax= 9.90D-06  0.00D+00 EMaxC= 1.00D-01 BMatC= 8.17D-08 BMatP= 4.37D-07
 IDIUse=1 WtCom= 1.00D+00 WtEn= 0.00D+00
 Coeff-Com: -0.530D-02 0.292D+00 0.713D+00
 Coeff:     -0.530D-02 0.292D+00 0.713D+00
 Gap=     0.401 Goal=   None    Shift=    0.000
 RMSDP=4.91D-07 MaxDP=2.34D-05 DE=-3.56D-07 OVMax= 4.73D-05

 Cycle   9  Pass 1  IDiag  1:
 RMSU=  3.07D-07    CP:  1.00D+00  1.03D+00  7.82D-01
 E= -276.300847220273     Delta-E=       -0.000000078322 Rises=F Damp=F
 DIIS: error= 2.98D-06 at cycle   4 NSaved=   4.
 NSaved= 4 IEnMin= 4 EnMin= -276.300847220273     IErMin= 4 ErrMin= 2.98D-06
 ErrMax= 2.98D-06  0.00D+00 EMaxC= 1.00D-01 BMatC= 2.42D-09 BMatP= 8.17D-08
 IDIUse=1 WtCom= 1.00D+00 WtEn= 0.00D+00
 Coeff-Com: -0.111D-01 0.812D-01 0.254D+00 0.675D+00
 Coeff:     -0.111D-01 0.812D-01 0.254D+00 0.675D+00
 Gap=     0.401 Goal=   None    Shift=    0.000
 RMSDP=9.20D-08 MaxDP=3.18D-06 DE=-7.83D-08 OVMax= 9.55D-06

 Cycle  10  Pass 1  IDiag  1:
 RMSU=  8.58D-08    CP:  1.00D+00  1.03D+00  7.81D-01  9.01D-01
 E= -276.300847222697     Delta-E=       -0.000000002424 Rises=F Damp=F
 DIIS: error= 4.03D-07 at cycle   5 NSaved=   5.
 NSaved= 5 IEnMin= 5 EnMin= -276.300847222697     IErMin= 5 ErrMin= 4.03D-07
 ErrMax= 4.03D-07  0.00D+00 EMaxC= 1.00D-01 BMatC= 7.76D-11 BMatP= 2.42D-09
 IDIUse=1 WtCom= 1.00D+00 WtEn= 0.00D+00
 Coeff-Com: -0.595D-03-0.160D-01-0.345D-01 0.615D-01 0.990D+00
 Coeff:     -0.595D-03-0.160D-01-0.345D-01 0.615D-01 0.990D+00
 Gap=     0.401 Goal=   None    Shift=    0.000
 RMSDP=3.47D-08 MaxDP=8.60D-07 DE=-2.42D-09 OVMax= 2.56D-06

 Cycle  11  Pass 1  IDiag  1:
 RMSU=  1.91D-08    CP:  1.00D+00  1.03D+00  7.84D-01  9.90D-01  1.11D+00
 E= -276.300847222782     Delta-E=       -0.000000000086 Rises=F Damp=F
 DIIS: error= 1.77D-07 at cycle   6 NSaved=   6.
 NSaved= 6 IEnMin= 6 EnMin= -276.300847222782     IErMin= 6 ErrMin= 1.77D-07
 ErrMax= 1.77D-07  0.00D+00 EMaxC= 1.00D-01 BMatC= 1.95D-11 BMatP= 7.76D-11
 IDIUse=1 WtCom= 1.00D+00 WtEn= 0.00D+00
 Coeff-Com:  0.470D-03-0.125D-01-0.322D-01-0.185D-01 0.435D+00 0.628D+00
 Coeff:      0.470D-03-0.125D-01-0.322D-01-0.185D-01 0.435D+00 0.628D+00
 Gap=     0.401 Goal=   None    Shift=    0.000
 RMSDP=7.09D-09 MaxDP=2.87D-07 DE=-8.56D-11 OVMax= 7.65D-07

 SCF Done:  E(RM062X) =  -276.300847223     A.U. after   11 cycles
            NFock= 11  Conv=0.71D-08     -V/T= 2.0064
 KE= 2.745327535340D+02 PE=-1.296130689801D+03 EE= 4.164630959470D+02
 Leave Link  502 at Sat Sep 28 23:25:22 2019, MaxMem=   671088640 cpu:            2653.5 elap:            1327.1
 (Enter /shared/centos7/gaussian/g16/l801.exe)
 DoSCS=F DFT=T ScalE2(SS,OS)=  1.000000  1.000000
 Range of M.O.s used for correlation:     1   434
 NBasis=   434 NAE=    29 NBE=    29 NFC=     0 NFV=     0
 NROrb=    434 NOA=    29 NOB=    29 NVA=   405 NVB=   405

 **** Warning!!: The largest alpha MO coefficient is  0.11063155D+02

 Leave Link  801 at Sat Sep 28 23:25:23 2019, MaxMem=   671088640 cpu:               1.6 elap:               0.8
 (Enter /shared/centos7/gaussian/g16/l1101.exe)
 Using compressed storage, NAtomX=    23.
 Will process     24 centers per pass.
 Leave Link 1101 at Sat Sep 28 23:26:04 2019, MaxMem=   671088640 cpu:              81.6 elap:              40.8
 (Enter /shared/centos7/gaussian/g16/l1102.exe)
 Symmetrizing basis deriv contribution to polar:
 IMax=3 JMax=2 DiffMx= 0.00D+00
 Leave Link 1102 at Sat Sep 28 23:26:07 2019, MaxMem=   671088640 cpu:               6.2 elap:               3.1
 (Enter /shared/centos7/gaussian/g16/l1110.exe)
 Forming Gx(P) for the SCF density, NAtomX=    23.
 Integral derivatives from FoFJK, PRISM(SPDF).
 Do as many integral derivatives as possible in FoFJK.
 G2DrvN: MDV=     671086848.
 G2DrvN: will do    24 centers at a time, making    1 passes.
 Calling FoFCou, ICntrl=  3107 FMM=F I1Cent=   0 AccDes= 0.00D+00.
 FoFJK:  IHMeth= 1 ICntrl=    3107 DoSepK=F KAlg= 0 I1Cent=           0 FoldK=F
 IRaf=         0 NMat=       1 IRICut=       1 DoRegI=T DoRafI=F ISym2E= 0 IDoP0=0 IntGTp=1.
 FoFCou: FMM=F IPFlag=           0 FMFlag=      100000 FMFlg1=           0
         NFxFlg=           0 DoJE=F BraDBF=F KetDBF=F FulRan=T
         wScrn=  0.000000 ICntrl=      3107 IOpCl=  0 I1Cent=           0 NGrid=           0
         NMat0=    1 NMatS0=      1 NMatT0=    0 NMatD0=    1 NMtDS0=    0 NMtDT0=    0
 Symmetry not used in FoFCou.
 End of G2Drv F.D. properties file   721 does not exist.
 End of G2Drv F.D. properties file   722 does not exist.
 End of G2Drv F.D. properties file   788 does not exist.
 Leave Link 1110 at Sun Sep 29 00:22:56 2019, MaxMem=   671088640 cpu:            6816.4 elap:            3408.8
 (Enter /shared/centos7/gaussian/g16/l1002.exe)
 Minotr:  Closed shell wavefunction.
          IDoAtm=11111111111111111111111
          Direct CPHF calculation.
          Differentiating once with respect to nuclear coordinates.
          Requested convergence is 1.0D-08 RMS, and 1.0D-07 maximum.
          Secondary convergence is 1.0D-12 RMS, and 1.0D-12 maximum.
          NewPWx=T KeepS1=F KeepF1=F KeepIn=T MapXYZ=F SortEE=F KeepMc=T.
         6911 words used for storage of precomputed grid.
 Two-electron integrals replicated using symmetry.
          MDV=     671088640 using IRadAn=       1.
          Solving linear equations simultaneously, MaxMat=     380.
 FoF2E skips out because all densities are zero.
 CalDSu exits because no D1Ps are significant.
 FoFJK:  IHMeth= 1 ICntrl=       0 DoSepK=F KAlg= 0 I1Cent=           0 FoldK=F
 IRaf= 930000000 NMat=      69 IRICut=     172 DoRegI=T DoRafI=T ISym2E= 2 IDoP0=3 IntGTp=3.
 FoFCou: FMM=F IPFlag=           0 FMFlag=      100000 FMFlg1=           0
         NFxFlg=           0 DoJE=F BraDBF=F KetDBF=F FulRan=T
         wScrn=  0.000000 ICntrl=         0 IOpCl=  0 I1Cent=           0 NGrid=           0
         NMat0=   69 NMatS0=     69 NMatT0=    0 NMatD0=   69 NMtDS0=    0 NMtDT0=    0
 Integrals replicated using symmetry in FoFCou.
 Raff kept on since  89.05% of shell-pairs survive, threshold=   0.20 IRatSp=89.
          There are    72 degrees of freedom in the 1st order CPHF.  IDoFFX=6 NUNeed=     0.
     66 vectors produced by pass  0 Test12= 1.63D-14 1.39D-09 XBig12= 5.51D-02 3.49D-02.
 AX will form    66 AO Fock derivatives at one time.
     66 vectors produced by pass  1 Test12= 1.63D-14 1.39D-09 XBig12= 3.48D-03 6.97D-03.
     66 vectors produced by pass  2 Test12= 1.63D-14 1.39D-09 XBig12= 5.97D-05 1.12D-03.
     66 vectors produced by pass  3 Test12= 1.63D-14 1.39D-09 XBig12= 4.76D-07 7.18D-05.
     66 vectors produced by pass  4 Test12= 1.63D-14 1.39D-09 XBig12= 2.08D-09 4.52D-06.
     66 vectors produced by pass  5 Test12= 1.63D-14 1.39D-09 XBig12= 1.02D-11 3.48D-07.
     22 vectors produced by pass  6 Test12= 1.63D-14 1.39D-09 XBig12= 3.61D-14 1.90D-08.
 InvSVY:  IOpt=1 It=  1 EMax= 3.89D-16
 Solved reduced A of dimension   418 with    72 vectors.
 End of Minotr F.D. properties file   721 does not exist.
 End of Minotr F.D. properties file   722 does not exist.
 End of Minotr F.D. properties file   788 does not exist.
 Leave Link 1002 at Sun Sep 29 01:56:33 2019, MaxMem=   671088640 cpu:           11233.2 elap:            5617.7
 (Enter /shared/centos7/gaussian/g16/l601.exe)
 Copying SCF densities to generalized density rwf, IOpCl= 0 IROHF=0.

 **********************************************************************

            Population analysis using the SCF density.

 **********************************************************************

 Orbital symmetries:
       Occupied  (A) (A) (A) (A) (A) (A) (A) (A) (A) (A) (A) (A)
                 (A) (A) (A) (A) (A) (A) (A) (A) (A) (A) (A) (A)
                 (A) (A) (A) (A) (A)
       Virtual   (A) (A) (A) (A) (A) (A) (A) (A) (A) (A) (A) (A)
                 (A) (A) (A) (A) (A) (A) (A) (A) (A) (A) (A) (A)
                 (A) (A) (A) (A) (A) (A) (A) (A) (A) (A) (A) (A)
                 (A) (A) (A) (A) (A) (A) (A) (A) (A) (A) (A) (A)
                 (A) (A) (A) (A) (A) (A) (A) (A) (A) (A) (A) (A)
                 (A) (A) (A) (A) (A) (A) (A) (A) (A) (A) (A) (A)
                 (A) (A) (A) (A) (A) (A) (A) (A) (A) (A) (A) (A)
                 (A) (A) (A) (A) (A) (A) (A) (A) (A) (A) (A) (A)
                 (A) (A) (A) (A) (A) (A) (A) (A) (A) (A) (A) (A)
                 (A) (A) (A) (A) (A) (A) (A) (A) (A) (A) (A) (A)
                 (A) (A) (A) (A) (A) (A) (A) (A) (A) (A) (A) (A)
                 (A) (A) (A) (A) (A) (A) (A) (A) (A) (A) (A) (A)
                 (A) (A) (A) (A) (A) (A) (A) (A) (A) (A) (A) (A)
                 (A) (A) (A) (A) (A) (A) (A) (A) (A) (A) (A) (A)
                 (A) (A) (A) (A) (A) (A) (A) (A) (A) (A) (A) (A)
                 (A) (A) (A) (A) (A) (A) (A) (A) (A) (A) (A) (A)
                 (A) (A) (A) (A) (A) (A) (A) (A) (A) (A) (A) (A)
                 (A) (A) (A) (A) (A) (A) (A) (A) (A) (A) (A) (A)
                 (A) (A) (A) (A) (A) (A) (A) (A) (A) (A) (A) (A)
                 (A) (A) (A) (A) (A) (A) (A) (A) (A) (A) (A) (A)
                 (A) (A) (A) (A) (A) (A) (A) (A) (A) (A) (A) (A)
                 (A) (A) (A) (A) (A) (A) (A) (A) (A) (A) (A) (A)
                 (A) (A) (A) (A) (A) (A) (A) (A) (A) (A) (A) (A)
                 (A) (A) (A) (A) (A) (A) (A) (A) (A) (A) (A) (A)
                 (A) (A) (A) (A) (A) (A) (A) (A) (A) (A) (A) (A)
                 (A) (A) (A) (A) (A) (A) (A) (A) (A) (A) (A) (A)
                 (A) (A) (A) (A) (A) (A) (A) (A) (A) (A) (A) (A)
                 (A) (A) (A) (A) (A) (A) (A) (A) (A) (A) (A) (A)
                 (A) (A) (A) (A) (A) (A) (A) (A) (A) (A) (A) (A)
                 (A) (A) (A) (A) (A) (A) (A) (A) (A) (A) (A) (A)
                 (A) (A) (A) (A) (A) (A) (A) (A) (A) (A) (A) (A)
                 (A) (A) (A) (A) (A) (A) (A) (A) (A) (A) (A) (A)
                 (A) (A) (A) (A) (A) (A) (A) (A) (A) (A) (A) (A)
                 (A) (A) (A) (A) (A) (A) (A) (A) (A)
 The electronic state is 1-A.
 Alpha  occ. eigenvalues --  -10.52574 -10.52489 -10.52463 -10.52426 -10.52361
 Alpha  occ. eigenvalues --  -10.52182 -10.51981  -0.92063  -0.88129  -0.83101
 Alpha  occ. eigenvalues --   -0.76652  -0.70369  -0.66487  -0.61955  -0.54779
 Alpha  occ. eigenvalues --   -0.53431  -0.51963  -0.49143  -0.48414  -0.46610
 Alpha  occ. eigenvalues --   -0.43974  -0.43286  -0.42776  -0.39664  -0.38693
 Alpha  occ. eigenvalues --   -0.37384  -0.36782  -0.36355  -0.34435
 Alpha virt. eigenvalues --    0.05633   0.08296   0.08360   0.09178   0.10004
 Alpha virt. eigenvalues --    0.12384   0.12844   0.13326   0.13954   0.14565
 Alpha virt. eigenvalues --    0.15703   0.17144   0.17845   0.19451   0.19619
 Alpha virt. eigenvalues --    0.20875   0.21954   0.23472   0.24293   0.26188
 Alpha virt. eigenvalues --    0.27561   0.28431   0.30928   0.31446   0.31555
 Alpha virt. eigenvalues --    0.32845   0.33628   0.34889   0.36470   0.38473
 Alpha virt. eigenvalues --    0.39004   0.39532   0.42707   0.42958   0.43569
 Alpha virt. eigenvalues --    0.43793   0.46864   0.47042   0.47440   0.48120
 Alpha virt. eigenvalues --    0.48579   0.48871   0.49955   0.50464   0.50825
 Alpha virt. eigenvalues --    0.51432   0.52088   0.52434   0.53294   0.53971
 Alpha virt. eigenvalues --    0.55005   0.55338   0.55665   0.56809   0.57465
 Alpha virt. eigenvalues --    0.58544   0.59696   0.60208   0.63290   0.63582
 Alpha virt. eigenvalues --    0.64514   0.67823   0.71144   0.73165   0.76830
 Alpha virt. eigenvalues --    0.79214   0.80324   0.81703   0.82537   0.85344
 Alpha virt. eigenvalues --    0.86792   0.87578   0.89343   0.91053   0.93170
 Alpha virt. eigenvalues --    0.93883   0.94922   0.96163   0.96515   0.99994
 Alpha virt. eigenvalues --    1.00624   1.02074   1.02871   1.03620   1.05685
 Alpha virt. eigenvalues --    1.06544   1.07071   1.07637   1.09119   1.10471
 Alpha virt. eigenvalues --    1.10952   1.12066   1.12879   1.13879   1.14774
 Alpha virt. eigenvalues --    1.16189   1.16321   1.16981   1.18179   1.18584
 Alpha virt. eigenvalues --    1.19815   1.20094   1.22369   1.24091   1.24540
 Alpha virt. eigenvalues --    1.25054   1.26115   1.27300   1.27599   1.28045
 Alpha virt. eigenvalues --    1.29737   1.31286   1.32438   1.33482   1.34309
 Alpha virt. eigenvalues --    1.34649   1.35011   1.36605   1.37371   1.38941
 Alpha virt. eigenvalues --    1.40159   1.40795   1.42553   1.43883   1.44339
 Alpha virt. eigenvalues --    1.45256   1.47221   1.47441   1.49288   1.51294
 Alpha virt. eigenvalues --    1.51759   1.52865   1.53691   1.55074   1.55861
 Alpha virt. eigenvalues --    1.57294   1.59185   1.61398   1.63006   1.63195
 Alpha virt. eigenvalues --    1.66761   1.68417   1.70055   1.72673   1.73015
 Alpha virt. eigenvalues --    1.76530   1.79750   1.83789   1.87161   2.17826
 Alpha virt. eigenvalues --    2.25281   2.26488   2.27304   2.28248   2.33010
 Alpha virt. eigenvalues --    2.37737   2.38035   2.40471   2.42937   2.44114
 Alpha virt. eigenvalues --    2.46154   2.47827   2.48636   2.51057   2.52762
 Alpha virt. eigenvalues --    2.54450   2.56949   2.57110   2.58837   2.60208
 Alpha virt. eigenvalues --    2.61339   2.63050   2.64409   2.65508   2.67067
 Alpha virt. eigenvalues --    2.68982   2.70845   2.71040   2.72865   2.73689
 Alpha virt. eigenvalues --    2.74860   2.75440   2.75583   2.76652   2.79917
 Alpha virt. eigenvalues --    2.80692   2.83214   2.84305   2.85950   2.86341
 Alpha virt. eigenvalues --    2.87768   2.88735   2.89906   2.91000   2.92763
 Alpha virt. eigenvalues --    2.94135   2.95557   2.95987   2.97951   2.98954
 Alpha virt. eigenvalues --    3.00711   3.01534   3.02517   3.03105   3.04131
 Alpha virt. eigenvalues --    3.05036   3.07272   3.08083   3.08511   3.09464
 Alpha virt. eigenvalues --    3.09913   3.10103   3.11510   3.11806   3.12546
 Alpha virt. eigenvalues --    3.12883   3.15365   3.16770   3.17133   3.18211
 Alpha virt. eigenvalues --    3.19123   3.20466   3.21818   3.22179   3.23069
 Alpha virt. eigenvalues --    3.25029   3.25483   3.26582   3.27005   3.28910
 Alpha virt. eigenvalues --    3.30178   3.31476   3.33293   3.33781   3.35689
 Alpha virt. eigenvalues --    3.36143   3.37622   3.38859   3.39568   3.40174
 Alpha virt. eigenvalues --    3.42700   3.43848   3.46029   3.47321   3.48565
 Alpha virt. eigenvalues --    3.48668   3.50454   3.51397   3.52576   3.55502
 Alpha virt. eigenvalues --    3.55752   3.56619   3.56995   3.59122   3.60015
 Alpha virt. eigenvalues --    3.61651   3.62494   3.64290   3.65646   3.67796
 Alpha virt. eigenvalues --    3.68224   3.70498   3.71301   3.72160   3.73318
 Alpha virt. eigenvalues --    3.73784   3.75481   3.76947   3.78119   3.78775
 Alpha virt. eigenvalues --    3.80282   3.82047   3.82232   3.83478   3.84751
 Alpha virt. eigenvalues --    3.87060   3.88375   3.89787   3.90167   3.91348
 Alpha virt. eigenvalues --    3.92134   3.92224   3.94759   3.94987   3.96050
 Alpha virt. eigenvalues --    3.96564   3.97798   3.99575   3.99763   4.01901
 Alpha virt. eigenvalues --    4.02514   4.02916   4.04637   4.05246   4.05730
 Alpha virt. eigenvalues --    4.07475   4.08509   4.09106   4.10825   4.11281
 Alpha virt. eigenvalues --    4.13242   4.14336   4.15179   4.16389   4.17569
 Alpha virt. eigenvalues --    4.17969   4.19639   4.20766   4.21059   4.22154
 Alpha virt. eigenvalues --    4.23869   4.26047   4.27736   4.29224   4.29542
 Alpha virt. eigenvalues --    4.31495   4.32745   4.34213   4.34629   4.36602
 Alpha virt. eigenvalues --    4.39757   4.41355   4.42342   4.43782   4.47146
 Alpha virt. eigenvalues --    4.48952   4.51323   4.52167   4.52872   4.54957
 Alpha virt. eigenvalues --    4.57874   4.59268   4.60929   4.63432   4.64796
 Alpha virt. eigenvalues --    4.68506   4.69245   4.70510   4.71978   4.74344
 Alpha virt. eigenvalues --    4.76236   4.79813   4.79975   4.81502   4.83898
 Alpha virt. eigenvalues --    4.86255   4.87534   4.87950   4.90646   4.92203
 Alpha virt. eigenvalues --    4.93558   4.95353   4.96036   4.97452   4.98339
 Alpha virt. eigenvalues --    5.02183   5.03269   5.04022   5.07365   5.09383
 Alpha virt. eigenvalues --    5.10145   5.11061   5.12737   5.15781   5.17489
 Alpha virt. eigenvalues --    5.19552   5.20280   5.25905   5.26248   5.28076
 Alpha virt. eigenvalues --    5.28537   5.29243   5.33676   5.34501   5.35353
 Alpha virt. eigenvalues --    5.37723   5.40117   5.43158   5.43554   5.47388
 Alpha virt. eigenvalues --    5.47748   5.50688   5.53484   5.55578   5.58628
 Alpha virt. eigenvalues --    5.60726   5.63238   5.68209   5.76471   5.78836
 Alpha virt. eigenvalues --    5.80695   5.83409   5.86262   5.92160   5.96110
 Alpha virt. eigenvalues --    6.01858   6.03024   6.06002  11.10168  12.06487
 Alpha virt. eigenvalues --   12.55783  12.95631  13.16026  13.43769  14.03100
          Condensed to atoms (all electrons):
               1          2          3          4          5          6
     1  C    5.090036   0.301970  -0.053255   0.294186   0.001792  -0.044856
     2  C    0.301970   5.106991   0.317671  -0.046036  -0.044844  -0.007362
     3  C   -0.053255   0.317671   5.097018   0.005258   0.300690  -0.002137
     4  C    0.294186  -0.046036   0.005258   5.044143   0.001572   0.267452
     5  C    0.001792  -0.044844   0.300690   0.001572   5.112345  -0.009731
     6  C   -0.044856  -0.007362  -0.002137   0.267452  -0.009731   5.045710
     7  C   -0.000663   0.008921  -0.062363  -0.000086   0.312157   0.000767
     8  H   -0.050020   0.007769  -0.000250   0.418639  -0.000081  -0.046337
     9  H   -0.050369   0.003944  -0.000638   0.425197  -0.000039  -0.048288
    10  H    0.417099  -0.052213  -0.010366  -0.050854   0.000570   0.004981
    11  H    0.426390  -0.050742   0.009147  -0.053112  -0.000532   0.008075
    12  H   -0.038476   0.397147  -0.045358  -0.002169  -0.003041  -0.006915
    13  H   -0.051509   0.424830  -0.051633   0.008276   0.008603   0.000617
    14  H    0.008219  -0.040530   0.418039  -0.000642  -0.043294  -0.000181
    15  H   -0.007018  -0.050324   0.406402   0.000214  -0.050765   0.000270
    16  H   -0.000095  -0.002561  -0.048607   0.000199   0.405937   0.000165
    17  H    0.003112  -0.003148  -0.036725  -0.001101   0.413867  -0.013725
    18  H   -0.012997   0.010628  -0.007511  -0.056837  -0.014451   0.419392
    19  H    0.006785  -0.000259   0.000076  -0.042678   0.000833   0.405784
    20  H    0.006531  -0.000979   0.000432  -0.051516  -0.001540   0.411033
    21  H   -0.000049   0.000767  -0.002148   0.000005  -0.052728  -0.000063
    22  H   -0.000028  -0.000186  -0.007062   0.000050  -0.044928   0.000022
    23  H    0.000036  -0.000575   0.009568  -0.000005  -0.040648   0.000030
               7          8          9         10         11         12
     1  C   -0.000663  -0.050020  -0.050369   0.417099   0.426390  -0.038476
     2  C    0.008921   0.007769   0.003944  -0.052213  -0.050742   0.397147
     3  C   -0.062363  -0.000250  -0.000638  -0.010366   0.009147  -0.045358
     4  C   -0.000086   0.418639   0.425197  -0.050854  -0.053112  -0.002169
     5  C    0.312157  -0.000081  -0.000039   0.000570  -0.000532  -0.003041
     6  C    0.000767  -0.046337  -0.048288   0.004981   0.008075  -0.006915
     7  C    4.945569   0.000021   0.000001   0.000004   0.000032   0.000249
     8  H    0.000021   0.633636  -0.041966  -0.021015   0.006828  -0.000261
     9  H    0.000001  -0.041966   0.628018   0.008472  -0.023041   0.000765
    10  H    0.000004  -0.021015   0.008472   0.610400  -0.036566   0.008036
    11  H    0.000032   0.006828  -0.023041  -0.036566   0.613918  -0.001018
    12  H    0.000249  -0.000261   0.000765   0.008036  -0.001018   0.576777
    13  H   -0.000547  -0.000510  -0.000224  -0.001165  -0.018355  -0.030175
    14  H   -0.008854   0.000026   0.000025   0.000710  -0.000457   0.000999
    15  H   -0.001265  -0.000163  -0.000057   0.004991   0.000498   0.007818
    16  H   -0.027415   0.000000  -0.000007  -0.000033   0.000010   0.002390
    17  H   -0.038943  -0.000481   0.000077   0.000369  -0.000129   0.000431
    18  H    0.001630   0.007043   0.005052   0.000142   0.000856  -0.004338
    19  H   -0.000037   0.006663  -0.022128  -0.000587  -0.000183  -0.000250
    20  H    0.000028  -0.020916   0.008021   0.000389  -0.000656   0.000443
    21  H    0.410293  -0.000001  -0.000000   0.000014   0.000002   0.000062
    22  H    0.407972   0.000005   0.000001  -0.000021  -0.000004  -0.000017
    23  H    0.403005  -0.000001   0.000000   0.000007  -0.000001   0.000004
              13         14         15         16         17         18
     1  C   -0.051509   0.008219  -0.007018  -0.000095   0.003112  -0.012997
     2  C    0.424830  -0.040530  -0.050324  -0.002561  -0.003148   0.010628
     3  C   -0.051633   0.418039   0.406402  -0.048607  -0.036725  -0.007511
     4  C    0.008276  -0.000642   0.000214   0.000199  -0.001101  -0.056837
     5  C    0.008603  -0.043294  -0.050765   0.405937   0.413867  -0.014451
     6  C    0.000617  -0.000181   0.000270   0.000165  -0.013725   0.419392
     7  C   -0.000547  -0.008854  -0.001265  -0.027415  -0.038943   0.001630
     8  H   -0.000510   0.000026  -0.000163   0.000000  -0.000481   0.007043
     9  H   -0.000224   0.000025  -0.000057  -0.000007   0.000077   0.005052
    10  H   -0.001165   0.000710   0.004991  -0.000033   0.000369   0.000142
    11  H   -0.018355  -0.000457   0.000498   0.000010  -0.000129   0.000856
    12  H   -0.030175   0.000999   0.007818   0.002390   0.000431  -0.004338
    13  H    0.599677  -0.018215   0.000801   0.000056  -0.000320  -0.000020
    14  H   -0.018215   0.588638  -0.037537  -0.011019   0.007853  -0.000018
    15  H    0.000801  -0.037537   0.596349   0.008617  -0.004125  -0.000012
    16  H    0.000056  -0.011019   0.008617   0.593686  -0.041247   0.000521
    17  H   -0.000320   0.007853  -0.004125  -0.041247   0.588531  -0.020655
    18  H   -0.000020  -0.000018  -0.000012   0.000521  -0.020655   0.619428
    19  H   -0.000006   0.000012  -0.000020  -0.000071   0.001508  -0.034336
    20  H    0.000006  -0.000001   0.000107   0.000170   0.001055  -0.039747
    21  H   -0.000083   0.003736  -0.002256  -0.003690   0.008506  -0.000161
    22  H    0.000005   0.000124   0.003449   0.007887  -0.010692   0.000125
    23  H    0.000033  -0.000048   0.000327  -0.008402  -0.002108  -0.000060
              19         20         21         22         23
     1  C    0.006785   0.006531  -0.000049  -0.000028   0.000036
     2  C   -0.000259  -0.000979   0.000767  -0.000186  -0.000575
     3  C    0.000076   0.000432  -0.002148  -0.007062   0.009568
     4  C   -0.042678  -0.051516   0.000005   0.000050  -0.000005
     5  C    0.000833  -0.001540  -0.052728  -0.044928  -0.040648
     6  C    0.405784   0.411033  -0.000063   0.000022   0.000030
     7  C   -0.000037   0.000028   0.410293   0.407972   0.403005
     8  H    0.006663  -0.020916  -0.000001   0.000005  -0.000001
     9  H   -0.022128   0.008021  -0.000000   0.000001   0.000000
    10  H   -0.000587   0.000389   0.000014  -0.000021   0.000007
    11  H   -0.000183  -0.000656   0.000002  -0.000004  -0.000001
    12  H   -0.000250   0.000443   0.000062  -0.000017   0.000004
    13  H   -0.000006   0.000006  -0.000083   0.000005   0.000033
    14  H    0.000012  -0.000001   0.003736   0.000124  -0.000048
    15  H   -0.000020   0.000107  -0.002256   0.003449   0.000327
    16  H   -0.000071   0.000170  -0.003690   0.007887  -0.008402
    17  H    0.001508   0.001055   0.008506  -0.010692  -0.002108
    18  H   -0.034336  -0.039747  -0.000161   0.000125  -0.000060
    19  H    0.601722  -0.030634   0.000002  -0.000006   0.000001
    20  H   -0.030634   0.601464  -0.000004   0.000078   0.000014
    21  H    0.000002  -0.000004   0.594522  -0.040760  -0.032680
    22  H   -0.000006   0.000078  -0.040760   0.607819  -0.026890
    23  H    0.000001   0.000014  -0.032680  -0.026890   0.596183
 Mulliken charges:
               1
     1  C   -0.246823
     2  C   -0.280880
     3  C   -0.236250
     4  C   -0.160157
     5  C   -0.251745
     6  C   -0.384704
     7  C   -0.350477
     8  H    0.101372
     9  H    0.107186
    10  H    0.116635
    11  H    0.119039
    12  H    0.136899
    13  H    0.129858
    14  H    0.132415
    15  H    0.123697
    16  H    0.123508
    17  H    0.148088
    18  H    0.126326
    19  H    0.107809
    20  H    0.116221
    21  H    0.116713
    22  H    0.103060
    23  H    0.102210
 Sum of Mulliken charges =  -0.00000
 Mulliken charges with hydrogens summed into heavy atoms:
               1
     1  C   -0.011148
     2  C   -0.014123
     3  C    0.019862
     4  C    0.048401
     5  C    0.019851
     6  C   -0.034348
     7  C   -0.028496
 APT charges:
               1
     1  C   -0.775257
     2  C   -0.703649
     3  C   -0.665503
     4  C   -0.904537
     5  C   -0.407040
     6  C   -0.939403
     7  C   -1.339104
     8  H    0.353148
     9  H    0.502502
    10  H    0.295320
    11  H    0.473313
    12  H    0.285732
    13  H    0.446405
    14  H    0.437365
    15  H    0.282994
    16  H    0.378574
    17  H    0.223462
    18  H    0.106138
    19  H    0.492957
    20  H    0.331937
    21  H    0.392052
    22  H    0.233074
    23  H    0.499519
 Sum of APT charges =  -0.00000
 APT charges with hydrogens summed into heavy atoms:
               1
     1  C   -0.006624
     2  C    0.028487
     3  C    0.054857
     4  C   -0.048887
     5  C    0.194996
     6  C   -0.008371
     7  C   -0.214458
 Electronic spatial extent (au):  <R**2>=           1130.6026
 Charge=              0.0000 electrons
 Dipole moment (field-independent basis, Debye):
    X=             -0.1167    Y=             -0.1393    Z=             -0.0588  Tot=              0.1910
 Quadrupole moment (field-independent basis, Debye-Ang):
   XX=            -49.8143   YY=            -49.3142   ZZ=            -48.7684
   XY=             -0.1637   XZ=             -0.2369   YZ=              0.4509
 Traceless Quadrupole moment (field-independent basis, Debye-Ang):
   XX=             -0.5153   YY=             -0.0152   ZZ=              0.5306
   XY=             -0.1637   XZ=             -0.2369   YZ=              0.4509
 Octapole moment (field-independent basis, Debye-Ang**2):
  XXX=             -4.4341  YYY=             -2.1424  ZZZ=              1.0883  XYY=              0.5129
  XXY=             -1.4000  XXZ=             -4.6370  XZZ=             -0.3258  YZZ=              0.5683
  YYZ=              0.0658  XYZ=             -0.5455
 Hexadecapole moment (field-independent basis, Debye-Ang**3):
 XXXX=          -1064.0449 YYYY=           -395.9384 ZZZZ=           -156.8559 XXXY=             -1.3391
 XXXZ=             -1.5398 YYYX=              1.1781 YYYZ=              4.8315 ZZZX=             -2.1344
 ZZZY=              0.6930 XXYY=           -239.7557 XXZZ=           -204.6295 YYZZ=            -94.2228
 XXYZ=             -2.5341 YYXZ=             -1.5076 ZZXY=             -1.5400
 N-N= 3.288339930972D+02 E-N=-1.296130615610D+03  KE= 2.745327535340D+02
  Exact polarizability:   0.000   0.000   0.000   0.000   0.000   0.000
 Approx polarizability:  98.275  -0.162  97.180   0.372  -0.196  99.198
 No NMR shielding tensors so no spin-rotation constants.
 Leave Link  601 at Sun Sep 29 01:57:16 2019, MaxMem=   671088640 cpu:              85.1 elap:              42.6
 (Enter /shared/centos7/gaussian/g16/l701.exe)
 SCFChk:  SCF convergence  7.09D-09 required  1.00D-08
 ... and contract with generalized density number  0.
 Compute integral second derivatives.
 Entering OneElI...
 Calculate overlap and kinetic energy integrals
    NBasis = 485  MinDer = 2  MaxDer = 2
 Requested accuracy = 0.1000D-12
 PrmmSu-InSpLW:  IPartL=    0 NPrtUS=   20 NPrtUL=    1 DoSpLW=F IThBeg=    0 IThEnd=   19 NThAct=   20.
 PrsmSu:  NPrtUS=  20 ThrOK=T IAlg=1 NPAlg=1 LenDen=           0 ISkipM=0 DoSpLW=F IThBeg=    0 IThEnd=   19.
 Prism:   IPart=     0 DynPar=F LinDyn=F Incr=           6.
 PRISM was handed    33200110 working-precision words and 13711 shell-pairs
 PRISM was handed    33200110 working-precision words and 13711 shell-pairs
 PRISM was handed    33200110 working-precision words and 13711 shell-pairs
 PRISM was handed    33200110 working-precision words and 13711 shell-pairs
 PRISM was handed    33200110 working-precision words and 13711 shell-pairs
 PRISM was handed    33200110 working-precision words and 13711 shell-pairs
 PRISM was handed    33200110 working-precision words and 13711 shell-pairs
 PRISM was handed    33200110 working-precision words and 13711 shell-pairs
 PRISM was handed    33200110 working-precision words and 13711 shell-pairs
 PRISM was handed    33200110 working-precision words and 13711 shell-pairs
 PRISM was handed    33200110 working-precision words and 13711 shell-pairs
 PRISM was handed    33200110 working-precision words and 13711 shell-pairs
 PRISM was handed    33200110 working-precision words and 13711 shell-pairs
 PRISM was handed    33200110 working-precision words and 13711 shell-pairs
 PRISM was handed    33200110 working-precision words and 13711 shell-pairs
 PRISM was handed    33200110 working-precision words and 13711 shell-pairs
 PRISM was handed    33200110 working-precision words and 13711 shell-pairs
 PRISM was handed    33200110 working-precision words and 13711 shell-pairs
 IPart=  2 NShTot=         715 NBatch=          75 AvBLen=         9.5
 PRISM was handed    33200110 working-precision words and 13711 shell-pairs
 PRISM was handed    33200110 working-precision words and 13711 shell-pairs
 IPart= 15 NShTot=         665 NBatch=          52 AvBLen=        12.8
 IPart= 14 NShTot=         665 NBatch=          52 AvBLen=        12.8
 IPart=  7 NShTot=         693 NBatch=          61 AvBLen=        11.4
 IPart= 13 NShTot=         669 NBatch=          54 AvBLen=        12.4
 IPart=  4 NShTot=         711 NBatch=          74 AvBLen=         9.6
 IPart= 18 NShTot=         660 NBatch=          48 AvBLen=        13.8
 IPart=  3 NShTot=         713 NBatch=          74 AvBLen=         9.6
 IPart=  0 NShTot=         722 NBatch=          81 AvBLen=         8.9
 IPart=  8 NShTot=         686 NBatch=          59 AvBLen=        11.6
 IPart= 10 NShTot=         677 NBatch=          58 AvBLen=        11.7
 IPart=  6 NShTot=         701 NBatch=          68 AvBLen=        10.3
 IPart=  9 NShTot=         682 NBatch=          59 AvBLen=        11.6
 IPart= 16 NShTot=         663 NBatch=          51 AvBLen=        13.0
 IPart= 11 NShTot=         673 NBatch=          57 AvBLen=        11.8
 IPart=  5 NShTot=         707 NBatch=          73 AvBLen=         9.7
 IPart= 12 NShTot=         670 NBatch=          55 AvBLen=        12.2
 IPart=  1 NShTot=         718 NBatch=          77 AvBLen=         9.3
 IPart= 19 NShTot=         659 NBatch=          48 AvBLen=        13.7
 IPart= 17 NShTot=         662 NBatch=          50 AvBLen=        13.2
 PrSmSu:  NxtVal=            121.
 Entering OneElI...
 Calculate potential energy integrals
    NBasis = 485  MinDer = 2  MaxDer = 2
 Requested accuracy = 0.1000D-12
 PrmmSu-InSpLW:  IPartL=    0 NPrtUS=   20 NPrtUL=    1 DoSpLW=F IThBeg=    0 IThEnd=   19 NThAct=   20.
 PrsmSu:  NPrtUS=  20 ThrOK=T IAlg=1 NPAlg=1 LenDen=           0 ISkipM=0 DoSpLW=F IThBeg=    0 IThEnd=   19.
 Prism:   IPart=     0 DynPar=F LinDyn=F Incr=         141.
 PRISM was handed    33263520 working-precision words and 12335 shell-pairs
 PRISM was handed    33263520 working-precision words and 12335 shell-pairs
 PRISM was handed    33263520 working-precision words and 12335 shell-pairs
 PRISM was handed    33263520 working-precision words and 12335 shell-pairs
 PRISM was handed    33263520 working-precision words and 12335 shell-pairs
 PRISM was handed    33263520 working-precision words and 12335 shell-pairs
 PRISM was handed    33263520 working-precision words and 12335 shell-pairs
 PRISM was handed    33263520 working-precision words and 12335 shell-pairs
 PRISM was handed    33263520 working-precision words and 12335 shell-pairs
 PRISM was handed    33263520 working-precision words and 12335 shell-pairs
 PRISM was handed    33263520 working-precision words and 12335 shell-pairs
 PRISM was handed    33263520 working-precision words and 12335 shell-pairs
 PRISM was handed    33263520 working-precision words and 12335 shell-pairs
 PRISM was handed    33263520 working-precision words and 12335 shell-pairs
 PRISM was handed    33263520 working-precision words and 12335 shell-pairs
 PRISM was handed    33263520 working-precision words and 12335 shell-pairs
 PRISM was handed    33263520 working-precision words and 12335 shell-pairs
 PRISM was handed    33263520 working-precision words and 12335 shell-pairs
 PRISM was handed    33263520 working-precision words and 12335 shell-pairs
 PRISM was handed    33263520 working-precision words and 12335 shell-pairs
 IPart= 18 NShTot=       13662 NBatch=         595 AvBLen=        23.0
 IPart=  2 NShTot=       14766 NBatch=         644 AvBLen=        22.9
 IPart=  4 NShTot=       14651 NBatch=         639 AvBLen=        22.9
 IPart= 14 NShTot=       13846 NBatch=         603 AvBLen=        23.0
 IPart= 13 NShTot=       13869 NBatch=         604 AvBLen=        23.0
 IPart=  7 NShTot=       14237 NBatch=         620 AvBLen=        23.0
 IPart= 15 NShTot=       13800 NBatch=         601 AvBLen=        23.0
 IPart=  3 NShTot=       14697 NBatch=         641 AvBLen=        22.9
 IPart= 16 NShTot=       13731 NBatch=         598 AvBLen=        23.0
 IPart= 12 NShTot=       13984 NBatch=         609 AvBLen=        23.0
 IPart= 17 NShTot=       13708 NBatch=         597 AvBLen=        23.0
 IPart= 19 NShTot=       13593 NBatch=         592 AvBLen=        23.0
 IPart=  9 NShTot=       14122 NBatch=         615 AvBLen=        23.0
 IPart= 11 NShTot=       14076 NBatch=         613 AvBLen=        23.0
 IPart=  5 NShTot=       14605 NBatch=         637 AvBLen=        22.9
 IPart=  0 NShTot=       14904 NBatch=         650 AvBLen=        22.9
 IPart=  6 NShTot=       14398 NBatch=         628 AvBLen=        22.9
 IPart=  8 NShTot=       14145 NBatch=         616 AvBLen=        23.0
 IPart= 10 NShTot=       14099 NBatch=         614 AvBLen=        23.0
 IPart=  1 NShTot=       14812 NBatch=         646 AvBLen=        22.9
 PrSmSu:  NxtVal=           2821.
 Polarizability after L701:
                1             2             3 
      1  0.000000D+00
      2  0.000000D+00  0.000000D+00
      3  0.000000D+00  0.000000D+00  0.000000D+00
 Dipole Derivatives after L701:
                 1             2             3             4             5 
      1  -0.761657D+00 -0.113387D+01  0.285394D+00 -0.708010D-01 -0.837862D-01
      2  -0.583480D+00 -0.812426D+00  0.477644D+00 -0.156309D-01 -0.122179D+01
      3  -0.214477D+00  0.330462D+00 -0.751687D+00 -0.140827D+00 -0.103631D+00
                 6             7             8             9            10 
      1  -0.325431D+00 -0.617376D+00  0.766245D+00 -0.160212D+00 -0.203839D+01
      2  -0.591496D+00  0.618844D+00 -0.713428D+00  0.210395D+00  0.357575D+00
      3  -0.818360D+00  0.181627D+00 -0.823528D-01 -0.665705D+00  0.121903D+00
                11            12            13            14            15 
      1   0.271376D+00  0.694796D+00  0.102534D+00 -0.525735D+00  0.985933D+00
      2   0.103189D+00 -0.472950D+00  0.254734D+00 -0.562437D+00  0.527565D-01
      3  -0.353782D+00 -0.778413D+00  0.231069D+00  0.530303D-01 -0.761218D+00
                16            17            18            19            20 
      1  -0.346520D+00  0.982744D+00 -0.685144D+00 -0.202327D+01 -0.126592D+00
      2  -0.223844D+00 -0.152171D+01  0.337443D+00 -0.194002D+00 -0.979503D+00
      3  -0.564907D-01 -0.200752D-01 -0.949978D+00  0.293732D-01  0.164690D-01
                21            22            23            24            25 
      1  -0.664436D+00  0.162139D+00 -0.219896D+00 -0.727439D+00  0.121393D+01
      2  -0.115270D+00 -0.123338D-01  0.230525D+00  0.246714D+00 -0.957165D-01
      3  -0.101454D+01 -0.970455D-02  0.149863D+00  0.666780D+00  0.115502D-01
                26            27            28            29            30 
      1   0.119384D+00  0.395543D+00  0.357637D-01  0.431151D-01 -0.378602D+00
      2   0.162844D+00 -0.480268D-01 -0.118553D+00  0.207823D+00 -0.373463D+00
      3  -0.150602D-01  0.130730D+00  0.128948D+00 -0.656970D-01  0.642372D+00
                31            32            33            34            35 
      1   0.781596D+00  0.497755D+00  0.218875D+00  0.162838D+00 -0.957181D-01
      2   0.396824D+00  0.529868D+00  0.169453D+00  0.400835D-01  0.410220D-01
      3  -0.209501D-01 -0.662750D-02  0.108475D+00  0.992446D-01 -0.259605D+00
                36            37            38            39            40 
      1   0.186851D+00  0.213081D+00  0.149130D+00 -0.821022D-02  0.504277D+00
      2   0.237170D+00  0.554233D-02  0.997792D+00  0.441381D-01 -0.330724D+00
      3   0.653336D+00 -0.135693D-01  0.231917D+00  0.128340D+00 -0.116341D+00
                41            42            43            44            45 
      1  -0.409593D+00 -0.244953D+00  0.150325D+00 -0.411253D-01  0.312943D+00
      2   0.598189D+00  0.250427D+00 -0.110593D-01  0.163785D+00 -0.341511D+00
      3   0.137462D+00  0.209629D+00  0.227770D-02 -0.404134D-01  0.534871D+00
                46            47            48            49            50 
      1   0.317862D+00  0.479473D-01 -0.644396D+00 -0.192698D-01  0.246702D+00
      2   0.472709D-01  0.155715D+00 -0.131095D+00 -0.354936D+00  0.520336D+00
      3  -0.164077D+00 -0.164844D-01  0.662145D+00  0.453453D-01 -0.234425D-01
                51            52            53            54            55 
      1   0.217468D-01 -0.181825D-02  0.155528D-01  0.704155D-01  0.732345D+00
      2   0.688244D-01  0.355262D+00  0.392120D-01 -0.157727D+00 -0.485184D+00
      3   0.169321D+00 -0.339720D+00  0.128190D+00  0.281020D+00  0.298756D+00
                56            57            58            59            60 
      1  -0.282203D+00  0.556184D+00 -0.655864D-02 -0.275709D+00 -0.274469D+00
      2   0.376778D+00 -0.486644D+00  0.224385D+00  0.733266D+00  0.559913D+00
      3  -0.165049D+00  0.369747D+00  0.273058D-01  0.114972D+00  0.269105D+00
                61            62            63            64            65 
      1   0.749425D+00 -0.101190D+01  0.951390D-01 -0.116946D+00  0.119691D+00
      2  -0.108390D+00  0.299882D+00  0.146405D-01 -0.974515D-01  0.144454D+00
      3   0.678970D-01 -0.984169D-01  0.126850D+00 -0.169345D+00  0.114419D+00
                66            67            68            69 
      1   0.844477D+00  0.876481D+00  0.946490D+00 -0.555004D+00
      2   0.296737D+00  0.330783D+00  0.506610D+00 -0.248074D+00
      3   0.671714D+00  0.205487D-03 -0.261477D-01  0.115468D+00
 Hessian after L701:
                1             2             3             4             5 
      1  0.156026D+02
      2  0.716236D+00  0.159156D+02
      3  0.693448D+00 -0.417181D-01  0.172827D+02
      4 -0.381211D+01 -0.748760D+00 -0.184421D+01  0.150448D+02
      5 -0.721505D+00 -0.597137D+01  0.593967D+00  0.136580D+00  0.170589D+02
      6 -0.185708D+01  0.595673D+00 -0.479548D+01  0.344219D+00 -0.539895D+00
      7  0.372605D+00 -0.540548D-01  0.323081D-01 -0.254990D+01  0.743974D+00
      8  0.136351D-01 -0.610862D-01  0.238672D-01  0.766834D+00 -0.597602D+01
      9 -0.882555D-01  0.369388D-01 -0.622505D-01  0.108639D+01  0.237140D+00
     10 -0.525680D+01 -0.145582D+01  0.946262D-01  0.450851D-01 -0.153453D+00
     11 -0.148980D+01 -0.289054D+01  0.129075D+00 -0.175482D+00  0.141798D+00
     12  0.108793D+00  0.839893D-01 -0.591217D+01 -0.131138D+00  0.109180D+00
     13  0.195233D+00  0.129425D+00 -0.711204D-01  0.157327D+00  0.215088D+00
     14  0.104992D+00 -0.982124D-01 -0.264357D-01  0.191232D+00  0.860928D-01
     15 -0.806919D-01 -0.349543D-01 -0.128251D+00  0.106943D+00  0.483030D-01
     16 -0.100740D+00  0.328938D-02 -0.375292D-01 -0.869893D-01 -0.205899D+00
     17  0.234431D-01  0.269056D+00 -0.116738D+00 -0.157286D+00  0.150509D+00
     18 -0.437351D-01 -0.901622D-01 -0.916466D-01 -0.364505D-01  0.508444D-01
     19  0.618239D-01  0.348394D-01  0.145428D-01  0.195160D+00  0.172553D+00
     20  0.441950D-01 -0.466633D-01  0.767015D-02  0.175886D+00 -0.565965D-01
     21 -0.155088D-01  0.558404D-03 -0.660962D-01  0.906984D-01  0.512687D-01
     22  0.561132D-01  0.116447D+00  0.589843D-01  0.127510D-01 -0.643345D-01
     23  0.919636D-01 -0.373553D-01 -0.586095D-01 -0.655416D-01  0.176617D-01
     24  0.455551D-01 -0.687248D-01  0.147363D+00 -0.798109D-01  0.840081D-01
     25  0.740265D-01  0.145619D+00  0.983583D-02  0.898065D-01 -0.669972D-01
     26  0.128861D+00 -0.194874D-01  0.169732D-01 -0.485598D-01 -0.682823D-02
     27  0.295486D-01  0.980794D-02  0.124043D+00 -0.105037D-01  0.762029D-02
     28 -0.431693D+01 -0.126852D+00  0.530117D+00  0.854562D-01  0.103302D-02
     29 -0.180474D+00 -0.425402D+01 -0.677525D+00 -0.120893D-01  0.140124D+00
     30  0.680975D+00 -0.628367D+00 -0.213220D+01  0.133769D+00 -0.344516D-01
     31 -0.304110D+01  0.120817D+01  0.342212D+00 -0.687757D-01  0.290208D-01
     32  0.120168D+01 -0.321921D+01  0.293030D+00  0.170345D-01  0.149503D+00
     33  0.311936D+00  0.266273D+00 -0.423148D+01  0.102168D+00  0.210054D-01
     34  0.378120D-01 -0.160628D-01  0.126056D+00 -0.451026D+01 -0.149956D+00
     35  0.868786D-02  0.110813D+00 -0.614681D-01 -0.118192D+00 -0.424528D+01
     36  0.127586D+00 -0.118982D-01 -0.522393D-01  0.393915D+00 -0.894603D+00
     37  0.637724D-02  0.106375D+00  0.807122D-01 -0.440810D+01  0.663315D-01
     38  0.120899D+00  0.115318D+00 -0.699464D-01  0.444313D-01 -0.190609D+01
     39  0.968048D-01 -0.753813D-01  0.551661D-01  0.161117D-01  0.356072D+00
     40  0.143262D+00 -0.588371D-01 -0.535895D-01 -0.760885D-01 -0.236406D-01
     41 -0.742801D-01 -0.231864D-01  0.172866D-01 -0.250497D-01  0.125786D+00
     42 -0.581932D-01  0.203992D-01 -0.371439D-01 -0.355652D-01  0.266138D-01
     43 -0.133463D-01 -0.853447D-02 -0.763718D-03 -0.583636D-01 -0.203712D-01
     44 -0.513308D-02 -0.932568D-02 -0.105299D-02  0.418799D-02  0.134943D+00
     45  0.223382D-01 -0.101651D-01  0.662096D-02 -0.161174D+00 -0.243338D-01
     46  0.134130D-01  0.740567D-02 -0.106005D-01 -0.237741D-02  0.211610D-01
     47  0.890252D-02 -0.776511D-02 -0.260647D-02  0.168736D-01 -0.325021D-03
     48 -0.224945D-01 -0.327468D-02 -0.303363D-02 -0.272755D-01 -0.204558D-01
     49  0.156978D-01  0.372767D-01 -0.154548D-01 -0.951947D-04  0.297939D-02
     50  0.692458D-01  0.210475D-01 -0.125874D-01  0.428413D-01  0.229212D-01
[...]
 .05086532,0.00511365,0.00003111,-0.00005525,-0.00015542,-0.02010346,-0
 .00293269,0.00916639,0.00010667,0.00004493,0.00013626,-0.00008988,0.00
 029178,-0.00111993,-0.00007297,-0.00010866,0.00022456,-0.00002582,0.00
 002497,0.00004849,-0.00004232,0.00027595,-0.00011761,-0.00037585,0.000
 47560,-0.00005697,-0.00010139,-0.00051298,-0.00012492,0.00039809,0.001
 25657,0.00044265,0.02409245,0.05189866,-0.00178461,-0.00297704,-0.0028
 8085,-0.02553861,-0.00106897,0.00350840,0.07290964,0.00553006,-0.06614
 971,0.00006364,-0.00002168,-0.00053429,0.02767108,0.00330193,-0.012447
 39,-0.00005346,0.00011894,0.00014975,0.00172226,-0.00000308,0.00129289
 ,-0.00006736,0.00015692,0.00013029,-0.00000073,0.00002276,0.00019454,0
 .00018386,0.00006520,-0.00000256,-0.00125721,0.00042382,-0.00032705,-0
 .00010229,-0.00053750,-0.00016553,-0.00089601,0.00029348,0.00127260,-0
 .07652568,-0.00864687,0.08163364,0.00056104,-0.00135164,-0.00001570,0.
 00430912,-0.01749848,-0.00435850,-0.07641678,0.07981504,0.01819360,0.0
 0003968,-0.00043835,-0.00022856,0.00033729,-0.00168458,-0.00044958,-0.
 00003389,-0.00008678,-0.00002015,0.00000320,0.00046281,0.00012104,-0.0
 0011845,0.00001292,0.00039608,0.00014992,0.00013715,0.00008511,0.00023
 855,0.00038145,-0.00014504,0.00026809,0.00006008,0.00016493,-0.0015921
 1,-0.00196941,-0.00266672,0.00002144,0.00008699,-0.00021501,-0.0108447
 3,0.02915456,0.00595428,0.08188409,0.00173135,0.00087768,0.00066088,0.
 00243926,-0.01319659,-0.00336392,0.07860436,-0.26025244,-0.04590445,-0
 .00029684,0.00000675,-0.00017519,0.00704438,-0.01901106,-0.00271446,0.
 00026467,-0.00003786,0.00027344,-0.00032322,0.00073484,-0.00097413,-0.
 00044630,-0.00021527,0.00037000,-0.00002505,0.00007725,0.00015354,-0.0
 0090366,0.00056541,-0.00026131,0.00026892,0.00045318,0.00012024,-0.000
 73990,-0.00020376,-0.00226985,-0.00032657,-0.00049939,-0.00044183,-0.0
 0039133,0.00298474,0.00046332,-0.08600874,0.28692066,0.00137906,-0.001
 00010,0.00148126,0.00555462,-0.02249181,-0.00548301,0.01810558,-0.0472
 4709,-0.05620860,-0.00025726,0.00039416,0.00033652,-0.01130007,0.02720
 459,0.00370372,0.00006034,-0.00004590,0.00000426,0.00022808,0.00101071
 ,0.00185137,-0.00004133,-0.00006074,-0.00000118,-0.00010981,-0.0000550
 6,0.00005450,-0.00036385,0.00073836,-0.00030510,0.00033289,0.00026309,
 -0.00002090,-0.00172909,-0.00116501,-0.00325201,-0.00006346,-0.0001336
 3,-0.00074026,0.00344260,-0.00937770,-0.00243608,-0.01566419,0.0503147
 4,0.06466235,-0.00014743,-0.00019069,0.00005034,0.00002980,0.00083079,
 0.00022254,-0.00006381,-0.00114768,-0.00017137,-0.00008824,0.00062240,
 0.00034739,-0.08098501,0.08320286,0.01990824,-0.00018928,0.00036123,-0
 .00007469,0.00650123,-0.01924450,-0.00497450,0.00001701,-0.00032292,-0
 .00032671,-0.00013339,-0.00016173,-0.00021089,0.00004272,-0.00006123,0
 .00000596,0.00001517,-0.00001533,-0.00008505,-0.00023913,-0.00021029,-
 0.00044005,-0.00006277,-0.00020661,-0.00001152,0.00051122,-0.00037753,
 -0.00049194,0.00096925,-0.00058242,-0.00015506,0.08452290,-0.00002519,
 0.00034531,-0.00007664,-0.00078178,0.00019859,-0.00113259,0.00709324,-
 0.01899855,-0.00208178,-0.00008747,-0.00002045,-0.00016625,0.08201738,
 -0.26184053,-0.04803825,0.00009796,-0.00001305,0.00013074,0.00408168,-
 0.01212883,-0.00337515,-0.00002703,0.00000579,0.00008905,0.00000559,0.
 00005832,0.00000123,-0.00024862,0.00010116,-0.00009573,0.00008759,0.00
 003412,0.00002704,0.00041542,0.00086652,0.00048156,-0.00001164,0.00030
 643,0.00000256,-0.00046585,0.00054120,-0.00026461,-0.00070811,-0.00100
 336,0.00345164,-0.08905887,0.28742499,-0.00023952,0.00012467,-0.000078
 35,0.00057555,0.00156742,0.00198817,-0.01103934,0.02743840,0.00235314,
 0.00004586,-0.00011862,-0.00009954,0.01980112,-0.04866302,-0.05629574,
 0.00000884,-0.00003349,0.00000204,0.00828042,-0.02313647,-0.00661477,0
 .00001965,0.00011825,-0.00001718,0.00002685,0.00003773,0.00002867,0.00
 003226,-0.00022165,-0.00000307,-0.00005894,-0.00007233,0.00001677,-0.0
 0015990,-0.00081442,-0.00006298,0.00013767,-0.00003247,0.00016531,0.00
 012554,-0.00088905,0.00132443,-0.00006821,0.00338603,-0.00469563,-0.01
 829212,0.05206663,0.06653821,0.00019825,0.00010346,0.00028355,0.000495
 51,-0.00027063,0.00036858,0.00062106,-0.00020534,0.00001881,-0.0014775
 8,0.00042536,-0.00031440,-0.27872055,-0.02363029,0.08412693,-0.0003579
 0,-0.00028438,-0.00067741,-0.01751064,-0.00191580,0.00452194,-0.001528
 40,0.00080389,-0.00130012,-0.00016518,-0.00011965,-0.00021120,-0.00000
 369,0.00001500,-0.00002111,0.00012330,-0.00003875,-0.00001119,0.000065
 67,-0.00000787,0.00030227,0.00011767,0.00004320,0.00008936,0.00157067,
 0.00017849,-0.00049483,0.00024786,-0.00033922,0.00026201,-0.01081088,-
 0.00050028,0.00362123,0.30746724,-0.00010945,0.00002191,0.00018942,0.0
 0026291,0.00040070,-0.00057813,-0.01807790,-0.00244900,0.00697665,0.00
 052475,0.00048693,0.00064058,-0.02238241,-0.05127894,0.00803830,-0.000
 48502,0.00023553,-0.00032161,-0.01414332,-0.00190222,0.00414699,0.0011
 6641,-0.00068011,0.00036186,-0.00008281,-0.00019363,-0.00017025,-0.000
 04963,-0.00003532,0.00002300,0.00013283,-0.00004281,-0.00008870,0.0002
 5143,0.00000207,0.00000814,0.00000681,-0.00007769,-0.00012954,-0.00042
 176,-0.00151809,0.00346767,-0.00028948,0.00053291,-0.00088068,0.028377
 45,0.00307654,-0.01006640,0.02707291,0.05412786,0.00001540,0.00007763,
 -0.00046511,0.00032029,-0.00019605,0.00144299,0.02758894,0.00286366,-0
 .01108193,-0.00032856,-0.00001851,-0.00068892,0.08314429,0.00807349,-0
 .07563085,-0.00060513,-0.00000561,0.00020893,-0.02548608,-0.00275183,0
 .00733433,-0.00063438,0.00075941,0.00031784,0.00015877,0.00001504,0.00
 035530,-0.00001979,-0.00006774,0.00007268,-0.00013953,0.00001853,0.000
 10083,-0.00011732,-0.00039510,-0.00004547,-0.00010543,-0.00019833,0.00
 028595,-0.00040476,0.00380155,-0.00457467,-0.00068134,-0.00036646,0.00
 130583,0.00622875,0.00055900,-0.00291917,-0.08706445,-0.00994665,0.085
 78495,0.00026023,0.00046513,0.00022274,-0.00090629,0.00040278,0.000527
 82,-0.00001990,0.00003961,0.00007798,0.00637313,-0.00165283,0.00141087
 ,0.00007683,-0.00085713,-0.00064991,-0.24386994,0.10762461,-0.04990873
 ,-0.00023128,0.00005258,0.00013362,0.00033193,0.00065039,-0.00026959,0
 .00106689,-0.00176319,0.00055866,0.00006963,0.00012667,-0.00019494,-0.
 00002267,0.00000365,0.00006340,-0.00099125,-0.00114511,0.00114530,0.00
 018418,-0.00026310,-0.00002697,0.00000611,0.00002566,0.00001937,0.0000
 1873,-0.00004119,-0.00005350,0.00000821,0.00028915,0.00001208,-0.00080
 159,-0.00059447,-0.00049091,0.26612443,0.00080390,0.00096859,-0.000682
 41,-0.00025497,-0.00005594,0.00019414,-0.00004941,-0.00031194,0.000094
 73,0.02953091,-0.01548509,0.00703872,-0.00065883,0.00024010,0.00052015
 ,0.10649533,-0.10492690,0.02701065,0.00026999,0.00001302,-0.00031554,0
 .00009664,0.00139411,-0.00058333,-0.00188433,-0.00636026,0.00131163,-0
 .00014163,0.00015945,-0.00015343,-0.00010308,-0.00003710,0.00008728,-0
 .00057186,0.00044817,0.00037807,-0.00006687,0.00033615,-0.00012517,0.0
 0004498,0.00008921,-0.00010832,0.00000903,0.00012503,0.00002833,-0.000
 09351,-0.00002629,-0.00003057,-0.00011787,-0.00060339,-0.00076731,-0.1
 1692552,0.11601157,-0.00086899,0.00004963,0.00004169,0.00017229,0.0006
 4205,0.00005934,0.00030690,-0.00001244,0.00014689,-0.00464999,0.002151
 50,-0.00191478,-0.00046651,-0.00021325,-0.00007419,-0.04955302,0.02719
 956,-0.06009116,0.00003082,-0.00000946,-0.00007641,0.00047571,-0.00018
 377,0.00017357,0.00039204,0.00101980,0.00060848,0.00018616,-0.00014873
 ,0.00005664,-0.00003410,0.00004098,-0.00001981,0.00113345,0.00011963,-
 0.00070410,-0.00007138,-0.00028719,0.00001708,-0.00001028,0.00002595,-
 0.00008319,-0.00008605,-0.00007003,-0.00009204,0.00008012,0.00003656,0
 .00004505,-0.00046351,-0.00069271,-0.00034270,0.05430231,-0.03026024,0
 .06136624,0.00005672,-0.00005738,-0.00091271,-0.00006510,-0.00009086,0
 .00013116,-0.00001068,0.00016117,-0.00012967,-0.00246623,-0.00199942,-
 0.00335074,0.00036244,-0.00017854,-0.00038655,-0.09044396,-0.04580221,
 -0.08598252,-0.00015699,-0.00003709,0.00020335,0.00078966,-0.00094563,
 0.00023832,0.00031517,0.00005522,0.00055530,0.00007918,0.00018754,0.00
 017464,-0.00000691,-0.00020493,0.00042207,-0.00014417,0.00015909,-0.00
 014789,-0.00002413,-0.00000439,0.00004926,-0.00000590,-0.00000364,0.00
 009573,0.00004663,0.00001364,0.00004438,0.00006572,0.00001445,-0.00000
 838,-0.00021772,0.00006227,0.00029586,-0.01071327,-0.01289160,-0.02294
 919,0.09343167,0.00052036,0.00161667,-0.00164875,-0.00010160,0.0000766
 3,0.00019460,0.00011343,-0.00022624,-0.00003527,-0.01448821,-0.0163538
 1,-0.02736066,-0.00000715,0.00014949,0.00012652,-0.04545793,-0.0949512
 0,-0.09196455,0.00004762,-0.00000391,-0.00004042,-0.00075096,-0.006310
 67,0.00200015,0.00062395,0.00121134,-0.00017479,0.00050699,0.00030840,
 0.00012093,-0.00010246,0.00021075,0.00114427,-0.00012826,-0.00010035,-
 0.00001097,-0.00009713,0.00002842,0.00000486,-0.00001753,0.00007838,0.
 00002514,0.00001866,0.00013025,-0.00001656,-0.00011445,0.00001872,0.00
 001667,0.00014578,-0.00021261,0.00000883,0.00510525,0.00669545,0.01320
 368,0.05171702,0.10663937,0.00042659,0.00052638,0.00142552,-0.00010419
 ,-0.00008574,0.00006568,-0.00006337,0.00016674,-0.00002401,0.00319100,
 0.00263274,0.00490665,0.00021343,-0.00004475,-0.00006754,-0.08598583,-
 0.09260233,-0.21985540,-0.00004663,0.00000556,0.00006371,0.00085346,0.
 00172742,0.00089813,0.00008592,-0.00073229,0.00026471,-0.00005392,-0.0
 0004233,0.00020965,-0.00053683,-0.00027823,0.00017494,-0.00014229,-0.0
 0015345,-0.00006618,-0.00004230,-0.00005112,0.00000794,-0.00000993,-0.
 00004254,0.00002670,0.00006356,-0.00004492,0.00000058,-0.00000684,0.00
 000275,-0.00000118,-0.00003916,0.00006701,0.00006862,-0.00178393,-0.00
 209809,-0.00548601,0.09489149,0.10113586,0.23676182,0.00060253,-0.0008
 7296,-0.00049559,0.00018147,0.00032719,0.00006871,0.00022593,0.0000378
 3,0.00008384,-0.00307566,0.00027858,0.00206530,-0.00021179,-0.00002377
 ,-0.00012019,-0.15333120,-0.02015438,0.13048102,-0.00000543,-0.0000238
 3,0.00003215,-0.00019498,-0.00007508,-0.00003576,0.00058413,-0.0002067
 8,-0.00029149,-0.00002199,0.00006739,0.00038434,-0.00001992,0.00007234
 ,0.00023254,0.00016689,-0.00036916,-0.00012174,-0.00000448,-0.00022279
 ,0.00003540,-0.00004260,0.00000246,-0.00005260,-0.00001356,-0.00005075
 ,-0.00003105,0.00012114,-0.00002524,-0.00000693,-0.00008530,0.00001389
 ,0.00011268,-0.01697145,-0.00360945,0.02208480,0.00916223,0.00244753,-
 0.01089479,0.16299030,0.00021361,-0.00707520,-0.00061610,0.00060490,-0
 .00052054,-0.00010207,-0.00002172,0.00011126,0.00004299,-0.02148262,-0
 .00309934,0.02690280,-0.00005928,-0.00006281,0.00007337,-0.01938785,-0
 .04950672,0.02350088,0.00001446,0.00004416,-0.00004828,-0.00009696,0.0
 0123754,-0.00075667,0.00064145,0.00143945,-0.00002271,-0.00125702,-0.0
 0050661,0.00170560,0.00022569,0.00004046,-0.00001072,-0.00011439,0.000
 44187,-0.00008365,-0.00009489,0.00022873,-0.00003250,-0.00003632,0.000
 00272,-0.00004554,0.00007079,0.00004360,0.00005884,-0.00003518,0.00002
 499,-0.00002274,0.00002084,-0.00001767,-0.00001097,0.00847650,0.001197
 29,-0.01262526,0.00989606,0.00094704,-0.01006281,0.02241501,0.05502829
 ,-0.00028702,0.00169346,0.00083135,-0.00029445,0.00009354,0.00015190,0
 .00006413,0.00000303,-0.00002618,0.00181014,-0.00040011,-0.00371544,-0
 .00006341,0.00005629,-0.00000944,0.13017490,0.02448044,-0.20705164,0.0
 0000833,-0.00002577,0.00000180,-0.00004302,0.00034029,0.00052068,-0.00
 027369,0.00016641,-0.00010778,0.00057646,0.00015280,-0.00018903,-0.000
 08975,-0.00012693,0.00055641,-0.00009844,-0.00011677,-0.00002747,0.000
 03098,-0.00004301,-0.00000426,0.00004210,0.00000472,0.00002319,-0.0000
 0807,-0.00001576,-0.00000136,0.00002398,-0.00001750,0.00000153,0.00016
 275,0.00006211,-0.00004998,-0.00511844,-0.00170077,0.00639019,0.016833
 51,0.00324057,-0.01934869,-0.14345891,-0.02785149,0.22203717,0.0000362
 7,0.00007596,0.00019903,0.00051851,-0.00014129,-0.00024527,0.00056018,
 0.00014903,0.00139698,0.00000170,0.00003075,0.00015973,-0.01873477,-0.
 00197700,0.00541329,0.00007179,-0.00008366,-0.00006747,-0.28355670,-0.
 02186108,0.07934814,0.00002637,-0.00010823,-0.00005529,-0.00003486,0.0
 0000249,-0.00007502,-0.00000058,0.00002068,-0.00001502,0.00007028,-0.0
 0002903,-0.00002127,-0.00000082,0.00005974,0.00010067,-0.00004308,0.00
 000318,-0.00012296,0.00031692,0.00044126,-0.00099764,-0.00008985,-0.00
 000571,-0.00005750,0.00085003,-0.00018835,0.00000040,-0.00041502,-0.00
 194552,-0.00330669,-0.00005186,0.00013080,0.00003414,-0.00007651,0.000
 00908,-0.00003611,-0.00000328,0.00001852,0.00000310,0.30979277,0.00001
 426,-0.00000649,0.00008813,0.00015774,-0.00016782,0.00004929,0.0006934
 8,0.00012447,0.00057365,-0.00004704,0.00000678,0.00002481,-0.01519316,
 -0.00211992,0.00467121,0.00003415,-0.00003764,-0.00002488,-0.02160739,
 -0.04958070,0.00803860,-0.00001257,-0.00007758,-0.00005826,-0.00002729
 ,0.00000072,-0.00003958,0.00001325,0.00000667,-0.00000802,0.00001163,-
 0.00000713,-0.00000550,-0.00005272,-0.00002130,0.00000086,-0.00000146,
 0.00002414,-0.00001509,0.00025561,0.00040166,-0.00011311,0.00011813,-0
 .00002072,-0.00011217,0.00010093,0.00016432,0.00077549,-0.00160118,-0.
 00052043,-0.00253953,-0.00003123,0.00008505,0.00001880,-0.00004353,0.0
 0001731,-0.00002073,-0.00000866,0.00000246,0.00000496,0.02650172,0.050
 01861,-0.00000034,0.00003576,0.00014044,0.00019581,-0.00013176,0.00001
 343,-0.00107451,-0.00038705,0.00195075,-0.00005149,0.00001070,0.000056
 99,-0.02432355,-0.00155736,0.00715726,0.00005006,-0.00005419,-0.000063
 59,0.08020440,0.00816268,-0.07349478,-0.00000189,-0.00007645,-0.000055
 86,-0.00001604,-0.00000017,-0.00006161,0.00000155,0.00001021,-0.000019
 26,0.00005776,-0.00001257,0.00000420,0.00002113,0.00003913,0.00005404,
 0.00003134,0.00003134,-0.00000214,0.00060520,-0.00000170,-0.00030298,0
 .00009911,0.00010568,-0.00004531,0.00083649,0.00042119,0.00099096,-0.0
 0311652,-0.00200608,-0.00333807,-0.00003180,0.00009877,0.00001241,-0.0
 0005907,0.00001713,-0.00001442,-0.00001808,0.00000733,0.00000133,-0.08
 488263,-0.00663510,0.07847610,0.00005073,0.00009022,-0.00001279,-0.000
 17273,-0.00026604,0.00006861,0.00047702,-0.00044951,0.00087792,-0.0000
 2999,-0.00009686,-0.00014537,0.00709584,-0.01921993,-0.00504960,0.0000
 2519,-0.00001252,0.00005090,-0.07991516,0.08537839,0.02170477,0.000039
 45,0.00006646,0.00008869,0.00001571,0.00002295,0.00003506,-0.00002391,
 0.00000427,-0.00000264,-0.00000556,-0.00000246,0.00001946,-0.00000987,
 0.00013261,-0.00003740,0.00002267,0.00006395,0.00004826,-0.00006709,0.
 00017698,-0.00002083,0.00007384,0.00039210,0.00015469,-0.00152345,-0.0
 0188389,-0.00351545,0.00088446,0.00006533,0.00094833,0.00003323,0.0000
 0284,-0.00001216,0.00000492,0.00002147,0.00000462,-0.00001827,-0.00000
 063,-0.00000327,-0.01020317,0.02871720,0.00586184,0.08404079,0.0000388
 1,-0.00000634,-0.00004738,-0.00018600,0.00029834,0.00006936,0.00019848
 ,0.00072205,0.00095353,-0.00006403,-0.00002799,-0.00006482,0.00441054,
 -0.01378439,-0.00345047,0.00006960,-0.00004487,0.00003964,0.08489166,-
 0.26656773,-0.05344657,-0.00003576,-0.00004661,-0.00005210,-0.00002238
 ,0.00001799,-0.00000638,-0.00002335,0.00001840,-0.00001831,-0.00003479
 ,0.00000293,0.00001129,0.00010389,0.00006998,0.00020649,-0.00000896,0.
 00006482,-0.00003064,-0.00008158,-0.00004046,-0.00006952,-0.00002594,0
 .00059666,-0.00068594,-0.00232620,0.00023981,-0.00187776,-0.00023172,0
 .00025998,0.00037647,0.00000943,0.00005699,-0.00000138,-0.00002034,0.0
 0002876,-0.00000523,-0.00003093,-0.00000263,0.00000155,-0.00111560,0.0
 0376026,0.00108546,-0.09173577,0.29019334,-0.00000007,0.00006173,-0.00
 001348,-0.00031518,0.00005121,-0.00008359,0.00106560,-0.00136802,0.001
 42909,-0.00002904,-0.00002657,-0.00004882,0.00886896,-0.02230646,-0.00
 663203,0.00005111,-0.00003209,0.00003113,0.02139196,-0.05292091,-0.060
 14082,-0.00003007,-0.00003341,0.00001925,0.00000384,0.00001824,-0.0000
 0389,-0.00004325,0.00003783,-0.00003192,0.00002253,0.00000721,0.000006
 96,0.00006644,0.00028052,0.00009621,0.00002094,0.00006703,0.00002823,0
 .00005978,0.00002663,-0.00004670,-0.00042116,0.00066574,-0.00031397,-0
 .00316631,-0.00177606,-0.00307093,0.00018555,0.00078956,0.00094539,0.0
 0002990,0.00003925,0.00000638,-0.00001577,0.00002123,-0.00000937,-0.00
 000775,0.00001388,-0.00000642,0.00328444,-0.00971270,-0.00328380,-0.02
 062645,0.06134986,0.06392078,0.00011352,-0.00001059,0.00000875,0.00071
 798,0.00058627,-0.00099037,-0.00235021,-0.00254936,-0.00191156,0.00000
 021,0.00003109,-0.00000368,-0.00032916,0.01242776,-0.01576541,-0.00000
 890,0.00002695,0.00002081,-0.04716049,-0.00144988,0.00271527,0.0000213
 4,0.00002385,-0.00000613,-0.00002216,-0.00001232,0.00001329,-0.0000135
 3,0.00000382,0.00001279,-0.00004198,-0.00000018,0.00000754,0.00002433,
 -0.00003368,0.00003334,-0.00024395,-0.00015545,-0.00035114,0.00040262,
 0.00005245,-0.00033608,-0.00005934,-0.00027778,0.00026193,0.00058900,-
 0.00009015,0.00070131,0.00030278,0.00064476,0.00057107,0.00002597,-0.0
 0001548,-0.00003359,0.00001725,-0.00001146,0.00001607,-0.00003471,-0.0
 0001097,0.00000809,0.00096568,-0.01799187,0.02561124,-0.00079463,0.006
 22094,-0.01039600,0.04787838,-0.00000870,-0.00006650,-0.00008951,-0.00
 013326,0.00069666,-0.00068840,-0.00163795,-0.00120734,-0.00157540,0.00
 000912,0.00000563,-0.00001609,0.00090710,0.00909325,-0.01406019,-0.000
 01788,0.00001956,0.00001961,-0.00103749,-0.13142838,0.12593984,-0.0000
 2273,-0.00001382,0.00002415,0.00000429,-0.00000355,0.00001076,0.000001
 18,0.00000429,-0.00001260,-0.00003382,0.00000827,0.00000711,0.00004684
 ,0.00001437,0.00010146,-0.00009394,-0.00005451,-0.00015192,0.00001240,
 -0.00018816,-0.00001298,-0.00026609,0.00039148,-0.00019205,0.00065347,
 0.00062425,0.00044769,0.00045406,0.00038750,0.00071048,0.00000236,-0.0
 0001326,-0.00000367,0.00001311,0.00000180,0.00000008,0.00001157,0.0000
 0168,-0.00000205,0.00001225,-0.00205269,0.00083705,-0.00146717,-0.0158
 0928,0.02474632,0.00259130,0.13958874,0.00006730,-0.00020458,-0.000225
 56,0.00037964,0.00129869,-0.00063039,-0.00353511,-0.00388142,-0.002259
 96,0.00001964,0.00004999,-0.00002989,0.00172225,0.01353512,-0.01809226
 ,-0.00001440,0.00001662,0.00002657,0.00211487,0.12497023,-0.23257908,0
 .00003061,-0.00001554,0.00000191,-0.00005355,-0.00001679,0.00001851,-0
 .00000463,0.00001374,0.00002111,-0.00016507,0.00002723,-0.00000949,0.0
 0000981,-0.00006341,0.00004177,-0.00024972,-0.00012118,-0.00039153,-0.
 00005078,-0.00022428,0.00039457,-0.00004945,0.00008869,0.00019507,0.00
 070323,-0.00024540,0.00040428,-0.00022907,0.00010946,0.00091321,0.0000
 2466,0.00002346,-0.00003955,0.00000742,-0.00000846,-0.00000188,-0.0000
 4589,-0.00001419,0.00002213,-0.00005706,0.00503887,-0.00817610,-0.0004
 3720,-0.00433715,0.00720235,-0.00018753,-0.13603970,0.25319420\\0.0000
 0023,-0.00000155,-0.00000066,-0.00000019,-0.00000236,0.00000003,0.0000
 0034,-0.00000102,-0.00000082,0.00000007,0.00000063,-0.00000026,-0.0000
 0028,0.00000065,0.00000020,-0.00000069,0.00000120,0.00000192,0.0000002
 7,0.00000179,-0.00000054,0.00000043,0.00000155,-0.00000106,0.00000043,
 0.00000084,-0.00000088,0.00000088,-0.00000195,-0.00000226,0.,-0.000002
 57,-0.00000005,-0.00000066,-0.00000216,0.00000154,0.00000004,-0.000003
 91,-0.00000031,0.00000039,-0.00000212,-0.00000111,0.00000093,-0.000000
 67,-0.00000227,-0.00000066,0.00000016,0.00000170,-0.00000007,0.0000017
 8,0.00000047,-0.00000104,0.00000090,0.00000249,-0.00000105,0.00000009,
 0.00000253,-0.00000067,0.00000266,0.00000198,0.00000038,0.00000071,-0.
 00000084,0.00000090,0.00000228,-0.00000203,0.00000002,0.00000305,0.000
 00022\\\@


 LOGIC IS A SYSTEMATIC METHOD OF COMING TO THE
 WRONG CONCLUSION WITH CONFIDENCE.
 Job cpu time:       0 days  5 hours 36 minutes 47.0 seconds.
 Elapsed time:       0 days  2 hours 48 minutes 25.0 seconds.
 File lengths (MBytes):  RWF=   1488 Int=      0 D2E=      0 Chk=     32 Scr=     32
 Normal termination of Gaussian 16 at Sun Sep 29 16:39:31 2019.
