 Entering Gaussian System, Link 0=g16
 Input=loose/species/CCCCCCC/conformers/CCCCCCC_629.com
 Output=loose/species/CCCCCCC/conformers/CCCCCCC_629.log
 Initial command:
 /shared/centos7/gaussian/g16/l1.exe "/scratch/harms.n/gauss_scrdir/Gau-41484.inp" -scrdir="/scratch/harms.n/gauss_scrdir/"
 Entering Link 1 = /shared/centos7/gaussian/g16/l1.exe PID=     41485.
  
 Copyright (c) 1988,1990,1992,1993,1995,1998,2003,2009,2016,
            Gaussian, Inc.  All Rights Reserved.
  
 This is part of the Gaussian(R) 16 program.  It is based on
 the Gaussian(R) 09 system (copyright 2009, Gaussian, Inc.),
 the Gaussian(R) 03 system (copyright 2003, Gaussian, Inc.),
 the Gaussian(R) 98 system (copyright 1998, Gaussian, Inc.),
 the Gaussian(R) 94 system (copyright 1995, Gaussian, Inc.),
 the Gaussian 92(TM) system (copyright 1992, Gaussian, Inc.),
 the Gaussian 90(TM) system (copyright 1990, Gaussian, Inc.),
 the Gaussian 88(TM) system (copyright 1988, Gaussian, Inc.),
 the Gaussian 86(TM) system (copyright 1986, Carnegie Mellon
 University), and the Gaussian 82(TM) system (copyright 1983,
 Carnegie Mellon University). Gaussian is a federally registered
 trademark of Gaussian, Inc.
  
 This software contains proprietary and confidential information,
 including trade secrets, belonging to Gaussian, Inc.
  
 This software is provided under written license and may be
 used, copied, transmitted, or stored only in accord with that
 written license.
  
 The following legend is applicable only to US Government
 contracts under FAR:
  
                    RESTRICTED RIGHTS LEGEND
  
 Use, reproduction and disclosure by the US Government is
 subject to restrictions as set forth in subparagraphs (a)
 and (c) of the Commercial Computer Software - Restricted
 Rights clause in FAR 52.227-19.
  
 Gaussian, Inc.
 340 Quinnipiac St., Bldg. 40, Wallingford CT 06492
  
  
 ---------------------------------------------------------------
 Warning -- This program may not be used in any manner that
 competes with the business of Gaussian, Inc. or will provide
 assistance to any competitor of Gaussian, Inc.  The licensee
 of this program is prohibited from giving any competitor of
 Gaussian, Inc. access to this program.  By using this program,
 the user acknowledges that Gaussian, Inc. is engaged in the
 business of creating and licensing software in the field of
 computational chemistry and represents and warrants to the
 licensee that it is not a competitor of Gaussian, Inc. and that
 it will not use this program in any manner prohibited above.
 ---------------------------------------------------------------
  

 Cite this work as:
 Gaussian 16, Revision A.03,
 M. J. Frisch, G. W. Trucks, H. B. Schlegel, G. E. Scuseria, 
 M. A. Robb, J. R. Cheeseman, G. Scalmani, V. Barone, 
 G. A. Petersson, H. Nakatsuji, X. Li, M. Caricato, A. V. Marenich, 
 J. Bloino, B. G. Janesko, R. Gomperts, B. Mennucci, H. P. Hratchian, 
 J. V. Ortiz, A. F. Izmaylov, J. L. Sonnenberg, D. Williams-Young, 
 F. Ding, F. Lipparini, F. Egidi, J. Goings, B. Peng, A. Petrone, 
 T. Henderson, D. Ranasinghe, V. G. Zakrzewski, J. Gao, N. Rega, 
 G. Zheng, W. Liang, M. Hada, M. Ehara, K. Toyota, R. Fukuda, 
 J. Hasegawa, M. Ishida, T. Nakajima, Y. Honda, O. Kitao, H. Nakai, 
 T. Vreven, K. Throssell, J. A. Montgomery, Jr., J. E. Peralta, 
 F. Ogliaro, M. J. Bearpark, J. J. Heyd, E. N. Brothers, K. N. Kudin, 
 V. N. Staroverov, T. A. Keith, R. Kobayashi, J. Normand, 
 K. Raghavachari, A. P. Rendell, J. C. Burant, S. S. Iyengar, 
 J. Tomasi, M. Cossi, J. M. Millam, M. Klene, C. Adamo, R. Cammi, 
 J. W. Ochterski, R. L. Martin, K. Morokuma, O. Farkas, 
 J. B. Foresman, and D. J. Fox, Gaussian, Inc., Wallingford CT, 2016.
 
 ******************************************
 Gaussian 16:  EM64L-G16RevA.03 25-Dec-2016
                29-Sep-2019 
 ******************************************
 %nprocshared=20
 Will use up to   20 processors via shared memory.
 %mem=5GB
 ----------------------------------------------------------------------
 #p m062x/cc-pVTZ opt=(calcfc,maxcycles=900,Tight) freq IOP(7/33=1,2/16
 =3) scf=(maxcycle=900)
 ----------------------------------------------------------------------
 1/6=900,7=10,10=4,18=20,19=15,26=3,38=1/1,3;
 2/9=110,12=2,16=3,17=6,18=5,40=1/2;
 3/5=16,6=1,11=2,25=1,30=1,71=2,74=-55,140=1/1,2,3;
 4//1;
 5/5=2,7=900,38=5/2;
 8/6=4,10=90,11=11/1;
 11/6=1,8=1,9=11,15=111,16=1/1,2,10;
 10/6=1,13=1/2;
 6/7=2,8=2,9=2,10=2,28=1/1;
 7/10=1,18=20,25=1,33=1/1,2,3,16;
 1/6=900,7=10,10=4,18=20,19=15,26=3/3(2);
 2/9=110,16=3/2;
 99//99;
 2/9=110,16=3/2;
 3/5=16,6=1,11=2,25=1,30=1,71=1,74=-55/1,2,3;
 4/5=5,16=3,69=1/1;
 5/5=2,7=900,38=5/2;
 7/33=1/1,2,3,16;
 1/6=900,7=10,18=20,19=15,26=3/3(-5);
 2/9=110,16=3/2;
 6/7=2,8=2,9=2,10=2,19=2,28=1/1;
 99/9=1/99;
 Leave Link    1 at Sun Sep 29 07:45:29 2019, MaxMem=   671088640 cpu:               4.0 elap:               2.0
 (Enter /shared/centos7/gaussian/g16/l101.exe)
 ------------------------------
 Gaussian input prepared by ASE
 ------------------------------
 Symbolic Z-matrix:
 Charge =  0 Multiplicity = 1
 C                     1.469    -1.12739   0.54075 
 C                     0.1703   -0.48651   0.89375 
 C                    -1.08673  -1.28139   0.64266 
 C                     2.24388  -0.43247  -0.52774 
 C                    -1.41204  -1.58653  -0.80052 
 C                     2.57072  -1.22662  -1.72444 
 C                    -0.36486  -2.40533  -1.50968 
 H                     3.20878  -0.07106  -0.07224 
 H                     1.7121    0.49953  -0.83486 
 H                     1.31691  -2.19404   0.27112 
 H                     2.09752  -1.15677   1.45439 
 H                     0.08115   0.48536   0.38365 
 H                     0.18348  -0.23827   1.97609 
 H                    -1.92872  -0.71013   1.06908 
 H                    -1.05312  -2.22986   1.21748 
 H                    -2.37513  -2.16083  -0.81235 
 H                    -1.59468  -0.64715  -1.34958 
 H                     2.31946  -2.29808  -1.61163 
 H                     2.02713  -0.85267  -2.64216 
 H                     3.65608  -1.17305  -1.95385 
 H                     0.05611  -3.15514  -0.83875 
 H                     0.49124  -1.76669  -1.86334 
 H                    -0.80409  -2.93653  -2.40232 
 
 ITRead=  0  0  0  0  0  0  0  0  0  0  0  0  0  0  0  0  0  0  0  0
 ITRead=  0  0  0
 MicOpt= -1 -1 -1 -1 -1 -1 -1 -1 -1 -1 -1 -1 -1 -1 -1 -1 -1 -1 -1 -1
 MicOpt= -1 -1 -1
 NAtoms=     23 NQM=       23 NQMF=       0 NMMI=      0 NMMIF=      0
                NMic=       0 NMicF=      0.
                    Isotopes and Nuclear Properties:
 (Nuclear quadrupole moments (NQMom) in fm**2, nuclear magnetic moments (NMagM)
  in nuclear magnetons)

  Atom         1           2           3           4           5           6           7           8           9          10
 IAtWgt=          12          12          12          12          12          12          12           1           1           1
 AtmWgt=  12.0000000  12.0000000  12.0000000  12.0000000  12.0000000  12.0000000  12.0000000   1.0078250   1.0078250   1.0078250
 NucSpn=           0           0           0           0           0           0           0           1           1           1
 AtZEff=  -0.0000000  -0.0000000  -0.0000000  -0.0000000  -0.0000000  -0.0000000  -0.0000000  -0.0000000  -0.0000000  -0.0000000
 NQMom=    0.0000000   0.0000000   0.0000000   0.0000000   0.0000000   0.0000000   0.0000000   0.0000000   0.0000000   0.0000000
 NMagM=    0.0000000   0.0000000   0.0000000   0.0000000   0.0000000   0.0000000   0.0000000   2.7928460   2.7928460   2.7928460
 AtZNuc=   6.0000000   6.0000000   6.0000000   6.0000000   6.0000000   6.0000000   6.0000000   1.0000000   1.0000000   1.0000000

  Atom        11          12          13          14          15          16          17          18          19          20
 IAtWgt=           1           1           1           1           1           1           1           1           1           1
 AtmWgt=   1.0078250   1.0078250   1.0078250   1.0078250   1.0078250   1.0078250   1.0078250   1.0078250   1.0078250   1.0078250
 NucSpn=           1           1           1           1           1           1           1           1           1           1
 AtZEff=  -0.0000000  -0.0000000  -0.0000000  -0.0000000  -0.0000000  -0.0000000  -0.0000000  -0.0000000  -0.0000000  -0.0000000
 NQMom=    0.0000000   0.0000000   0.0000000   0.0000000   0.0000000   0.0000000   0.0000000   0.0000000   0.0000000   0.0000000
 NMagM=    2.7928460   2.7928460   2.7928460   2.7928460   2.7928460   2.7928460   2.7928460   2.7928460   2.7928460   2.7928460
 AtZNuc=   1.0000000   1.0000000   1.0000000   1.0000000   1.0000000   1.0000000   1.0000000   1.0000000   1.0000000   1.0000000

  Atom        21          22          23
 IAtWgt=           1           1           1
 AtmWgt=   1.0078250   1.0078250   1.0078250
 NucSpn=           1           1           1
 AtZEff=  -0.0000000  -0.0000000  -0.0000000
 NQMom=    0.0000000   0.0000000   0.0000000
 NMagM=    2.7928460   2.7928460   2.7928460
 AtZNuc=   1.0000000   1.0000000   1.0000000
 Leave Link  101 at Sun Sep 29 07:45:31 2019, MaxMem=   671088640 cpu:               2.5 elap:               1.3
 (Enter /shared/centos7/gaussian/g16/l103.exe)

 GradGradGradGradGradGradGradGradGradGradGradGradGradGradGradGradGradGrad
 Berny optimization.
 Initialization pass.
                           ----------------------------
                           !    Initial Parameters    !
                           ! (Angstroms and Degrees)  !
 --------------------------                            --------------------------
 ! Name  Definition              Value          Derivative Info.                !
 --------------------------------------------------------------------------------
 ! R1    R(1,2)                  1.4906         calculate D2E/DX2 analytically  !
 ! R2    R(1,4)                  1.4917         calculate D2E/DX2 analytically  !
 ! R3    R(1,10)                 1.1107         calculate D2E/DX2 analytically  !
 ! R4    R(1,11)                 1.1093         calculate D2E/DX2 analytically  !
 ! R5    R(2,3)                  1.5083         calculate D2E/DX2 analytically  !
 ! R6    R(2,12)                 1.1012         calculate D2E/DX2 analytically  !
 ! R7    R(2,13)                 1.1105         calculate D2E/DX2 analytically  !
 ! R8    R(3,5)                  1.5105         calculate D2E/DX2 analytically  !
 ! R9    R(3,14)                 1.1032         calculate D2E/DX2 analytically  !
 ! R10   R(3,15)                 1.1096         calculate D2E/DX2 analytically  !
 ! R11   R(4,6)                  1.473          calculate D2E/DX2 analytically  !
 ! R12   R(4,8)                  1.1266         calculate D2E/DX2 analytically  !
 ! R13   R(4,9)                  1.1161         calculate D2E/DX2 analytically  !
 ! R14   R(5,7)                  1.5066         calculate D2E/DX2 analytically  !
 ! R15   R(5,16)                 1.1214         calculate D2E/DX2 analytically  !
 ! R16   R(5,17)                 1.1033         calculate D2E/DX2 analytically  !
 ! R17   R(6,18)                 1.1063         calculate D2E/DX2 analytically  !
 ! R18   R(6,19)                 1.1303         calculate D2E/DX2 analytically  !
 ! R19   R(6,20)                 1.1106         calculate D2E/DX2 analytically  !
 ! R20   R(7,21)                 1.0907         calculate D2E/DX2 analytically  !
 ! R21   R(7,22)                 1.1251         calculate D2E/DX2 analytically  !
 ! R22   R(7,23)                 1.1278         calculate D2E/DX2 analytically  !
 ! A1    A(2,1,4)              114.9565         calculate D2E/DX2 analytically  !
 ! A2    A(2,1,10)             110.5533         calculate D2E/DX2 analytically  !
 ! A3    A(2,1,11)             108.0578         calculate D2E/DX2 analytically  !
 ! A4    A(4,1,10)             110.1602         calculate D2E/DX2 analytically  !
 ! A5    A(4,1,11)             107.937          calculate D2E/DX2 analytically  !
 ! A6    A(10,1,11)            104.6012         calculate D2E/DX2 analytically  !
 ! A7    A(1,2,3)              117.3938         calculate D2E/DX2 analytically  !
 ! A8    A(1,2,12)             109.8935         calculate D2E/DX2 analytically  !
 ! A9    A(1,2,13)             108.4557         calculate D2E/DX2 analytically  !
 ! A10   A(3,2,12)             108.6943         calculate D2E/DX2 analytically  !
 ! A11   A(3,2,13)             106.8543         calculate D2E/DX2 analytically  !
 ! A12   A(12,2,13)            104.7818         calculate D2E/DX2 analytically  !
 ! A13   A(2,3,5)              116.4225         calculate D2E/DX2 analytically  !
 ! A14   A(2,3,14)             107.3877         calculate D2E/DX2 analytically  !
 ! A15   A(2,3,15)             109.8159         calculate D2E/DX2 analytically  !
 ! A16   A(5,3,14)             108.03           calculate D2E/DX2 analytically  !
 ! A17   A(5,3,15)             109.1961         calculate D2E/DX2 analytically  !
 ! A18   A(14,3,15)            105.397          calculate D2E/DX2 analytically  !
 ! A19   A(1,4,6)              116.4915         calculate D2E/DX2 analytically  !
 ! A20   A(1,4,8)              107.7439         calculate D2E/DX2 analytically  !
 ! A21   A(1,4,9)              109.7924         calculate D2E/DX2 analytically  !
 ! A22   A(6,4,8)              108.1441         calculate D2E/DX2 analytically  !
 ! A23   A(6,4,9)              109.4132         calculate D2E/DX2 analytically  !
 ! A24   A(8,4,9)              104.5635         calculate D2E/DX2 analytically  !
 ! A25   A(3,5,7)              114.193          calculate D2E/DX2 analytically  !
 ! A26   A(3,5,16)             107.3672         calculate D2E/DX2 analytically  !
 ! A27   A(3,5,17)             109.8233         calculate D2E/DX2 analytically  !
 ! A28   A(7,5,16)             108.2787         calculate D2E/DX2 analytically  !
 ! A29   A(7,5,17)             110.0928         calculate D2E/DX2 analytically  !
 ! A30   A(16,5,17)            106.7751         calculate D2E/DX2 analytically  !
 ! A31   A(4,6,18)             112.8877         calculate D2E/DX2 analytically  !
 ! A32   A(4,6,19)             111.9974         calculate D2E/DX2 analytically  !
 ! A33   A(4,6,20)             111.0174         calculate D2E/DX2 analytically  !
 ! A34   A(18,6,19)            107.0974         calculate D2E/DX2 analytically  !
 ! A35   A(18,6,20)            106.8423         calculate D2E/DX2 analytically  !
 ! A36   A(19,6,20)            106.6381         calculate D2E/DX2 analytically  !
 ! A37   A(5,7,21)             110.6303         calculate D2E/DX2 analytically  !
 ! A38   A(5,7,22)             111.6128         calculate D2E/DX2 analytically  !
 ! A39   A(5,7,23)             110.9681         calculate D2E/DX2 analytically  !
 ! A40   A(21,7,22)            106.8521         calculate D2E/DX2 analytically  !
 ! A41   A(21,7,23)            108.2643         calculate D2E/DX2 analytically  !
 ! A42   A(22,7,23)            108.3555         calculate D2E/DX2 analytically  !
 ! D1    D(4,1,2,3)            116.9699         calculate D2E/DX2 analytically  !
 ! D2    D(4,1,2,12)            -7.8803         calculate D2E/DX2 analytically  !
 ! D3    D(4,1,2,13)          -121.8849         calculate D2E/DX2 analytically  !
 ! D4    D(10,1,2,3)            -8.5142         calculate D2E/DX2 analytically  !
 ! D5    D(10,1,2,12)         -133.3643         calculate D2E/DX2 analytically  !
 ! D6    D(10,1,2,13)          112.6311         calculate D2E/DX2 analytically  !
 ! D7    D(11,1,2,3)          -122.4316         calculate D2E/DX2 analytically  !
 ! D8    D(11,1,2,12)          112.7182         calculate D2E/DX2 analytically  !
 ! D9    D(11,1,2,13)           -1.2864         calculate D2E/DX2 analytically  !
 ! D10   D(2,1,4,6)           -121.9437         calculate D2E/DX2 analytically  !
 ! D11   D(2,1,4,8)            116.4014         calculate D2E/DX2 analytically  !
 ! D12   D(2,1,4,9)              3.0893         calculate D2E/DX2 analytically  !
 ! D13   D(10,1,4,6)             3.7442         calculate D2E/DX2 analytically  !
 ! D14   D(10,1,4,8)          -117.9107         calculate D2E/DX2 analytically  !
 ! D15   D(10,1,4,9)           128.7772         calculate D2E/DX2 analytically  !
 ! D16   D(11,1,4,6)           117.3915         calculate D2E/DX2 analytically  !
 ! D17   D(11,1,4,8)            -4.2633         calculate D2E/DX2 analytically  !
 ! D18   D(11,1,4,9)          -117.5754         calculate D2E/DX2 analytically  !
 ! D19   D(1,2,3,5)            -65.4618         calculate D2E/DX2 analytically  !
 ! D20   D(1,2,3,14)           173.3555         calculate D2E/DX2 analytically  !
 ! D21   D(1,2,3,15)            59.2406         calculate D2E/DX2 analytically  !
 ! D22   D(12,2,3,5)            59.9847         calculate D2E/DX2 analytically  !
 ! D23   D(12,2,3,14)          -61.198          calculate D2E/DX2 analytically  !
 ! D24   D(12,2,3,15)         -175.3129         calculate D2E/DX2 analytically  !
 ! D25   D(13,2,3,5)           172.5632         calculate D2E/DX2 analytically  !
 ! D26   D(13,2,3,14)           51.3805         calculate D2E/DX2 analytically  !
 ! D27   D(13,2,3,15)          -62.7344         calculate D2E/DX2 analytically  !
 ! D28   D(2,3,5,7)             60.9345         calculate D2E/DX2 analytically  !
 ! D29   D(2,3,5,16)          -179.0143         calculate D2E/DX2 analytically  !
 ! D30   D(2,3,5,17)           -63.2803         calculate D2E/DX2 analytically  !
 ! D31   D(14,3,5,7)          -178.2239         calculate D2E/DX2 analytically  !
 ! D32   D(14,3,5,16)          -58.1727         calculate D2E/DX2 analytically  !
 ! D33   D(14,3,5,17)           57.5612         calculate D2E/DX2 analytically  !
 ! D34   D(15,3,5,7)           -64.0831         calculate D2E/DX2 analytically  !
 ! D35   D(15,3,5,16)           55.9681         calculate D2E/DX2 analytically  !
 ! D36   D(15,3,5,17)          171.7021         calculate D2E/DX2 analytically  !
 ! D37   D(1,4,6,18)            -8.385          calculate D2E/DX2 analytically  !
 ! D38   D(1,4,6,19)           112.5937         calculate D2E/DX2 analytically  !
 ! D39   D(1,4,6,20)          -128.3265         calculate D2E/DX2 analytically  !
 ! D40   D(8,4,6,18)           113.0587         calculate D2E/DX2 analytically  !
 ! D41   D(8,4,6,19)          -125.9626         calculate D2E/DX2 analytically  !
 ! D42   D(8,4,6,20)            -6.8829         calculate D2E/DX2 analytically  !
 ! D43   D(9,4,6,18)          -133.6099         calculate D2E/DX2 analytically  !
 ! D44   D(9,4,6,19)           -12.6312         calculate D2E/DX2 analytically  !
 ! D45   D(9,4,6,20)           106.4485         calculate D2E/DX2 analytically  !
 ! D46   D(3,5,7,21)            37.5997         calculate D2E/DX2 analytically  !
 ! D47   D(3,5,7,22)           -81.2392         calculate D2E/DX2 analytically  !
 ! D48   D(3,5,7,23)           157.7917         calculate D2E/DX2 analytically  !
 ! D49   D(16,5,7,21)          -81.9397         calculate D2E/DX2 analytically  !
 ! D50   D(16,5,7,22)          159.2214         calculate D2E/DX2 analytically  !
 ! D51   D(16,5,7,23)           38.2523         calculate D2E/DX2 analytically  !
 ! D52   D(17,5,7,21)          161.6702         calculate D2E/DX2 analytically  !
 ! D53   D(17,5,7,22)           42.8313         calculate D2E/DX2 analytically  !
 ! D54   D(17,5,7,23)          -78.1378         calculate D2E/DX2 analytically  !
 --------------------------------------------------------------------------------
 Trust Radius=3.00D-01 FncErr=1.00D-07 GrdErr=1.00D-06 EigMax=2.50D+02 EigMin=1.00D-04
 Number of steps in this run=    138 maximum allowed number of steps=    138.
 GradGradGradGradGradGradGradGradGradGradGradGradGradGradGradGradGradGrad

 Leave Link  103 at Sun Sep 29 07:45:31 2019, MaxMem=   671088640 cpu:               1.4 elap:               0.7
 (Enter /shared/centos7/gaussian/g16/l202.exe)
                          Input orientation:                          
 ---------------------------------------------------------------------
 Center     Atomic      Atomic             Coordinates (Angstroms)
 Number     Number       Type             X           Y           Z
 ---------------------------------------------------------------------
      1          6           0        1.469004   -1.127390    0.540752
      2          6           0        0.170299   -0.486515    0.893749
      3          6           0       -1.086728   -1.281387    0.642663
      4          6           0        2.243882   -0.432475   -0.527744
      5          6           0       -1.412035   -1.586528   -0.800517
      6          6           0        2.570724   -1.226623   -1.724443
      7          6           0       -0.364864   -2.405333   -1.509683
      8          1           0        3.208784   -0.071062   -0.072244
      9          1           0        1.712096    0.499533   -0.834861
     10          1           0        1.316907   -2.194039    0.271117
     11          1           0        2.097524   -1.156775    1.454394
     12          1           0        0.081150    0.485357    0.383647
     13          1           0        0.183477   -0.238271    1.976088
     14          1           0       -1.928724   -0.710128    1.069076
     15          1           0       -1.053120   -2.229858    1.217483
     16          1           0       -2.375135   -2.160827   -0.812348
     17          1           0       -1.594680   -0.647148   -1.349576
     18          1           0        2.319457   -2.298079   -1.611626
     19          1           0        2.027132   -0.852674   -2.642161
     20          1           0        3.656079   -1.173050   -1.953845
     21          1           0        0.056108   -3.155142   -0.838752
     22          1           0        0.491242   -1.766686   -1.863341
     23          1           0       -0.804086   -2.936533   -2.402316
 ---------------------------------------------------------------------
                    Distance matrix (angstroms):
                    1          2          3          4          5
     1  C    0.000000
     2  C    1.490625   0.000000
     3  C    2.562394   1.508304   0.000000
     4  C    1.491652   2.514619   3.630904   0.000000
     5  C    3.210949   2.565998   1.510531   3.843433   0.000000
     6  C    2.520861   3.628324   4.356965   1.472952   4.104332
     7  C    3.033231   3.121657   2.533166   3.414956   1.506627
     8  H    2.125659   3.215298   4.519668   1.126559   4.917214
     9  H    2.144361   2.517444   3.631552   1.116134   3.756731
    10  H    1.110665   2.148958   2.597776   2.144894   2.994093
    11  H    1.109344   2.116074   3.288449   2.115397   4.193604
    12  H    2.133488   1.101220   2.133638   2.520011   2.815058
    13  H    2.122098   1.110520   2.116491   3.248408   3.474621
    14  H    3.463783   2.118169   1.103233   4.476334   2.128478
    15  H    2.834522   2.154253   1.109570   4.140849   2.148259
    16  H    4.204316   3.491894   2.133182   4.939992   1.121392
    17  H    3.631822   2.858927   2.151579   3.931418   1.103295
    18  H    2.593552   3.765309   4.209225   2.158932   3.884358
    19  H    3.243133   4.010557   4.546426   2.166635   3.969643
    20  H    3.317890   4.553108   5.408124   2.139280   5.214107
    21  H    2.830386   3.183736   2.647946   3.506565   2.148827
    22  H    2.672898   3.056696   3.000926   2.575983   2.187353
    23  H    4.135406   4.220907   3.477253   4.367429   2.181256
                    6          7          8          9         10
     6  C    0.000000
     7  C    3.170670   0.000000
     8  H    2.114759   4.503999   0.000000
     9  H    2.123255   3.634198   1.774046   0.000000
    10  H    2.547589   2.458505   2.864284   2.938485   0.000000
    11  H    3.214624   4.050679   2.178140   2.851771   1.756538
    12  H    3.684141   3.484209   3.209288   2.035915   2.952781
    13  H    4.513282   4.140946   3.657336   3.283666   2.831363
    14  H    5.321236   3.459678   5.301416   4.282970   3.656891
    15  H    4.774270   2.818142   4.948497   4.394100   2.552239
    16  H    5.115288   2.141786   6.007913   4.876831   3.847879
    17  H    4.222192   2.151580   5.003671   3.537595   3.673807
    18  H    1.106291   2.688396   2.849596   2.966291   2.135568
    19  H    1.130281   3.068371   2.934569   2.279045   3.284946
    20  H    1.110627   4.228922   2.225954   2.797986   3.385942
    21  H    3.290429   1.090678   4.476433   4.012351   1.935237
    22  H    2.152953   1.125104   3.669906   2.772004   2.328146
    23  H    3.843519   1.127778   5.453740   4.538131   3.492442
                   11         12         13         14         15
    11  H    0.000000
    12  H    2.812269   0.000000
    13  H    2.186181   1.752134   0.000000
    14  H    4.069231   2.436923   2.346639   0.000000
    15  H    3.336794   3.058471   2.463955   1.760195   0.000000
    16  H    5.113797   3.803423   4.244772   2.417347   2.423366
    17  H    4.664155   2.663651   3.793292   2.442423   3.063993
    18  H    3.279071   4.091289   4.655847   5.268282   4.402589
    19  H    4.108431   3.838318   5.010467   5.426085   5.126544
    20  H    3.747727   4.581954   5.327021   6.367290   5.775009
    21  H    3.663246   3.840328   4.055575   3.682045   2.512895
    22  H    3.736242   3.207620   4.143910   3.946089   3.477220
    23  H    5.144035   4.500507   5.237014   4.274605   3.696533
                   16         17         18         19         20
    16  H    0.000000
    17  H    1.785763   0.000000
    18  H    4.764124   4.256138   0.000000
    19  H    4.943626   3.851044   1.799070   0.000000
    20  H    6.217255   5.311514   1.780270   1.797189   0.000000
    21  H    2.626842   3.045665   2.540599   3.526837   4.258159
    22  H    3.078319   2.422476   1.920446   1.949600   3.221303
    23  H    2.365991   2.640944   3.284712   3.523604   4.817060
                   21         22         23
    21  H    0.000000
    22  H    1.779588   0.000000
    23  H    1.797903   1.826720   0.000000
 Stoichiometry    C7H16
 Framework group  C1[X(C7H16)]
 Deg. of freedom    63
 Full point group                 C1      NOp   1
 Largest Abelian subgroup         C1      NOp   1
 Largest concise Abelian subgroup C1      NOp   1
                         Standard orientation:                         
 ---------------------------------------------------------------------
 Center     Atomic      Atomic             Coordinates (Angstroms)
 Number     Number       Type             X           Y           Z
 ---------------------------------------------------------------------
      1          6           0       -0.708206   -0.978371    0.552396
      2          6           0        0.508962   -1.438908   -0.174496
      3          6           0        1.794057   -0.691704    0.080840
      4          6           0       -1.808099   -0.472663   -0.319109
      5          6           0        1.835802    0.748426   -0.373019
      6          6           0       -2.254700    0.910035   -0.077698
      7          6           0        0.810688    1.633699    0.286798
      8          1           0       -2.693832   -1.155827   -0.185320
      9          1           0       -1.523746   -0.588666   -1.392162
     10          1           0       -0.442014   -0.215387    1.314351
     11          1           0       -1.102666   -1.833456    1.138804
     12          1           0        0.316336   -1.449613   -1.258685
     13          1           0        0.695932   -2.501002    0.090560
     14          1           0        2.600950   -1.236711   -0.437827
     15          1           0        2.050491   -0.741954    1.159200
     16          1           0        2.854839    1.147212   -0.127961
     17          1           0        1.729730    0.798202   -1.470075
     18          1           0       -1.807123    1.354250    0.831272
     19          1           0       -2.000946    1.593758   -0.941218
     20          1           0       -3.356896    0.955899    0.050963
     21          1           0        0.683116    1.359038    1.334589
     22          1           0       -0.198102    1.534763   -0.201480
     23          1           0        1.122908    2.716417    0.240715
 ---------------------------------------------------------------------
 Rotational constants (GHZ):           3.3705207           1.8535526           1.3343402
 Leave Link  202 at Sun Sep 29 07:45:33 2019, MaxMem=   671088640 cpu:               3.3 elap:               1.7
 (Enter /shared/centos7/gaussian/g16/l301.exe)
 Standard basis: CC-pVTZ (5D, 7F)
 Ernie: Thresh=  0.10000D-02 Tol=  0.10000D-05 Strict=F.
 Ernie:  21 primitive shells out of 310 were deleted.
 There are   485 symmetry adapted cartesian basis functions of A   symmetry.
 There are   434 symmetry adapted basis functions of A   symmetry.
   434 basis functions,   636 primitive gaussians,   485 cartesian basis functions
    29 alpha electrons       29 beta electrons
       nuclear repulsion energy       336.7835678588 Hartrees.
 IExCor= 4336 DFT=T Ex+Corr=M062X ExCW=0 ScaHFX=  0.540000
 ScaDFX=  1.000000  1.000000  1.000000  1.000000 ScalE2=  1.000000  1.000000
 IRadAn=      5 IRanWt=     -1 IRanGd=            0 ICorTp=0 IEmpDi=  4
 NAtoms=   23 NActive=   23 NUniq=   23 SFac= 1.00D+00 NAtFMM=   60 NAOKFM=F Big=F
 Integral buffers will be    131072 words long.
 Raffenetti 2 integral format.
 Two-electron integral symmetry is turned on.
 Leave Link  301 at Sun Sep 29 07:45:34 2019, MaxMem=   671088640 cpu:               1.7 elap:               0.8
 (Enter /shared/centos7/gaussian/g16/l302.exe)
 NPDir=0 NMtPBC=     1 NCelOv=     1 NCel=       1 NClECP=     1 NCelD=      1
         NCelK=      1 NCelE2=     1 NClLst=     1 CellRange=     0.0.
 One-electron integrals computed using PRISM.
 One-electron integral symmetry used in STVInt
 NBasis=   434 RedAO= T EigKep=  2.75D-04  NBF=   434
 NBsUse=   434 1.00D-06 EigRej= -1.00D+00 NBFU=   434
 Precomputing XC quadrature grid using
 IXCGrd= 4 IRadAn=           5 IRanWt=          -1 IRanGd=           0 AccXCQ= 0.00D+00.
 Generated NRdTot=       0 NPtTot=           0 NUsed=           0 NTot=          32
 NSgBfM=   485   485   485   485   485 MxSgAt=    23 MxSgA2=    23.
 Leave Link  302 at Sun Sep 29 07:46:57 2019, MaxMem=   671088640 cpu:             165.9 elap:              82.9
 (Enter /shared/centos7/gaussian/g16/l303.exe)
 DipDrv:  MaxL=1.
 Leave Link  303 at Sun Sep 29 07:47:01 2019, MaxMem=   671088640 cpu:               8.9 elap:               4.4
 (Enter /shared/centos7/gaussian/g16/l401.exe)
 ExpMin= 1.03D-01 ExpMax= 8.24D+03 ExpMxC= 2.81D+02 IAcc=3 IRadAn=         5 AccDes= 0.00D+00
 Harris functional with IExCor= 1009 and IRadAn=       5 diagonalized for initial guess.
 HarFok:  IExCor= 1009 AccDes= 0.00D+00 IRadAn=         5 IDoV= 1 UseB2=F ITyADJ=14
 ICtDFT=  3500011 ScaDFX=  1.000000  1.000000  1.000000  1.000000
 FoFCou: FMM=F IPFlag=           0 FMFlag=      100000 FMFlg1=           0
         NFxFlg=           0 DoJE=T BraDBF=F KetDBF=T FulRan=T
         wScrn=  0.000000 ICntrl=       500 IOpCl=  0 I1Cent=   200000004 NGrid=           0
         NMat0=    1 NMatS0=      1 NMatT0=    0 NMatD0=    1 NMtDS0=    0 NMtDT0=    0
 Petite list used in FoFCou.
 Harris En= -276.305672506008    
 JPrj=0 DoOrth=F DoCkMO=F.
 Leave Link  401 at Sun Sep 29 07:47:44 2019, MaxMem=   671088640 cpu:              84.4 elap:              42.2
 (Enter /shared/centos7/gaussian/g16/l502.exe)
 Integral symmetry usage will be decided dynamically.
 Closed shell SCF:
 Using DIIS extrapolation, IDIIS=  1040.
 NGot=   671088640 LenX=   670604095 LenY=   670368385
 Requested convergence on RMS density matrix=1.00D-08 within 900 cycles.
 Requested convergence on MAX density matrix=1.00D-06.
 Requested convergence on             energy=1.00D-06.
 No special actions if energy rises.
 Fock matrices will be formed incrementally for  20 cycles.
 Integral accuracy reduced to 1.0D-05 until final iterations.

 Cycle   1  Pass 0  IDiag  1:
 FoFJK:  IHMeth= 1 ICntrl=       0 DoSepK=F KAlg= 0 I1Cent=           0 FoldK=F
 IRaf= 960000000 NMat=       1 IRICut=       1 DoRegI=T DoRafI=F ISym2E= 0 IDoP0=0 IntGTp=1.
 FoFCou: FMM=F IPFlag=           0 FMFlag=      100000 FMFlg1=           0
         NFxFlg=           0 DoJE=F BraDBF=F KetDBF=F FulRan=T
         wScrn=  0.000000 ICntrl=         0 IOpCl=  0 I1Cent=           0 NGrid=           0
         NMat0=    1 NMatS0=      1 NMatT0=    0 NMatD0=    1 NMtDS0=    0 NMtDT0=    0
 Symmetry not used in FoFCou.
 E= -275.940242679487    
 DIIS: error= 2.52D-02 at cycle   1 NSaved=   1.
 NSaved= 1 IEnMin= 1 EnMin= -275.940242679487     IErMin= 1 ErrMin= 2.52D-02
 ErrMax= 2.52D-02  0.00D+00 EMaxC= 1.00D-01 BMatC= 3.76D-01 BMatP= 3.76D-01
 IDIUse=3 WtCom= 7.48D-01 WtEn= 2.52D-01
 Coeff-Com:  0.100D+01
 Coeff-En:   0.100D+01
 Coeff:      0.100D+01
 Gap=     0.359 Goal=   None    Shift=    0.000
 GapD=    0.359 DampG=1.000 DampE=0.500 DampFc=0.5000 IDamp=-1.
 Damping current iteration by 5.00D-01
 RMSDP=1.97D-03 MaxDP=7.55D-02              OVMax= 1.67D-01

 Cycle   2  Pass 0  IDiag  1:
 RMSU=  9.81D-04    CP:  9.91D-01
 E= -276.115990909928     Delta-E=       -0.175748230441 Rises=F Damp=T
 DIIS: error= 4.19D-03 at cycle   2 NSaved=   2.
 NSaved= 2 IEnMin= 2 EnMin= -276.115990909928     IErMin= 2 ErrMin= 4.19D-03
 ErrMax= 4.19D-03  0.00D+00 EMaxC= 1.00D-01 BMatC= 1.98D-02 BMatP= 3.76D-01
 IDIUse=3 WtCom= 9.58D-01 WtEn= 4.19D-02
 Coeff-Com: -0.403D-01 0.104D+01
 Coeff-En:   0.000D+00 0.100D+01
 Coeff:     -0.386D-01 0.104D+01
 Gap=     0.435 Goal=   None    Shift=    0.000
 RMSDP=5.64D-04 MaxDP=2.08D-02 DE=-1.76D-01 OVMax= 9.59D-02

 Cycle   3  Pass 0  IDiag  1:
 RMSU=  5.56D-04    CP:  9.99D-01  9.27D-01
 E= -276.296010966604     Delta-E=       -0.180020056676 Rises=F Damp=F
 DIIS: error= 4.06D-03 at cycle   3 NSaved=   3.
 NSaved= 3 IEnMin= 3 EnMin= -276.296010966604     IErMin= 3 ErrMin= 4.06D-03
 ErrMax= 4.06D-03  0.00D+00 EMaxC= 1.00D-01 BMatC= 4.02D-03 BMatP= 1.98D-02
 IDIUse=3 WtCom= 9.59D-01 WtEn= 4.06D-02
 Coeff-Com: -0.543D-01 0.288D+00 0.766D+00
 Coeff-En:   0.000D+00 0.000D+00 0.100D+01
 Coeff:     -0.521D-01 0.276D+00 0.776D+00
 Gap=     0.401 Goal=   None    Shift=    0.000
 RMSDP=1.26D-04 MaxDP=3.25D-03 DE=-1.80D-01 OVMax= 1.37D-02

 Cycle   4  Pass 0  IDiag  1:
 RMSU=  9.91D-05    CP:  9.97D-01  9.75D-01  8.89D-01
 E= -276.299564672941     Delta-E=       -0.003553706337 Rises=F Damp=F
 DIIS: error= 9.34D-04 at cycle   4 NSaved=   4.
 NSaved= 4 IEnMin= 4 EnMin= -276.299564672941     IErMin= 4 ErrMin= 9.34D-04
 ErrMax= 9.34D-04  0.00D+00 EMaxC= 1.00D-01 BMatC= 3.17D-04 BMatP= 4.02D-03
 IDIUse=3 WtCom= 9.91D-01 WtEn= 9.34D-03
 Coeff-Com: -0.128D-01 0.340D-01 0.251D+00 0.727D+00
 Coeff-En:   0.000D+00 0.000D+00 0.000D+00 0.100D+01
 Coeff:     -0.127D-01 0.337D-01 0.249D+00 0.730D+00
 Gap=     0.400 Goal=   None    Shift=    0.000
 RMSDP=3.60D-05 MaxDP=1.21D-03 DE=-3.55D-03 OVMax= 3.11D-03

 Cycle   5  Pass 0  IDiag  1:
 RMSU=  1.77D-05    CP:  9.97D-01  9.69D-01  9.30D-01  7.90D-01
 E= -276.299862745482     Delta-E=       -0.000298072541 Rises=F Damp=F
 DIIS: error= 1.36D-04 at cycle   5 NSaved=   5.
 NSaved= 5 IEnMin= 5 EnMin= -276.299862745482     IErMin= 5 ErrMin= 1.36D-04
 ErrMax= 1.36D-04  0.00D+00 EMaxC= 1.00D-01 BMatC= 1.40D-05 BMatP= 3.17D-04
 IDIUse=3 WtCom= 9.99D-01 WtEn= 1.36D-03
 Coeff-Com: -0.161D-02 0.850D-03 0.502D-01 0.239D+00 0.712D+00
 Coeff-En:   0.000D+00 0.000D+00 0.000D+00 0.000D+00 0.100D+01
 Coeff:     -0.161D-02 0.849D-03 0.501D-01 0.239D+00 0.712D+00
 Gap=     0.400 Goal=   None    Shift=    0.000
 RMSDP=6.25D-06 MaxDP=3.63D-04 DE=-2.98D-04 OVMax= 6.94D-04

 Initial convergence to 1.0D-05 achieved.  Increase integral accuracy.
 Cycle   6  Pass 1  IDiag  1:
 E= -276.299846191707     Delta-E=        0.000016553775 Rises=F Damp=F
 DIIS: error= 4.97D-05 at cycle   1 NSaved=   1.
 NSaved= 1 IEnMin= 1 EnMin= -276.299846191707     IErMin= 1 ErrMin= 4.97D-05
 ErrMax= 4.97D-05  0.00D+00 EMaxC= 1.00D-01 BMatC= 1.83D-06 BMatP= 1.83D-06
 IDIUse=1 WtCom= 1.00D+00 WtEn= 0.00D+00
 Coeff-Com:  0.100D+01
 Coeff:      0.100D+01
 Gap=     0.400 Goal=   None    Shift=    0.000
 RMSDP=6.25D-06 MaxDP=3.63D-04 DE= 1.66D-05 OVMax= 2.89D-04

 Cycle   7  Pass 1  IDiag  1:
 RMSU=  1.03D-05    CP:  1.00D+00
 E= -276.299846903112     Delta-E=       -0.000000711405 Rises=F Damp=F
 DIIS: error= 3.60D-05 at cycle   2 NSaved=   2.
 NSaved= 2 IEnMin= 2 EnMin= -276.299846903112     IErMin= 2 ErrMin= 3.60D-05
 ErrMax= 3.60D-05  0.00D+00 EMaxC= 1.00D-01 BMatC= 7.21D-07 BMatP= 1.83D-06
 IDIUse=1 WtCom= 1.00D+00 WtEn= 0.00D+00
 Coeff-Com:  0.361D+00 0.639D+00
 Coeff:      0.361D+00 0.639D+00
 Gap=     0.400 Goal=   None    Shift=    0.000
 RMSDP=1.52D-06 MaxDP=7.48D-05 DE=-7.11D-07 OVMax= 1.59D-04

 Cycle   8  Pass 1  IDiag  1:
 RMSU=  1.52D-06    CP:  1.00D+00  9.90D-01
 E= -276.299847554398     Delta-E=       -0.000000651286 Rises=F Damp=F
 DIIS: error= 9.45D-06 at cycle   3 NSaved=   3.
 NSaved= 3 IEnMin= 3 EnMin= -276.299847554398     IErMin= 3 ErrMin= 9.45D-06
 ErrMax= 9.45D-06  0.00D+00 EMaxC= 1.00D-01 BMatC= 4.91D-08 BMatP= 7.21D-07
 IDIUse=1 WtCom= 1.00D+00 WtEn= 0.00D+00
 Coeff-Com: -0.503D-02 0.195D+00 0.810D+00
 Coeff:     -0.503D-02 0.195D+00 0.810D+00
 Gap=     0.400 Goal=   None    Shift=    0.000
 RMSDP=4.17D-07 MaxDP=1.66D-05 DE=-6.51D-07 OVMax= 3.71D-05

 Cycle   9  Pass 1  IDiag  1:
 RMSU=  2.91D-07    CP:  1.00D+00  1.01D+00  8.66D-01
 E= -276.299847601488     Delta-E=       -0.000000047090 Rises=F Damp=F
 DIIS: error= 2.55D-06 at cycle   4 NSaved=   4.
 NSaved= 4 IEnMin= 4 EnMin= -276.299847601488     IErMin= 4 ErrMin= 2.55D-06
 ErrMax= 2.55D-06  0.00D+00 EMaxC= 1.00D-01 BMatC= 2.06D-09 BMatP= 4.91D-08
 IDIUse=1 WtCom= 1.00D+00 WtEn= 0.00D+00
 Coeff-Com: -0.124D-01 0.510D-01 0.288D+00 0.673D+00
 Coeff:     -0.124D-01 0.510D-01 0.288D+00 0.673D+00
 Gap=     0.400 Goal=   None    Shift=    0.000
 RMSDP=9.35D-08 MaxDP=3.27D-06 DE=-4.71D-08 OVMax= 8.75D-06

 Cycle  10  Pass 1  IDiag  1:
 RMSU=  8.68D-08    CP:  1.00D+00  1.01D+00  8.64D-01  9.03D-01
 E= -276.299847603528     Delta-E=       -0.000000002040 Rises=F Damp=F
 DIIS: error= 5.47D-07 at cycle   5 NSaved=   5.
 NSaved= 5 IEnMin= 5 EnMin= -276.299847603528     IErMin= 5 ErrMin= 5.47D-07
 ErrMax= 5.47D-07  0.00D+00 EMaxC= 1.00D-01 BMatC= 9.04D-11 BMatP= 2.06D-09
 IDIUse=1 WtCom= 1.00D+00 WtEn= 0.00D+00
 Coeff-Com: -0.135D-02-0.106D-01-0.319D-01 0.960D-01 0.948D+00
 Coeff:     -0.135D-02-0.106D-01-0.319D-01 0.960D-01 0.948D+00
 Gap=     0.400 Goal=   None    Shift=    0.000
 RMSDP=3.39D-08 MaxDP=1.09D-06 DE=-2.04D-09 OVMax= 2.75D-06

 Cycle  11  Pass 1  IDiag  1:
 RMSU=  1.83D-08    CP:  1.00D+00  1.01D+00  8.66D-01  9.93D-01  1.09D+00
 E= -276.299847603628     Delta-E=       -0.000000000100 Rises=F Damp=F
 DIIS: error= 2.46D-07 at cycle   6 NSaved=   6.
 NSaved= 6 IEnMin= 6 EnMin= -276.299847603628     IErMin= 6 ErrMin= 2.46D-07
 ErrMax= 2.46D-07  0.00D+00 EMaxC= 1.00D-01 BMatC= 2.33D-11 BMatP= 9.04D-11
 IDIUse=1 WtCom= 1.00D+00 WtEn= 0.00D+00
 Coeff-Com:  0.410D-03-0.886D-02-0.374D-01-0.123D-01 0.426D+00 0.632D+00
 Coeff:      0.410D-03-0.886D-02-0.374D-01-0.123D-01 0.426D+00 0.632D+00
 Gap=     0.400 Goal=   None    Shift=    0.000
 RMSDP=7.68D-09 MaxDP=3.53D-07 DE=-1.00D-10 OVMax= 7.96D-07

 SCF Done:  E(RM062X) =  -276.299847604     A.U. after   11 cycles
            NFock= 11  Conv=0.77D-08     -V/T= 2.0063
 KE= 2.745755707858D+02 PE=-1.312070548265D+03 EE= 4.244115620170D+02
 Leave Link  502 at Sun Sep 29 08:05:45 2019, MaxMem=   671088640 cpu:            2162.6 elap:            1081.4
 (Enter /shared/centos7/gaussian/g16/l801.exe)
 DoSCS=F DFT=T ScalE2(SS,OS)=  1.000000  1.000000
 Range of M.O.s used for correlation:     1   434
 NBasis=   434 NAE=    29 NBE=    29 NFC=     0 NFV=     0
 NROrb=    434 NOA=    29 NOB=    29 NVA=   405 NVB=   405
 Leave Link  801 at Sun Sep 29 08:05:46 2019, MaxMem=   671088640 cpu:               1.6 elap:               0.8
 (Enter /shared/centos7/gaussian/g16/l1101.exe)
 Using compressed storage, NAtomX=    23.
 Will process     24 centers per pass.
 Leave Link 1101 at Sun Sep 29 08:06:24 2019, MaxMem=   671088640 cpu:              76.4 elap:              38.2
 (Enter /shared/centos7/gaussian/g16/l1102.exe)
 Symmetrizing basis deriv contribution to polar:
 IMax=3 JMax=2 DiffMx= 0.00D+00
 Leave Link 1102 at Sun Sep 29 08:06:27 2019, MaxMem=   671088640 cpu:               5.0 elap:               2.5
 (Enter /shared/centos7/gaussian/g16/l1110.exe)
 Forming Gx(P) for the SCF density, NAtomX=    23.
 Integral derivatives from FoFJK, PRISM(SPDF).
 Do as many integral derivatives as possible in FoFJK.
 G2DrvN: MDV=     671086848.
 G2DrvN: will do    24 centers at a time, making    1 passes.
 Calling FoFCou, ICntrl=  3107 FMM=F I1Cent=   0 AccDes= 0.00D+00.
 FoFJK:  IHMeth= 1 ICntrl=    3107 DoSepK=F KAlg= 0 I1Cent=           0 FoldK=F
 IRaf=         0 NMat=       1 IRICut=       1 DoRegI=T DoRafI=F ISym2E= 0 IDoP0=0 IntGTp=1.
 FoFCou: FMM=F IPFlag=           0 FMFlag=      100000 FMFlg1=           0
         NFxFlg=           0 DoJE=F BraDBF=F KetDBF=F FulRan=T
         wScrn=  0.000000 ICntrl=      3107 IOpCl=  0 I1Cent=           0 NGrid=           0
         NMat0=    1 NMatS0=      1 NMatT0=    0 NMatD0=    1 NMtDS0=    0 NMtDT0=    0
 Symmetry not used in FoFCou.
 End of G2Drv F.D. properties file   721 does not exist.
 End of G2Drv F.D. properties file   722 does not exist.
 End of G2Drv F.D. properties file   788 does not exist.
 Leave Link 1110 at Sun Sep 29 08:55:03 2019, MaxMem=   671088640 cpu:            5832.5 elap:            2916.3
 (Enter /shared/centos7/gaussian/g16/l1002.exe)
 Minotr:  Closed shell wavefunction.
          IDoAtm=11111111111111111111111
          Direct CPHF calculation.
          Differentiating once with respect to nuclear coordinates.
          Requested convergence is 1.0D-08 RMS, and 1.0D-07 maximum.
          Secondary convergence is 1.0D-12 RMS, and 1.0D-12 maximum.
          NewPWx=T KeepS1=F KeepF1=F KeepIn=T MapXYZ=F SortEE=F KeepMc=T.
         6883 words used for storage of precomputed grid.
 Two-electron integrals replicated using symmetry.
          MDV=     671088640 using IRadAn=       1.
          Solving linear equations simultaneously, MaxMat=     380.
 FoF2E skips out because all densities are zero.
 CalDSu exits because no D1Ps are significant.
 FoFJK:  IHMeth= 1 ICntrl=       0 DoSepK=F KAlg= 0 I1Cent=           0 FoldK=F
 IRaf= 950000000 NMat=      69 IRICut=     172 DoRegI=T DoRafI=T ISym2E= 2 IDoP0=3 IntGTp=3.
 FoFCou: FMM=F IPFlag=           0 FMFlag=      100000 FMFlg1=           0
         NFxFlg=           0 DoJE=F BraDBF=F KetDBF=F FulRan=T
         wScrn=  0.000000 ICntrl=         0 IOpCl=  0 I1Cent=           0 NGrid=           0
         NMat0=   69 NMatS0=     69 NMatT0=    0 NMatD0=   69 NMtDS0=    0 NMtDT0=    0
 Integrals replicated using symmetry in FoFCou.
 Raff kept on since  91.69% of shell-pairs survive, threshold=   0.20 IRatSp=92.
          There are    72 degrees of freedom in the 1st order CPHF.  IDoFFX=6 NUNeed=     0.
     66 vectors produced by pass  0 Test12= 1.63D-14 1.39D-09 XBig12= 5.57D-02 4.52D-02.
 AX will form    66 AO Fock derivatives at one time.
     66 vectors produced by pass  1 Test12= 1.63D-14 1.39D-09 XBig12= 3.54D-03 7.06D-03.
     66 vectors produced by pass  2 Test12= 1.63D-14 1.39D-09 XBig12= 5.65D-05 9.88D-04.
     66 vectors produced by pass  3 Test12= 1.63D-14 1.39D-09 XBig12= 4.56D-07 8.07D-05.
     66 vectors produced by pass  4 Test12= 1.63D-14 1.39D-09 XBig12= 2.27D-09 4.56D-06.
     66 vectors produced by pass  5 Test12= 1.63D-14 1.39D-09 XBig12= 1.09D-11 3.40D-07.
     23 vectors produced by pass  6 Test12= 1.63D-14 1.39D-09 XBig12= 3.82D-14 1.76D-08.
 InvSVY:  IOpt=1 It=  1 EMax= 3.89D-16
 Solved reduced A of dimension   419 with    72 vectors.
 End of Minotr F.D. properties file   721 does not exist.
 End of Minotr F.D. properties file   722 does not exist.
 End of Minotr F.D. properties file   788 does not exist.
 Leave Link 1002 at Sun Sep 29 10:16:56 2019, MaxMem=   671088640 cpu:            9826.0 elap:            4913.1
 (Enter /shared/centos7/gaussian/g16/l601.exe)
 Copying SCF densities to generalized density rwf, IOpCl= 0 IROHF=0.

 **********************************************************************

            Population analysis using the SCF density.

 **********************************************************************

 Orbital symmetries:
       Occupied  (A) (A) (A) (A) (A) (A) (A) (A) (A) (A) (A) (A)
                 (A) (A) (A) (A) (A) (A) (A) (A) (A) (A) (A) (A)
                 (A) (A) (A) (A) (A)
       Virtual   (A) (A) (A) (A) (A) (A) (A) (A) (A) (A) (A) (A)
                 (A) (A) (A) (A) (A) (A) (A) (A) (A) (A) (A) (A)
                 (A) (A) (A) (A) (A) (A) (A) (A) (A) (A) (A) (A)
                 (A) (A) (A) (A) (A) (A) (A) (A) (A) (A) (A) (A)
                 (A) (A) (A) (A) (A) (A) (A) (A) (A) (A) (A) (A)
                 (A) (A) (A) (A) (A) (A) (A) (A) (A) (A) (A) (A)
                 (A) (A) (A) (A) (A) (A) (A) (A) (A) (A) (A) (A)
                 (A) (A) (A) (A) (A) (A) (A) (A) (A) (A) (A) (A)
                 (A) (A) (A) (A) (A) (A) (A) (A) (A) (A) (A) (A)
                 (A) (A) (A) (A) (A) (A) (A) (A) (A) (A) (A) (A)
                 (A) (A) (A) (A) (A) (A) (A) (A) (A) (A) (A) (A)
                 (A) (A) (A) (A) (A) (A) (A) (A) (A) (A) (A) (A)
                 (A) (A) (A) (A) (A) (A) (A) (A) (A) (A) (A) (A)
                 (A) (A) (A) (A) (A) (A) (A) (A) (A) (A) (A) (A)
                 (A) (A) (A) (A) (A) (A) (A) (A) (A) (A) (A) (A)
                 (A) (A) (A) (A) (A) (A) (A) (A) (A) (A) (A) (A)
                 (A) (A) (A) (A) (A) (A) (A) (A) (A) (A) (A) (A)
                 (A) (A) (A) (A) (A) (A) (A) (A) (A) (A) (A) (A)
                 (A) (A) (A) (A) (A) (A) (A) (A) (A) (A) (A) (A)
                 (A) (A) (A) (A) (A) (A) (A) (A) (A) (A) (A) (A)
                 (A) (A) (A) (A) (A) (A) (A) (A) (A) (A) (A) (A)
                 (A) (A) (A) (A) (A) (A) (A) (A) (A) (A) (A) (A)
                 (A) (A) (A) (A) (A) (A) (A) (A) (A) (A) (A) (A)
                 (A) (A) (A) (A) (A) (A) (A) (A) (A) (A) (A) (A)
                 (A) (A) (A) (A) (A) (A) (A) (A) (A) (A) (A) (A)
                 (A) (A) (A) (A) (A) (A) (A) (A) (A) (A) (A) (A)
                 (A) (A) (A) (A) (A) (A) (A) (A) (A) (A) (A) (A)
                 (A) (A) (A) (A) (A) (A) (A) (A) (A) (A) (A) (A)
                 (A) (A) (A) (A) (A) (A) (A) (A) (A) (A) (A) (A)
                 (A) (A) (A) (A) (A) (A) (A) (A) (A) (A) (A) (A)
                 (A) (A) (A) (A) (A) (A) (A) (A) (A) (A) (A) (A)
                 (A) (A) (A) (A) (A) (A) (A) (A) (A) (A) (A) (A)
                 (A) (A) (A) (A) (A) (A) (A) (A) (A) (A) (A) (A)
                 (A) (A) (A) (A) (A) (A) (A) (A) (A)
 The electronic state is 1-A.
 Alpha  occ. eigenvalues --  -10.52665 -10.52532 -10.52421 -10.52320 -10.52133
 Alpha  occ. eigenvalues --  -10.51986 -10.51948  -0.92252  -0.87927  -0.83086
 Alpha  occ. eigenvalues --   -0.76617  -0.70731  -0.64933  -0.63796  -0.55339
 Alpha  occ. eigenvalues --   -0.52608  -0.50945  -0.49577  -0.48746  -0.46170
 Alpha  occ. eigenvalues --   -0.45653  -0.42489  -0.41132  -0.40404  -0.39279
 Alpha  occ. eigenvalues --   -0.38005  -0.37416  -0.35299  -0.34031
 Alpha virt. eigenvalues --    0.05993   0.08013   0.08441   0.08502   0.11113
 Alpha virt. eigenvalues --    0.12224   0.12388   0.13335   0.13752   0.14510
 Alpha virt. eigenvalues --    0.16545   0.16890   0.17287   0.18872   0.20363
 Alpha virt. eigenvalues --    0.21445   0.23050   0.25146   0.25903   0.26856
 Alpha virt. eigenvalues --    0.28617   0.28831   0.29854   0.30899   0.31375
 Alpha virt. eigenvalues --    0.32680   0.33149   0.34932   0.36908   0.38285
 Alpha virt. eigenvalues --    0.39138   0.39634   0.41944   0.42770   0.43614
 Alpha virt. eigenvalues --    0.44180   0.46800   0.47271   0.47907   0.48691
 Alpha virt. eigenvalues --    0.49024   0.49684   0.49982   0.50880   0.51669
 Alpha virt. eigenvalues --    0.51976   0.52287   0.53226   0.53735   0.54060
 Alpha virt. eigenvalues --    0.54736   0.55071   0.56462   0.56905   0.57556
 Alpha virt. eigenvalues --    0.59271   0.59525   0.59628   0.60707   0.63182
 Alpha virt. eigenvalues --    0.65552   0.69907   0.74147   0.75333   0.76760
 Alpha virt. eigenvalues --    0.78655   0.81452   0.82650   0.83417   0.85818
 Alpha virt. eigenvalues --    0.87767   0.88994   0.90633   0.91900   0.92929
 Alpha virt. eigenvalues --    0.94986   0.96305   0.97607   0.98732   1.00197
 Alpha virt. eigenvalues --    1.01160   1.03026   1.04039   1.05556   1.06152
 Alpha virt. eigenvalues --    1.06732   1.07960   1.08531   1.10063   1.10722
 Alpha virt. eigenvalues --    1.11131   1.12615   1.13067   1.14131   1.14500
 Alpha virt. eigenvalues --    1.16623   1.17048   1.17934   1.18683   1.20409
 Alpha virt. eigenvalues --    1.20994   1.21461   1.22881   1.23767   1.25084
 Alpha virt. eigenvalues --    1.26050   1.27462   1.28117   1.28664   1.29458
 Alpha virt. eigenvalues --    1.30161   1.30279   1.32766   1.33546   1.34358
 Alpha virt. eigenvalues --    1.34715   1.35619   1.36492   1.38501   1.38784
 Alpha virt. eigenvalues --    1.41799   1.42923   1.44947   1.45559   1.46070
 Alpha virt. eigenvalues --    1.47467   1.48099   1.50201   1.50286   1.50778
 Alpha virt. eigenvalues --    1.51631   1.53381   1.54368   1.55092   1.56942
 Alpha virt. eigenvalues --    1.58093   1.59171   1.61803   1.63692   1.65988
 Alpha virt. eigenvalues --    1.66602   1.69362   1.70098   1.75427   1.76587
 Alpha virt. eigenvalues --    1.79497   1.82552   1.85983   1.88435   2.21680
 Alpha virt. eigenvalues --    2.23147   2.29126   2.30028   2.34204   2.36205
 Alpha virt. eigenvalues --    2.39688   2.40655   2.42091   2.45601   2.46637
 Alpha virt. eigenvalues --    2.49427   2.50085   2.52670   2.54327   2.55678
 Alpha virt. eigenvalues --    2.56263   2.57664   2.59322   2.60303   2.61030
 Alpha virt. eigenvalues --    2.63628   2.64354   2.66475   2.67022   2.68881
 Alpha virt. eigenvalues --    2.70118   2.70699   2.71514   2.72410   2.74652
 Alpha virt. eigenvalues --    2.76576   2.77399   2.79757   2.80287   2.80697
 Alpha virt. eigenvalues --    2.82374   2.84204   2.84448   2.85873   2.87301
 Alpha virt. eigenvalues --    2.88076   2.89759   2.90617   2.90663   2.92920
 Alpha virt. eigenvalues --    2.94088   2.95391   2.95737   2.97870   2.98871
 Alpha virt. eigenvalues --    3.00286   3.01447   3.02409   3.03461   3.05174
 Alpha virt. eigenvalues --    3.06618   3.08027   3.08742   3.09752   3.10597
 Alpha virt. eigenvalues --    3.11109   3.11524   3.12466   3.12828   3.13803
 Alpha virt. eigenvalues --    3.14552   3.15953   3.16687   3.17427   3.18866
 Alpha virt. eigenvalues --    3.20577   3.20995   3.21643   3.23538   3.24112
 Alpha virt. eigenvalues --    3.25462   3.27199   3.28454   3.29674   3.31343
 Alpha virt. eigenvalues --    3.32853   3.33914   3.35292   3.36975   3.37200
 Alpha virt. eigenvalues --    3.38074   3.38506   3.40405   3.41546   3.44162
 Alpha virt. eigenvalues --    3.44611   3.45369   3.47062   3.47294   3.48748
 Alpha virt. eigenvalues --    3.50392   3.51635   3.53762   3.55505   3.56604
 Alpha virt. eigenvalues --    3.57629   3.58977   3.60815   3.61020   3.62715
 Alpha virt. eigenvalues --    3.63374   3.64835   3.65939   3.66125   3.66674
 Alpha virt. eigenvalues --    3.67465   3.69720   3.71057   3.71344   3.74487
 Alpha virt. eigenvalues --    3.75064   3.75880   3.77248   3.78850   3.79275
 Alpha virt. eigenvalues --    3.81492   3.82577   3.83041   3.84395   3.85223
 Alpha virt. eigenvalues --    3.86381   3.87938   3.90249   3.91407   3.92468
 Alpha virt. eigenvalues --    3.93168   3.94118   3.95233   3.96798   3.98205
 Alpha virt. eigenvalues --    3.98807   4.00649   4.01315   4.01835   4.02774
 Alpha virt. eigenvalues --    4.04228   4.05108   4.06232   4.07063   4.08864
 Alpha virt. eigenvalues --    4.09470   4.09823   4.11887   4.13125   4.13737
 Alpha virt. eigenvalues --    4.15053   4.16514   4.17926   4.18903   4.20034
 Alpha virt. eigenvalues --    4.20797   4.22026   4.22783   4.25368   4.25905
 Alpha virt. eigenvalues --    4.26000   4.27421   4.29745   4.30278   4.32177
 Alpha virt. eigenvalues --    4.33222   4.33656   4.35766   4.36709   4.37609
 Alpha virt. eigenvalues --    4.39880   4.40842   4.41559   4.43486   4.46590
 Alpha virt. eigenvalues --    4.47671   4.48624   4.52714   4.54375   4.55780
 Alpha virt. eigenvalues --    4.59522   4.59892   4.60769   4.64505   4.65621
 Alpha virt. eigenvalues --    4.69141   4.69357   4.72792   4.74132   4.75930
 Alpha virt. eigenvalues --    4.77598   4.79494   4.81749   4.83516   4.83778
 Alpha virt. eigenvalues --    4.85464   4.87714   4.89437   4.92086   4.93005
 Alpha virt. eigenvalues --    4.95934   4.97498   4.98414   4.99209   5.02111
 Alpha virt. eigenvalues --    5.03368   5.05151   5.06716   5.08951   5.09221
 Alpha virt. eigenvalues --    5.11200   5.14432   5.15297   5.18311   5.20028
 Alpha virt. eigenvalues --    5.21470   5.22642   5.24637   5.25176   5.28035
 Alpha virt. eigenvalues --    5.29845   5.30122   5.34356   5.35898   5.36843
 Alpha virt. eigenvalues --    5.38165   5.39547   5.42138   5.43876   5.45298
 Alpha virt. eigenvalues --    5.46253   5.49049   5.51064   5.53109   5.55754
 Alpha virt. eigenvalues --    5.59495   5.66158   5.71723   5.76812   5.82716
 Alpha virt. eigenvalues --    5.88643   5.90635   5.92592   5.96425   5.98017
 Alpha virt. eigenvalues --    5.99090   6.01718   6.07001  11.27598  12.03557
 Alpha virt. eigenvalues --   12.40714  12.95422  13.39290  13.67359  13.99149
          Condensed to atoms (all electrons):
               1          2          3          4          5          6
     1  C    5.167195   0.289826  -0.042084   0.289079  -0.003156  -0.045153
     2  C    0.289826   5.103666   0.306422  -0.047663  -0.041967   0.006457
     3  C   -0.042084   0.306422   5.062336   0.005078   0.316355  -0.000144
     4  C    0.289079  -0.047663   0.005078   5.109789  -0.001250   0.273905
     5  C   -0.003156  -0.041967   0.316355  -0.001250   5.043746   0.002134
     6  C   -0.045153   0.006457  -0.000144   0.273905   0.002134   5.024138
     7  C   -0.000783   0.001213  -0.049747   0.001898   0.293216  -0.023165
     8  H   -0.045697   0.006429  -0.000452   0.410662  -0.000011  -0.041087
     9  H   -0.058443  -0.011307   0.001205   0.418099  -0.000455  -0.046129
    10  H    0.416547  -0.057720   0.000629  -0.051016  -0.002734  -0.011404
    11  H    0.409530  -0.040365   0.005703  -0.043174  -0.000531   0.006817
    12  H   -0.056002   0.409899  -0.042265  -0.015841  -0.004677   0.000954
    13  H   -0.049270   0.417957  -0.042731   0.007425   0.008326  -0.000610
    14  H    0.009626  -0.047384   0.422781  -0.000744  -0.047089   0.000056
    15  H   -0.006389  -0.046867   0.411930   0.000289  -0.043695  -0.000019
    16  H   -0.000756   0.009446  -0.048450   0.000131   0.419761  -0.000117
    17  H   -0.000868  -0.004188  -0.038688   0.000125   0.403724   0.000136
    18  H   -0.009154   0.000810  -0.000077  -0.061254   0.000887   0.423797
    19  H    0.004828  -0.000034   0.000090  -0.049435   0.000519   0.413240
    20  H    0.007183  -0.000580   0.000018  -0.041595  -0.000083   0.400141
    21  H   -0.010602  -0.002237   0.003152   0.000777  -0.052011  -0.000199
    22  H   -0.005625   0.003485  -0.005829   0.003645  -0.044118  -0.024781
    23  H    0.000982  -0.000797   0.007981  -0.000209  -0.038506   0.001012
               7          8          9         10         11         12
     1  C   -0.000783  -0.045697  -0.058443   0.416547   0.409530  -0.056002
     2  C    0.001213   0.006429  -0.011307  -0.057720  -0.040365   0.409899
     3  C   -0.049747  -0.000452   0.001205   0.000629   0.005703  -0.042265
     4  C    0.001898   0.410662   0.418099  -0.051016  -0.043174  -0.015841
     5  C    0.293216  -0.000011  -0.000455  -0.002734  -0.000531  -0.004677
     6  C   -0.023165  -0.041087  -0.046129  -0.011404   0.006817   0.000954
     7  C    5.063139  -0.000023   0.000157  -0.010352   0.000874  -0.001288
     8  H   -0.000023   0.618972  -0.036503   0.006722  -0.022944   0.001263
     9  H    0.000157  -0.036503   0.601020   0.005659   0.006548   0.002060
    10  H   -0.010352   0.006722   0.005659   0.597926  -0.037615   0.006331
    11  H    0.000874  -0.022944   0.006548  -0.037615   0.601534   0.005558
    12  H   -0.001288   0.001263   0.002060   0.006331   0.005558   0.591801
    13  H   -0.000622  -0.000402   0.001262   0.006683  -0.022275  -0.033468
    14  H    0.008902   0.000045  -0.000163   0.000331  -0.000528  -0.005958
    15  H   -0.007870  -0.000007  -0.000014   0.001714   0.000754   0.008362
    16  H   -0.043609  -0.000002  -0.000005  -0.000552   0.000066  -0.000009
    17  H   -0.047107  -0.000013   0.000036   0.000465  -0.000020   0.003408
    18  H   -0.008967   0.004043   0.006827   0.002396   0.001349   0.000218
    19  H   -0.008026   0.008038  -0.018561   0.001340  -0.000779  -0.000082
    20  H    0.001376  -0.021724   0.005909   0.000563  -0.000166  -0.000112
    21  H    0.400294  -0.000071  -0.000082  -0.004388   0.000365   0.000295
    22  H    0.417128   0.000211  -0.001990  -0.008621   0.000789   0.000151
    23  H    0.410048   0.000005   0.000069   0.001531  -0.000043  -0.000008
              13         14         15         16         17         18
     1  C   -0.049270   0.009626  -0.006389  -0.000756  -0.000868  -0.009154
     2  C    0.417957  -0.047384  -0.046867   0.009446  -0.004188   0.000810
     3  C   -0.042731   0.422781   0.411930  -0.048450  -0.038688  -0.000077
     4  C    0.007425  -0.000744   0.000289   0.000131   0.000125  -0.061254
     5  C    0.008326  -0.047089  -0.043695   0.419761   0.403724   0.000887
     6  C   -0.000610   0.000056  -0.000019  -0.000117   0.000136   0.423797
     7  C   -0.000622   0.008902  -0.007870  -0.043609  -0.047107  -0.008967
     8  H   -0.000402   0.000045  -0.000007  -0.000002  -0.000013   0.004043
     9  H    0.001262  -0.000163  -0.000014  -0.000005   0.000036   0.006827
    10  H    0.006683   0.000331   0.001714  -0.000552   0.000465   0.002396
    11  H   -0.022275  -0.000528   0.000754   0.000066  -0.000020   0.001349
    12  H   -0.033468  -0.005958   0.008362  -0.000009   0.003408   0.000218
    13  H    0.599971  -0.009233  -0.006427  -0.000513  -0.000122  -0.000081
    14  H   -0.009233   0.586132  -0.031519  -0.007646  -0.006208   0.000007
    15  H   -0.006427  -0.031519   0.583949  -0.006895   0.008058   0.000004
    16  H   -0.000513  -0.007646  -0.006895   0.602183  -0.032645  -0.000073
    17  H   -0.000122  -0.006208   0.008058  -0.032645   0.587714   0.000061
    18  H   -0.000081   0.000007   0.000004  -0.000073   0.000061   0.604624
    19  H    0.000031   0.000008   0.000002  -0.000063   0.000214  -0.039803
    20  H    0.000040  -0.000003  -0.000003   0.000004  -0.000020  -0.033088
    21  H   -0.000309   0.000205   0.003166  -0.001934   0.008096   0.000327
    22  H   -0.000033  -0.000608   0.000635   0.008813  -0.009650  -0.014660
    23  H    0.000052  -0.000405   0.000009  -0.012959   0.000230   0.000992
              19         20         21         22         23
     1  C    0.004828   0.007183  -0.010602  -0.005625   0.000982
     2  C   -0.000034  -0.000580  -0.002237   0.003485  -0.000797
     3  C    0.000090   0.000018   0.003152  -0.005829   0.007981
     4  C   -0.049435  -0.041595   0.000777   0.003645  -0.000209
     5  C    0.000519  -0.000083  -0.052011  -0.044118  -0.038506
     6  C    0.413240   0.400141  -0.000199  -0.024781   0.001012
     7  C   -0.008026   0.001376   0.400294   0.417128   0.410048
     8  H    0.008038  -0.021724  -0.000071   0.000211   0.000005
     9  H   -0.018561   0.005909  -0.000082  -0.001990   0.000069
    10  H    0.001340   0.000563  -0.004388  -0.008621   0.001531
    11  H   -0.000779  -0.000166   0.000365   0.000789  -0.000043
    12  H   -0.000082  -0.000112   0.000295   0.000151  -0.000008
    13  H    0.000031   0.000040  -0.000309  -0.000033   0.000052
    14  H    0.000008  -0.000003   0.000205  -0.000608  -0.000405
    15  H    0.000002  -0.000003   0.003166   0.000635   0.000009
    16  H   -0.000063   0.000004  -0.001934   0.008813  -0.012959
    17  H    0.000214  -0.000020   0.008096  -0.009650   0.000230
    18  H   -0.039803  -0.033088   0.000327  -0.014660   0.000992
    19  H    0.621996  -0.032945   0.000587  -0.009310   0.000602
    20  H   -0.032945   0.600136  -0.000205   0.003168  -0.000032
    21  H    0.000587  -0.000205   0.592755  -0.045120  -0.026818
    22  H   -0.009310   0.003168  -0.045120   0.644087  -0.030624
    23  H    0.000602  -0.000032  -0.026818  -0.030624   0.576314
 Mulliken charges:
               1
     1  C   -0.260816
     2  C   -0.254503
     3  C   -0.273212
     4  C   -0.208722
     5  C   -0.208385
     6  C   -0.359977
     7  C   -0.396686
     8  H    0.112545
     9  H    0.124802
    10  H    0.135566
    11  H    0.128553
    12  H    0.129412
    13  H    0.124348
    14  H    0.129394
    15  H    0.130832
    16  H    0.115824
    17  H    0.127260
    18  H    0.120815
    19  H    0.107544
    20  H    0.112016
    21  H    0.133959
    22  H    0.118856
    23  H    0.110574
 Sum of Mulliken charges =  -0.00000
 Mulliken charges with hydrogens summed into heavy atoms:
               1
     1  C    0.003304
     2  C   -0.000742
     3  C   -0.012986
     4  C    0.028625
     5  C    0.034699
     6  C   -0.019602
     7  C   -0.033297
 APT charges:
               1
     1  C   -0.545936
     2  C   -0.743453
     3  C   -0.888604
     4  C   -0.698523
     5  C   -0.811662
     6  C   -1.143867
     7  C   -0.892699
     8  H    0.478499
     9  H    0.270795
    10  H    0.226849
    11  H    0.448089
    12  H    0.290586
    13  H    0.449360
    14  H    0.479971
    15  H    0.357568
    16  H    0.504392
    17  H    0.308433
    18  H    0.192895
    19  H    0.264577
    20  H    0.532023
    21  H    0.224612
    22  H    0.187558
    23  H    0.508536
 Sum of APT charges =  -0.00000
 APT charges with hydrogens summed into heavy atoms:
               1
     1  C    0.129001
     2  C   -0.003507
     3  C   -0.051065
     4  C    0.050772
     5  C    0.001163
     6  C   -0.154371
     7  C    0.028007
 Electronic spatial extent (au):  <R**2>=           1006.1308
 Charge=             -0.0000 electrons
 Dipole moment (field-independent basis, Debye):
    X=             -0.0868    Y=             -0.1553    Z=             -0.0077  Tot=              0.1781
 Quadrupole moment (field-independent basis, Debye-Ang):
   XX=            -49.2724   YY=            -49.5961   ZZ=            -48.7710
   XY=              0.4615   XZ=              0.0101   YZ=             -0.2308
 Traceless Quadrupole moment (field-independent basis, Debye-Ang):
   XX=             -0.0592   YY=             -0.3829   ZZ=              0.4421
   XY=              0.4615   XZ=              0.0101   YZ=             -0.2308
 Octapole moment (field-independent basis, Debye-Ang**2):
  XXX=             -1.2938  YYY=             -2.4753  ZZZ=             -0.9626  XYY=              0.9559
  XXY=             -1.5693  XXZ=              0.9407  XZZ=              0.5390  YZZ=              0.0993
  YYZ=              0.5937  XYZ=              0.9524
 Hexadecapole moment (field-independent basis, Debye-Ang**3):
 XXXX=           -816.3742 YYYY=           -462.3051 ZZZZ=           -138.9130 XXXY=              6.3712
 XXXZ=             -2.7431 YYYX=              5.8676 YYYZ=             -4.8004 ZZZX=              0.9091
 ZZZY=              0.0809 XXYY=           -215.7780 XXZZ=           -164.2983 YYZZ=           -102.3150
 XXYZ=              0.4093 YYXZ=             -0.9029 ZZXY=             -1.5341
 N-N= 3.367835678588D+02 E-N=-1.312070476413D+03  KE= 2.745755707858D+02
  Exact polarizability:   0.000   0.000   0.000   0.000   0.000   0.000
 Approx polarizability:  98.463   1.528  97.736   0.209  -0.108  98.623
 No NMR shielding tensors so no spin-rotation constants.
 Leave Link  601 at Sun Sep 29 10:17:28 2019, MaxMem=   671088640 cpu:              64.3 elap:              32.2
 (Enter /shared/centos7/gaussian/g16/l701.exe)
 SCFChk:  SCF convergence  7.68D-09 required  1.00D-08
 ... and contract with generalized density number  0.
 Compute integral second derivatives.
 Entering OneElI...
 Calculate overlap and kinetic energy integrals
    NBasis = 485  MinDer = 2  MaxDer = 2
 Requested accuracy = 0.1000D-12
 PrmmSu-InSpLW:  IPartL=    0 NPrtUS=   20 NPrtUL=    1 DoSpLW=F IThBeg=    0 IThEnd=   19 NThAct=   20.
 PrsmSu:  NPrtUS=  20 ThrOK=T IAlg=1 NPAlg=1 LenDen=           0 ISkipM=0 DoSpLW=F IThBeg=    0 IThEnd=   19.
 Prism:   IPart=     0 DynPar=F LinDyn=F Incr=           6.
 PRISM was handed    33194272 working-precision words and 13798 shell-pairs
 PRISM was handed    33194272 working-precision words and 13798 shell-pairs
 PRISM was handed    33194272 working-precision words and 13798 shell-pairs
 PRISM was handed    33194272 working-precision words and 13798 shell-pairs
 PRISM was handed    33194272 working-precision words and 13798 shell-pairs
 PRISM was handed    33194272 working-precision words and 13798 shell-pairs
 PRISM was handed    33194272 working-precision words and 13798 shell-pairs
 PRISM was handed    33194272 working-precision words and 13798 shell-pairs
 PRISM was handed    33194272 working-precision words and 13798 shell-pairs
 IPart= 16 NShTot=         670 NBatch=          52 AvBLen=        12.9
 IPart=  0 NShTot=         728 NBatch=          80 AvBLen=         9.1
 PRISM was handed    33194272 working-precision words and 13798 shell-pairs
 PRISM was handed    33194272 working-precision words and 13798 shell-pairs
 PRISM was handed    33194272 working-precision words and 13798 shell-pairs
 PRISM was handed    33194272 working-precision words and 13798 shell-pairs
 IPart=  1 NShTot=         724 NBatch=          77 AvBLen=         9.4
 IPart=  4 NShTot=         710 NBatch=          71 AvBLen=        10.0
 PRISM was handed    33194272 working-precision words and 13798 shell-pairs
 PRISM was handed    33194272 working-precision words and 13798 shell-pairs
 PRISM was handed    33194272 working-precision words and 13798 shell-pairs
 PRISM was handed    33194272 working-precision words and 13798 shell-pairs
 PRISM was handed    33194272 working-precision words and 13798 shell-pairs
 PRISM was handed    33194272 working-precision words and 13798 shell-pairs
 PRISM was handed    33194272 working-precision words and 13798 shell-pairs
 IPart= 18 NShTot=         665 NBatch=          48 AvBLen=        13.9
 IPart= 10 NShTot=         681 NBatch=          55 AvBLen=        12.4
 IPart=  5 NShTot=         706 NBatch=          70 AvBLen=        10.1
 IPart=  6 NShTot=         703 NBatch=          67 AvBLen=        10.5
 IPart=  8 NShTot=         692 NBatch=          60 AvBLen=        11.5
 IPart=  7 NShTot=         694 NBatch=          60 AvBLen=        11.6
 IPart= 19 NShTot=         665 NBatch=          48 AvBLen=        13.9
 IPart= 11 NShTot=         680 NBatch=          55 AvBLen=        12.4
 IPart=  9 NShTot=         687 NBatch=          59 AvBLen=        11.6
 IPart=  2 NShTot=         718 NBatch=          74 AvBLen=         9.7
 IPart= 17 NShTot=         669 NBatch=          51 AvBLen=        13.1
 IPart= 15 NShTot=         671 NBatch=          52 AvBLen=        12.9
 IPart= 13 NShTot=         673 NBatch=          52 AvBLen=        12.9
 IPart= 12 NShTot=         676 NBatch=          53 AvBLen=        12.8
 IPart=  3 NShTot=         713 NBatch=          73 AvBLen=         9.8
 IPart= 14 NShTot=         673 NBatch=          52 AvBLen=        12.9
 PrSmSu:  NxtVal=            121.
 Entering OneElI...
 Calculate potential energy integrals
    NBasis = 485  MinDer = 2  MaxDer = 2
 Requested accuracy = 0.1000D-12
 PrmmSu-InSpLW:  IPartL=    0 NPrtUS=   20 NPrtUL=    1 DoSpLW=F IThBeg=    0 IThEnd=   19 NThAct=   20.
 PrsmSu:  NPrtUS=  20 ThrOK=T IAlg=1 NPAlg=1 LenDen=           0 ISkipM=0 DoSpLW=F IThBeg=    0 IThEnd=   19.
 Prism:   IPart=     0 DynPar=F LinDyn=F Incr=         145.
 PRISM was handed    33256237 working-precision words and 12687 shell-pairs
 PRISM was handed    33256237 working-precision words and 12687 shell-pairs
 PRISM was handed    33256237 working-precision words and 12687 shell-pairs
 PRISM was handed    33256237 working-precision words and 12687 shell-pairs
 PRISM was handed    33256237 working-precision words and 12687 shell-pairs
 PRISM was handed    33256237 working-precision words and 12687 shell-pairs
 PRISM was handed    33256237 working-precision words and 12687 shell-pairs
 PRISM was handed    33256237 working-precision words and 12687 shell-pairs
 PRISM was handed    33256237 working-precision words and 12687 shell-pairs
 PRISM was handed    33256237 working-precision words and 12687 shell-pairs
 PRISM was handed    33256237 working-precision words and 12687 shell-pairs
 PRISM was handed    33256237 working-precision words and 12687 shell-pairs
 PRISM was handed    33256237 working-precision words and 12687 shell-pairs
 PRISM was handed    33256237 working-precision words and 12687 shell-pairs
 PRISM was handed    33256237 working-precision words and 12687 shell-pairs
 PRISM was handed    33256237 working-precision words and 12687 shell-pairs
 PRISM was handed    33256237 working-precision words and 12687 shell-pairs
 PRISM was handed    33256237 working-precision words and 12687 shell-pairs
 PRISM was handed    33256237 working-precision words and 12687 shell-pairs
 PRISM was handed    33256237 working-precision words and 12687 shell-pairs
 IPart=  0 NShTot=       15387 NBatch=         671 AvBLen=        22.9
 IPart=  4 NShTot=       15065 NBatch=         657 AvBLen=        22.9
 IPart=  2 NShTot=       15226 NBatch=         664 AvBLen=        22.9
 IPart= 11 NShTot=       14398 NBatch=         627 AvBLen=        23.0
 IPart= 16 NShTot=       14122 NBatch=         615 AvBLen=        23.0
 IPart=  6 NShTot=       14766 NBatch=         644 AvBLen=        22.9
 IPart=  7 NShTot=       14605 NBatch=         637 AvBLen=        22.9
 IPart=  1 NShTot=       15272 NBatch=         666 AvBLen=        22.9
 IPart= 18 NShTot=       14030 NBatch=         611 AvBLen=        23.0
 IPart= 10 NShTot=       14467 NBatch=         630 AvBLen=        23.0
 IPart= 17 NShTot=       14076 NBatch=         613 AvBLen=        23.0
 IPart= 19 NShTot=       14030 NBatch=         611 AvBLen=        23.0
 IPart=  9 NShTot=       14559 NBatch=         634 AvBLen=        23.0
 IPart= 14 NShTot=       14260 NBatch=         621 AvBLen=        23.0
 IPart= 15 NShTot=       14191 NBatch=         618 AvBLen=        23.0
 IPart= 13 NShTot=       14352 NBatch=         625 AvBLen=        23.0
 IPart=  8 NShTot=       14582 NBatch=         635 AvBLen=        23.0
 IPart=  5 NShTot=       14950 NBatch=         652 AvBLen=        22.9
 IPart= 12 NShTot=       14352 NBatch=         625 AvBLen=        23.0
 IPart=  3 NShTot=       15111 NBatch=         659 AvBLen=        22.9
 PrSmSu:  NxtVal=           2901.
 Polarizability after L701:
                1             2             3 
      1  0.000000D+00
      2  0.000000D+00  0.000000D+00
      3  0.000000D+00  0.000000D+00  0.000000D+00
 Dipole Derivatives after L701:
                 1             2             3             4             5 
      1  -0.181142D+00 -0.264721D+00  0.592289D+00 -0.515768D-01  0.329174D+00
      2  -0.318999D+00 -0.658142D+00  0.722283D+00  0.102101D+00 -0.148379D+01
      3   0.110300D+00  0.100943D-01 -0.798525D+00 -0.146363D+00  0.669286D-01
                 6             7             8             9            10 
      1   0.646272D-01 -0.142532D+01  0.767406D+00 -0.409481D+00 -0.104407D+01
      2  -0.486281D+00  0.644830D+00 -0.390283D+00  0.699947D-01 -0.488087D+00
      3  -0.694989D+00  0.592389D-01 -0.976759D-01 -0.850210D+00  0.926504D-01
                11            12            13            14            15 
      1  -0.122105D+01 -0.769405D+00 -0.137973D+01 -0.666767D+00  0.549375D+00
      2  -0.325474D+00 -0.223503D+00 -0.641806D+00 -0.289036D+00  0.328288D+00
      3  -0.131667D+00 -0.726029D+00 -0.444293D-01  0.919273D-01 -0.766215D+00
                16            17            18            19            20 
      1  -0.138460D+01  0.137671D+01  0.279339D+00 -0.302192D+00 -0.475717D+00
      2   0.149793D+00 -0.109016D+01 -0.423995D-02  0.375486D+00 -0.143764D+01
      3  -0.303742D-01  0.161619D+00 -0.956837D+00 -0.622792D-01 -0.377005D-02
                21            22            23            24            25 
      1  -0.394636D+00  0.919764D+00  0.562414D+00 -0.179894D+00  0.896700D-02
      2  -0.288720D+00  0.306459D+00  0.403861D+00 -0.100755D+00 -0.680371D-01
      3  -0.938261D+00  0.454917D-01  0.128445D-01  0.111873D+00 -0.147287D+00
                26            27            28            29            30 
      1   0.166424D-01  0.500013D+00  0.103675D+00 -0.108893D+00 -0.921416D-01
      2   0.165664D+00  0.190215D+00 -0.749749D-03  0.138872D+00 -0.390382D-01
      3   0.187601D-01  0.637755D+00  0.127347D+00  0.387641D+00  0.438000D+00
                31            32            33            34            35 
      1   0.341316D+00  0.306445D+00 -0.178229D+00  0.147081D+00 -0.204674D-01
      2   0.239045D+00  0.693380D+00 -0.315518D+00  0.806639D-01  0.120343D+00
      3  -0.147713D+00 -0.333418D+00  0.309570D+00  0.992640D-01 -0.507765D-02
                36            37            38            39            40 
      1  -0.931442D-01  0.205101D+00 -0.232116D+00  0.457200D-01  0.829269D+00
      2   0.478584D+00 -0.107869D+00  0.998766D+00 -0.276539D+00 -0.316237D+00
      3   0.604333D+00 -0.177531D-01 -0.624196D-01  0.144214D+00 -0.138829D+00
                41            42            43            44            45 
      1  -0.449615D+00 -0.457187D+00  0.326467D+00 -0.247418D-01  0.688681D+00
      2   0.385476D+00  0.220032D+00 -0.517737D-01  0.167613D+00 -0.246236D+00
      3   0.904270D-01  0.225168D+00  0.108598D+00 -0.209957D-01  0.578625D+00
                46            47            48            49            50 
      1   0.108147D+01  0.386245D+00  0.277741D+00  0.786378D-01  0.172891D-01
      2   0.370388D+00  0.321400D+00  0.115915D+00 -0.478721D-01  0.149394D+00
      3  -0.247714D-01 -0.641369D-02  0.110305D+00  0.675202D-01 -0.254021D-01
                51            52            53            54            55 
      1  -0.588363D+00 -0.170482D+00 -0.297974D+00 -0.419791D+00 -0.100977D+00
      2  -0.273271D+00  0.245894D+00  0.335988D+00  0.352830D+00  0.179248D+00
      3   0.697267D+00  0.185521D+00  0.143726D+00  0.413178D+00 -0.131771D+00
                56            57            58            59            60 
      1  -0.410712D+00  0.487960D+00  0.135933D+01  0.354074D-01 -0.167384D+00
      2   0.458349D+00 -0.428228D+00 -0.315467D+00  0.146822D+00  0.455299D-01
      3  -0.209755D+00  0.436360D+00 -0.223028D-01 -0.734905D-03  0.899156D-01
                61            62            63            64            65 
      1   0.476271D-01 -0.755996D-01  0.225350D+00  0.309382D+00  0.327024D-01
      2  -0.156265D+00 -0.107049D-01  0.368455D+00 -0.579000D+00  0.414348D-01
      3  -0.124605D+00 -0.188557D+00  0.636915D+00  0.118211D+00  0.171109D-01
                66            67            68            69 
      1   0.689571D-01  0.282000D+00  0.417941D+00 -0.303969D-01
      2  -0.158590D+00  0.398253D+00  0.115788D+01 -0.512081D-01
      3   0.211859D+00  0.243359D-01  0.848085D-01  0.857290D-01
 Hessian after L701:
                1             2             3             4             5 
      1  0.153626D+02
      2  0.433183D+00  0.171342D+02
      3  0.184373D+00  0.353266D+00  0.178565D+02
      4 -0.342113D+01 -0.886100D+00 -0.145149D+01  0.151120D+02
      5 -0.923853D+00 -0.580534D+01  0.443804D+00 -0.520628D+00  0.164219D+02
      6 -0.146736D+01  0.437895D+00 -0.547747D+01  0.330953D+00 -0.189070D+00
      7  0.353113D+00  0.397135D-01 -0.115371D+00 -0.310893D+01  0.177365D+01
      8  0.501808D-01 -0.115277D+00  0.103878D-01  0.175863D+01 -0.513322D+01
      9 -0.234544D+00 -0.158568D-01 -0.920241D-01  0.481910D+00  0.256387D+00
     10 -0.388772D+01 -0.105696D+01  0.154278D+01  0.283634D+00 -0.936960D-01
     11 -0.103107D+01 -0.548938D+01 -0.847424D+00 -0.202690D+00 -0.774881D-01
     12  0.153869D+01 -0.855669D+00 -0.503278D+01 -0.464630D-01  0.257484D-01
     13  0.112420D+00  0.161222D+00 -0.518657D-01  0.412220D-01  0.186075D+00
     14  0.154936D+00 -0.325100D-01 -0.288625D-01  0.234511D+00  0.264739D+00
     15 -0.708004D-01 -0.454809D-01 -0.149324D+00  0.928826D-02  0.800924D-02
     16  0.430288D-01 -0.226737D+00  0.171275D-01  0.107613D+00 -0.214964D+00
     17 -0.194341D+00  0.129409D+00 -0.367725D-02 -0.195456D+00  0.232321D-01
     18  0.108336D+00 -0.113311D+00 -0.107972D+00 -0.958342D-02  0.977188D-02
     19 -0.281340D-01  0.334913D+00  0.351196D-02 -0.175201D+00  0.518860D-01
     20  0.266581D+00  0.244976D+00 -0.906375D-02  0.219525D-01  0.291288D+00
     21 -0.629977D-01 -0.100745D+00 -0.230965D+00 -0.114329D-01  0.521189D-01
     22 -0.115530D-02  0.601270D-01 -0.127584D+00  0.148544D+00 -0.871660D-02
     23  0.692842D-01  0.133889D+00 -0.527572D-02  0.791118D-02 -0.424430D-01
     24 -0.111890D+00  0.258395D-02  0.520722D-01 -0.705273D-02 -0.424422D-02
     25  0.707294D-01  0.440619D-01 -0.240624D+00 -0.265580D-01  0.340574D-01
     26  0.245615D-01  0.164001D+00  0.581046D-01  0.220502D-01 -0.146184D-01
     27 -0.196028D+00  0.684120D-01 -0.734682D-01  0.879622D-02  0.209259D-01
     28 -0.471002D+01  0.418147D+00  0.436745D+00  0.565242D-01  0.167048D+00
     29  0.456870D+00 -0.355669D+01  0.130859D+01  0.122888D+00  0.134014D+00
     30  0.553917D+00  0.152509D+01 -0.319759D+01  0.201699D+00 -0.150024D+00
     31 -0.411876D+01  0.639205D+00 -0.488779D+00 -0.289509D-01  0.698545D-01
     32  0.636560D+00 -0.308732D+01 -0.101582D+01  0.650719D-01  0.172284D+00
     33 -0.475943D+00 -0.995988D+00 -0.355713D+01  0.821992D-01 -0.710013D-01
     34  0.399799D-01  0.662284D-01  0.219789D+00 -0.458839D+01  0.649319D-02
     35  0.902150D-01  0.127794D+00 -0.138460D+00  0.332644D-01 -0.458938D+01
     36  0.202100D+00 -0.100555D+00 -0.253278D-01  0.435187D+00  0.939653D-01
     37 -0.321417D-01  0.960359D-01  0.708909D-01 -0.431493D+01 -0.383911D+00
     38  0.102827D+00  0.136491D+00 -0.829381D-01 -0.375862D+00 -0.200479D+01
     39  0.690376D-01 -0.673194D-01  0.108360D+00  0.785623D-01 -0.451253D+00
     40  0.179864D+00 -0.218693D-01 -0.609521D-01 -0.917503D-01 -0.648254D-01
     41 -0.426879D-01 -0.509393D-01  0.579451D-02 -0.556567D-01  0.122703D+00
     42 -0.733638D-01  0.527829D-02 -0.349843D-01 -0.451912D-02  0.268984D-01
     43 -0.142433D-01  0.235484D-01  0.924215D-02 -0.278459D-01 -0.109020D+00
     44  0.150644D-01 -0.431841D-02  0.215027D-02 -0.711504D-01  0.658581D-01
     45  0.207209D-01  0.935399D-02  0.141692D-01 -0.834636D-01 -0.857960D-01
     46  0.152208D-01  0.160034D-01  0.835759D-02  0.724913D-01  0.128566D+00
     47  0.116437D-01 -0.538993D-03  0.336403D-02  0.118166D+00  0.706782D-01
     48  0.455012D-04 -0.205534D-03 -0.698319D-02  0.558579D-02  0.582598D-02
     49 -0.718354D-04  0.116775D-01 -0.722306D-02 -0.767103D-02  0.674899D-02
     50  0.119850D-01 -0.136994D-02 -0.736137D-02  0.108587D-01 -0.448059D-02
     51 -0.259439D-01 -0.233006D-01 -0.339405D-02 -0.155381D-01 -0.160503D-01
[...]
 ,-0.00156683,-0.01594693,0.00687834,0.00887559,0.08640574,-0.09953530,
 -0.05665415,-0.00001226,0.00032882,-0.00013491,-0.00050595,-0.00035321
 ,0.00033398,-0.00002413,-0.00008371,0.00014127,-0.00057250,0.00025655,
 -0.00118639,0.00001043,0.00001672,-0.00005158,0.00006024,-0.00004782,0
 .00005865,-0.00014293,0.00036956,0.00004043,-0.00075653,0.00043989,0.0
 0024682,0.00058175,0.00074103,0.00052784,0.00085336,0.00056808,0.00023
 509,-0.09064122,0.10472936,-0.00118139,-0.00089592,0.00094627,-0.00566
 915,0.00294447,0.00282919,0.09946923,-0.05649675,-0.11398556,-0.000466
 15,0.00010840,-0.00017833,0.02147246,-0.01650768,-0.01803725,0.0000022
 2,-0.00010218,0.00014689,-0.00227926,0.00199225,-0.00546567,0.00003583
 ,0.00000599,0.00006343,0.00000407,-0.00007904,0.00012338,0.00007063,-0
 .00008843,-0.00017206,-0.00021186,-0.00004544,-0.00002864,0.00039612,0
 .00009719,0.00001549,-0.00009429,0.00053687,0.00057560,-0.10319527,0.0
 6552521,0.12736513,0.00231765,-0.00144222,-0.00013854,-0.00024433,-0.0
 2891596,0.00916038,-0.04925015,0.02099729,-0.00667316,-0.00014614,-0.0
 0006622,0.00020212,-0.00016871,0.00673245,-0.00258816,0.00003099,0.000
 07318,0.00002791,0.00059277,0.00015980,0.00073071,0.00004769,0.0002354
 9,-0.00003274,-0.00000978,-0.00001699,-0.00001763,-0.00006106,0.000978
 98,0.00019076,0.00025574,0.00011753,-0.00011830,-0.00471718,-0.0032993
 8,-0.00127343,0.00121639,0.00089622,0.00018291,-0.00197438,0.02316841,
 -0.00895920,0.05261632,0.00108348,0.00059762,-0.00033958,0.00034602,-0
 .01722757,0.00473617,0.01935393,-0.26977154,0.08234954,0.00011091,0.00
 027381,0.00009907,-0.00000978,-0.00013448,0.00004265,-0.00000703,0.000
 00073,0.00003441,-0.00011816,0.00121174,-0.00156688,0.00009831,0.00008
 512,-0.00018834,-0.00001568,-0.00002555,-0.00010350,-0.00071909,0.0006
 0483,0.00046810,-0.00000712,0.00023987,-0.00002420,-0.00320509,-0.0003
 3910,-0.00131680,0.00002828,0.00035329,-0.00049777,0.00137038,-0.01340
 722,0.00434735,-0.01866890,0.29572176,0.00023808,0.00049525,-0.0001259
 1,0.00005506,-0.00711774,0.00196328,-0.00580414,0.08172657,-0.07604181
 ,-0.00009134,-0.00013709,-0.00014169,-0.00187549,0.02994950,-0.0156930
 8,0.00005784,0.00004171,0.00007073,0.00020045,0.00195182,0.00186578,0.
 00000076,0.00000453,0.00002138,-0.00008339,0.00004718,0.00007650,0.000
 31194,0.00008329,-0.00010841,0.00000843,-0.00013588,-0.00005633,-0.001
 65050,-0.00081831,0.00051206,0.00050017,-0.00019909,0.00036732,0.00061
 505,-0.01558422,0.00554084,0.01018002,-0.08852769,0.08726941,0.0003752
 1,0.00008133,0.00018612,0.00122504,0.00067970,-0.00213213,-0.00743193,
 -0.00123676,0.00024240,0.00021184,0.00006196,0.00024192,-0.30720383,-0
 .02297178,-0.01486558,-0.00004052,-0.00000720,-0.00008618,-0.01421464,
 0.00008812,0.00069889,-0.00007213,-0.00003730,-0.00003937,-0.00004887,
 0.00011649,-0.00018337,0.00004364,-0.00000850,0.00007688,-0.00001171,-
 0.00002564,-0.00005693,0.00007654,0.00007204,0.00011498,-0.00061855,-0
 .00032149,-0.00013569,0.00169562,-0.00033607,0.00004534,-0.00027816,0.
 00004854,-0.00038079,0.33281631,0.00013045,-0.00022540,0.00002720,-0.0
 0035986,0.00027767,-0.00091102,-0.00032314,-0.00091793,-0.00070984,0.0
 0011150,0.00011446,0.00058278,-0.02336186,-0.05000838,0.00149919,-0.00
 011232,-0.00014481,-0.00020098,0.02965808,-0.00016112,-0.00071652,-0.0
 0000198,0.00001557,-0.00000447,-0.00018160,-0.00014587,-0.00032160,-0.
 00007217,0.00012629,-0.00007598,-0.00002976,0.00008422,-0.00001442,0.0
 0016091,0.00031949,0.00011024,-0.00030340,0.00011133,-0.00024832,-0.00
 043813,0.00058237,-0.00055478,0.00002045,-0.00016257,-0.00012966,0.022
 79897,0.05428129,0.00027472,-0.00011287,-0.00016725,0.00000170,0.00171
 109,-0.00575696,-0.03281740,-0.00620928,-0.00513965,-0.00015039,-0.000
 04017,-0.00040932,-0.01382735,0.00132785,-0.04663781,0.00011651,-0.000
 07144,0.00020854,0.01801725,0.00031450,-0.00023303,0.00004808,0.000037
 12,0.00004628,0.00000925,-0.00013567,0.00021075,-0.00003594,0.00010188
 ,0.00003438,-0.00010306,0.00007111,0.00015688,0.00022077,-0.00005993,0
 .00011385,-0.00141421,-0.00102425,-0.00063420,-0.00054677,-0.00053865,
 0.00131142,0.00009716,0.00059168,-0.00005787,0.01462841,0.00522695,0.0
 5688889,0.00003227,0.00031632,-0.00000972,0.00079995,0.00097948,-0.000
 13007,0.00140447,0.00837420,-0.00570577,-0.00061986,0.00010721,0.00012
 317,-0.06370494,-0.05630851,0.02956784,-0.00002156,0.00002020,0.000064
 70,0.00381479,0.01295932,-0.00653017,0.00011003,-0.00005778,0.00006106
 ,-0.00206511,0.00022823,0.00039885,0.00000123,-0.00006966,-0.00002876,
 0.00002649,-0.00005930,0.00007214,0.00022761,-0.00015917,0.00010119,0.
 00008833,0.00002012,0.00018747,-0.00004402,-0.00011297,0.00009615,-0.0
 0018427,0.00061507,-0.00231282,-0.00828593,-0.02864706,0.01472973,0.06
 819059,0.00001296,-0.00023250,0.00020140,-0.00022888,0.00122915,-0.000
 69198,0.00029274,0.00027807,0.00028496,0.00016797,0.00028801,0.0010450
 6,-0.05444495,-0.23937077,0.09762372,-0.00026028,-0.00014473,-0.000431
 95,-0.00646175,-0.02279542,0.01008535,-0.00002619,-0.00006148,-0.00005
 883,-0.00034470,0.00010670,-0.00046432,-0.00003320,0.00009086,-0.00004
 927,0.00001694,0.00011210,-0.00010588,0.00070383,0.00021696,0.00035675
 ,-0.00000511,0.00022036,-0.00017321,0.00026415,-0.00023277,0.00050338,
 -0.00043960,0.00097752,-0.00024358,-0.00148028,-0.00225412,0.00082865,
 0.06032769,0.26267476,-0.00033451,-0.00008909,-0.00014777,0.00092571,0
 .00134123,0.00224173,0.00576979,0.02803374,-0.01630774,-0.00002939,-0.
 00011775,-0.00035717,0.02819843,0.09863762,-0.09630304,0.00006697,-0.0
 0000346,0.00018630,-0.00502567,-0.01633995,0.00742997,-0.00006531,-0.0
 0000088,0.00000104,0.00055123,0.00002539,0.00036914,0.00014246,-0.0000
 9770,-0.00008533,-0.00006271,-0.00001551,0.00005896,-0.00048410,-0.001
 12775,-0.00001213,0.00049101,-0.00022211,0.00038635,0.00031280,-0.0002
 4789,-0.00042649,-0.00093969,-0.00063722,-0.00577916,0.00002938,-0.001
 65597,0.00030221,-0.03080314,-0.10568934,0.10871242,0.00114996,0.00069
 339,-0.00123690,-0.00024861,0.00016512,-0.00023042,0.00002965,-0.00008
 701,0.00008641,0.00554888,0.02773256,0.00616967,0.00010908,0.00011872,
 0.00004952,-0.05833731,-0.05435621,-0.01127890,-0.00042784,0.00004470,
 -0.00004140,-0.00414819,0.00261550,0.00293221,0.00127488,-0.00042910,-
 0.00082442,0.00009777,-0.00062576,0.00008850,-0.00005064,-0.00011548,0
 .00002909,0.00003986,-0.00020352,0.00005031,0.00005304,-0.00007670,-0.
 00002887,0.00000267,-0.00000543,-0.00002495,-0.00004092,-0.00001996,0.
 00000085,0.00002904,-0.00006528,-0.00005125,0.00000765,-0.00001265,0.0
 0000763,0.06308440,-0.00059122,0.00065226,0.00085026,0.00013591,0.0003
 4793,0.00006887,-0.00003199,-0.00001511,-0.00007764,-0.00235553,-0.015
 48832,-0.00292278,-0.00012528,-0.00016621,-0.00002166,-0.05387912,-0.2
 8932071,-0.04891801,0.00007319,0.00013973,0.00006713,0.00301695,0.0002
 2451,-0.00107885,0.00000869,0.00038657,0.00035005,0.00025669,0.0005370
 6,-0.00077213,0.00005394,-0.00000816,0.00004357,-0.00019424,0.00009758
 ,0.00012437,0.00002391,0.00005867,-0.00003645,0.00003332,0.00002004,0.
 00003091,0.00003646,0.00002272,-0.00001246,-0.00001957,0.00007727,0.00
 005684,-0.00002949,0.00004958,-0.00002219,0.05640155,0.31570755,-0.001
 04514,-0.00142357,0.00076079,0.00027901,0.00015514,0.00000883,0.000012
 20,0.00002189,-0.00000625,-0.00305019,-0.01308651,-0.00373826,-0.00003
 438,-0.00003198,-0.00000908,-0.01110775,-0.04858086,-0.05732933,0.0000
 6104,0.00004841,-0.00008604,0.00244864,-0.00100215,-0.00052490,-0.0001
 4773,0.00071200,0.00042529,0.00038675,0.00047251,-0.00024102,0.0000175
 2,-0.00002832,-0.00001044,-0.00010630,0.00019249,0.00000972,-0.0000241
 8,0.00002545,0.00000548,-0.00001177,0.00000531,-0.00001013,0.00003396,
 0.00002898,-0.00001407,-0.00000325,0.00002115,0.00000165,-0.00002156,0
 .00003169,-0.00000781,0.00998257,0.05527279,0.05826628,-0.00437336,0.0
 0347820,0.00063225,0.00041721,-0.00064701,0.00161675,0.00007488,0.0001
 1554,0.00008529,-0.00611163,-0.01386061,0.02273137,0.00000046,-0.00006
 689,0.00003713,-0.06394019,-0.03046965,0.05701934,0.00001898,0.0000355
 6,-0.00003965,0.00111483,0.00009009,-0.00051884,0.00052211,-0.00073060
 ,-0.00065542,-0.00004580,0.00016805,-0.00036068,0.00020369,0.00012995,
 0.00035250,0.00003202,0.00005161,-0.00005870,-0.00051901,0.00018475,0.
 00027303,-0.00007213,-0.00002680,-0.00003900,-0.00000561,-0.00001827,-
 0.00001603,-0.00001932,-0.00000118,-0.00003139,0.00000653,0.00003207,0
 .00000151,-0.00281737,-0.00293087,0.00590004,0.06803549,0.00249733,-0.
 00149080,-0.00065396,0.00028459,0.00072771,-0.00073503,0.00006210,-0.0
 0009969,-0.00007445,0.00339085,0.00748211,-0.01544169,-0.00004550,-0.0
 0000756,-0.00005485,-0.03106646,-0.10242519,0.10502384,0.00007755,0.00
 002141,0.00002418,-0.00082199,0.00061031,0.00009035,-0.00059916,0.0003
 6440,0.00055206,0.00020304,0.00044833,-0.00014721,-0.00000431,-0.00013
 145,0.00015818,-0.00008145,0.00000853,0.00008795,0.00018289,-0.0000646
 9,-0.00011356,0.00004334,0.00002225,0.00002125,0.00000458,0.00000375,-
 0.00001058,-0.00000852,0.00001650,0.00002174,-0.00000295,0.00000673,0.
 00001096,-0.00689983,-0.01320277,0.02728496,0.03184899,0.10783813,0.00
 298238,-0.00233941,0.00023018,-0.00026486,0.00078083,-0.00047422,0.000
 06685,-0.00018378,-0.00015098,0.00146225,0.00570380,-0.01050989,0.0000
 0249,0.00001739,-0.00004442,0.05772303,0.10427514,-0.24518111,-0.00002
 155,-0.00001408,0.00003669,-0.00036738,-0.00030595,0.00003650,0.000192
 17,-0.00006894,0.00062440,-0.00013096,0.00004705,0.00012409,-0.0000814
 3,-0.00004860,0.00047163,0.00001766,-0.00005180,0.00003330,0.00024902,
 -0.00006646,-0.00015598,0.00011428,0.00004747,0.00003613,-0.00000693,0
 .00001704,0.00000889,0.00002866,0.00001702,0.00002449,-0.00002365,0.00
 000310,0.00000046,-0.00218607,-0.00298090,0.00669290,-0.06527849,-0.11
 377453,0.26478915,0.00103192,-0.00028548,-0.00162352,0.00034951,0.0003
 1212,0.00035079,0.00014745,-0.00012375,-0.00021124,-0.02250290,-0.0009
 7149,-0.01648133,-0.00011548,0.00014923,-0.00015543,-0.20853751,-0.007
 91333,-0.12880870,0.00008317,0.00000956,0.00009611,0.00108797,0.000087
 20,-0.00000913,-0.00305034,0.00295229,0.00316653,-0.00013038,-0.000137
 21,0.00007815,0.00005598,-0.00010994,0.00114830,0.00009030,-0.00011679
 ,-0.00008108,-0.00006287,-0.00002615,0.00009386,0.00006310,0.00004586,
 0.00003508,-0.00000705,-0.00002099,0.00002631,-0.00005488,-0.00007038,
 0.00008988,0.00004883,-0.00017916,0.00006985,-0.00541116,-0.00028917,-
 0.00362132,0.00746274,0.00091675,0.00545793,0.22946180,-0.00063452,0.0
 0022974,0.00046524,-0.00012946,-0.00022837,0.00004822,-0.00006354,0.00
 001949,0.00004770,0.01352150,0.00009501,0.01034832,-0.00005498,-0.0001
 3269,0.00004617,-0.00815634,-0.04764596,-0.00545336,0.00013876,0.00009
 203,0.00001356,-0.00043191,0.00030059,0.00074379,0.00261220,-0.0007880
 7,-0.00174618,-0.00011198,-0.00008821,-0.00019848,-0.00023525,0.000251
 18,-0.00026664,0.00004499,0.00000455,0.00000704,-0.00000378,0.00003434
 ,-0.00001397,-0.00000291,-0.00000233,0.00000501,-0.00000657,0.00000131
 ,-0.00001580,0.00000355,0.00007529,0.00000927,-0.00002532,0.00009124,-
 0.00002870,-0.02485915,-0.00018727,-0.02010350,0.01263229,-0.00008694,
 0.00893982,0.00562970,0.04798831,0.00070308,-0.00002278,0.00163519,-0.
 00002838,-0.00007517,0.00008815,0.00000836,0.00003732,0.00005472,0.012
 08914,0.00127909,0.00904707,0.00001832,-0.00007277,0.00000741,-0.12945
 368,-0.00535316,-0.15001034,0.00006179,-0.00001290,-0.00001629,-0.0007
 7473,0.00046424,0.00048694,0.00303524,-0.00120134,-0.00059553,-0.00016
 374,0.00012281,-0.00000756,-0.00044308,-0.00030998,-0.00000541,-0.0000
 3457,0.00003827,-0.00001856,-0.00005720,0.00004106,0.00001603,-0.00002
 546,0.,0.00000167,-0.00000101,-0.00000344,-0.00001109,0.00000079,0.000
 03396,-0.00002317,-0.00001041,0.00004500,-0.00002338,-0.00357689,0.000
 06830,-0.00431611,-0.02169484,-0.00231035,-0.01657474,0.14039938,0.007
 23266,0.16028159,-0.00000818,-0.00038742,0.00019856,-0.00006295,0.0001
 5785,0.00001482,-0.00001972,-0.00054310,-0.00062284,0.00025802,-0.0004
 6375,0.00027830,0.00348101,0.01381302,-0.00554872,0.00007793,-0.000036
 49,-0.00012131,-0.06972108,-0.06775289,0.03183234,-0.00027576,-0.00003
 889,-0.00022707,-0.00032548,0.00023930,-0.00032593,0.00002006,0.000130
 17,0.00012323,-0.00000932,0.00004339,-0.00008114,-0.00001702,-0.000023
 80,0.00003393,0.00004149,-0.00002874,-0.00002297,-0.00009332,0.0000725
 8,-0.00015723,0.00008751,-0.00033674,-0.00016062,0.00059820,-0.0002661
 1,-0.00073994,-0.00053801,0.00244466,0.00182520,0.00013627,-0.00003936
 ,0.00003686,0.00000801,0.00000051,0.00000209,-0.00007804,-0.00001675,-
 0.00001483,0.07238251,-0.00000256,-0.00014538,0.00002298,-0.00007410,0
 .00025010,-0.00010794,-0.00013161,0.00057952,0.00196004,0.00015043,0.0
 0003721,0.00017582,-0.00694625,-0.02431734,0.01000146,-0.00003634,-0.0
 0001963,-0.00009183,-0.06699993,-0.24264113,0.09570627,-0.00002579,0.0
 0002626,-0.00002747,0.00007660,0.00001599,-0.00016742,-0.00010242,-0.0
 0005954,-0.00000901,-0.00001770,0.00000969,-0.00003943,0.00017957,0.00
 017578,0.00009386,-0.00007683,0.00000399,-0.00007000,0.00006170,0.0004
 1473,-0.00000703,-0.00033281,0.00061819,-0.00114007,0.00022943,0.00103
 992,0.00028890,0.00276873,-0.00283446,-0.00327382,0.00000127,0.0000093
 6,0.00001026,0.00000335,0.00000247,0.00000303,-0.00004490,0.00001532,0
 .00000707,0.07113380,0.26705043,0.00013508,-0.00003505,0.00007727,-0.0
 0016268,-0.00015323,-0.00015209,-0.00027591,-0.00123329,0.00202417,-0.
 00010333,-0.00008651,-0.00002980,-0.00514863,-0.01578528,0.00580847,-0
 .00000255,0.00000683,-0.00000473,0.03173951,0.09685694,-0.09325068,0.0
 0000186,-0.00000711,0.00000766,0.00003699,-0.00007114,-0.00009488,0.00
 001729,0.00012586,0.00005100,0.00000392,0.00002834,0.00001344,0.000000
 48,0.00013841,-0.00009802,-0.00002454,0.00002321,-0.00002047,0.0000378
 2,0.00010457,0.00022146,-0.00003365,0.00047912,-0.00016735,-0.00046228
 ,0.00089259,0.00055860,0.00125332,-0.00319215,-0.00126984,-0.00001704,
 0.00002038,-0.00001219,-0.00001544,-0.00001149,-0.00000366,0.00000958,
 0.00000581,0.00001747,-0.03675159,-0.10309684,0.09896670,-0.00122603,-
 0.00003933,-0.00075720,0.00004481,0.00029219,0.00061204,0.00031903,0.0
 0010143,-0.00027405,-0.00042555,-0.00170829,-0.00048531,-0.01205255,-0
 .00006131,-0.00008385,0.00009557,-0.00051575,-0.00022606,-0.31743651,-
 0.00853441,-0.00104543,-0.00028556,-0.00000340,-0.00015981,-0.00057067
 ,-0.00090732,-0.00040454,-0.00055916,-0.00097912,-0.00108328,-0.000097
 69,-0.00045954,-0.00002901,-0.00001787,-0.00005507,0.00002026,0.000155
 63,0.00006534,0.00001030,0.00014507,-0.00003341,0.00002316,0.00005709,
 0.00000478,0.00032259,0.00074842,0.00216056,0.00144602,0.00032129,0.00
 000832,-0.00007348,-0.00014800,0.00041869,0.00011276,0.00007082,0.0000
 7626,0.00003735,0.00006338,0.00014846,-0.00005256,-0.00841267,-0.00041
 649,-0.00042589,0.34796047,-0.00027020,0.00011575,-0.00063071,0.000107
 35,-0.00011602,-0.00022900,-0.00053849,0.00090271,0.00079316,-0.001235
 08,-0.00084169,-0.00068920,0.02743201,0.00175021,0.00114673,-0.0001026
 5,0.00021064,0.00029255,-0.01040651,-0.04628622,0.00015573,0.00030380,
 0.00009654,0.00018236,-0.00082083,-0.00245945,0.00010315,-0.00014625,0
 .00010561,-0.00016631,-0.00002570,-0.00003432,0.00025996,0.00002404,-0
 .00002146,-0.00002605,-0.00011810,-0.00002224,0.00003986,-0.00010253,0
 .00005056,0.00018933,-0.00023679,0.00005940,-0.00011667,0.00239319,-0.
 00415295,-0.00314783,-0.00044476,0.00090339,0.00094873,-0.00001055,0.0
 0004961,-0.00003187,0.00000838,-0.00005033,-0.00003250,0.00017026,-0.0
 0003410,-0.00001118,-0.02828712,-0.00061427,-0.00148486,0.01109601,0.0
 5152402,-0.00093176,-0.00108576,-0.00084185,0.00020429,-0.00003877,-0.
 00013309,0.00006458,0.00071931,0.00102889,-0.00006860,-0.00015792,0.00
 039103,0.01801670,0.00142869,-0.00005403,-0.00009562,0.00020152,-0.000
 13924,-0.00230107,0.00056303,-0.04721602,0.00010939,0.00011175,-0.0001
 7456,0.00000079,0.00029031,0.00027834,-0.00121717,-0.00021316,-0.00156
 420,0.00001192,0.00021349,0.00007543,-0.00010244,0.00010778,0.00004864
 ,-0.00001740,0.00004580,0.00004397,-0.00016638,0.00021960,0.00009288,-
 0.00008309,0.00026626,-0.00007469,0.00159901,-0.00327758,-0.00107561,-
 0.00083882,0.00038823,0.00040039,0.00010729,-0.00012659,0.00015884,0.0
 0010541,0.00006474,-0.00004591,-0.00003496,-0.00009680,-0.00004058,0.0
 1457862,-0.00013753,-0.00055981,0.00259353,0.00225083,0.04848805,-0.00
 032970,0.00057493,-0.00021132,-0.00027138,0.00015248,0.00056167,-0.000
 46459,0.00242537,0.00118743,-0.00005759,0.00006148,-0.00021431,0.00409
 490,-0.00101706,0.01411192,0.00004574,0.00001505,0.00001049,-0.0742426
 2,0.00084943,-0.08065046,-0.00004851,-0.00006991,0.00005132,0.00003551
 ,0.00005586,-0.00009735,0.00000824,-0.00059635,0.00008120,-0.00001614,
 -0.00034827,-0.00006664,0.00007670,-0.00002390,-0.00002008,0.00016363,
 0.00006517,-0.00000461,0.00009969,0.00018768,0.00062745,-0.00013440,0.
 00008710,-0.00014243,0.00046060,-0.00080670,0.00003821,0.00038364,-0.0
 0035459,-0.00057394,0.00006689,0.00002654,-0.00009778,-0.00006335,-0.0
 0005861,0.00002517,0.00000447,0.00000100,0.00001529,0.00247056,0.00060
 285,0.01018766,-0.00874931,0.00121053,-0.03153423,0.07646704,0.0000254
 3,-0.00021257,0.00003809,0.00014184,0.00033488,-0.00020154,0.00350140,
 -0.00392698,-0.00094715,-0.00018419,0.00010507,-0.00011448,-0.00940142
 ,0.00021645,-0.02595592,0.00000559,-0.00001960,0.00003794,0.00082855,-
 0.04697439,0.00421044,0.00001698,0.00000273,0.00000434,0.00008662,0.00
 001087,0.00000243,-0.00006159,0.00002040,0.00001613,-0.00004119,-0.000
 00114,0.00003036,0.00002415,-0.00000572,0.00001925,-0.00018533,-0.0000
 5122,-0.00000346,-0.00031140,-0.00001432,-0.00153038,0.00000459,0.0002
 9638,-0.00011101,-0.00012021,0.00105147,0.00075252,-0.00079960,0.00068
 082,0.00057166,-0.00000619,0.00000813,0.00000575,-0.00002698,0.0000068
 2,0.00001525,0.00001577,-0.00000444,0.00000328,0.01018587,0.00038279,0
 .02647489,-0.00065859,-0.00113539,-0.00173723,-0.00304010,0.04922896,0
 .00012803,0.00008998,0.00009279,0.00026844,0.00003088,-0.00012621,0.00
 243304,-0.00263735,-0.00018817,-0.00007222,-0.00004592,-0.00005733,-0.
 00524349,0.00149592,-0.01405286,0.00000618,-0.00003918,0.00002845,-0.0
 7947945,0.00334905,-0.28891495,-0.00001788,-0.00001139,0.00001315,-0.0
 0010683,-0.00006654,-0.00017529,0.00003623,-0.00002360,0.00002473,-0.0
 0005799,-0.00001641,0.00003743,-0.00006367,-0.00008284,-0.00000981,-0.
 00012808,-0.00003954,-0.00003134,-0.00041387,-0.00039724,-0.00096563,0
 .00005962,-0.00025495,0.00057530,0.00045277,0.00041005,0.00027694,-0.0
 0024074,-0.00029680,0.00063088,-0.00000693,0.00001619,-0.00002414,-0.0
 0004612,-0.00001250,0.00003209,0.00000494,0.00001082,0.00000652,-0.004
 14975,-0.00010129,-0.01208271,-0.00007755,0.00020379,0.00091313,0.0867
 1533,-0.00158117,0.31399702\\-0.00000048,0.00000101,0.00000046,-0.0000
 0062,0.00000202,-0.00000101,-0.00000071,0.00000179,-0.00000078,0.00000
 047,-0.00000087,-0.00000019,0.00000008,-0.00000027,-0.00000103,0.00000
 078,-0.00000198,0.00000129,0.00000036,-0.00000140,0.00000098,0.0000004
 2,-0.00000050,-0.00000162,0.00000064,-0.00000164,-0.00000086,-0.000000
 60,0.00000097,0.00000173,-0.00000087,0.00000191,0.00000050,-0.00000045
 ,0.00000185,-0.00000270,-0.00000140,0.00000361,-0.00000119,-0.00000095
 ,0.00000276,-0.00000195,-0.00000105,0.00000244,0.00000056,0.00000021,-
 0.00000002,-0.00000148,0.00000063,-0.00000069,-0.00000220,0.00000055,-
 0.00000213,0.00000263,0.00000125,-0.00000319,0.00000074,0.00000020,-0.
 00000109,0.00000175,0.00000006,-0.00000054,0.00000207,0.00000050,-0.00
 000139,0.00000153,0.00000100,-0.00000264,0.00000077\\\@


 IN-LAWS ARE LIKE SEEDS. YOU DON'T NEED THEM
 BUT THEY COME WITH THE TOMATO.
 Job cpu time:       0 days  5 hours 48 minutes 22.2 seconds.
 Elapsed time:       0 days  2 hours 54 minutes 13.5 seconds.
 File lengths (MBytes):  RWF=   1488 Int=      0 D2E=      0 Chk=     32 Scr=     32
 Normal termination of Gaussian 16 at Sun Sep 29 14:54:08 2019.
