 Entering Gaussian System, Link 0=g16
 Input=loose/species/CCCCCCC/conformers/CCCCCCC_810.com
 Output=loose/species/CCCCCCC/conformers/CCCCCCC_810.log
 Initial command:
 /shared/centos7/gaussian/g16/l1.exe "/scratch/harms.n/gauss_scrdir/Gau-38440.inp" -scrdir="/scratch/harms.n/gauss_scrdir/"
 Entering Link 1 = /shared/centos7/gaussian/g16/l1.exe PID=     38441.
  
 Copyright (c) 1988,1990,1992,1993,1995,1998,2003,2009,2016,
            Gaussian, Inc.  All Rights Reserved.
  
 This is part of the Gaussian(R) 16 program.  It is based on
 the Gaussian(R) 09 system (copyright 2009, Gaussian, Inc.),
 the Gaussian(R) 03 system (copyright 2003, Gaussian, Inc.),
 the Gaussian(R) 98 system (copyright 1998, Gaussian, Inc.),
 the Gaussian(R) 94 system (copyright 1995, Gaussian, Inc.),
 the Gaussian 92(TM) system (copyright 1992, Gaussian, Inc.),
 the Gaussian 90(TM) system (copyright 1990, Gaussian, Inc.),
 the Gaussian 88(TM) system (copyright 1988, Gaussian, Inc.),
 the Gaussian 86(TM) system (copyright 1986, Carnegie Mellon
 University), and the Gaussian 82(TM) system (copyright 1983,
 Carnegie Mellon University). Gaussian is a federally registered
 trademark of Gaussian, Inc.
  
 This software contains proprietary and confidential information,
 including trade secrets, belonging to Gaussian, Inc.
  
 This software is provided under written license and may be
 used, copied, transmitted, or stored only in accord with that
 written license.
  
 The following legend is applicable only to US Government
 contracts under FAR:
  
                    RESTRICTED RIGHTS LEGEND
  
 Use, reproduction and disclosure by the US Government is
 subject to restrictions as set forth in subparagraphs (a)
 and (c) of the Commercial Computer Software - Restricted
 Rights clause in FAR 52.227-19.
  
 Gaussian, Inc.
 340 Quinnipiac St., Bldg. 40, Wallingford CT 06492
  
  
 ---------------------------------------------------------------
 Warning -- This program may not be used in any manner that
 competes with the business of Gaussian, Inc. or will provide
 assistance to any competitor of Gaussian, Inc.  The licensee
 of this program is prohibited from giving any competitor of
 Gaussian, Inc. access to this program.  By using this program,
 the user acknowledges that Gaussian, Inc. is engaged in the
 business of creating and licensing software in the field of
 computational chemistry and represents and warrants to the
 licensee that it is not a competitor of Gaussian, Inc. and that
 it will not use this program in any manner prohibited above.
 ---------------------------------------------------------------
  

 Cite this work as:
 Gaussian 16, Revision A.03,
 M. J. Frisch, G. W. Trucks, H. B. Schlegel, G. E. Scuseria, 
 M. A. Robb, J. R. Cheeseman, G. Scalmani, V. Barone, 
 G. A. Petersson, H. Nakatsuji, X. Li, M. Caricato, A. V. Marenich, 
 J. Bloino, B. G. Janesko, R. Gomperts, B. Mennucci, H. P. Hratchian, 
 J. V. Ortiz, A. F. Izmaylov, J. L. Sonnenberg, D. Williams-Young, 
 F. Ding, F. Lipparini, F. Egidi, J. Goings, B. Peng, A. Petrone, 
 T. Henderson, D. Ranasinghe, V. G. Zakrzewski, J. Gao, N. Rega, 
 G. Zheng, W. Liang, M. Hada, M. Ehara, K. Toyota, R. Fukuda, 
 J. Hasegawa, M. Ishida, T. Nakajima, Y. Honda, O. Kitao, H. Nakai, 
 T. Vreven, K. Throssell, J. A. Montgomery, Jr., J. E. Peralta, 
 F. Ogliaro, M. J. Bearpark, J. J. Heyd, E. N. Brothers, K. N. Kudin, 
 V. N. Staroverov, T. A. Keith, R. Kobayashi, J. Normand, 
 K. Raghavachari, A. P. Rendell, J. C. Burant, S. S. Iyengar, 
 J. Tomasi, M. Cossi, J. M. Millam, M. Klene, C. Adamo, R. Cammi, 
 J. W. Ochterski, R. L. Martin, K. Morokuma, O. Farkas, 
 J. B. Foresman, and D. J. Fox, Gaussian, Inc., Wallingford CT, 2016.
 
 ******************************************
 Gaussian 16:  EM64L-G16RevA.03 25-Dec-2016
                27-Sep-2019 
 ******************************************
 %nprocshared=20
 Will use up to   20 processors via shared memory.
 %mem=5GB
 ----------------------------------------------------------------------
 #p m062x/cc-pVTZ opt=(calcfc,maxcycles=900,Tight) freq IOP(7/33=1,2/16
 =3) scf=(maxcycle=900)
 ----------------------------------------------------------------------
 1/6=900,7=10,10=4,18=20,19=15,26=3,38=1/1,3;
 2/9=110,12=2,16=3,17=6,18=5,40=1/2;
 3/5=16,6=1,11=2,25=1,30=1,71=2,74=-55,140=1/1,2,3;
 4//1;
 5/5=2,7=900,38=5/2;
 8/6=4,10=90,11=11/1;
 11/6=1,8=1,9=11,15=111,16=1/1,2,10;
 10/6=1,13=1/2;
 6/7=2,8=2,9=2,10=2,28=1/1;
 7/10=1,18=20,25=1,33=1/1,2,3,16;
 1/6=900,7=10,10=4,18=20,19=15,26=3/3(2);
 2/9=110,16=3/2;
 99//99;
 2/9=110,16=3/2;
 3/5=16,6=1,11=2,25=1,30=1,71=1,74=-55/1,2,3;
 4/5=5,16=3,69=1/1;
 5/5=2,7=900,38=5/2;
 7/33=1/1,2,3,16;
 1/6=900,7=10,18=20,19=15,26=3/3(-5);
 2/9=110,16=3/2;
 6/7=2,8=2,9=2,10=2,19=2,28=1/1;
 99/9=1/99;
 Leave Link    1 at Fri Sep 27 09:58:21 2019, MaxMem=   671088640 cpu:               4.1 elap:               2.1
 (Enter /shared/centos7/gaussian/g16/l101.exe)
 ------------------------------
 Gaussian input prepared by ASE
 ------------------------------
 Symbolic Z-matrix:
 Charge =  0 Multiplicity = 1
 C                     1.4257   -1.13683   0.48832 
 C                     0.19458  -0.42435   0.93407 
 C                    -0.86719  -0.25572  -0.12385 
 C                     2.17912  -0.49365  -0.62689 
 C                    -2.18248  -0.94788   0.14561 
 C                     3.56361  -0.10318  -0.31018 
 C                    -2.26752  -1.70259   1.44681 
 H                     1.62241   0.41181  -1.00019 
 H                     2.19143  -1.1848   -1.5032 
 H                     1.14257  -2.17088   0.19822 
 H                     2.09071  -1.24527   1.36959 
 H                     0.46912   0.55946   1.3457 
 H                    -0.235    -0.98954   1.78804 
 H                    -0.47724  -0.61343  -1.09189 
 H                    -1.06508   0.82586  -0.27274 
 H                    -3.00983  -0.19255   0.09574 
 H                    -2.3866   -1.65422  -0.677 
 H                     3.83641  -0.32297   0.73918 
 H                     4.31374  -0.64104  -0.96252 
 H                     3.7387    0.98034  -0.47994 
 H                    -1.78882  -1.1574    2.26117 
 H                    -1.75711  -2.70194   1.36542 
 H                    -3.34204  -1.90609   1.72228 
 
 ITRead=  0  0  0  0  0  0  0  0  0  0  0  0  0  0  0  0  0  0  0  0
 ITRead=  0  0  0
 MicOpt= -1 -1 -1 -1 -1 -1 -1 -1 -1 -1 -1 -1 -1 -1 -1 -1 -1 -1 -1 -1
 MicOpt= -1 -1 -1
 NAtoms=     23 NQM=       23 NQMF=       0 NMMI=      0 NMMIF=      0
                NMic=       0 NMicF=      0.
                    Isotopes and Nuclear Properties:
 (Nuclear quadrupole moments (NQMom) in fm**2, nuclear magnetic moments (NMagM)
  in nuclear magnetons)

  Atom         1           2           3           4           5           6           7           8           9          10
 IAtWgt=          12          12          12          12          12          12          12           1           1           1
 AtmWgt=  12.0000000  12.0000000  12.0000000  12.0000000  12.0000000  12.0000000  12.0000000   1.0078250   1.0078250   1.0078250
 NucSpn=           0           0           0           0           0           0           0           1           1           1
 AtZEff=  -0.0000000  -0.0000000  -0.0000000  -0.0000000  -0.0000000  -0.0000000  -0.0000000  -0.0000000  -0.0000000  -0.0000000
 NQMom=    0.0000000   0.0000000   0.0000000   0.0000000   0.0000000   0.0000000   0.0000000   0.0000000   0.0000000   0.0000000
 NMagM=    0.0000000   0.0000000   0.0000000   0.0000000   0.0000000   0.0000000   0.0000000   2.7928460   2.7928460   2.7928460
 AtZNuc=   6.0000000   6.0000000   6.0000000   6.0000000   6.0000000   6.0000000   6.0000000   1.0000000   1.0000000   1.0000000

  Atom        11          12          13          14          15          16          17          18          19          20
 IAtWgt=           1           1           1           1           1           1           1           1           1           1
 AtmWgt=   1.0078250   1.0078250   1.0078250   1.0078250   1.0078250   1.0078250   1.0078250   1.0078250   1.0078250   1.0078250
 NucSpn=           1           1           1           1           1           1           1           1           1           1
 AtZEff=  -0.0000000  -0.0000000  -0.0000000  -0.0000000  -0.0000000  -0.0000000  -0.0000000  -0.0000000  -0.0000000  -0.0000000
 NQMom=    0.0000000   0.0000000   0.0000000   0.0000000   0.0000000   0.0000000   0.0000000   0.0000000   0.0000000   0.0000000
 NMagM=    2.7928460   2.7928460   2.7928460   2.7928460   2.7928460   2.7928460   2.7928460   2.7928460   2.7928460   2.7928460
 AtZNuc=   1.0000000   1.0000000   1.0000000   1.0000000   1.0000000   1.0000000   1.0000000   1.0000000   1.0000000   1.0000000

  Atom        21          22          23
 IAtWgt=           1           1           1
 AtmWgt=   1.0078250   1.0078250   1.0078250
 NucSpn=           1           1           1
 AtZEff=  -0.0000000  -0.0000000  -0.0000000
 NQMom=    0.0000000   0.0000000   0.0000000
 NMagM=    2.7928460   2.7928460   2.7928460
 AtZNuc=   1.0000000   1.0000000   1.0000000
 Leave Link  101 at Fri Sep 27 09:58:22 2019, MaxMem=   671088640 cpu:               2.3 elap:               1.2
 (Enter /shared/centos7/gaussian/g16/l103.exe)

 GradGradGradGradGradGradGradGradGradGradGradGradGradGradGradGradGradGrad
 Berny optimization.
 Initialization pass.
                           ----------------------------
                           !    Initial Parameters    !
                           ! (Angstroms and Degrees)  !
 --------------------------                            --------------------------
 ! Name  Definition              Value          Derivative Info.                !
 --------------------------------------------------------------------------------
 ! R1    R(1,2)                  1.4906         calculate D2E/DX2 analytically  !
 ! R2    R(1,4)                  1.4917         calculate D2E/DX2 analytically  !
 ! R3    R(1,10)                 1.1107         calculate D2E/DX2 analytically  !
 ! R4    R(1,11)                 1.1093         calculate D2E/DX2 analytically  !
 ! R5    R(2,3)                  1.5083         calculate D2E/DX2 analytically  !
 ! R6    R(2,12)                 1.1012         calculate D2E/DX2 analytically  !
 ! R7    R(2,13)                 1.1105         calculate D2E/DX2 analytically  !
 ! R8    R(3,5)                  1.5105         calculate D2E/DX2 analytically  !
 ! R9    R(3,14)                 1.1032         calculate D2E/DX2 analytically  !
 ! R10   R(3,15)                 1.1096         calculate D2E/DX2 analytically  !
 ! R11   R(4,6)                  1.473          calculate D2E/DX2 analytically  !
 ! R12   R(4,8)                  1.1266         calculate D2E/DX2 analytically  !
 ! R13   R(4,9)                  1.1161         calculate D2E/DX2 analytically  !
 ! R14   R(5,7)                  1.5066         calculate D2E/DX2 analytically  !
 ! R15   R(5,16)                 1.1214         calculate D2E/DX2 analytically  !
 ! R16   R(5,17)                 1.1033         calculate D2E/DX2 analytically  !
 ! R17   R(6,18)                 1.1063         calculate D2E/DX2 analytically  !
 ! R18   R(6,19)                 1.1303         calculate D2E/DX2 analytically  !
 ! R19   R(6,20)                 1.1106         calculate D2E/DX2 analytically  !
 ! R20   R(7,21)                 1.0907         calculate D2E/DX2 analytically  !
 ! R21   R(7,22)                 1.1251         calculate D2E/DX2 analytically  !
 ! R22   R(7,23)                 1.1278         calculate D2E/DX2 analytically  !
 ! A1    A(2,1,4)              115.7617         calculate D2E/DX2 analytically  !
 ! A2    A(2,1,10)             108.2144         calculate D2E/DX2 analytically  !
 ! A3    A(2,1,11)             107.714          calculate D2E/DX2 analytically  !
 ! A4    A(4,1,10)             109.5679         calculate D2E/DX2 analytically  !
 ! A5    A(4,1,11)             109.4687         calculate D2E/DX2 analytically  !
 ! A6    A(10,1,11)            105.6226         calculate D2E/DX2 analytically  !
 ! A7    A(1,2,3)              115.1563         calculate D2E/DX2 analytically  !
 ! A8    A(1,2,12)             109.4445         calculate D2E/DX2 analytically  !
 ! A9    A(1,2,13)             107.8292         calculate D2E/DX2 analytically  !
 ! A10   A(3,2,12)             109.7421         calculate D2E/DX2 analytically  !
 ! A11   A(3,2,13)             108.9022         calculate D2E/DX2 analytically  !
 ! A12   A(12,2,13)            105.2884         calculate D2E/DX2 analytically  !
 ! A13   A(2,3,5)              115.8881         calculate D2E/DX2 analytically  !
 ! A14   A(2,3,14)             109.2922         calculate D2E/DX2 analytically  !
 ! A15   A(2,3,15)             109.1873         calculate D2E/DX2 analytically  !
 ! A16   A(5,3,14)             108.4045         calculate D2E/DX2 analytically  !
 ! A17   A(5,3,15)             108.3789         calculate D2E/DX2 analytically  !
 ! A18   A(14,3,15)            105.15           calculate D2E/DX2 analytically  !
 ! A19   A(1,4,6)              115.3603         calculate D2E/DX2 analytically  !
 ! A20   A(1,4,8)              110.1635         calculate D2E/DX2 analytically  !
 ! A21   A(1,4,9)              108.999          calculate D2E/DX2 analytically  !
 ! A22   A(6,4,8)              108.8248         calculate D2E/DX2 analytically  !
 ! A23   A(6,4,9)              108.8205         calculate D2E/DX2 analytically  !
 ! A24   A(8,4,9)              104.0632         calculate D2E/DX2 analytically  !
 ! A25   A(3,5,7)              115.642          calculate D2E/DX2 analytically  !
 ! A26   A(3,5,16)             109.0169         calculate D2E/DX2 analytically  !
 ! A27   A(3,5,17)             108.7507         calculate D2E/DX2 analytically  !
 ! A28   A(7,5,16)             109.5221         calculate D2E/DX2 analytically  !
 ! A29   A(7,5,17)             108.2276         calculate D2E/DX2 analytically  !
 ! A30   A(16,5,17)            105.1634         calculate D2E/DX2 analytically  !
 ! A31   A(4,6,18)             112.5236         calculate D2E/DX2 analytically  !
 ! A32   A(4,6,19)             111.9353         calculate D2E/DX2 analytically  !
 ! A33   A(4,6,20)             111.9585         calculate D2E/DX2 analytically  !
 ! A34   A(18,6,19)            106.8133         calculate D2E/DX2 analytically  !
 ! A35   A(18,6,20)            107.4536         calculate D2E/DX2 analytically  !
 ! A36   A(19,6,20)            105.7484         calculate D2E/DX2 analytically  !
 ! A37   A(5,7,21)             111.696          calculate D2E/DX2 analytically  !
 ! A38   A(5,7,22)             110.9074         calculate D2E/DX2 analytically  !
 ! A39   A(5,7,23)             110.8014         calculate D2E/DX2 analytically  !
 ! A40   A(21,7,22)            107.3909         calculate D2E/DX2 analytically  !
 ! A41   A(21,7,23)            109.0261         calculate D2E/DX2 analytically  !
 ! A42   A(22,7,23)            106.8353         calculate D2E/DX2 analytically  !
 ! D1    D(4,1,2,3)             60.4696         calculate D2E/DX2 analytically  !
 ! D2    D(4,1,2,12)           -63.6934         calculate D2E/DX2 analytically  !
 ! D3    D(4,1,2,13)          -177.7272         calculate D2E/DX2 analytically  !
 ! D4    D(10,1,2,3)           -62.9185         calculate D2E/DX2 analytically  !
 ! D5    D(10,1,2,12)          172.9185         calculate D2E/DX2 analytically  !
 ! D6    D(10,1,2,13)           58.8847         calculate D2E/DX2 analytically  !
 ! D7    D(11,1,2,3)          -176.667          calculate D2E/DX2 analytically  !
 ! D8    D(11,1,2,12)           59.17           calculate D2E/DX2 analytically  !
 ! D9    D(11,1,2,13)          -54.8638         calculate D2E/DX2 analytically  !
 ! D10   D(2,1,4,6)            119.3705         calculate D2E/DX2 analytically  !
 ! D11   D(2,1,4,8)             -4.3023         calculate D2E/DX2 analytically  !
 ! D12   D(2,1,4,9)           -117.8931         calculate D2E/DX2 analytically  !
 ! D13   D(10,1,4,6)          -117.9538         calculate D2E/DX2 analytically  !
 ! D14   D(10,1,4,8)           118.3734         calculate D2E/DX2 analytically  !
 ! D15   D(10,1,4,9)             4.7826         calculate D2E/DX2 analytically  !
 ! D16   D(11,1,4,6)            -2.5628         calculate D2E/DX2 analytically  !
 ! D17   D(11,1,4,8)          -126.2356         calculate D2E/DX2 analytically  !
 ! D18   D(11,1,4,9)           120.1736         calculate D2E/DX2 analytically  !
 ! D19   D(1,2,3,5)            116.8569         calculate D2E/DX2 analytically  !
 ! D20   D(1,2,3,14)            -5.9427         calculate D2E/DX2 analytically  !
 ! D21   D(1,2,3,15)          -120.4616         calculate D2E/DX2 analytically  !
 ! D22   D(12,2,3,5)          -119.1366         calculate D2E/DX2 analytically  !
 ! D23   D(12,2,3,14)          118.0638         calculate D2E/DX2 analytically  !
 ! D24   D(12,2,3,15)            3.5448         calculate D2E/DX2 analytically  !
 ! D25   D(13,2,3,5)            -4.3652         calculate D2E/DX2 analytically  !
 ! D26   D(13,2,3,14)         -127.1648         calculate D2E/DX2 analytically  !
 ! D27   D(13,2,3,15)          118.3163         calculate D2E/DX2 analytically  !
 ! D28   D(2,3,5,7)              0.7659         calculate D2E/DX2 analytically  !
 ! D29   D(2,3,5,16)           124.6502         calculate D2E/DX2 analytically  !
 ! D30   D(2,3,5,17)          -121.1964         calculate D2E/DX2 analytically  !
 ! D31   D(14,3,5,7)           124.0316         calculate D2E/DX2 analytically  !
 ! D32   D(14,3,5,16)         -112.0841         calculate D2E/DX2 analytically  !
 ! D33   D(14,3,5,17)            2.0693         calculate D2E/DX2 analytically  !
 ! D34   D(15,3,5,7)          -122.3406         calculate D2E/DX2 analytically  !
 ! D35   D(15,3,5,16)            1.5437         calculate D2E/DX2 analytically  !
 ! D36   D(15,3,5,17)          115.697          calculate D2E/DX2 analytically  !
 ! D37   D(1,4,6,18)            -1.6824         calculate D2E/DX2 analytically  !
 ! D38   D(1,4,6,19)           118.6213         calculate D2E/DX2 analytically  !
 ! D39   D(1,4,6,20)          -122.8336         calculate D2E/DX2 analytically  !
 ! D40   D(8,4,6,18)           122.6925         calculate D2E/DX2 analytically  !
 ! D41   D(8,4,6,19)          -117.0039         calculate D2E/DX2 analytically  !
 ! D42   D(8,4,6,20)             1.5413         calculate D2E/DX2 analytically  !
 ! D43   D(9,4,6,18)          -124.5136         calculate D2E/DX2 analytically  !
 ! D44   D(9,4,6,19)            -4.21           calculate D2E/DX2 analytically  !
 ! D45   D(9,4,6,20)           114.3352         calculate D2E/DX2 analytically  !
 ! D46   D(3,5,7,21)            40.3879         calculate D2E/DX2 analytically  !
 ! D47   D(3,5,7,22)           -79.3702         calculate D2E/DX2 analytically  !
 ! D48   D(3,5,7,23)           162.1548         calculate D2E/DX2 analytically  !
 ! D49   D(16,5,7,21)          -83.2322         calculate D2E/DX2 analytically  !
 ! D50   D(16,5,7,22)          157.0097         calculate D2E/DX2 analytically  !
 ! D51   D(16,5,7,23)           38.5348         calculate D2E/DX2 analytically  !
 ! D52   D(17,5,7,21)          162.629          calculate D2E/DX2 analytically  !
 ! D53   D(17,5,7,22)           42.8709         calculate D2E/DX2 analytically  !
 ! D54   D(17,5,7,23)          -75.604          calculate D2E/DX2 analytically  !
 --------------------------------------------------------------------------------
 Trust Radius=3.00D-01 FncErr=1.00D-07 GrdErr=1.00D-06 EigMax=2.50D+02 EigMin=1.00D-04
 Number of steps in this run=    138 maximum allowed number of steps=    138.
 GradGradGradGradGradGradGradGradGradGradGradGradGradGradGradGradGradGrad

 Leave Link  103 at Fri Sep 27 09:58:22 2019, MaxMem=   671088640 cpu:               1.5 elap:               0.8
 (Enter /shared/centos7/gaussian/g16/l202.exe)
                          Input orientation:                          
 ---------------------------------------------------------------------
 Center     Atomic      Atomic             Coordinates (Angstroms)
 Number     Number       Type             X           Y           Z
 ---------------------------------------------------------------------
      1          6           0        1.425697   -1.136833    0.488319
      2          6           0        0.194584   -0.424352    0.934071
      3          6           0       -0.867185   -0.255719   -0.123848
      4          6           0        2.179118   -0.493648   -0.626891
      5          6           0       -2.182482   -0.947882    0.145607
      6          6           0        3.563610   -0.103180   -0.310182
      7          6           0       -2.267525   -1.702587    1.446805
      8          1           0        1.622407    0.411812   -1.000188
      9          1           0        2.191426   -1.184796   -1.503200
     10          1           0        1.142571   -2.170883    0.198220
     11          1           0        2.090710   -1.245273    1.369592
     12          1           0        0.469118    0.559457    1.345697
     13          1           0       -0.235003   -0.989542    1.788044
     14          1           0       -0.477243   -0.613425   -1.091895
     15          1           0       -1.065083    0.825859   -0.272742
     16          1           0       -3.009828   -0.192547    0.095737
     17          1           0       -2.386597   -1.654220   -0.677001
     18          1           0        3.836409   -0.322972    0.739176
     19          1           0        4.313735   -0.641044   -0.962524
     20          1           0        3.738695    0.980342   -0.479938
     21          1           0       -1.788816   -1.157397    2.261166
     22          1           0       -1.757110   -2.701943    1.365421
     23          1           0       -3.342040   -1.906094    1.722280
 ---------------------------------------------------------------------
                    Distance matrix (angstroms):
                    1          2          3          4          5
     1  C    0.000000
     2  C    1.490625   0.000000
     3  C    2.531485   1.508304   0.000000
     4  C    1.491652   2.525823   3.096712   0.000000
     5  C    3.629340   2.558554   1.510531   4.452711   0.000000
     6  C    2.505337   3.605781   4.437334   1.472952   5.825705
     7  C    3.857286   2.821127   2.553689   5.053156   1.506627
     8  H    2.157001   2.545429   2.722433   1.126559   4.199857
     9  H    2.134195   3.241287   3.481508   1.116134   4.680360
    10  H    1.110665   2.119086   2.794763   2.137372   3.543230
    11  H    1.109344   2.111607   3.458139   2.135111   4.454970
    12  H    2.127802   1.101220   2.147040   2.815001   3.277693
    13  H    2.113978   1.110520   2.143241   3.450479   2.547942
    14  H    2.528283   2.142811   1.103233   2.699413   2.133334
    15  H    3.261190   2.146203   1.109570   3.520137   2.137699
    16  H    4.551887   3.320360   2.154792   5.247668   1.121392
    17  H    4.019856   3.281863   2.137849   4.711178   1.103295
    18  H    2.556723   3.648446   4.782586   2.154503   6.080287
    19  H    3.269789   4.539982   5.262489   2.165864   6.597192
    20  H    3.281755   4.066118   4.782131   2.150935   6.258570
    21  H    3.671035   2.496480   2.711221   4.952367   2.162050
    22  H    3.653647   3.030279   2.998983   4.933535   2.178443
    23  H    4.984549   3.914657   3.500976   6.164154   2.179137
                    6          7          8          9         10
     6  C    0.000000
     7  C    6.296605   0.000000
     8  H    2.123581   5.058659   0.000000
     9  H    2.115673   5.371488   1.768039   0.000000
    10  H    3.224174   3.661559   2.887342   2.228743   0.000000
    11  H    2.509073   4.382843   2.929351   2.875193   1.768569
    12  H    3.571681   3.551940   2.618215   3.758321   3.037268
    13  H    4.429182   2.180830   3.631530   4.093650   2.412637
    14  H    4.147279   3.291865   2.338387   2.759970   2.591114
    15  H    4.721156   3.285688   2.814821   4.020151   3.751801
    16  H    6.586565   2.157920   4.798323   5.531203   4.600732
    17  H    6.159971   2.127691   4.521621   4.675603   3.672599
    18  H    1.106291   6.297784   2.909828   2.911522   3.311219
    19  H    1.130281   7.088351   2.890186   2.256589   3.707293
    20  H    1.110627   6.854569   2.252235   2.851128   4.138838
    21  H    6.030893   1.090678   4.973459   5.478461   3.725041
    22  H    6.153964   1.125104   5.168435   5.110935   3.170573
    23  H    7.420876   1.127778   6.118027   6.445404   4.743902
                   11         12         13         14         15
    11  H    0.000000
    12  H    2.426352   0.000000
    13  H    2.376856   1.758083   0.000000
    14  H    3.612829   2.865852   2.914480   0.000000
    15  H    4.116538   2.245905   2.869069   1.757301   0.000000
    16  H    5.361570   3.772396   3.346455   2.828709   2.225974
    17  H    4.939845   4.140867   3.338802   2.213826   2.839123
    18  H    2.072565   3.533440   4.256858   4.695187   5.135019
    19  H    3.278063   4.642216   5.327110   4.792805   5.617766
    20  H    3.330161   3.768318   4.981412   4.548486   4.810726
    21  H    3.981627   2.980594   1.632897   3.641311   3.298149
    22  H    4.114320   3.948824   2.329751   3.469635   3.950679
    23  H    5.484145   4.554742   3.240072   4.218724   4.077770
                   16         17         18         19         20
    16  H    0.000000
    17  H    1.766927   0.000000
    18  H    6.877644   6.519478   0.000000
    19  H    7.413208   6.782515   1.795771   0.000000
    20  H    6.873837   6.670754   1.787292   1.786744   0.000000
    21  H    2.666625   3.039243   5.886924   6.920977   6.529698
    22  H    3.078712   2.380223   6.110577   6.820689   6.867929
    23  H    2.385844   2.594775   7.416394   8.210933   7.957266
                   21         22         23
    21  H    0.000000
    22  H    1.785773   0.000000
    23  H    1.806502   1.809068   0.000000
 Stoichiometry    C7H16
 Framework group  C1[X(C7H16)]
 Deg. of freedom    63
 Full point group                 C1      NOp   1
 Largest Abelian subgroup         C1      NOp   1
 Largest concise Abelian subgroup C1      NOp   1
                         Standard orientation:                         
 ---------------------------------------------------------------------
 Center     Atomic      Atomic             Coordinates (Angstroms)
 Number     Number       Type             X           Y           Z
 ---------------------------------------------------------------------
      1          6           0        0.971544   -0.666386   -0.276247
      2          6           0       -0.188745   -0.351446    0.604949
      3          6           0       -0.963841    0.885947    0.226708
      4          6           0        2.037023    0.375444   -0.342346
      5          6           0       -2.403095    0.665431   -0.175318
      6          6           0        3.370670   -0.056527    0.109731
      7          6           0       -2.881713   -0.762382   -0.128409
      8          1           0        1.729293    1.283661    0.248906
      9          1           0        2.115780    0.748591   -1.391305
     10          1           0        0.586386   -0.869904   -1.297918
     11          1           0        1.411051   -1.623058    0.073403
     12          1           0        0.154467   -0.270975    1.648220
     13          1           0       -0.874760   -1.224590    0.588896
     14          1           0       -0.446381    1.401684   -0.599956
     15          1           0       -0.943033    1.602396    1.073710
     16          1           0       -3.063995    1.303521    0.467779
     17          1           0       -2.546627    1.043978   -1.201652
     18          1           0        3.378618   -1.103703    0.466438
     19          1           0        4.139520    0.013496   -0.715801
     20          1           0        3.755615    0.579397    0.934904
     21          1           0       -2.498722   -1.287448    0.747491
     22          1           0       -2.539700   -1.330554   -1.037291
     23          1           0       -4.008579   -0.806990   -0.120230
 ---------------------------------------------------------------------
 Rotational constants (GHZ):           7.0341176           1.0126699           0.9566906
 Leave Link  202 at Fri Sep 27 09:58:24 2019, MaxMem=   671088640 cpu:               3.5 elap:               1.8
 (Enter /shared/centos7/gaussian/g16/l301.exe)
 Standard basis: CC-pVTZ (5D, 7F)
 Ernie: Thresh=  0.10000D-02 Tol=  0.10000D-05 Strict=F.
 Ernie:  21 primitive shells out of 310 were deleted.
 There are   485 symmetry adapted cartesian basis functions of A   symmetry.
 There are   434 symmetry adapted basis functions of A   symmetry.
   434 basis functions,   636 primitive gaussians,   485 cartesian basis functions
    29 alpha electrons       29 beta electrons
       nuclear repulsion energy       322.7730744899 Hartrees.
 IExCor= 4336 DFT=T Ex+Corr=M062X ExCW=0 ScaHFX=  0.540000
 ScaDFX=  1.000000  1.000000  1.000000  1.000000 ScalE2=  1.000000  1.000000
 IRadAn=      5 IRanWt=     -1 IRanGd=            0 ICorTp=0 IEmpDi=  4
 NAtoms=   23 NActive=   23 NUniq=   23 SFac= 1.00D+00 NAtFMM=   60 NAOKFM=F Big=F
 Integral buffers will be    131072 words long.
 Raffenetti 2 integral format.
 Two-electron integral symmetry is turned on.
 Leave Link  301 at Fri Sep 27 09:58:25 2019, MaxMem=   671088640 cpu:               1.6 elap:               0.8
 (Enter /shared/centos7/gaussian/g16/l302.exe)
 NPDir=0 NMtPBC=     1 NCelOv=     1 NCel=       1 NClECP=     1 NCelD=      1
         NCelK=      1 NCelE2=     1 NClLst=     1 CellRange=     0.0.
 One-electron integrals computed using PRISM.
 One-electron integral symmetry used in STVInt
 NBasis=   434 RedAO= T EigKep=  2.36D-04  NBF=   434
 NBsUse=   434 1.00D-06 EigRej= -1.00D+00 NBFU=   434
 Precomputing XC quadrature grid using
 IXCGrd= 4 IRadAn=           5 IRanWt=          -1 IRanGd=           0 AccXCQ= 0.00D+00.
 Generated NRdTot=       0 NPtTot=           0 NUsed=           0 NTot=          32
 NSgBfM=   485   485   485   485   485 MxSgAt=    23 MxSgA2=    23.
 Leave Link  302 at Fri Sep 27 09:59:34 2019, MaxMem=   671088640 cpu:             137.3 elap:              68.7
 (Enter /shared/centos7/gaussian/g16/l303.exe)
 DipDrv:  MaxL=1.
 Leave Link  303 at Fri Sep 27 09:59:38 2019, MaxMem=   671088640 cpu:               8.9 elap:               4.5
 (Enter /shared/centos7/gaussian/g16/l401.exe)
 ExpMin= 1.03D-01 ExpMax= 8.24D+03 ExpMxC= 2.81D+02 IAcc=3 IRadAn=         5 AccDes= 0.00D+00
 Harris functional with IExCor= 1009 and IRadAn=       5 diagonalized for initial guess.
 HarFok:  IExCor= 1009 AccDes= 0.00D+00 IRadAn=         5 IDoV= 1 UseB2=F ITyADJ=14
 ICtDFT=  3500011 ScaDFX=  1.000000  1.000000  1.000000  1.000000
 FoFCou: FMM=F IPFlag=           0 FMFlag=      100000 FMFlg1=           0
         NFxFlg=           0 DoJE=T BraDBF=F KetDBF=T FulRan=T
         wScrn=  0.000000 ICntrl=       500 IOpCl=  0 I1Cent=   200000004 NGrid=           0
         NMat0=    1 NMatS0=      1 NMatT0=    0 NMatD0=    1 NMtDS0=    0 NMtDT0=    0
 Petite list used in FoFCou.
 Harris En= -276.309662594550    
 JPrj=0 DoOrth=F DoCkMO=F.
 Leave Link  401 at Fri Sep 27 10:00:20 2019, MaxMem=   671088640 cpu:              84.1 elap:              42.1
 (Enter /shared/centos7/gaussian/g16/l502.exe)
 Integral symmetry usage will be decided dynamically.
 Closed shell SCF:
 Using DIIS extrapolation, IDIIS=  1040.
 NGot=   671088640 LenX=   670604095 LenY=   670368385
 Requested convergence on RMS density matrix=1.00D-08 within 900 cycles.
 Requested convergence on MAX density matrix=1.00D-06.
 Requested convergence on             energy=1.00D-06.
 No special actions if energy rises.
 Fock matrices will be formed incrementally for  20 cycles.
 Integral accuracy reduced to 1.0D-05 until final iterations.

 Cycle   1  Pass 0  IDiag  1:
 FoFJK:  IHMeth= 1 ICntrl=       0 DoSepK=F KAlg= 0 I1Cent=           0 FoldK=F
 IRaf= 910000000 NMat=       1 IRICut=       1 DoRegI=T DoRafI=F ISym2E= 0 IDoP0=0 IntGTp=1.
 FoFCou: FMM=F IPFlag=           0 FMFlag=      100000 FMFlg1=           0
         NFxFlg=           0 DoJE=F BraDBF=F KetDBF=F FulRan=T
         wScrn=  0.000000 ICntrl=         0 IOpCl=  0 I1Cent=           0 NGrid=           0
         NMat0=    1 NMatS0=      1 NMatT0=    0 NMatD0=    1 NMtDS0=    0 NMtDT0=    0
 Symmetry not used in FoFCou.
 E= -275.934888688856    
 DIIS: error= 2.96D-02 at cycle   1 NSaved=   1.
 NSaved= 1 IEnMin= 1 EnMin= -275.934888688856     IErMin= 1 ErrMin= 2.96D-02
 ErrMax= 2.96D-02  0.00D+00 EMaxC= 1.00D-01 BMatC= 3.75D-01 BMatP= 3.75D-01
 IDIUse=3 WtCom= 7.04D-01 WtEn= 2.96D-01
 Coeff-Com:  0.100D+01
 Coeff-En:   0.100D+01
 Coeff:      0.100D+01
 Gap=     0.359 Goal=   None    Shift=    0.000
 GapD=    0.359 DampG=1.000 DampE=0.500 DampFc=0.5000 IDamp=-1.
 Damping current iteration by 5.00D-01
 RMSDP=1.92D-03 MaxDP=7.02D-02              OVMax= 1.66D-01

 Cycle   2  Pass 0  IDiag  1:
 RMSU=  9.56D-04    CP:  9.91D-01
 E= -276.114505373992     Delta-E=       -0.179616685136 Rises=F Damp=T
 DIIS: error= 4.02D-03 at cycle   2 NSaved=   2.
 NSaved= 2 IEnMin= 2 EnMin= -276.114505373992     IErMin= 2 ErrMin= 4.02D-03
 ErrMax= 4.02D-03  0.00D+00 EMaxC= 1.00D-01 BMatC= 1.84D-02 BMatP= 3.75D-01
 IDIUse=3 WtCom= 9.60D-01 WtEn= 4.02D-02
 Coeff-Com: -0.547D-01 0.105D+01
 Coeff-En:   0.000D+00 0.100D+01
 Coeff:     -0.525D-01 0.105D+01
 Gap=     0.443 Goal=   None    Shift=    0.000
 RMSDP=5.21D-04 MaxDP=1.84D-02 DE=-1.80D-01 OVMax= 8.87D-02

 Cycle   3  Pass 0  IDiag  1:
 RMSU=  5.14D-04    CP:  9.98D-01  9.31D-01
 E= -276.293948694399     Delta-E=       -0.179443320407 Rises=F Damp=F
 DIIS: error= 2.33D-03 at cycle   3 NSaved=   3.
 NSaved= 3 IEnMin= 3 EnMin= -276.293948694399     IErMin= 3 ErrMin= 2.33D-03
 ErrMax= 2.33D-03  0.00D+00 EMaxC= 1.00D-01 BMatC= 2.20D-03 BMatP= 1.84D-02
 IDIUse=3 WtCom= 9.77D-01 WtEn= 2.33D-02
 Coeff-Com: -0.500D-01 0.220D+00 0.830D+00
 Coeff-En:   0.000D+00 0.000D+00 0.100D+01
 Coeff:     -0.489D-01 0.215D+00 0.834D+00
 Gap=     0.408 Goal=   None    Shift=    0.000
 RMSDP=8.21D-05 MaxDP=2.93D-03 DE=-1.79D-01 OVMax= 8.98D-03

 Cycle   4  Pass 0  IDiag  1:
 RMSU=  6.39D-05    CP:  9.97D-01  9.79D-01  9.55D-01
 E= -276.295907389480     Delta-E=       -0.001958695081 Rises=F Damp=F
 DIIS: error= 5.31D-04 at cycle   4 NSaved=   4.
 NSaved= 4 IEnMin= 4 EnMin= -276.295907389480     IErMin= 4 ErrMin= 5.31D-04
 ErrMax= 5.31D-04  0.00D+00 EMaxC= 1.00D-01 BMatC= 1.94D-04 BMatP= 2.20D-03
 IDIUse=3 WtCom= 9.95D-01 WtEn= 5.31D-03
 Coeff-Com: -0.124D-01 0.344D-01 0.267D+00 0.711D+00
 Coeff-En:   0.000D+00 0.000D+00 0.000D+00 0.100D+01
 Coeff:     -0.123D-01 0.343D-01 0.265D+00 0.713D+00
 Gap=     0.408 Goal=   None    Shift=    0.000
 RMSDP=2.75D-05 MaxDP=1.25D-03 DE=-1.96D-03 OVMax= 2.81D-03

 Cycle   5  Pass 0  IDiag  1:
 RMSU=  1.77D-05    CP:  9.97D-01  9.72D-01  9.85D-01  7.93D-01
 E= -276.296077352882     Delta-E=       -0.000169963402 Rises=F Damp=F
 DIIS: error= 1.43D-04 at cycle   5 NSaved=   5.
 NSaved= 5 IEnMin= 5 EnMin= -276.296077352882     IErMin= 5 ErrMin= 1.43D-04
 ErrMax= 1.43D-04  0.00D+00 EMaxC= 1.00D-01 BMatC= 1.92D-05 BMatP= 1.94D-04
 IDIUse=3 WtCom= 9.99D-01 WtEn= 1.43D-03
 Coeff-Com: -0.123D-02-0.373D-04 0.506D-01 0.281D+00 0.670D+00
 Coeff-En:   0.000D+00 0.000D+00 0.000D+00 0.000D+00 0.100D+01
 Coeff:     -0.123D-02-0.373D-04 0.505D-01 0.280D+00 0.671D+00
 Gap=     0.408 Goal=   None    Shift=    0.000
 RMSDP=6.52D-06 MaxDP=3.72D-04 DE=-1.70D-04 OVMax= 8.14D-04

 Initial convergence to 1.0D-05 achieved.  Increase integral accuracy.
 Cycle   6  Pass 1  IDiag  1:
 E= -276.296041438159     Delta-E=        0.000035914723 Rises=F Damp=F
 DIIS: error= 6.47D-05 at cycle   1 NSaved=   1.
 NSaved= 1 IEnMin= 1 EnMin= -276.296041438159     IErMin= 1 ErrMin= 6.47D-05
 ErrMax= 6.47D-05  0.00D+00 EMaxC= 1.00D-01 BMatC= 1.64D-06 BMatP= 1.64D-06
 IDIUse=1 WtCom= 1.00D+00 WtEn= 0.00D+00
 Coeff-Com:  0.100D+01
 Coeff:      0.100D+01
 Gap=     0.408 Goal=   None    Shift=    0.000
 RMSDP=6.52D-06 MaxDP=3.72D-04 DE= 3.59D-05 OVMax= 2.25D-04

 Cycle   7  Pass 1  IDiag  1:
 RMSU=  1.64D-05    CP:  1.00D+00
 E= -276.296042321365     Delta-E=       -0.000000883206 Rises=F Damp=F
 DIIS: error= 1.75D-05 at cycle   2 NSaved=   2.
 NSaved= 2 IEnMin= 2 EnMin= -276.296042321365     IErMin= 2 ErrMin= 1.75D-05
 ErrMax= 1.75D-05  0.00D+00 EMaxC= 1.00D-01 BMatC= 2.78D-07 BMatP= 1.64D-06
 IDIUse=1 WtCom= 1.00D+00 WtEn= 0.00D+00
 Coeff-Com:  0.217D+00 0.783D+00
 Coeff:      0.217D+00 0.783D+00
 Gap=     0.408 Goal=   None    Shift=    0.000
 RMSDP=1.21D-06 MaxDP=4.53D-05 DE=-8.83D-07 OVMax= 1.29D-04

 Cycle   8  Pass 1  IDiag  1:
 RMSU=  1.15D-06    CP:  1.00D+00  1.02D+00
 E= -276.296042508372     Delta-E=       -0.000000187007 Rises=F Damp=F
 DIIS: error= 1.05D-05 at cycle   3 NSaved=   3.
 NSaved= 3 IEnMin= 3 EnMin= -276.296042508372     IErMin= 3 ErrMin= 1.05D-05
 ErrMax= 1.05D-05  0.00D+00 EMaxC= 1.00D-01 BMatC= 8.80D-08 BMatP= 2.78D-07
 IDIUse=1 WtCom= 1.00D+00 WtEn= 0.00D+00
 Coeff-Com: -0.985D-02 0.354D+00 0.656D+00
 Coeff:     -0.985D-02 0.354D+00 0.656D+00
 Gap=     0.408 Goal=   None    Shift=    0.000
 RMSDP=4.80D-07 MaxDP=1.82D-05 DE=-1.87D-07 OVMax= 5.08D-05

 Cycle   9  Pass 1  IDiag  1:
 RMSU=  3.02D-07    CP:  1.00D+00  1.03D+00  7.06D-01
 E= -276.296042592967     Delta-E=       -0.000000084594 Rises=F Damp=F
 DIIS: error= 1.54D-06 at cycle   4 NSaved=   4.
 NSaved= 4 IEnMin= 4 EnMin= -276.296042592967     IErMin= 4 ErrMin= 1.54D-06
 ErrMax= 1.54D-06  0.00D+00 EMaxC= 1.00D-01 BMatC= 9.25D-10 BMatP= 8.80D-08
 IDIUse=1 WtCom= 1.00D+00 WtEn= 0.00D+00
 Coeff-Com: -0.829D-02 0.718D-01 0.171D+00 0.766D+00
 Coeff:     -0.829D-02 0.718D-01 0.171D+00 0.766D+00
 Gap=     0.408 Goal=   None    Shift=    0.000
 RMSDP=6.68D-08 MaxDP=1.86D-06 DE=-8.46D-08 OVMax= 7.26D-06

 Cycle  10  Pass 1  IDiag  1:
 RMSU=  6.38D-08    CP:  1.00D+00  1.03D+00  7.16D-01  1.01D+00
 E= -276.296042593977     Delta-E=       -0.000000001010 Rises=F Damp=F
 DIIS: error= 3.51D-07 at cycle   5 NSaved=   5.
 NSaved= 5 IEnMin= 5 EnMin= -276.296042593977     IErMin= 5 ErrMin= 3.51D-07
 ErrMax= 3.51D-07  0.00D+00 EMaxC= 1.00D-01 BMatC= 5.29D-11 BMatP= 9.25D-10
 IDIUse=1 WtCom= 1.00D+00 WtEn= 0.00D+00
 Coeff-Com: -0.125D-04-0.246D-01-0.413D-01 0.831D-01 0.983D+00
 Coeff:     -0.125D-04-0.246D-01-0.413D-01 0.831D-01 0.983D+00
 Gap=     0.408 Goal=   None    Shift=    0.000
 RMSDP=3.21D-08 MaxDP=9.37D-07 DE=-1.01D-09 OVMax= 2.33D-06

 Cycle  11  Pass 1  IDiag  1:
 RMSU=  1.53D-08    CP:  1.00D+00  1.03D+00  7.19D-01  1.11D+00  1.07D+00
 E= -276.296042594039     Delta-E=       -0.000000000062 Rises=F Damp=F
 DIIS: error= 1.46D-07 at cycle   6 NSaved=   6.
 NSaved= 6 IEnMin= 6 EnMin= -276.296042594039     IErMin= 6 ErrMin= 1.46D-07
 ErrMax= 1.46D-07  0.00D+00 EMaxC= 1.00D-01 BMatC= 1.12D-11 BMatP= 5.29D-11
 IDIUse=1 WtCom= 1.00D+00 WtEn= 0.00D+00
 Coeff-Com:  0.428D-03-0.144D-01-0.268D-01-0.246D-02 0.433D+00 0.610D+00
 Coeff:      0.428D-03-0.144D-01-0.268D-01-0.246D-02 0.433D+00 0.610D+00
 Gap=     0.408 Goal=   None    Shift=    0.000
 RMSDP=5.38D-09 MaxDP=2.48D-07 DE=-6.24D-11 OVMax= 5.67D-07

 SCF Done:  E(RM062X) =  -276.296042594     A.U. after   11 cycles
            NFock= 11  Conv=0.54D-08     -V/T= 2.0064
 KE= 2.745507318781D+02 PE=-1.284052816242D+03 EE= 4.104329672803D+02
 Leave Link  502 at Fri Sep 27 10:15:01 2019, MaxMem=   671088640 cpu:            1760.6 elap:             880.5
 (Enter /shared/centos7/gaussian/g16/l801.exe)
 DoSCS=F DFT=T ScalE2(SS,OS)=  1.000000  1.000000
 Range of M.O.s used for correlation:     1   434
 NBasis=   434 NAE=    29 NBE=    29 NFC=     0 NFV=     0
 NROrb=    434 NOA=    29 NOB=    29 NVA=   405 NVB=   405

 **** Warning!!: The largest alpha MO coefficient is  0.12853561D+02

 Leave Link  801 at Fri Sep 27 10:15:02 2019, MaxMem=   671088640 cpu:               1.5 elap:               0.8
 (Enter /shared/centos7/gaussian/g16/l1101.exe)
 Using compressed storage, NAtomX=    23.
 Will process     24 centers per pass.
 Leave Link 1101 at Fri Sep 27 10:15:35 2019, MaxMem=   671088640 cpu:              66.5 elap:              33.3
 (Enter /shared/centos7/gaussian/g16/l1102.exe)
 Symmetrizing basis deriv contribution to polar:
 IMax=3 JMax=2 DiffMx= 0.00D+00
 Leave Link 1102 at Fri Sep 27 10:15:37 2019, MaxMem=   671088640 cpu:               4.5 elap:               2.3
 (Enter /shared/centos7/gaussian/g16/l1110.exe)
 Forming Gx(P) for the SCF density, NAtomX=    23.
 Integral derivatives from FoFJK, PRISM(SPDF).
 Do as many integral derivatives as possible in FoFJK.
 G2DrvN: MDV=     671086848.
 G2DrvN: will do    24 centers at a time, making    1 passes.
 Calling FoFCou, ICntrl=  3107 FMM=F I1Cent=   0 AccDes= 0.00D+00.
 FoFJK:  IHMeth= 1 ICntrl=    3107 DoSepK=F KAlg= 0 I1Cent=           0 FoldK=F
 IRaf=         0 NMat=       1 IRICut=       1 DoRegI=T DoRafI=F ISym2E= 0 IDoP0=0 IntGTp=1.
 FoFCou: FMM=F IPFlag=           0 FMFlag=      100000 FMFlg1=           0
         NFxFlg=           0 DoJE=F BraDBF=F KetDBF=F FulRan=T
         wScrn=  0.000000 ICntrl=      3107 IOpCl=  0 I1Cent=           0 NGrid=           0
         NMat0=    1 NMatS0=      1 NMatT0=    0 NMatD0=    1 NMtDS0=    0 NMtDT0=    0
 Symmetry not used in FoFCou.
 End of G2Drv F.D. properties file   721 does not exist.
 End of G2Drv F.D. properties file   722 does not exist.
 End of G2Drv F.D. properties file   788 does not exist.
 Leave Link 1110 at Fri Sep 27 11:01:18 2019, MaxMem=   671088640 cpu:            5480.0 elap:            2740.5
 (Enter /shared/centos7/gaussian/g16/l1002.exe)
 Minotr:  Closed shell wavefunction.
          IDoAtm=11111111111111111111111
          Direct CPHF calculation.
          Differentiating once with respect to nuclear coordinates.
          Requested convergence is 1.0D-08 RMS, and 1.0D-07 maximum.
          Secondary convergence is 1.0D-12 RMS, and 1.0D-12 maximum.
          NewPWx=T KeepS1=F KeepF1=F KeepIn=T MapXYZ=F SortEE=F KeepMc=T.
         6932 words used for storage of precomputed grid.
 Two-electron integrals replicated using symmetry.
          MDV=     671088640 using IRadAn=       1.
          Solving linear equations simultaneously, MaxMat=     380.
 FoF2E skips out because all densities are zero.
 CalDSu exits because no D1Ps are significant.
 FoFJK:  IHMeth= 1 ICntrl=       0 DoSepK=F KAlg= 0 I1Cent=           0 FoldK=F
 IRaf= 890000000 NMat=      69 IRICut=     172 DoRegI=T DoRafI=T ISym2E= 2 IDoP0=3 IntGTp=3.
 FoFCou: FMM=F IPFlag=           0 FMFlag=      100000 FMFlg1=           0
         NFxFlg=           0 DoJE=F BraDBF=F KetDBF=F FulRan=T
         wScrn=  0.000000 ICntrl=         0 IOpCl=  0 I1Cent=           0 NGrid=           0
         NMat0=   69 NMatS0=     69 NMatT0=    0 NMatD0=   69 NMtDS0=    0 NMtDT0=    0
 Integrals replicated using symmetry in FoFCou.
 Raff kept on since  86.27% of shell-pairs survive, threshold=   0.20 IRatSp=86.
          There are    72 degrees of freedom in the 1st order CPHF.  IDoFFX=6 NUNeed=     0.
     66 vectors produced by pass  0 Test12= 1.63D-14 1.39D-09 XBig12= 5.43D-02 4.28D-02.
 AX will form    66 AO Fock derivatives at one time.
     66 vectors produced by pass  1 Test12= 1.63D-14 1.39D-09 XBig12= 3.32D-03 6.40D-03.
     66 vectors produced by pass  2 Test12= 1.63D-14 1.39D-09 XBig12= 5.43D-05 1.14D-03.
     66 vectors produced by pass  3 Test12= 1.63D-14 1.39D-09 XBig12= 4.26D-07 8.84D-05.
     66 vectors produced by pass  4 Test12= 1.63D-14 1.39D-09 XBig12= 2.14D-09 4.23D-06.
     66 vectors produced by pass  5 Test12= 1.63D-14 1.39D-09 XBig12= 9.53D-12 2.94D-07.
     23 vectors produced by pass  6 Test12= 1.63D-14 1.39D-09 XBig12= 3.61D-14 1.56D-08.
 InvSVY:  IOpt=1 It=  1 EMax= 2.78D-16
 Solved reduced A of dimension   419 with    72 vectors.
 End of Minotr F.D. properties file   721 does not exist.
 End of Minotr F.D. properties file   722 does not exist.
 End of Minotr F.D. properties file   788 does not exist.
 Leave Link 1002 at Fri Sep 27 12:29:59 2019, MaxMem=   671088640 cpu:           10639.2 elap:            5320.8
 (Enter /shared/centos7/gaussian/g16/l601.exe)
 Copying SCF densities to generalized density rwf, IOpCl= 0 IROHF=0.

 **********************************************************************

            Population analysis using the SCF density.

 **********************************************************************

 Orbital symmetries:
       Occupied  (A) (A) (A) (A) (A) (A) (A) (A) (A) (A) (A) (A)
                 (A) (A) (A) (A) (A) (A) (A) (A) (A) (A) (A) (A)
                 (A) (A) (A) (A) (A)
       Virtual   (A) (A) (A) (A) (A) (A) (A) (A) (A) (A) (A) (A)
                 (A) (A) (A) (A) (A) (A) (A) (A) (A) (A) (A) (A)
                 (A) (A) (A) (A) (A) (A) (A) (A) (A) (A) (A) (A)
                 (A) (A) (A) (A) (A) (A) (A) (A) (A) (A) (A) (A)
                 (A) (A) (A) (A) (A) (A) (A) (A) (A) (A) (A) (A)
                 (A) (A) (A) (A) (A) (A) (A) (A) (A) (A) (A) (A)
                 (A) (A) (A) (A) (A) (A) (A) (A) (A) (A) (A) (A)
                 (A) (A) (A) (A) (A) (A) (A) (A) (A) (A) (A) (A)
                 (A) (A) (A) (A) (A) (A) (A) (A) (A) (A) (A) (A)
                 (A) (A) (A) (A) (A) (A) (A) (A) (A) (A) (A) (A)
                 (A) (A) (A) (A) (A) (A) (A) (A) (A) (A) (A) (A)
                 (A) (A) (A) (A) (A) (A) (A) (A) (A) (A) (A) (A)
                 (A) (A) (A) (A) (A) (A) (A) (A) (A) (A) (A) (A)
                 (A) (A) (A) (A) (A) (A) (A) (A) (A) (A) (A) (A)
                 (A) (A) (A) (A) (A) (A) (A) (A) (A) (A) (A) (A)
                 (A) (A) (A) (A) (A) (A) (A) (A) (A) (A) (A) (A)
                 (A) (A) (A) (A) (A) (A) (A) (A) (A) (A) (A) (A)
                 (A) (A) (A) (A) (A) (A) (A) (A) (A) (A) (A) (A)
                 (A) (A) (A) (A) (A) (A) (A) (A) (A) (A) (A) (A)
                 (A) (A) (A) (A) (A) (A) (A) (A) (A) (A) (A) (A)
                 (A) (A) (A) (A) (A) (A) (A) (A) (A) (A) (A) (A)
                 (A) (A) (A) (A) (A) (A) (A) (A) (A) (A) (A) (A)
                 (A) (A) (A) (A) (A) (A) (A) (A) (A) (A) (A) (A)
                 (A) (A) (A) (A) (A) (A) (A) (A) (A) (A) (A) (A)
                 (A) (A) (A) (A) (A) (A) (A) (A) (A) (A) (A) (A)
                 (A) (A) (A) (A) (A) (A) (A) (A) (A) (A) (A) (A)
                 (A) (A) (A) (A) (A) (A) (A) (A) (A) (A) (A) (A)
                 (A) (A) (A) (A) (A) (A) (A) (A) (A) (A) (A) (A)
                 (A) (A) (A) (A) (A) (A) (A) (A) (A) (A) (A) (A)
                 (A) (A) (A) (A) (A) (A) (A) (A) (A) (A) (A) (A)
                 (A) (A) (A) (A) (A) (A) (A) (A) (A) (A) (A) (A)
                 (A) (A) (A) (A) (A) (A) (A) (A) (A) (A) (A) (A)
                 (A) (A) (A) (A) (A) (A) (A) (A) (A) (A) (A) (A)
                 (A) (A) (A) (A) (A) (A) (A) (A) (A)
 The electronic state is 1-A.
 Alpha  occ. eigenvalues --  -10.52758 -10.52578 -10.52333 -10.52215 -10.52157
 Alpha  occ. eigenvalues --  -10.52098 -10.51752  -0.92118  -0.88268  -0.82380
 Alpha  occ. eigenvalues --   -0.76525  -0.71284  -0.66153  -0.61231  -0.54944
 Alpha  occ. eigenvalues --   -0.54188  -0.51080  -0.49987  -0.48407  -0.45533
 Alpha  occ. eigenvalues --   -0.44512  -0.43423  -0.41292  -0.40421  -0.39525
 Alpha  occ. eigenvalues --   -0.37014  -0.36124  -0.35929  -0.34861
 Alpha virt. eigenvalues --    0.05936   0.07880   0.08601   0.08693   0.10869
 Alpha virt. eigenvalues --    0.11524   0.11547   0.12374   0.13628   0.15283
 Alpha virt. eigenvalues --    0.15935   0.17444   0.18136   0.19402   0.20534
 Alpha virt. eigenvalues --    0.21516   0.22242   0.22893   0.25867   0.26408
 Alpha virt. eigenvalues --    0.26797   0.27875   0.29679   0.30321   0.31239
 Alpha virt. eigenvalues --    0.32452   0.33939   0.35098   0.37112   0.37324
 Alpha virt. eigenvalues --    0.39034   0.40021   0.40656   0.41599   0.43420
 Alpha virt. eigenvalues --    0.44519   0.45198   0.46854   0.47243   0.47728
 Alpha virt. eigenvalues --    0.48218   0.48837   0.49837   0.50278   0.51497
 Alpha virt. eigenvalues --    0.52148   0.52723   0.53075   0.53173   0.53401
 Alpha virt. eigenvalues --    0.54086   0.55473   0.56125   0.56969   0.57978
 Alpha virt. eigenvalues --    0.58086   0.58783   0.59054   0.59439   0.61188
 Alpha virt. eigenvalues --    0.64629   0.66462   0.68810   0.74559   0.78063
 Alpha virt. eigenvalues --    0.80016   0.80784   0.83225   0.83885   0.86213
 Alpha virt. eigenvalues --    0.86862   0.87505   0.89817   0.91292   0.92962
 Alpha virt. eigenvalues --    0.93923   0.95233   0.96223   0.97367   0.99142
 Alpha virt. eigenvalues --    1.00971   1.02287   1.02385   1.02938   1.04848
 Alpha virt. eigenvalues --    1.05736   1.07589   1.08117   1.08823   1.09808
 Alpha virt. eigenvalues --    1.11205   1.12277   1.12785   1.14199   1.14914
 Alpha virt. eigenvalues --    1.15792   1.16300   1.17573   1.17862   1.18520
 Alpha virt. eigenvalues --    1.19057   1.21167   1.22115   1.23111   1.24218
 Alpha virt. eigenvalues --    1.24479   1.25314   1.26716   1.27876   1.28569
 Alpha virt. eigenvalues --    1.28933   1.30414   1.32315   1.33088   1.33812
 Alpha virt. eigenvalues --    1.35136   1.35846   1.36658   1.37344   1.38251
 Alpha virt. eigenvalues --    1.40977   1.41494   1.41971   1.44030   1.44573
 Alpha virt. eigenvalues --    1.45876   1.47714   1.49056   1.49537   1.51143
 Alpha virt. eigenvalues --    1.51474   1.51810   1.53636   1.54442   1.56037
 Alpha virt. eigenvalues --    1.56506   1.57427   1.58827   1.61704   1.63474
 Alpha virt. eigenvalues --    1.64411   1.68118   1.69229   1.70082   1.71810
 Alpha virt. eigenvalues --    1.73122   1.77255   1.81501   1.84930   2.15425
 Alpha virt. eigenvalues --    2.20364   2.25495   2.27920   2.31701   2.32586
 Alpha virt. eigenvalues --    2.35087   2.36261   2.38634   2.39979   2.43743
 Alpha virt. eigenvalues --    2.45466   2.49587   2.51185   2.52120   2.54168
 Alpha virt. eigenvalues --    2.55125   2.56650   2.57545   2.58542   2.59711
 Alpha virt. eigenvalues --    2.61439   2.64252   2.64449   2.66530   2.67522
 Alpha virt. eigenvalues --    2.68069   2.70004   2.71120   2.72449   2.73381
 Alpha virt. eigenvalues --    2.75016   2.75820   2.76775   2.77190   2.78298
 Alpha virt. eigenvalues --    2.79930   2.82593   2.83840   2.84675   2.85694
 Alpha virt. eigenvalues --    2.87008   2.89953   2.91078   2.92251   2.92658
 Alpha virt. eigenvalues --    2.93477   2.94923   2.96356   2.96889   2.97626
 Alpha virt. eigenvalues --    2.98275   2.98958   3.00953   3.02282   3.03918
 Alpha virt. eigenvalues --    3.05144   3.05485   3.06465   3.08260   3.08581
 Alpha virt. eigenvalues --    3.09656   3.09847   3.10503   3.11153   3.12399
 Alpha virt. eigenvalues --    3.13257   3.14786   3.15639   3.16499   3.17065
 Alpha virt. eigenvalues --    3.18029   3.19309   3.21116   3.22196   3.23414
 Alpha virt. eigenvalues --    3.23857   3.24940   3.27030   3.27709   3.30144
 Alpha virt. eigenvalues --    3.30870   3.32146   3.32789   3.34956   3.35165
 Alpha virt. eigenvalues --    3.36170   3.38422   3.39273   3.40273   3.41210
 Alpha virt. eigenvalues --    3.42280   3.44531   3.44644   3.46905   3.48458
 Alpha virt. eigenvalues --    3.49392   3.51289   3.52636   3.53716   3.54003
 Alpha virt. eigenvalues --    3.55371   3.57465   3.58962   3.59435   3.60185
 Alpha virt. eigenvalues --    3.62194   3.62466   3.63854   3.65606   3.67491
 Alpha virt. eigenvalues --    3.69031   3.69508   3.70979   3.71684   3.73289
 Alpha virt. eigenvalues --    3.74330   3.75384   3.76939   3.78345   3.79591
 Alpha virt. eigenvalues --    3.80320   3.81351   3.81942   3.82800   3.84974
 Alpha virt. eigenvalues --    3.85694   3.86578   3.87343   3.89389   3.89538
 Alpha virt. eigenvalues --    3.91302   3.92311   3.94981   3.95609   3.97223
 Alpha virt. eigenvalues --    3.98735   3.98841   3.99624   4.00430   4.01591
 Alpha virt. eigenvalues --    4.02461   4.03362   4.04009   4.06281   4.07010
 Alpha virt. eigenvalues --    4.08410   4.09210   4.10332   4.11853   4.13414
 Alpha virt. eigenvalues --    4.14169   4.14687   4.16067   4.16418   4.17636
 Alpha virt. eigenvalues --    4.18520   4.20744   4.21285   4.23101   4.23469
 Alpha virt. eigenvalues --    4.24232   4.25140   4.26983   4.28625   4.30852
 Alpha virt. eigenvalues --    4.31845   4.32733   4.33813   4.38232   4.38529
 Alpha virt. eigenvalues --    4.39802   4.40506   4.41526   4.44726   4.45785
 Alpha virt. eigenvalues --    4.48863   4.50149   4.51287   4.54987   4.55323
 Alpha virt. eigenvalues --    4.57097   4.59990   4.60846   4.62171   4.63800
 Alpha virt. eigenvalues --    4.66602   4.67648   4.72079   4.72917   4.74440
 Alpha virt. eigenvalues --    4.76083   4.78536   4.80087   4.81434   4.84697
 Alpha virt. eigenvalues --    4.86831   4.87367   4.88628   4.89685   4.92480
 Alpha virt. eigenvalues --    4.95342   4.95853   4.97538   4.98724   4.99341
 Alpha virt. eigenvalues --    5.01757   5.04011   5.05356   5.05585   5.07060
 Alpha virt. eigenvalues --    5.09049   5.11192   5.12041   5.15100   5.16771
 Alpha virt. eigenvalues --    5.18559   5.22004   5.22747   5.24353   5.25246
 Alpha virt. eigenvalues --    5.28027   5.28267   5.29096   5.32738   5.35046
 Alpha virt. eigenvalues --    5.36194   5.38457   5.41187   5.43179   5.44074
 Alpha virt. eigenvalues --    5.47351   5.49367   5.51085   5.53779   5.55926
 Alpha virt. eigenvalues --    5.59064   5.65012   5.70990   5.76660   5.78233
 Alpha virt. eigenvalues --    5.79360   5.82173   5.83919   5.90024   5.92151
 Alpha virt. eigenvalues --    5.99008   6.01459   6.04808  11.20099  11.44992
 Alpha virt. eigenvalues --   12.58141  12.84032  13.27104  13.61578  13.89585
          Condensed to atoms (all electrons):
               1          2          3          4          5          6
     1  C    5.101849   0.303648  -0.045157   0.294325   0.004781  -0.053721
     2  C    0.303648   5.171856   0.283251  -0.045280  -0.041798   0.004584
     3  C   -0.045157   0.283251   5.125316  -0.010291   0.297740   0.000290
     4  C    0.294325  -0.045280  -0.010291   5.110604   0.000244   0.288503
     5  C    0.004781  -0.041798   0.297740   0.000244   5.010489   0.000005
     6  C   -0.053721   0.004584   0.000290   0.288503   0.000005   4.955232
     7  C    0.001716  -0.035544  -0.043894  -0.000174   0.310911   0.000007
     8  H   -0.060227  -0.003570  -0.000903   0.417024   0.000433  -0.042663
     9  H   -0.043349   0.006156  -0.000820   0.406962   0.000028  -0.035339
    10  H    0.406763  -0.040862  -0.005047  -0.053193   0.001137   0.007740
    11  H    0.422776  -0.049776   0.009990  -0.049989  -0.000560  -0.017601
    12  H   -0.038541   0.408792  -0.050285  -0.006392   0.006781   0.001894
    13  H   -0.051218   0.438784  -0.048645   0.010515  -0.015789  -0.000600
    14  H   -0.004780  -0.059431   0.419922   0.000274  -0.045681   0.000356
    15  H    0.006864  -0.045052   0.413784  -0.000670  -0.037849  -0.000004
    16  H   -0.000486   0.005325  -0.049282  -0.000015   0.419456   0.000001
    17  H    0.000005   0.004969  -0.047556  -0.000017   0.416699  -0.000004
    18  H   -0.011184   0.000572  -0.000087  -0.057019   0.000010   0.410736
    19  H    0.004575  -0.000362  -0.000016  -0.046025  -0.000000   0.408108
    20  H    0.007015  -0.000336   0.000068  -0.048697  -0.000006   0.409166
    21  H    0.001715  -0.020351  -0.000766  -0.000149  -0.041229   0.000003
    22  H   -0.000848  -0.001178   0.001120  -0.000026  -0.047688   0.000001
    23  H   -0.000053   0.001985   0.006859   0.000008  -0.036879  -0.000000
               7          8          9         10         11         12
     1  C    0.001716  -0.060227  -0.043349   0.406763   0.422776  -0.038541
     2  C   -0.035544  -0.003570   0.006156  -0.040862  -0.049776   0.408792
     3  C   -0.043894  -0.000903  -0.000820  -0.005047   0.009990  -0.050285
     4  C   -0.000174   0.417024   0.406962  -0.053193  -0.049989  -0.006392
     5  C    0.310911   0.000433   0.000028   0.001137  -0.000560   0.006781
     6  C    0.000007  -0.042663  -0.035339   0.007740  -0.017601   0.001894
     7  C    4.985046  -0.000078   0.000006   0.000369   0.000029   0.001168
     8  H   -0.000078   0.613512  -0.044655   0.007410   0.005214   0.000838
     9  H    0.000006  -0.044655   0.612385  -0.019518   0.006019  -0.000177
    10  H    0.000369   0.007410  -0.019518   0.599880  -0.031824   0.009339
    11  H    0.000029   0.005214   0.006019  -0.031824   0.591859  -0.007686
    12  H    0.001168   0.000838  -0.000177   0.009339  -0.007686   0.581484
    13  H   -0.016950   0.000331  -0.000502  -0.010402  -0.006683  -0.034766
    14  H    0.006004  -0.002626  -0.001069   0.000319   0.000341   0.006570
    15  H    0.004960  -0.000791   0.000018  -0.000237  -0.000530  -0.018810
    16  H   -0.042376  -0.000022  -0.000001  -0.000002   0.000035   0.000115
    17  H   -0.043886   0.000057   0.000012  -0.000296   0.000024  -0.000632
    18  H   -0.000002   0.005424   0.006055   0.001087   0.004190   0.000491
    19  H   -0.000000   0.007726  -0.020972  -0.000008   0.000591  -0.000060
    20  H    0.000000  -0.019477   0.006850  -0.000701   0.001137  -0.000176
    21  H    0.411982   0.000014   0.000005   0.000122   0.000143  -0.000426
    22  H    0.410132   0.000005  -0.000006   0.000912   0.000150   0.000446
    23  H    0.401769   0.000001  -0.000001  -0.000001  -0.000011  -0.000028
              13         14         15         16         17         18
     1  C   -0.051218  -0.004780   0.006864  -0.000486   0.000005  -0.011184
     2  C    0.438784  -0.059431  -0.045052   0.005325   0.004969   0.000572
     3  C   -0.048645   0.419922   0.413784  -0.049282  -0.047556  -0.000087
     4  C    0.010515   0.000274  -0.000670  -0.000015  -0.000017  -0.057019
     5  C   -0.015789  -0.045681  -0.037849   0.419456   0.416699   0.000010
     6  C   -0.000600   0.000356  -0.000004   0.000001  -0.000004   0.410736
     7  C   -0.016950   0.006004   0.004960  -0.042376  -0.043886  -0.000002
     8  H    0.000331  -0.002626  -0.000791  -0.000022   0.000057   0.005424
     9  H   -0.000502  -0.001069   0.000018  -0.000001   0.000012   0.006055
    10  H   -0.010402   0.000319  -0.000237  -0.000002  -0.000296   0.001087
    11  H   -0.006683   0.000341  -0.000530   0.000035   0.000024   0.004190
    12  H   -0.034766   0.006570  -0.018810   0.000115  -0.000632   0.000491
    13  H    0.592500   0.005164   0.005848   0.000604   0.000445  -0.000161
    14  H    0.005164   0.597158  -0.040613   0.007034  -0.018754  -0.000046
    15  H    0.005848  -0.040613   0.599693  -0.019481   0.006643  -0.000004
    16  H    0.000604   0.007034  -0.019481   0.621736  -0.042279  -0.000000
    17  H    0.000445  -0.018754   0.006643  -0.042279   0.615300   0.000000
    18  H   -0.000161  -0.000046  -0.000004  -0.000000   0.000000   0.610260
    19  H    0.000036  -0.000021  -0.000002  -0.000000   0.000000  -0.035155
    20  H    0.000018   0.000065  -0.000017   0.000000   0.000000  -0.035990
    21  H   -0.010776  -0.000470   0.000368  -0.002741   0.008100   0.000000
    22  H   -0.003799   0.000594  -0.000524   0.008585  -0.013163   0.000000
    23  H    0.001398  -0.000341  -0.000203  -0.011075  -0.000592  -0.000000
              19         20         21         22         23
     1  C    0.004575   0.007015   0.001715  -0.000848  -0.000053
     2  C   -0.000362  -0.000336  -0.020351  -0.001178   0.001985
     3  C   -0.000016   0.000068  -0.000766   0.001120   0.006859
     4  C   -0.046025  -0.048697  -0.000149  -0.000026   0.000008
     5  C   -0.000000  -0.000006  -0.041229  -0.047688  -0.036879
     6  C    0.408108   0.409166   0.000003   0.000001  -0.000000
     7  C   -0.000000   0.000000   0.411982   0.410132   0.401769
     8  H    0.007726  -0.019477   0.000014   0.000005   0.000001
     9  H   -0.020972   0.006850   0.000005  -0.000006  -0.000001
    10  H   -0.000008  -0.000701   0.000122   0.000912  -0.000001
    11  H    0.000591   0.001137   0.000143   0.000150  -0.000011
    12  H   -0.000060  -0.000176  -0.000426   0.000446  -0.000028
    13  H    0.000036   0.000018  -0.010776  -0.003799   0.001398
    14  H   -0.000021   0.000065  -0.000470   0.000594  -0.000341
    15  H   -0.000002  -0.000017   0.000368  -0.000524  -0.000203
    16  H   -0.000000   0.000000  -0.002741   0.008585  -0.011075
    17  H    0.000000   0.000000   0.008100  -0.013163  -0.000592
    18  H   -0.035155  -0.035990   0.000000   0.000000  -0.000000
    19  H    0.618496  -0.035720  -0.000000  -0.000000   0.000000
    20  H   -0.035720   0.611628  -0.000000  -0.000000  -0.000000
    21  H   -0.000000  -0.000000   0.614628  -0.042683  -0.030713
    22  H   -0.000000  -0.000000  -0.042683   0.603923  -0.028019
    23  H    0.000000  -0.000000  -0.030713  -0.028019   0.587159
 Mulliken charges:
               1
     1  C   -0.246467
     2  C   -0.286384
     3  C   -0.255591
     4  C   -0.210520
     5  C   -0.201234
     6  C   -0.336694
     7  C   -0.351195
     8  H    0.117024
     9  H    0.121916
    10  H    0.127016
    11  H    0.122162
    12  H    0.140060
    13  H    0.144648
    14  H    0.130030
    15  H    0.126610
    16  H    0.104869
    17  H    0.114924
    18  H    0.100822
    19  H    0.098808
    20  H    0.105171
    21  H    0.113223
    22  H    0.112064
    23  H    0.108737
 Sum of Mulliken charges =  -0.00000
 Mulliken charges with hydrogens summed into heavy atoms:
               1
     1  C    0.002711
     2  C   -0.001676
     3  C    0.001049
     4  C    0.028419
     5  C    0.018559
     6  C   -0.031892
     7  C   -0.017171
 APT charges:
               1
     1  C   -0.616111
     2  C   -0.573733
     3  C   -0.532682
     4  C   -0.366323
     5  C   -0.941076
     6  C   -1.550564
     7  C   -1.128210
     8  H    0.245445
     9  H    0.359145
    10  H    0.289959
    11  H    0.379588
    12  H    0.350245
    13  H    0.376320
    14  H    0.270743
    15  H    0.377535
    16  H    0.483727
    17  H    0.357987
    18  H    0.284740
    19  H    0.524525
    20  H    0.409497
    21  H    0.134531
    22  H    0.229344
    23  H    0.635368
 Sum of APT charges =  -0.00000
 APT charges with hydrogens summed into heavy atoms:
               1
     1  C    0.053436
     2  C    0.152832
     3  C    0.115596
     4  C    0.238267
     5  C   -0.099362
     6  C   -0.331802
     7  C   -0.128966
 Electronic spatial extent (au):  <R**2>=           1325.5462
 Charge=              0.0000 electrons
 Dipole moment (field-independent basis, Debye):
    X=             -0.1275    Y=              0.0643    Z=             -0.0164  Tot=              0.1438
 Quadrupole moment (field-independent basis, Debye-Ang):
   XX=            -50.1795   YY=            -49.4144   ZZ=            -48.2363
   XY=              0.0055   XZ=             -0.2740   YZ=              0.0993
 Traceless Quadrupole moment (field-independent basis, Debye-Ang):
   XX=             -0.9028   YY=             -0.1377   ZZ=              1.0404
   XY=              0.0055   XZ=             -0.2740   YZ=              0.0993
 Octapole moment (field-independent basis, Debye-Ang**2):
  XXX=             -4.5575  YYY=             -0.2695  ZZZ=             -1.1243  XYY=              0.8068
  XXY=              1.7462  XXZ=             -0.3107  XZZ=              0.3732  YZZ=              1.3523
  YYZ=              1.4526  XYZ=             -0.3828
 Hexadecapole moment (field-independent basis, Debye-Ang**3):
 XXXX=          -1542.2720 YYYY=           -234.1006 ZZZZ=           -133.7216 XXXY=              0.5478
 XXXZ=             -9.6830 YYYX=             -3.5909 YYYZ=              0.0022 ZZZX=             -1.1333
 ZZZY=              0.5181 XXYY=           -296.1667 XXZZ=           -273.1346 YYZZ=            -59.6081
 XXYZ=              1.7720 YYXZ=              1.0901 ZZXY=              0.9988
 N-N= 3.227730744899D+02 E-N=-1.284052768851D+03  KE= 2.745507318781D+02
  Exact polarizability:   0.000   0.000   0.000   0.000   0.000   0.000
 Approx polarizability:  98.026  -0.340  97.349  -0.093   0.492  97.410
 No NMR shielding tensors so no spin-rotation constants.
 Leave Link  601 at Fri Sep 27 12:30:33 2019, MaxMem=   671088640 cpu:              68.8 elap:              34.4
 (Enter /shared/centos7/gaussian/g16/l701.exe)
 SCFChk:  SCF convergence  5.38D-09 required  1.00D-08
 ... and contract with generalized density number  0.
 Compute integral second derivatives.
 Entering OneElI...
 Calculate overlap and kinetic energy integrals
    NBasis = 485  MinDer = 2  MaxDer = 2
 Requested accuracy = 0.1000D-12
 PrmmSu-InSpLW:  IPartL=    0 NPrtUS=   20 NPrtUL=    1 DoSpLW=F IThBeg=    0 IThEnd=   19 NThAct=   20.
 PrsmSu:  NPrtUS=  20 ThrOK=T IAlg=1 NPAlg=1 LenDen=           0 ISkipM=0 DoSpLW=F IThBeg=    0 IThEnd=   19.
 Prism:   IPart=     0 DynPar=F LinDyn=F Incr=           6.
 PRISM was handed    33206557 working-precision words and 13478 shell-pairs
 PRISM was handed    33206557 working-precision words and 13478 shell-pairs
 PRISM was handed    33206557 working-precision words and 13478 shell-pairs
 PRISM was handed    33206557 working-precision words and 13478 shell-pairs
 PRISM was handed    33206557 working-precision words and 13478 shell-pairs
 PRISM was handed    33206557 working-precision words and 13478 shell-pairs
 PRISM was handed    33206557 working-precision words and 13478 shell-pairs
 PRISM was handed    33206557 working-precision words and 13478 shell-pairs
 PRISM was handed    33206557 working-precision words and 13478 shell-pairs
 PRISM was handed    33206557 working-precision words and 13478 shell-pairs
 PRISM was handed    33206557 working-precision words and 13478 shell-pairs
 PRISM was handed    33206557 working-precision words and 13478 shell-pairs
 PRISM was handed    33206557 working-precision words and 13478 shell-pairs
 PRISM was handed    33206557 working-precision words and 13478 shell-pairs
 PRISM was handed    33206557 working-precision words and 13478 shell-pairs
 PRISM was handed    33206557 working-precision words and 13478 shell-pairs
 PRISM was handed    33206557 working-precision words and 13478 shell-pairs
 PRISM was handed    33206557 working-precision words and 13478 shell-pairs
 IPart=  7 NShTot=         679 NBatch=          62 AvBLen=        11.0
 IPart=  0 NShTot=         706 NBatch=          80 AvBLen=         8.8
 PRISM was handed    33206557 working-precision words and 13478 shell-pairs
 IPart=  2 NShTot=         700 NBatch=          76 AvBLen=         9.2
 PRISM was handed    33206557 working-precision words and 13478 shell-pairs
 IPart= 12 NShTot=         664 NBatch=          54 AvBLen=        12.3
 IPart= 18 NShTot=         647 NBatch=          47 AvBLen=        13.8
 IPart= 10 NShTot=         671 NBatch=          58 AvBLen=        11.6
 IPart=  9 NShTot=         673 NBatch=          59 AvBLen=        11.4
 IPart= 11 NShTot=         669 NBatch=          57 AvBLen=        11.7
 IPart= 15 NShTot=         657 NBatch=          52 AvBLen=        12.6
 IPart=  8 NShTot=         675 NBatch=          60 AvBLen=        11.3
 IPart= 14 NShTot=         659 NBatch=          52 AvBLen=        12.7
 IPart=  3 NShTot=         696 NBatch=          74 AvBLen=         9.4
 IPart= 16 NShTot=         653 NBatch=          50 AvBLen=        13.1
 IPart=  6 NShTot=         686 NBatch=          68 AvBLen=        10.1
 IPart= 17 NShTot=         650 NBatch=          48 AvBLen=        13.5
 IPart=  5 NShTot=         687 NBatch=          69 AvBLen=        10.0
 IPart=  4 NShTot=         695 NBatch=          73 AvBLen=         9.5
 IPart=  1 NShTot=         704 NBatch=          78 AvBLen=         9.0
 IPart= 13 NShTot=         661 NBatch=          53 AvBLen=        12.5
 IPart= 19 NShTot=         646 NBatch=          47 AvBLen=        13.7
 PrSmSu:  NxtVal=            121.
 Entering OneElI...
 Calculate potential energy integrals
    NBasis = 485  MinDer = 2  MaxDer = 2
 Requested accuracy = 0.1000D-12
 PrmmSu-InSpLW:  IPartL=    0 NPrtUS=   20 NPrtUL=    1 DoSpLW=F IThBeg=    0 IThEnd=   19 NThAct=   20.
 PrsmSu:  NPrtUS=  20 ThrOK=T IAlg=1 NPAlg=1 LenDen=           0 ISkipM=0 DoSpLW=F IThBeg=    0 IThEnd=   19.
 Prism:   IPart=     0 DynPar=F LinDyn=F Incr=         137.
 PRISM was handed    33270906 working-precision words and 11950 shell-pairs
 PRISM was handed    33270906 working-precision words and 11950 shell-pairs
 PRISM was handed    33270906 working-precision words and 11950 shell-pairs
 PRISM was handed    33270906 working-precision words and 11950 shell-pairs
 PRISM was handed    33270906 working-precision words and 11950 shell-pairs
 PRISM was handed    33270906 working-precision words and 11950 shell-pairs
 PRISM was handed    33270906 working-precision words and 11950 shell-pairs
 PRISM was handed    33270906 working-precision words and 11950 shell-pairs
 PRISM was handed    33270906 working-precision words and 11950 shell-pairs
 PRISM was handed    33270906 working-precision words and 11950 shell-pairs
 PRISM was handed    33270906 working-precision words and 11950 shell-pairs
 PRISM was handed    33270906 working-precision words and 11950 shell-pairs
 PRISM was handed    33270906 working-precision words and 11950 shell-pairs
 PRISM was handed    33270906 working-precision words and 11950 shell-pairs
 PRISM was handed    33270906 working-precision words and 11950 shell-pairs
 PRISM was handed    33270906 working-precision words and 11950 shell-pairs
 PRISM was handed    33270906 working-precision words and 11950 shell-pairs
 PRISM was handed    33270906 working-precision words and 11950 shell-pairs
 PRISM was handed    33270906 working-precision words and 11950 shell-pairs
 PRISM was handed    33270906 working-precision words and 11950 shell-pairs
 IPart= 18 NShTot=       13225 NBatch=         576 AvBLen=        23.0
 IPart= 12 NShTot=       13547 NBatch=         590 AvBLen=        23.0
 IPart= 11 NShTot=       13616 NBatch=         593 AvBLen=        23.0
 IPart= 10 NShTot=       13662 NBatch=         595 AvBLen=        23.0
 IPart=  9 NShTot=       13685 NBatch=         596 AvBLen=        23.0
 IPart=  2 NShTot=       14260 NBatch=         622 AvBLen=        22.9
 IPart=  0 NShTot=       14444 NBatch=         630 AvBLen=        22.9
 IPart=  7 NShTot=       13754 NBatch=         599 AvBLen=        23.0
 IPart= 15 NShTot=       13409 NBatch=         584 AvBLen=        23.0
 IPart= 16 NShTot=       13340 NBatch=         581 AvBLen=        23.0
 IPart= 17 NShTot=       13271 NBatch=         578 AvBLen=        23.0
 IPart= 19 NShTot=       13202 NBatch=         575 AvBLen=        23.0
 IPart= 14 NShTot=       13455 NBatch=         586 AvBLen=        23.0
 IPart=  6 NShTot=       13938 NBatch=         607 AvBLen=        23.0
 IPart=  4 NShTot=       14168 NBatch=         618 AvBLen=        22.9
 IPart=  5 NShTot=       14099 NBatch=         614 AvBLen=        23.0
 IPart=  8 NShTot=       13708 NBatch=         597 AvBLen=        23.0
 IPart=  3 NShTot=       14237 NBatch=         621 AvBLen=        22.9
 IPart=  1 NShTot=       14352 NBatch=         626 AvBLen=        22.9
 IPart= 13 NShTot=       13478 NBatch=         587 AvBLen=        23.0
 PrSmSu:  NxtVal=           2741.
 Polarizability after L701:
                1             2             3 
      1  0.000000D+00
      2  0.000000D+00  0.000000D+00
      3  0.000000D+00  0.000000D+00  0.000000D+00
 Dipole Derivatives after L701:
                 1             2             3             4             5 
      1  -0.245215D+00  0.889142D+00  0.193788D-01 -0.318725D+00 -0.433679D+00
      2   0.322380D+00 -0.873587D+00 -0.181676D+00 -0.397357D+00 -0.474324D+00
      3  -0.291707D+00 -0.153902D+00 -0.729532D+00 -0.106504D+00  0.242534D+00
                 6             7             8             9            10 
      1  -0.612132D-01  0.161850D+00  0.420855D+00  0.226845D+00  0.388698D+00
      2   0.137457D+00 -0.423951D+00 -0.103584D+01 -0.108832D+00  0.843622D-01
      3  -0.928151D+00  0.188213D+00 -0.277577D+00 -0.724057D+00  0.167901D+00
                11            12            13            14            15 
      1  -0.140068D+01  0.678705D+00 -0.144327D+01  0.151214D+01 -0.329920D+00
      2  -0.703308D+00  0.102088D-01  0.606370D+00 -0.536138D+00  0.131132D+00
      3   0.178048D+00 -0.784360D+00  0.344934D-01  0.859825D-01 -0.843826D+00
                16            17            18            19            20 
      1  -0.279702D+01  0.473510D+00 -0.510855D+00 -0.146672D+01 -0.152315D+01
      2  -0.922069D-01 -0.898834D+00 -0.388316D-01 -0.729299D-01 -0.930293D+00
      3   0.589337D-01 -0.331174D-01 -0.955836D+00 -0.217879D-01 -0.106047D+00
                21            22            23            24            25 
      1  -0.770015D-01  0.318241D-01  0.503033D+00  0.291507D+00  0.231029D+00
      2  -0.736087D-01 -0.106982D+00  0.498492D+00  0.252938D+00  0.267553D-01
      3  -0.987615D+00 -0.184659D-01  0.108079D+00  0.206020D+00 -0.457119D-01
                26            27            28            29            30 
      1   0.264108D+00 -0.693571D+00  0.927760D-01 -0.965012D-03 -0.184326D+00
      2   0.205002D+00 -0.227759D+00  0.122288D+00  0.174651D+00  0.257705D+00
      3  -0.152291D+00  0.641403D+00  0.143880D+00  0.456673D-01  0.602451D+00
                31            32            33            34            35 
      1   0.372665D+00 -0.432423D+00  0.180284D+00  0.170331D+00 -0.181912D-01
      2  -0.247254D+00  0.632296D+00 -0.223873D+00 -0.510477D-01  0.163678D+00
      3   0.128888D-01 -0.422167D-01  0.133803D+00  0.180473D+00  0.810531D-01
                36            37            38            39            40 
      1   0.693676D-01  0.477906D+00  0.266753D+00  0.433320D-01  0.106755D+00
      2  -0.613893D-01  0.360767D+00  0.520317D+00  0.512960D-01  0.211566D+00
      3   0.716727D+00 -0.159404D+00 -0.163840D+00  0.130736D+00 -0.102899D+00
                41            42            43            44            45 
      1  -0.813821D-01  0.101504D+00  0.161313D+00 -0.246888D+00 -0.253175D+00
      2   0.358413D+00 -0.376868D+00 -0.158216D-01  0.498083D+00  0.445403D+00
      3  -0.123064D+00  0.347060D+00  0.571002D-02  0.265310D+00  0.473208D+00
                46            47            48            49            50 
      1   0.799427D+00 -0.632792D+00 -0.592968D+00  0.237340D+00 -0.286195D+00
      2  -0.260000D+00  0.400603D+00  0.284441D+00 -0.208334D-01  0.258391D+00
      3  -0.109474D+00  0.133812D+00  0.251151D+00  0.308582D-01 -0.151696D+00
                51            52            53            54            55 
      1   0.797870D+00  0.171781D+00 -0.107129D+01  0.377338D+00  0.111311D+01
      2  -0.343644D+00  0.110241D-01  0.542424D+00 -0.152240D+00 -0.940793D-03
      3   0.578231D+00  0.639690D-02 -0.181435D+00  0.140016D+00 -0.192517D+00
                56            57            58            59            60 
      1   0.116333D+00 -0.109297D+01  0.570144D+00  0.747640D+00  0.962141D+00
      2   0.867940D-01 -0.290308D-01  0.548917D-01  0.273165D+00  0.208320D+00
      3  -0.461219D-01  0.373671D+00  0.120676D+00  0.251419D+00  0.385180D+00
                61            62            63            64            65 
      1  -0.347996D+00  0.484579D+00 -0.586340D+00 -0.156976D+00  0.425758D+00
      2  -0.258984D+00  0.352318D+00 -0.347142D+00 -0.148348D+00  0.360103D+00
      3   0.187304D+00 -0.161165D+00  0.399273D+00 -0.136627D+00  0.191983D+00
                66            67            68            69 
      1   0.679540D+00  0.168897D+01  0.237961D-01 -0.454774D-01
      2   0.387996D+00  0.296251D+00  0.127593D+00 -0.199983D-02
      3   0.484905D+00  0.473688D-01  0.858506D-02  0.895408D-01
 Hessian after L701:
                1             2             3             4             5 
      1  0.145165D+02
      2  0.700185D-01  0.173267D+02
      3  0.635556D+00 -0.367546D+00  0.175050D+02
      4 -0.385371D+01 -0.635275D+00 -0.178707D+01  0.149700D+02
      5 -0.704439D+00 -0.615194D+01  0.500648D+00  0.663303D+00  0.175591D+02
      6 -0.179601D+01  0.486460D+00 -0.486956D+01  0.456540D+00  0.309920D+00
      7  0.261304D+00 -0.310175D+00 -0.293973D-01 -0.470301D+01 -0.187416D+01
      8 -0.276332D+00  0.151872D+00  0.141485D-01 -0.187764D+01 -0.361250D+01
      9 -0.884563D-01  0.551183D-01 -0.133598D+00  0.496954D+00 -0.662067D+00
     10 -0.375002D+01  0.195676D+01 -0.177431D+00  0.381070D+00  0.229841D+00
     11  0.191006D+01 -0.443110D+01 -0.164961D+00  0.181504D+00 -0.136940D-01
     12 -0.167725D+00 -0.160968D+00 -0.593876D+01 -0.185054D+00 -0.795065D-01
     13  0.203003D+00 -0.116640D+00  0.157380D-01  0.267637D+00 -0.128570D+00
     14 -0.117444D+00 -0.843424D-01 -0.382204D-02 -0.168403D+00 -0.213857D-01
     15 -0.225379D-01  0.610893D-03 -0.150814D+00  0.150385D+00 -0.553970D-01
     16  0.299875D+00 -0.857904D-02  0.824013D-01  0.237101D+00  0.253893D-01
     17  0.150077D+00 -0.884975D-01  0.120075D-01  0.388330D-01 -0.144195D+00
     18  0.785169D-01 -0.769251D-02 -0.113312D+00 -0.752254D-01  0.128779D-02
     19  0.213334D+00  0.369703D-01  0.199554D-02  0.152783D+00  0.103685D+00
     20 -0.178946D-01 -0.126631D+00 -0.653116D-02 -0.679803D-01 -0.113544D+00
     21 -0.395089D-01 -0.286733D-02 -0.122531D+00  0.153092D+00  0.314453D-01
     22  0.995448D-01 -0.213604D+00 -0.561615D-01  0.367690D-01  0.250726D-02
     23 -0.172689D+00 -0.118603D+00 -0.292747D-01  0.556935D-01 -0.287614D-01
     24 -0.439401D-01 -0.207755D-01  0.186704D+00 -0.530120D-02  0.176265D-02
     25  0.299470D-01 -0.108850D+00  0.385498D-01  0.338063D-01  0.361161D-01
     26 -0.786764D-01 -0.259218D-01  0.327252D-01  0.480866D-01 -0.246114D-01
     27  0.209403D-01  0.523624D-01  0.159079D+00 -0.897166D-01 -0.389398D-01
     28 -0.420596D+01  0.176012D+00  0.750340D+00  0.549140D-01  0.270052D-01
     29  0.225041D+00 -0.426936D+01  0.569245D+00  0.299868D-01  0.960283D-01
     30  0.868121D+00  0.518756D+00 -0.224994D+01  0.120996D+00 -0.177380D-03
     31 -0.408282D+01 -0.892282D+00  0.301052D+00 -0.349748D-01  0.969971D-01
     32 -0.935192D+00 -0.237552D+01 -0.662564D+00  0.111299D+00  0.837226D-01
     33  0.295067D+00 -0.616920D+00 -0.423566D+01  0.745297D-01 -0.770724D-01
     34  0.268905D-01  0.460998D-01  0.153100D+00 -0.432953D+01  0.283868D-01
     35  0.321545D-01  0.681502D-01 -0.402111D-01  0.251079D-01 -0.448237D+01
     36  0.130369D+00 -0.695100D-01  0.205640D-01  0.740741D+00  0.452945D-01
     37 -0.511229D-01 -0.240611D-01  0.123689D+00 -0.369633D+01  0.137545D+01
     38 -0.412647D-01  0.169520D+00  0.490767D-01  0.153349D+01 -0.292982D+01
     39  0.154253D+00  0.498022D-01  0.565475D-01 -0.102939D+00 -0.120603D+00
     40  0.845955D-02 -0.605264D-02 -0.169232D-01  0.190636D+00  0.101218D+00
     41 -0.464198D-01 -0.173104D-01  0.126921D-01  0.807459D-01 -0.125387D+00
     42  0.957147D-02  0.102849D-02 -0.198616D-01 -0.694833D-01  0.149139D+00
     43  0.875965D-02 -0.672797D-01 -0.439491D-01  0.770480D-01  0.994502D-01
     44 -0.871224D-01  0.512229D-01  0.641943D-01  0.786675D-01 -0.781166D-01
     45 -0.578917D-01  0.664726D-01 -0.439959D-02  0.242015D-02  0.860113D-02
     46  0.993105D-02 -0.190509D-02 -0.449000D-03  0.960492D-01 -0.665538D-01
     47 -0.117368D-01 -0.551334D-02 -0.819473D-04 -0.868716D-01 -0.169582D-02
     48 -0.876798D-02  0.143687D-02 -0.724185D-02 -0.128773D-01  0.372973D-02
     49  0.198431D-01 -0.113857D-01  0.107552D-01  0.428505D-01 -0.381115D-01
     50 -0.216997D-01 -0.501089D-02 -0.930464D-02 -0.518186D-01 -0.193894D-01
[...]
 0.10813514,0.00045822,-0.00030874,0.00021002,-0.00714873,-0.01205265,0
 .01105253,-0.00001870,0.00029799,-0.00018266,-0.00259247,-0.00025785,-
 0.00306772,0.00015973,-0.00033506,-0.00111956,-0.00031122,0.00025772,-
 0.00016832,0.00008455,0.00004605,0.00000330,0.00010745,0.00018836,-0.0
 0021258,-0.00004678,0.00084942,-0.00035844,0.00307867,-0.00147833,0.00
 118270,0.07312223,0.17245418,-0.00007446,-0.00057284,-0.00007646,0.003
 42322,0.00868050,-0.00962100,0.06708497,0.10952164,-0.15467695,0.00053
 087,-0.00027155,-0.00048642,-0.00745737,-0.01199511,0.01058008,-0.0000
 2656,0.00004386,0.00008299,-0.00212770,-0.00142074,-0.00138485,0.00093
 400,-0.00094664,-0.00060735,-0.00000250,-0.00017170,0.00020334,0.00004
 256,-0.00004773,0.00004116,-0.00003905,0.00010639,0.00002242,-0.000007
 89,-0.00013853,0.00003946,-0.00253205,0.00126829,0.00021531,-0.0697599
 3,-0.11991595,0.16986504,-0.00298239,0.00183745,-0.00343612,-0.0108619
 4,0.01298423,0.01863726,-0.08741298,0.05351849,0.07898608,0.00029201,0
 .00012821,-0.00049323,0.00828303,-0.01449243,-0.02027127,0.00004087,0.
 00006057,0.00004189,0.00147252,0.00069605,-0.00094300,-0.00001922,-0.0
 0016788,-0.00013743,-0.00006888,0.00001123,0.00002909,0.00008293,0.000
 20297,-0.00000826,-0.00061118,0.00109895,0.00093730,0.00014997,-0.0007
 2715,0.00035066,0.00116593,-0.00024591,-0.00023189,-0.00582284,0.00664
 296,0.00957489,0.09854255,0.00292290,-0.00089495,0.00334320,0.00913270
 ,-0.01213979,-0.01511507,0.05294664,-0.11820716,-0.10097487,-0.0000680
 6,-0.00000064,0.00060904,0.00592292,-0.00996263,-0.01398539,0.00000464
 ,-0.00000176,-0.00010382,0.00132842,0.00036455,-0.00060351,-0.00022513
 ,0.00009256,-0.00017254,-0.00007704,0.00011649,-0.00014815,-0.00029495
 ,0.00019488,0.00005137,0.00066115,-0.00085792,-0.00092490,-0.00019357,
 0.00075942,0.00024448,-0.00069424,0.00022707,-0.00027738,-0.00837898,0
 .01180507,0.01598064,-0.05954656,0.12846516,-0.00192196,0.00150298,-0.
 00084535,-0.00649551,0.00850327,0.01015943,0.07911856,-0.10191219,-0.1
 9334945,-0.00028292,0.00015788,-0.00032026,0.00523686,-0.00867286,-0.0
 1398481,0.00003015,-0.00008789,0.00009028,0.00021810,0.00099822,0.0009
 2926,0.00006344,-0.00013148,0.00034905,0.00011917,-0.00013119,0.000124
 54,0.00002594,0.00011320,-0.00001913,-0.00035365,0.00047791,0.00038836
 ,0.00070577,-0.00049132,0.00045512,0.00051778,-0.00035649,0.00077540,0
 .00817498,-0.01060490,-0.01620260,-0.08161216,0.11192748,0.21111211,0.
 00045575,-0.00037611,-0.00021926,-0.00219593,-0.00434541,-0.00160753,-
 0.01810624,0.01596992,-0.00751344,0.00000050,0.00006003,-0.00010547,-0
 .16959952,0.11966276,-0.05598990,-0.00003527,-0.00000285,0.00003925,0.
 01096614,-0.01239593,0.00559344,-0.00000333,0.00005111,-0.00005478,-0.
 00004601,-0.00001213,0.00006772,0.00006873,-0.00017138,0.00009419,-0.0
 0008172,0.00001200,0.00000878,-0.00110690,0.00089203,-0.00075857,0.000
 09023,0.00002717,-0.00013990,0.00021271,0.00013145,0.00076705,0.001119
 02,-0.00004910,-0.00009286,0.18639440,-0.00010037,-0.00040877,-0.00019
 831,-0.00231590,-0.00190037,-0.00158810,-0.01406058,0.01169333,-0.0066
 4093,0.00001799,0.00008704,0.00006890,0.11968603,-0.16034482,0.0540129
 3,0.00003011,-0.00002302,-0.00002948,0.01445247,-0.01690693,0.00735740
 ,0.00002879,-0.00007668,0.00006150,-0.00000381,-0.00001628,0.00002153,
 0.00002247,0.00027762,0.00018510,0.00008139,0.00012973,0.00010526,-0.0
 0073107,0.00046494,-0.00047026,-0.00004873,0.00002072,-0.00018946,0.00
 067250,0.00077707,0.00046687,0.00058848,0.00073482,0.00040592,-0.12553
 564,0.17669675,0.00009769,-0.00052583,-0.00007669,-0.00170296,-0.00310
 812,-0.00064248,-0.01240016,0.01041551,-0.00633943,-0.00003215,0.00009
 900,0.00001046,-0.05495687,0.05335093,-0.07423167,0.00003634,-0.000070
 29,0.00001967,-0.01337211,0.01470260,-0.00698085,0.00000131,-0.0001230
 8,0.00008633,-0.00000963,-0.00001356,0.00004496,0.00018768,0.00030237,
 0.00005799,0.00009509,0.00016795,0.00012415,-0.00085801,0.00061545,-0.
 00036217,0.00033571,-0.00001178,0.00015293,0.00051709,-0.00019614,0.00
 061995,0.00041719,0.00052466,0.00005072,0.06179800,-0.06028124,0.07935
 725,-0.00066939,0.00097062,-0.00019021,0.00112256,0.00017239,0.0001761
 8,0.00986221,-0.01249703,-0.02075854,-0.00044484,0.00022133,-0.0001820
 0,-0.08278476,0.04494097,0.07672429,0.00007689,-0.00018359,-0.00001971
 ,-0.00613045,0.00619779,0.01236119,-0.00051385,-0.00046383,0.00040259,
 0.00004517,-0.00000598,0.00002322,-0.00131072,0.00069805,-0.00054028,0
 .00012172,-0.00009398,0.00008347,0.00013163,-0.00000869,0.00030333,-0.
 00011196,-0.00001735,-0.00007575,0.00102176,0.00060852,0.00075996,-0.0
 0330370,-0.00275541,-0.00301563,-0.00881154,0.01020242,0.01822839,0.09
 158063,0.00043986,0.00009368,-0.00002420,0.00034636,0.00004243,0.00084
 576,0.00554636,-0.00960758,-0.01419167,-0.00030443,0.00021033,-0.00029
 352,0.04498226,-0.10225211,-0.09696948,0.00013009,-0.00020183,0.000159
 70,-0.00958088,0.01049819,0.02085370,-0.00036191,-0.00020200,0.0003204
 1,0.00011404,-0.00007469,0.00008188,0.00096376,-0.00025288,0.00050547,
 -0.00005876,0.00011144,0.00020628,-0.00001415,-0.00000898,-0.00004810,
 0.00000682,0.00004195,0.00002742,0.00030825,0.00011675,0.00028061,-0.0
 0329473,-0.00094849,-0.00132281,0.00773148,-0.01050965,-0.01734633,-0.
 04567497,0.11374432,-0.00033392,-0.00049572,-0.00022295,0.00090278,-0.
 00037958,-0.00016065,0.00500804,-0.00794467,-0.01302811,0.00010284,0.0
 0015533,0.00022989,0.07538421,-0.09552279,-0.21624949,0.00015104,-0.00
 012516,-0.00003022,0.00794488,-0.00795756,-0.01698593,0.00010842,-0.00
 005529,0.00025569,0.00007590,-0.00006142,0.00003583,-0.00022325,0.0008
 7354,0.00003078,0.00028211,0.00027416,0.00018921,-0.00012397,0.0001627
 8,0.00015883,-0.00004436,-0.00002153,0.00004820,-0.00014166,0.00013296
 ,0.00065804,-0.00254999,-0.00139730,-0.00033989,-0.00330130,0.00437616
 ,0.00890539,-0.08467340,0.10478945,0.23658328,0.00076677,0.00071949,0.
 00005705,-0.00007009,-0.00004549,0.00110341,-0.00016973,-0.00050345,0.
 00047615,0.01106939,-0.01835562,-0.01351853,-0.00001174,0.00004561,-0.
 00028246,-0.09335349,0.08413980,0.05753638,0.00006389,0.00003975,0.000
 07594,0.00123453,0.00095738,0.00009575,-0.00297387,-0.00419086,-0.0011
 6157,0.00006452,0.00022208,-0.00008772,-0.00006361,-0.00005229,0.00006
 609,-0.00062770,-0.00053137,0.00065419,-0.00005902,0.00006447,-0.00013
 368,-0.00037847,0.00027400,-0.00039500,0.00006486,0.00004825,-0.000050
 46,0.00000432,-0.00000769,0.00000236,-0.00001125,0.00001117,0.00001883
 ,0.10069944,0.00081303,0.00016306,-0.00063747,-0.00027678,-0.00044166,
 -0.00032744,-0.00007899,0.00026860,0.00009919,0.00966964,-0.01744176,-
 0.01196737,0.00006938,-0.00006834,-0.00021929,0.08310635,-0.19611243,-
 0.10279681,0.00008339,0.00005348,0.00011442,0.00008916,0.00111219,0.00
 028974,-0.00391861,-0.00219624,-0.00063709,-0.00013950,0.00022415,0.00
 018164,-0.00008022,0.00000637,-0.00000148,0.00004041,0.00022929,0.0010
 0196,0.00025660,0.00032713,0.00015378,-0.00034210,0.00016540,-0.000039
 17,0.00004299,0.00005948,-0.00006524,0.00004179,0.00002906,0.00005357,
 0.00003008,0.00004957,0.00006649,-0.08888156,0.21305689,-0.00030183,0.
 00050178,0.00001782,0.00053067,0.00018938,-0.00039130,-0.00004306,-0.0
 0019484,0.00010267,0.00245306,-0.00620292,-0.00512395,-0.00001146,0.00
 010729,-0.00011544,0.05753370,-0.10332026,-0.11853162,0.00004761,0.000
 00181,0.00004658,0.00017380,0.00005090,-0.00002672,-0.00156690,-0.0009
 5756,0.00059505,0.00001115,-0.00015514,0.00000382,0.00001678,0.0000350
 2,0.00002529,0.00102401,0.00091799,-0.00105940,-0.00009131,0.00011884,
 0.00011541,-0.00030175,0.00003836,0.00007824,0.00003613,0.00007587,-0.
 00007161,-0.00005242,-0.00000157,-0.00000154,0.00003144,-0.00001968,0.
 00001498,-0.06326189,0.11506419,0.12773759,0.00082193,0.00136601,-0.00
 070210,-0.00019144,-0.00007369,0.00003796,0.00009238,0.00018424,-0.000
 23282,-0.01830670,0.00892739,-0.01253567,0.00004233,-0.00020368,0.0000
 1465,-0.18632263,0.07861490,-0.10551779,-0.00005771,0.00005949,0.00001
 049,-0.00202939,-0.00406352,-0.00106969,0.00085235,-0.00009357,0.00016
 680,0.00047668,-0.00006431,0.00009895,0.00000542,-0.00072756,0.0007180
 1,-0.00019862,0.00026685,0.00019260,0.00002709,0.00002705,0.00010490,0
 .00014678,-0.00020625,0.00002927,-0.00001686,-0.00005312,0.00008166,0.
 00001431,0.00001854,0.00003186,0.00004840,0.00008975,0.00006289,-0.010
 00410,0.00498658,-0.00736467,0.20374278,0.00006412,0.00175781,-0.00083
 588,0.00015002,0.00005951,0.00025589,-0.00004468,-0.00021031,0.0000102
 9,-0.01887318,0.00991720,-0.01335597,-0.00003367,0.00000908,-0.0001712
 2,0.07896406,-0.09053595,0.05956105,0.00001689,0.00005811,0.00006214,-
 0.00393285,-0.00300512,-0.00114765,0.00085281,0.00094488,0.00008272,0.
 00032401,0.00006574,-0.00019622,0.00064533,-0.00020236,0.00027811,0.00
 003362,-0.00011884,-0.00002380,-0.00001175,0.00004076,-0.00000800,-0.0
 0013772,0.00004084,-0.00010099,0.00005423,0.00000531,0.00000841,-0.000
 02982,0.00000543,0.00002311,0.00003892,0.00007394,0.00005930,0.0165039
 0,-0.00996472,0.01451752,-0.08325796,0.09683060,0.00128377,-0.00001278
 ,0.00069860,0.00000620,-0.00005216,0.00033527,0.00009331,-0.00004146,0
 .00011917,-0.00621226,0.00306801,-0.00516599,0.00005835,0.00001602,-0.
 00011106,-0.10569186,0.05933075,-0.12816659,0.00002327,0.00001504,0.00
 003140,-0.00047702,-0.00154270,0.00050524,0.00006996,0.00008097,-0.000
 26284,0.00011804,-0.00010597,-0.00002457,-0.00029902,-0.00022401,0.000
 49936,-0.00026287,-0.00017621,-0.00004853,-0.00009746,0.00001779,0.000
 00105,-0.00009522,0.00003064,-0.00006451,-0.00000809,0.00001061,0.0000
 1199,-0.00000764,0.,-0.00000060,0.00004292,0.00001544,0.00000670,0.013
 31261,-0.00667633,0.01031370,0.11853473,-0.06439004,0.13572673,-0.0026
 2612,-0.00254474,-0.00273634,0.00027751,-0.00020059,-0.00037864,0.0000
 7186,-0.00004811,0.00004693,-0.00912764,-0.00775821,0.01960160,0.00002
 620,-0.00002263,0.00003963,-0.09123145,-0.04086810,0.09072144,-0.00001
 425,-0.00003790,-0.00000832,0.00013315,0.00080722,0.00016625,0.0011078
 2,0.00042738,-0.00023954,-0.00032102,-0.00081568,0.00112851,0.00013285
 ,-0.00024158,0.00013254,-0.00005229,0.00011600,-0.00009739,-0.00004493
 ,0.,0.00003601,0.00006055,-0.00004001,0.00004166,-0.00005288,0.0000288
 7,0.00000093,-0.00004403,0.00001856,-0.00000036,0.00002741,-0.00004177
 ,0.00002435,-0.00626744,-0.00553026,0.01112937,0.01087941,0.00867332,-
 0.02038220,0.09708875,-0.00361255,-0.00282997,-0.00300645,0.00007361,-
 0.00031628,-0.00082817,-0.00001168,0.00002171,0.00011587,-0.00824257,-
 0.00967976,0.02024779,0.00001229,-0.00001846,-0.00007321,-0.04076078,-
 0.08530004,0.08525731,0.00003907,-0.00000127,0.00005211,0.00020979,0.0
 0079367,-0.00032472,0.00086955,0.00039211,0.00031153,-0.00088770,-0.00
 069242,0.00125465,0.00014272,0.00030162,-0.00033742,0.00038738,0.00023
 750,0.00024803,0.00010863,0.00018759,0.00015091,-0.00006840,0.00004386
 ,-0.00009878,-0.00005051,0.00005626,-0.00001179,-0.00001695,0.00002596
 ,0.00001796,0.00003086,-0.00000052,0.00006544,0.00950100,0.01048239,-0
 .02080363,-0.00573214,-0.00575493,0.01062262,0.04801832,0.09199925,-0.
 00118310,-0.00129606,0.00000181,-0.00025620,-0.00022695,-0.00024104,-0
 .00001094,0.00013692,0.00002255,-0.00466283,-0.00466309,0.00883456,0.0
 0002153,-0.00005411,-0.00002172,0.09139944,0.08623264,-0.23397768,0.00
 001559,0.00001513,0.00003906,0.00055284,0.00049728,0.00030879,0.000346
 61,0.00058487,0.00067753,-0.00014351,-0.00034311,0.00031231,-0.0000046
 2,-0.00023386,0.00007081,0.00014076,0.00024889,0.00033955,0.00012791,0
 .00014516,0.00007950,-0.00003992,0.00004288,-0.00005514,0.00001864,-0.
 00000344,-0.00001749,0.00004767,0.00000601,0.00001723,-0.00000725,0.00
 001067,0.00000434,0.00552397,0.00636793,-0.01370651,0.00729535,0.00536
 077,-0.01440283,-0.09919517,-0.09281823,0.25172440,0.00016129,0.000191
 49,0.00019655,-0.00006012,-0.00002632,0.00021789,0.00050268,0.00117935
 ,0.00075278,-0.00003302,-0.00018391,-0.00005710,-0.00603543,0.00625927
 ,0.01257232,-0.00004776,0.00004261,0.00003838,-0.07512910,0.03805975,0
 .07094699,-0.00001221,0.00006417,-0.00005344,-0.00000062,0.00001417,-0
 .00003228,0.00011938,-0.00019591,-0.00013712,-0.00004173,-0.00005319,-
 0.00004481,0.00001619,0.00000795,-0.00011517,-0.00012857,0.00031290,-0
 .00015890,0.00023034,-0.00000718,-0.00026322,-0.00004139,-0.00050862,-
 0.00034535,0.00041932,-0.00015531,-0.00058995,-0.00053769,-0.00249774,
 0.00184531,-0.00000270,-0.00002910,-0.00000442,-0.00001926,-0.00001048
 ,-0.00000663,-0.00000862,-0.00002385,-0.00000983,0.07807176,-0.0000437
 7,-0.00021012,0.00002925,-0.00000088,0.00005007,-0.00028690,0.00043323
 ,0.00177507,0.00064799,0.00005775,0.00001878,0.00015952,-0.00869504,0.
 01045354,0.02031423,-0.00001910,0.00005367,-0.00006247,0.03823899,-0.0
 9800575,-0.09792654,-0.00000129,0.00006892,-0.00007169,-0.00003725,0.0
 0000455,-0.00000354,-0.00006218,0.00004812,0.00015351,0.00004254,0.000
 00451,-0.00003528,-0.00000207,0.00004005,0.00001033,0.00005468,-0.0001
 1378,-0.00000014,0.00036791,0.00007578,-0.00000462,0.00042623,-0.00020
 206,-0.00055175,0.00064661,0.00092566,-0.00056738,-0.00262488,-0.00277
 797,0.00317776,-0.00000540,-0.00000757,-0.00000222,-0.00001550,-0.0000
 2343,-0.00000538,0.00001674,0.00001380,-0.00000067,-0.03976705,0.10486
 997,-0.00011848,-0.00005363,0.00005005,0.00024366,0.00009344,0.0002134
 2,-0.00118414,-0.00076923,0.00100061,-0.00011066,0.00009169,-0.0000454
 0,0.00727276,-0.00851074,-0.01797392,0.00002809,-0.00004562,0.00002588
 ,0.07110855,-0.09754300,-0.23188931,-0.00003068,-0.00006155,0.00007233
 ,0.00000961,-0.00000937,0.00001521,-0.00001748,0.00008054,-0.00004438,
 0.00004008,0.00002142,0.00003766,0.00008837,-0.00002962,0.00001266,0.0
 0030839,0.00000972,-0.00012365,-0.00030063,0.00012654,0.00021178,0.000
 61641,0.00061975,0.00054588,-0.00053500,-0.00005855,0.00018931,0.00125
 249,0.00357387,-0.00121364,-0.00000253,0.00000561,0.00000178,0.0000273
 7,0.00001477,0.00001230,0.00000342,0.00000420,-0.00000743,-0.08103780,
 0.10484586,0.25335763,-0.00028180,-0.00033804,-0.00021391,-0.00089784,
 -0.00018017,-0.00077936,0.00064555,0.00032476,-0.00048160,0.00008939,-
 0.00001020,0.00015021,0.01140259,-0.01167976,0.00349070,0.00000258,0.0
 0002988,-0.00004798,-0.15578548,0.12513326,-0.04210486,-0.00002657,0.0
 0001934,0.00000748,0.00002526,-0.00000652,-0.00001819,0.00006783,0.000
 22718,0.00038963,0.00003139,-0.00000086,-0.00001570,0.00009098,-0.0000
 0540,0.00015195,-0.00149076,-0.00097683,-0.00031526,0.00008106,0.00027
 026,0.00002748,-0.00007396,-0.00006400,0.00000006,-0.00064334,-0.00291
 952,0.00209099,0.00074302,0.00075040,-0.00061856,0.00000266,-0.0000017
 8,0.00000085,0.00000212,-0.00000315,0.00000257,0.00001509,0.00002077,-
 0.00000039,-0.00705914,0.00610243,-0.00273913,0.16911826,-0.00011413,0
 .00028012,-0.00004716,-0.00007367,-0.00043036,0.00045308,0.00102879,0.
 00014905,0.00009663,0.00017254,-0.00006511,0.00014333,0.01434613,-0.01
 650649,0.00546537,0.00000774,0.00004683,-0.00013921,0.12398136,-0.1889
 2844,0.04767356,-0.00001135,0.00004693,-0.00007290,0.00000816,0.000026
 24,-0.00007001,-0.00025535,0.00016564,0.00019763,0.00006634,0.00005758
 ,0.00002767,0.00013616,0.00031038,-0.00028057,-0.00055562,0.00014916,-
 0.00088736,-0.00021934,0.00022143,-0.00008875,-0.00006587,0.00000666,0
 .00004549,-0.00284329,-0.00201833,0.00267527,-0.00011339,0.00108175,-0
 .00032768,0.00001002,-0.00002313,0.00001984,-0.00002724,-0.00000726,0.
 00001106,0.00004517,0.00002718,-0.00002030,0.00863150,-0.01054275,0.00
 372657,-0.13530787,0.20492513,0.00028977,0.00043495,0.00020322,-0.0002
 0360,-0.00009995,0.00042514,-0.00014183,-0.00081131,0.00015298,-0.0001
 2573,-0.00012336,-0.00021978,-0.01377532,0.01537861,-0.00639238,-0.000
 02016,-0.00002037,0.00011453,-0.04204985,0.04756313,-0.06328331,-0.000
 00485,0.00000985,0.00003295,0.00003505,0.00000373,-0.00001965,0.000322
 69,-0.00019854,-0.00036825,-0.00010378,-0.00009549,-0.00003624,0.00010
 158,-0.00014885,-0.00001786,-0.00070882,-0.00051535,-0.00011619,-0.000
 05100,0.00000115,-0.00001000,0.00005008,0.00000034,0.00003535,0.002488
 01,0.00309693,-0.00191336,-0.00065515,-0.00059122,0.00049530,-0.000009
 51,-0.00002169,-0.00001065,0.00000560,0.00000503,-0.00000334,-0.000031
 80,-0.00003766,-0.00000484,0.01815319,-0.02007442,0.00794678,0.0459404
 8,-0.05545968,0.06745004,0.00004387,-0.00011603,-0.00005266,0.00041010
 ,-0.00004078,-0.00004398,-0.00006641,-0.00129892,0.00280535,-0.0000159
 1,0.00000787,-0.00004489,-0.01046038,-0.00437842,-0.00686088,-0.000001
 84,-0.00003852,0.00003707,-0.21229209,-0.08672427,-0.09874782,0.000013
 72,-0.00004206,-0.00002713,-0.00004773,0.00001335,0.00004110,0.0000274
 7,-0.00006109,-0.00009237,-0.00005145,0.00002573,0.00001906,-0.0000825
 2,-0.00007796,0.00007299,0.00003818,-0.00002471,0.00029356,-0.00056032
 ,-0.00052794,-0.00053020,0.00005449,-0.00008772,-0.00012289,0.00092839
 ,0.00005888,0.00008251,-0.00015126,0.00040873,0.00009880,0.00002282,0.
 00004951,0.00001115,-0.00000528,0.00001403,-0.00000546,-0.00002991,-0.
 00000687,0.00002346,0.00963640,0.00488731,0.00507732,-0.01605889,-0.00
 884681,-0.00950505,0.22864853,-0.00007148,0.00001134,-0.00009057,0.000
 50671,-0.00026822,0.00065495,-0.00135395,-0.00255803,0.00450959,0.0000
 4836,-0.00001267,0.00005616,-0.01703804,-0.01011772,-0.01188202,0.0000
 0559,-0.00000417,-0.00006310,-0.08614198,-0.09200713,-0.05238557,-0.00
 000866,-0.00000372,-0.00007119,-0.00002512,0.00002488,-0.00000575,-0.0
 0000569,0.00004753,0.00011580,-0.00003757,0.00005706,0.00003389,0.0000
 0658,0.00017298,-0.00018716,0.00019424,0.00020931,-0.00041138,-0.00138
 700,-0.00070828,-0.00053568,0.00029799,0.00032769,0.00019915,0.0005522
 8,0.00033674,-0.00070462,0.00032714,0.00077234,0.00015534,0.00003681,0
 .00002880,0.00001900,-0.00002224,0.00001369,0.00000807,-0.00000198,0.0
 0001076,0.00001066,-0.01130450,-0.00651908,-0.00613267,0.01861582,0.01
 102779,0.01170417,0.09680670,0.09915811,0.00000326,-0.00008813,0.00006
 090,-0.00018612,0.00029205,-0.00042170,0.00127901,0.00247353,-0.002829
 82,-0.00002859,0.00005892,0.00001461,0.01771838,0.00921621,0.01060547,
 0.00001025,0.00000900,0.00002955,-0.09944226,-0.05316087,-0.10621018,0
 .00000193,0.00001433,0.00002123,-0.00000516,-0.00001525,0.00002201,-0.
 00001143,-0.00001802,-0.00002572,0.00000477,-0.00001585,-0.00001971,-0
 .00002353,-0.00012539,0.00013170,0.00004367,-0.00027003,0.00027727,0.0
 0076411,0.00079201,0.00056746,-0.00000417,0.00031894,0.00012310,-0.000
 52605,-0.00070660,0.00091242,-0.00027154,-0.00086363,0.00061440,-0.000
 01938,-0.00000911,-0.00001420,0.00000963,-0.00000935,-0.00001066,-0.00
 000286,-0.00000836,0.00000222,-0.02186740,-0.00974547,-0.01239555,-0.0
 0491748,-0.00314188,-0.00446044,0.10747096,0.05500295,0.11300565\\-0.0
 0000097,-0.00000187,0.00000056,-0.00000017,-0.00000022,-0.00000006,0.0
 0000053,0.00000114,-0.00000055,-0.00000053,-0.00000184,0.00000020,0.00
 000110,0.00000270,0.00000048,0.00000139,-0.00000429,-0.00000046,-0.000
 00133,0.00000391,-0.00000016,0.00000038,-0.00000166,-0.00000024,-0.000
 00104,-0.00000353,0.00000054,-0.00000234,-0.00000033,0.00000082,-0.000
 00230,-0.00000253,0.00000067,0.00000102,-0.00000088,-0.00000017,-0.000
 00090,0.00000092,0.00000033,0.00000184,0.00000046,-0.00000128,0.000002
 23,0.00000233,-0.00000047,0.00000134,0.00000377,-0.00000053,-0.0000004
 3,0.00000184,0.,0.00000247,-0.00000324,-0.00000064,0.00000089,-0.00000
 477,-0.00000005,0.00000177,-0.00000524,-0.00000041,-0.00000054,0.00000
 511,0.00000029,-0.00000248,0.00000310,0.00000073,-0.00000193,0.0000051
 0,0.00000038\\\@


 ... THE UNIVERSE IS NOT ONLY QUEERER THAN WE SUPPOSE,
 BUT QUEERER THAN WE CAN SUPPOSE ... 

                                   -- J. B. S. HALDANE
 Job cpu time:       0 days  7 hours 54 minutes 46.4 seconds.
 Elapsed time:       0 days  3 hours 57 minutes 30.8 seconds.
 File lengths (MBytes):  RWF=   1488 Int=      0 D2E=      0 Chk=     32 Scr=     32
 Normal termination of Gaussian 16 at Sat Sep 28 07:57:05 2019.
