 Entering Gaussian System, Link 0=g16
 Input=loose/species/CCCCCCC/conformers/CCCCCCC_809.com
 Output=loose/species/CCCCCCC/conformers/CCCCCCC_809.log
 Initial command:
 /shared/centos7/gaussian/g16/l1.exe "/scratch/harms.n/gauss_scrdir/Gau-44962.inp" -scrdir="/scratch/harms.n/gauss_scrdir/"
 Entering Link 1 = /shared/centos7/gaussian/g16/l1.exe PID=     44963.
  
 Copyright (c) 1988,1990,1992,1993,1995,1998,2003,2009,2016,
            Gaussian, Inc.  All Rights Reserved.
  
 This is part of the Gaussian(R) 16 program.  It is based on
 the Gaussian(R) 09 system (copyright 2009, Gaussian, Inc.),
 the Gaussian(R) 03 system (copyright 2003, Gaussian, Inc.),
 the Gaussian(R) 98 system (copyright 1998, Gaussian, Inc.),
 the Gaussian(R) 94 system (copyright 1995, Gaussian, Inc.),
 the Gaussian 92(TM) system (copyright 1992, Gaussian, Inc.),
 the Gaussian 90(TM) system (copyright 1990, Gaussian, Inc.),
 the Gaussian 88(TM) system (copyright 1988, Gaussian, Inc.),
 the Gaussian 86(TM) system (copyright 1986, Carnegie Mellon
 University), and the Gaussian 82(TM) system (copyright 1983,
 Carnegie Mellon University). Gaussian is a federally registered
 trademark of Gaussian, Inc.
  
 This software contains proprietary and confidential information,
 including trade secrets, belonging to Gaussian, Inc.
  
 This software is provided under written license and may be
 used, copied, transmitted, or stored only in accord with that
 written license.
  
 The following legend is applicable only to US Government
 contracts under FAR:
  
                    RESTRICTED RIGHTS LEGEND
  
 Use, reproduction and disclosure by the US Government is
 subject to restrictions as set forth in subparagraphs (a)
 and (c) of the Commercial Computer Software - Restricted
 Rights clause in FAR 52.227-19.
  
 Gaussian, Inc.
 340 Quinnipiac St., Bldg. 40, Wallingford CT 06492
  
  
 ---------------------------------------------------------------
 Warning -- This program may not be used in any manner that
 competes with the business of Gaussian, Inc. or will provide
 assistance to any competitor of Gaussian, Inc.  The licensee
 of this program is prohibited from giving any competitor of
 Gaussian, Inc. access to this program.  By using this program,
 the user acknowledges that Gaussian, Inc. is engaged in the
 business of creating and licensing software in the field of
 computational chemistry and represents and warrants to the
 licensee that it is not a competitor of Gaussian, Inc. and that
 it will not use this program in any manner prohibited above.
 ---------------------------------------------------------------
  

 Cite this work as:
 Gaussian 16, Revision A.03,
 M. J. Frisch, G. W. Trucks, H. B. Schlegel, G. E. Scuseria, 
 M. A. Robb, J. R. Cheeseman, G. Scalmani, V. Barone, 
 G. A. Petersson, H. Nakatsuji, X. Li, M. Caricato, A. V. Marenich, 
 J. Bloino, B. G. Janesko, R. Gomperts, B. Mennucci, H. P. Hratchian, 
 J. V. Ortiz, A. F. Izmaylov, J. L. Sonnenberg, D. Williams-Young, 
 F. Ding, F. Lipparini, F. Egidi, J. Goings, B. Peng, A. Petrone, 
 T. Henderson, D. Ranasinghe, V. G. Zakrzewski, J. Gao, N. Rega, 
 G. Zheng, W. Liang, M. Hada, M. Ehara, K. Toyota, R. Fukuda, 
 J. Hasegawa, M. Ishida, T. Nakajima, Y. Honda, O. Kitao, H. Nakai, 
 T. Vreven, K. Throssell, J. A. Montgomery, Jr., J. E. Peralta, 
 F. Ogliaro, M. J. Bearpark, J. J. Heyd, E. N. Brothers, K. N. Kudin, 
 V. N. Staroverov, T. A. Keith, R. Kobayashi, J. Normand, 
 K. Raghavachari, A. P. Rendell, J. C. Burant, S. S. Iyengar, 
 J. Tomasi, M. Cossi, J. M. Millam, M. Klene, C. Adamo, R. Cammi, 
 J. W. Ochterski, R. L. Martin, K. Morokuma, O. Farkas, 
 J. B. Foresman, and D. J. Fox, Gaussian, Inc., Wallingford CT, 2016.
 
 ******************************************
 Gaussian 16:  EM64L-G16RevA.03 25-Dec-2016
                29-Sep-2019 
 ******************************************
 %nprocshared=20
 Will use up to   20 processors via shared memory.
 %mem=5GB
 ----------------------------------------------------------------------
 #p m062x/cc-pVTZ opt=(calcfc,maxcycles=900,Tight) freq IOP(7/33=1,2/16
 =3) scf=(maxcycle=900)
 ----------------------------------------------------------------------
 1/6=900,7=10,10=4,18=20,19=15,26=3,38=1/1,3;
 2/9=110,12=2,16=3,17=6,18=5,40=1/2;
 3/5=16,6=1,11=2,25=1,30=1,71=2,74=-55,140=1/1,2,3;
 4//1;
 5/5=2,7=900,38=5/2;
 8/6=4,10=90,11=11/1;
 11/6=1,8=1,9=11,15=111,16=1/1,2,10;
 10/6=1,13=1/2;
 6/7=2,8=2,9=2,10=2,28=1/1;
 7/10=1,18=20,25=1,33=1/1,2,3,16;
 1/6=900,7=10,10=4,18=20,19=15,26=3/3(2);
 2/9=110,16=3/2;
 99//99;
 2/9=110,16=3/2;
 3/5=16,6=1,11=2,25=1,30=1,71=1,74=-55/1,2,3;
 4/5=5,16=3,69=1/1;
 5/5=2,7=900,38=5/2;
 7/33=1/1,2,3,16;
 1/6=900,7=10,18=20,19=15,26=3/3(-5);
 2/9=110,16=3/2;
 6/7=2,8=2,9=2,10=2,19=2,28=1/1;
 99/9=1/99;
 Leave Link    1 at Sun Sep 29 22:19:31 2019, MaxMem=   671088640 cpu:               4.5 elap:               2.3
 (Enter /shared/centos7/gaussian/g16/l101.exe)
 ------------------------------
 Gaussian input prepared by ASE
 ------------------------------
 Symbolic Z-matrix:
 Charge =  0 Multiplicity = 1
 C                     1.2909   -1.2105    0.35377 
 C                     0.14861  -0.42033   0.89486 
 C                     0.45693   0.91681   1.52095 
 C                     2.11801  -0.5619   -0.70464 
 C                     1.91676   1.26245   1.69745 
 C                     1.6009    0.69709  -1.26779 
 C                     2.68988   0.35829   2.62195 
 H                     2.30934  -1.29493  -1.53843 
 H                     3.12671  -0.36646  -0.26865 
 H                     0.86955  -2.16143  -0.03582 
 H                     1.95278  -1.49343   1.19787 
 H                    -0.37735  -1.05224   1.62749 
 H                    -0.57935  -0.25857   0.07197 
 H                    -0.06926   0.98566   2.48816 
 H                     0.01827   1.71225   0.88378 
 H                     2.40485   1.238     0.68814 
 H                     1.9934    2.31092   2.03223 
 H                     0.65702   1.0176   -0.78796 
 H                     2.3529    1.52546  -1.10703 
 H                     1.4088    0.64501  -2.36044 
 H                     2.19936  -0.60989   2.72965 
 H                     2.83166   0.82185   3.63727 
 H                     3.7247    0.16971   2.21516 
 
 ITRead=  0  0  0  0  0  0  0  0  0  0  0  0  0  0  0  0  0  0  0  0
 ITRead=  0  0  0
 MicOpt= -1 -1 -1 -1 -1 -1 -1 -1 -1 -1 -1 -1 -1 -1 -1 -1 -1 -1 -1 -1
 MicOpt= -1 -1 -1
 NAtoms=     23 NQM=       23 NQMF=       0 NMMI=      0 NMMIF=      0
                NMic=       0 NMicF=      0.
                    Isotopes and Nuclear Properties:
 (Nuclear quadrupole moments (NQMom) in fm**2, nuclear magnetic moments (NMagM)
  in nuclear magnetons)

  Atom         1           2           3           4           5           6           7           8           9          10
 IAtWgt=          12          12          12          12          12          12          12           1           1           1
 AtmWgt=  12.0000000  12.0000000  12.0000000  12.0000000  12.0000000  12.0000000  12.0000000   1.0078250   1.0078250   1.0078250
 NucSpn=           0           0           0           0           0           0           0           1           1           1
 AtZEff=  -0.0000000  -0.0000000  -0.0000000  -0.0000000  -0.0000000  -0.0000000  -0.0000000  -0.0000000  -0.0000000  -0.0000000
 NQMom=    0.0000000   0.0000000   0.0000000   0.0000000   0.0000000   0.0000000   0.0000000   0.0000000   0.0000000   0.0000000
 NMagM=    0.0000000   0.0000000   0.0000000   0.0000000   0.0000000   0.0000000   0.0000000   2.7928460   2.7928460   2.7928460
 AtZNuc=   6.0000000   6.0000000   6.0000000   6.0000000   6.0000000   6.0000000   6.0000000   1.0000000   1.0000000   1.0000000

  Atom        11          12          13          14          15          16          17          18          19          20
 IAtWgt=           1           1           1           1           1           1           1           1           1           1
 AtmWgt=   1.0078250   1.0078250   1.0078250   1.0078250   1.0078250   1.0078250   1.0078250   1.0078250   1.0078250   1.0078250
 NucSpn=           1           1           1           1           1           1           1           1           1           1
 AtZEff=  -0.0000000  -0.0000000  -0.0000000  -0.0000000  -0.0000000  -0.0000000  -0.0000000  -0.0000000  -0.0000000  -0.0000000
 NQMom=    0.0000000   0.0000000   0.0000000   0.0000000   0.0000000   0.0000000   0.0000000   0.0000000   0.0000000   0.0000000
 NMagM=    2.7928460   2.7928460   2.7928460   2.7928460   2.7928460   2.7928460   2.7928460   2.7928460   2.7928460   2.7928460
 AtZNuc=   1.0000000   1.0000000   1.0000000   1.0000000   1.0000000   1.0000000   1.0000000   1.0000000   1.0000000   1.0000000

  Atom        21          22          23
 IAtWgt=           1           1           1
 AtmWgt=   1.0078250   1.0078250   1.0078250
 NucSpn=           1           1           1
 AtZEff=  -0.0000000  -0.0000000  -0.0000000
 NQMom=    0.0000000   0.0000000   0.0000000
 NMagM=    2.7928460   2.7928460   2.7928460
 AtZNuc=   1.0000000   1.0000000   1.0000000
 Leave Link  101 at Sun Sep 29 22:19:32 2019, MaxMem=   671088640 cpu:               2.2 elap:               1.1
 (Enter /shared/centos7/gaussian/g16/l103.exe)

 GradGradGradGradGradGradGradGradGradGradGradGradGradGradGradGradGradGrad
 Berny optimization.
 Initialization pass.
                           ----------------------------
                           !    Initial Parameters    !
                           ! (Angstroms and Degrees)  !
 --------------------------                            --------------------------
 ! Name  Definition              Value          Derivative Info.                !
 --------------------------------------------------------------------------------
 ! R1    R(1,2)                  1.4906         calculate D2E/DX2 analytically  !
 ! R2    R(1,4)                  1.4917         calculate D2E/DX2 analytically  !
 ! R3    R(1,10)                 1.1107         calculate D2E/DX2 analytically  !
 ! R4    R(1,11)                 1.1093         calculate D2E/DX2 analytically  !
 ! R5    R(2,3)                  1.5083         calculate D2E/DX2 analytically  !
 ! R6    R(2,12)                 1.1012         calculate D2E/DX2 analytically  !
 ! R7    R(2,13)                 1.1105         calculate D2E/DX2 analytically  !
 ! R8    R(3,5)                  1.5105         calculate D2E/DX2 analytically  !
 ! R9    R(3,14)                 1.1032         calculate D2E/DX2 analytically  !
 ! R10   R(3,15)                 1.1096         calculate D2E/DX2 analytically  !
 ! R11   R(4,6)                  1.473          calculate D2E/DX2 analytically  !
 ! R12   R(4,8)                  1.1266         calculate D2E/DX2 analytically  !
 ! R13   R(4,9)                  1.1161         calculate D2E/DX2 analytically  !
 ! R14   R(5,7)                  1.5066         calculate D2E/DX2 analytically  !
 ! R15   R(5,16)                 1.1214         calculate D2E/DX2 analytically  !
 ! R16   R(5,17)                 1.1033         calculate D2E/DX2 analytically  !
 ! R17   R(6,18)                 1.1063         calculate D2E/DX2 analytically  !
 ! R18   R(6,19)                 1.1303         calculate D2E/DX2 analytically  !
 ! R19   R(6,20)                 1.1106         calculate D2E/DX2 analytically  !
 ! R20   R(7,21)                 1.0907         calculate D2E/DX2 analytically  !
 ! R21   R(7,22)                 1.1251         calculate D2E/DX2 analytically  !
 ! R22   R(7,23)                 1.1278         calculate D2E/DX2 analytically  !
 ! A1    A(2,1,4)              116.8714         calculate D2E/DX2 analytically  !
 ! A2    A(2,1,10)             106.8859         calculate D2E/DX2 analytically  !
 ! A3    A(2,1,11)             108.4334         calculate D2E/DX2 analytically  !
 ! A4    A(4,1,10)             109.4965         calculate D2E/DX2 analytically  !
 ! A5    A(4,1,11)             108.661          calculate D2E/DX2 analytically  !
 ! A6    A(10,1,11)            105.955          calculate D2E/DX2 analytically  !
 ! A7    A(1,2,3)              117.6434         calculate D2E/DX2 analytically  !
 ! A8    A(1,2,12)             107.6569         calculate D2E/DX2 analytically  !
 ! A9    A(1,2,13)             108.0934         calculate D2E/DX2 analytically  !
 ! A10   A(3,2,12)             109.2803         calculate D2E/DX2 analytically  !
 ! A11   A(3,2,13)             108.2066         calculate D2E/DX2 analytically  !
 ! A12   A(12,2,13)            105.2762         calculate D2E/DX2 analytically  !
 ! A13   A(2,3,5)              116.6736         calculate D2E/DX2 analytically  !
 ! A14   A(2,3,14)             108.7684         calculate D2E/DX2 analytically  !
 ! A15   A(2,3,15)             108.4428         calculate D2E/DX2 analytically  !
 ! A16   A(5,3,14)             110.1347         calculate D2E/DX2 analytically  !
 ! A17   A(5,3,15)             106.5671         calculate D2E/DX2 analytically  !
 ! A18   A(14,3,15)            105.6725         calculate D2E/DX2 analytically  !
 ! A19   A(1,4,6)              116.633          calculate D2E/DX2 analytically  !
 ! A20   A(1,4,8)              109.6578         calculate D2E/DX2 analytically  !
 ! A21   A(1,4,9)              107.4628         calculate D2E/DX2 analytically  !
 ! A22   A(6,4,8)              109.4395         calculate D2E/DX2 analytically  !
 ! A23   A(6,4,9)              108.4788         calculate D2E/DX2 analytically  !
 ! A24   A(8,4,9)              104.4516         calculate D2E/DX2 analytically  !
 ! A25   A(3,5,7)              115.4868         calculate D2E/DX2 analytically  !
 ! A26   A(3,5,16)             108.0885         calculate D2E/DX2 analytically  !
 ! A27   A(3,5,17)             108.6655         calculate D2E/DX2 analytically  !
 ! A28   A(7,5,16)             108.4127         calculate D2E/DX2 analytically  !
 ! A29   A(7,5,17)             110.3931         calculate D2E/DX2 analytically  !
 ! A30   A(16,5,17)            105.2831         calculate D2E/DX2 analytically  !
 ! A31   A(4,6,18)             112.4161         calculate D2E/DX2 analytically  !
 ! A32   A(4,6,19)             109.7843         calculate D2E/DX2 analytically  !
 ! A33   A(4,6,20)             113.3773         calculate D2E/DX2 analytically  !
 ! A34   A(18,6,19)            107.0749         calculate D2E/DX2 analytically  !
 ! A35   A(18,6,20)            107.0211         calculate D2E/DX2 analytically  !
 ! A36   A(19,6,20)            106.8202         calculate D2E/DX2 analytically  !
 ! A37   A(5,7,21)             111.2553         calculate D2E/DX2 analytically  !
 ! A38   A(5,7,22)             111.7868         calculate D2E/DX2 analytically  !
 ! A39   A(5,7,23)             110.4787         calculate D2E/DX2 analytically  !
 ! A40   A(21,7,22)            109.4696         calculate D2E/DX2 analytically  !
 ! A41   A(21,7,23)            107.4488         calculate D2E/DX2 analytically  !
 ! A42   A(22,7,23)            106.1869         calculate D2E/DX2 analytically  !
 ! D1    D(4,1,2,3)            -58.4046         calculate D2E/DX2 analytically  !
 ! D2    D(4,1,2,12)           177.6859         calculate D2E/DX2 analytically  !
 ! D3    D(4,1,2,13)            64.4272         calculate D2E/DX2 analytically  !
 ! D4    D(10,1,2,3)           178.5831         calculate D2E/DX2 analytically  !
 ! D5    D(10,1,2,12)           54.6736         calculate D2E/DX2 analytically  !
 ! D6    D(10,1,2,13)          -58.5851         calculate D2E/DX2 analytically  !
 ! D7    D(11,1,2,3)            64.7558         calculate D2E/DX2 analytically  !
 ! D8    D(11,1,2,12)          -59.1537         calculate D2E/DX2 analytically  !
 ! D9    D(11,1,2,13)         -172.4123         calculate D2E/DX2 analytically  !
 ! D10   D(2,1,4,6)             -9.7124         calculate D2E/DX2 analytically  !
 ! D11   D(2,1,4,8)           -134.7769         calculate D2E/DX2 analytically  !
 ! D12   D(2,1,4,9)            112.257          calculate D2E/DX2 analytically  !
 ! D13   D(10,1,4,6)           111.9445         calculate D2E/DX2 analytically  !
 ! D14   D(10,1,4,8)           -13.12           calculate D2E/DX2 analytically  !
 ! D15   D(10,1,4,9)          -126.0861         calculate D2E/DX2 analytically  !
 ! D16   D(11,1,4,6)          -132.7557         calculate D2E/DX2 analytically  !
 ! D17   D(11,1,4,8)           102.1798         calculate D2E/DX2 analytically  !
 ! D18   D(11,1,4,9)           -10.7863         calculate D2E/DX2 analytically  !
 ! D19   D(1,2,3,5)             -7.3034         calculate D2E/DX2 analytically  !
 ! D20   D(1,2,3,14)          -132.5833         calculate D2E/DX2 analytically  !
 ! D21   D(1,2,3,15)           112.9554         calculate D2E/DX2 analytically  !
 ! D22   D(12,2,3,5)           115.7868         calculate D2E/DX2 analytically  !
 ! D23   D(12,2,3,14)           -9.493          calculate D2E/DX2 analytically  !
 ! D24   D(12,2,3,15)         -123.9544         calculate D2E/DX2 analytically  !
 ! D25   D(13,2,3,5)          -130.0777         calculate D2E/DX2 analytically  !
 ! D26   D(13,2,3,14)          104.6424         calculate D2E/DX2 analytically  !
 ! D27   D(13,2,3,15)           -9.8189         calculate D2E/DX2 analytically  !
 ! D28   D(2,3,5,7)            -63.0495         calculate D2E/DX2 analytically  !
 ! D29   D(2,3,5,16)            58.5382         calculate D2E/DX2 analytically  !
 ! D30   D(2,3,5,17)           172.3056         calculate D2E/DX2 analytically  !
 ! D31   D(14,3,5,7)            61.5395         calculate D2E/DX2 analytically  !
 ! D32   D(14,3,5,16)         -176.8727         calculate D2E/DX2 analytically  !
 ! D33   D(14,3,5,17)          -63.1053         calculate D2E/DX2 analytically  !
 ! D34   D(15,3,5,7)           175.6975         calculate D2E/DX2 analytically  !
 ! D35   D(15,3,5,16)          -62.7148         calculate D2E/DX2 analytically  !
 ! D36   D(15,3,5,17)           51.0526         calculate D2E/DX2 analytically  !
 ! D37   D(1,4,6,18)             2.0637         calculate D2E/DX2 analytically  !
 ! D38   D(1,4,6,19)           121.1369         calculate D2E/DX2 analytically  !
 ! D39   D(1,4,6,20)          -119.4887         calculate D2E/DX2 analytically  !
 ! D40   D(8,4,6,18)           127.2384         calculate D2E/DX2 analytically  !
 ! D41   D(8,4,6,19)          -113.6884         calculate D2E/DX2 analytically  !
 ! D42   D(8,4,6,20)             5.686          calculate D2E/DX2 analytically  !
 ! D43   D(9,4,6,18)          -119.3721         calculate D2E/DX2 analytically  !
 ! D44   D(9,4,6,19)            -0.2989         calculate D2E/DX2 analytically  !
 ! D45   D(9,4,6,20)           119.0755         calculate D2E/DX2 analytically  !
 ! D46   D(3,5,7,21)            21.5966         calculate D2E/DX2 analytically  !
 ! D47   D(3,5,7,22)          -101.1296         calculate D2E/DX2 analytically  !
 ! D48   D(3,5,7,23)           140.8528         calculate D2E/DX2 analytically  !
 ! D49   D(16,5,7,21)          -99.8167         calculate D2E/DX2 analytically  !
 ! D50   D(16,5,7,22)          137.4571         calculate D2E/DX2 analytically  !
 ! D51   D(16,5,7,23)           19.4396         calculate D2E/DX2 analytically  !
 ! D52   D(17,5,7,21)          145.3395         calculate D2E/DX2 analytically  !
 ! D53   D(17,5,7,22)           22.6133         calculate D2E/DX2 analytically  !
 ! D54   D(17,5,7,23)          -95.4042         calculate D2E/DX2 analytically  !
 --------------------------------------------------------------------------------
 Trust Radius=3.00D-01 FncErr=1.00D-07 GrdErr=1.00D-06 EigMax=2.50D+02 EigMin=1.00D-04
 Number of steps in this run=    138 maximum allowed number of steps=    138.
 GradGradGradGradGradGradGradGradGradGradGradGradGradGradGradGradGradGrad

 Leave Link  103 at Sun Sep 29 22:19:33 2019, MaxMem=   671088640 cpu:               1.5 elap:               0.8
 (Enter /shared/centos7/gaussian/g16/l202.exe)
                          Input orientation:                          
 ---------------------------------------------------------------------
 Center     Atomic      Atomic             Coordinates (Angstroms)
 Number     Number       Type             X           Y           Z
 ---------------------------------------------------------------------
      1          6           0        1.290898   -1.210499    0.353769
      2          6           0        0.148614   -0.420331    0.894864
      3          6           0        0.456935    0.916808    1.520948
      4          6           0        2.118010   -0.561900   -0.704641
      5          6           0        1.916758    1.262446    1.697447
      6          6           0        1.600903    0.697087   -1.267793
      7          6           0        2.689880    0.358289    2.621953
      8          1           0        2.309340   -1.294925   -1.538429
      9          1           0        3.126706   -0.366458   -0.268648
     10          1           0        0.869548   -2.161426   -0.035818
     11          1           0        1.952776   -1.493432    1.197872
     12          1           0       -0.377347   -1.052245    1.627487
     13          1           0       -0.579354   -0.258566    0.071972
     14          1           0       -0.069263    0.985662    2.488160
     15          1           0        0.018267    1.712252    0.883780
     16          1           0        2.404846    1.237997    0.688144
     17          1           0        1.993404    2.310925    2.032227
     18          1           0        0.657024    1.017597   -0.787955
     19          1           0        2.352896    1.525459   -1.107035
     20          1           0        1.408801    0.645010   -2.360440
     21          1           0        2.199358   -0.609888    2.729650
     22          1           0        2.831662    0.821851    3.637270
     23          1           0        3.724695    0.169712    2.215160
 ---------------------------------------------------------------------
                    Distance matrix (angstroms):
                    1          2          3          4          5
     1  C    0.000000
     2  C    1.490625   0.000000
     3  C    2.565781   1.508304   0.000000
     4  C    1.491652   2.541059   3.146267   0.000000
     5  C    2.883163   2.569477   1.510531   3.023039   0.000000
     6  C    2.522786   2.834582   3.022254   1.472952   3.035135
     7  C    3.092395   3.169719   2.551509   3.498572   1.506627
     8  H    2.150526   3.369654   4.205110   1.126559   4.143086
     9  H    2.114237   3.197765   3.460795   1.116134   2.825390
    10  H    1.110665   2.101744   3.474089   2.136461   3.977908
    11  H    1.109344   2.120934   2.855026   2.124761   2.801024
    12  H    2.104862   1.101220   2.141154   3.450516   3.259694
    13  H    2.117411   1.110520   2.134228   2.823281   3.344581
    14  H    3.350938   2.136089   1.103233   4.168104   2.155485
    15  H    3.231559   2.136591   1.109570   3.479047   2.113919
    16  H    2.710686   2.807734   2.142681   2.293851   1.121392
    17  H    3.963730   3.486632   2.136751   3.969772   1.103295
    18  H    2.582584   2.271123   2.319748   2.153191   2.797161
    19  H    3.278300   3.557043   3.297183   2.138728   2.850353
    20  H    3.289945   3.649661   4.005633   2.168243   4.135903
    21  H    2.613588   2.758247   2.613006   3.435589   2.156603
    22  H    4.157616   4.032685   3.182320   4.612618   2.189539
    23  H    3.360524   3.857420   3.423206   3.412027   2.175024
                    6          7          8          9         10
     6  C    0.000000
     7  C    4.053489   0.000000
     8  H    2.131487   4.492962   0.000000
     9  H    2.111277   3.011917   1.772705   0.000000
    10  H    3.197458   4.089782   2.254254   2.893248   0.000000
    11  H    3.316880   2.449530   2.766566   2.190631   1.772453
    12  H    3.918709   3.519439   4.159351   4.042774   2.356186
    13  H    2.731623   4.191754   3.465831   3.723244   2.394120
    14  H    4.120669   2.832732   5.203100   4.431979   4.141979
    15  H    2.857370   3.462944   4.489902   3.912994   4.071329
    16  H    2.182796   2.143536   3.373788   2.002700   3.799650
    17  H    3.694409   2.155375   5.084442   3.707664   5.053888
    18  H    1.106291   4.024259   2.939578   2.878301   3.273693
    19  H    1.130281   3.921886   2.853518   2.209304   4.115938
    20  H    1.110627   5.152437   2.291292   2.889612   3.683848
    21  H    4.248044   1.090678   4.324103   3.147860   3.438528
    22  H    5.058653   1.125104   5.616174   4.093326   5.122636
    23  H    4.113341   1.127778   4.270576   2.610435   4.318908
                   11         12         13         14         15
    11  H    0.000000
    12  H    2.410122   0.000000
    13  H    3.033847   1.757941   0.000000
    14  H    3.449549   2.233548   2.765187   0.000000
    15  H    3.757311   2.889991   2.213664   1.763414   0.000000
    16  H    2.815119   3.723999   3.394823   3.070007   2.441096
    17  H    3.894987   4.134632   4.130856   2.493750   2.361887
    18  H    3.453657   3.344926   1.974006   3.355807   1.919702
    19  H    3.819214   4.645039   3.629172   4.368484   3.073878
    20  H    4.186935   4.687702   3.268919   5.080318   3.687485
    21  H    1.785440   2.837226   3.861078   2.784015   3.681947
    22  H    3.476152   4.224831   5.051106   3.124524   4.036052
    23  H    2.634505   4.320334   4.827164   3.890299   4.229612
                   16         17         18         19         20
    16  H    0.000000
    17  H    1.768337   0.000000
    18  H    2.298331   3.378171   0.000000
    19  H    1.818791   3.255941   1.798809   0.000000
    20  H    3.261534   4.734190   1.782329   1.799314   0.000000
    21  H    2.761277   3.009977   4.171457   4.393567   5.301770
    22  H    3.008769   2.344393   4.934570   4.820032   6.166711
    23  H    2.283640   2.759643   4.375868   3.841466   5.150280
                   21         22         23
    21  H    0.000000
    22  H    1.809270   0.000000
    23  H    1.788611   1.801441   0.000000
 Stoichiometry    C7H16
 Framework group  C1[X(C7H16)]
 Deg. of freedom    63
 Full point group                 C1      NOp   1
 Largest Abelian subgroup         C1      NOp   1
 Largest concise Abelian subgroup C1      NOp   1
                         Standard orientation:                         
 ---------------------------------------------------------------------
 Center     Atomic      Atomic             Coordinates (Angstroms)
 Number     Number       Type             X           Y           Z
 ---------------------------------------------------------------------
      1          6           0       -0.765546    0.503270    1.106242
      2          6           0       -0.170325    1.452925    0.123476
      3          6           0        0.839694    0.906394   -0.854353
      4          6           0       -1.487647   -0.677662    0.550369
      5          6           0        1.286109   -0.520874   -0.641462
      6          6           0       -1.733770   -0.677603   -0.901874
      7          6           0        2.007649   -0.788108    0.653873
      8          1           0       -2.463414   -0.816541    1.096013
      9          1           0       -0.892551   -1.586010    0.808283
     10          1           0       -1.455963    1.092255    1.746553
     11          1           0        0.040336    0.142678    1.777935
     12          1           0        0.283849    2.280046    0.691176
     13          1           0       -0.998297    1.914869   -0.454732
     14          1           0        1.714101    1.578799   -0.874508
     15          1           0        0.402547    0.952541   -1.873135
     16          1           0        0.379400   -1.179336   -0.684220
     17          1           0        1.908994   -0.827644   -1.498880
     18          1           0       -1.304254    0.210519   -1.402509
     19          1           0       -1.254504   -1.587329   -1.371169
     20          1           0       -2.812020   -0.710050   -1.166100
     21          1           0        1.777004   -0.026188    1.399432
     22          1           0        3.121759   -0.844323    0.507386
     23          1           0        1.696029   -1.784334    1.080852
 ---------------------------------------------------------------------
 Rotational constants (GHZ):           3.2103599           1.9248459           1.8255846
 Leave Link  202 at Sun Sep 29 22:19:35 2019, MaxMem=   671088640 cpu:               3.4 elap:               1.7
 (Enter /shared/centos7/gaussian/g16/l301.exe)
 Standard basis: CC-pVTZ (5D, 7F)
 Ernie: Thresh=  0.10000D-02 Tol=  0.10000D-05 Strict=F.
 Ernie:  21 primitive shells out of 310 were deleted.
 There are   485 symmetry adapted cartesian basis functions of A   symmetry.
 There are   434 symmetry adapted basis functions of A   symmetry.
   434 basis functions,   636 primitive gaussians,   485 cartesian basis functions
    29 alpha electrons       29 beta electrons
       nuclear repulsion energy       346.5081606770 Hartrees.
 IExCor= 4336 DFT=T Ex+Corr=M062X ExCW=0 ScaHFX=  0.540000
 ScaDFX=  1.000000  1.000000  1.000000  1.000000 ScalE2=  1.000000  1.000000
 IRadAn=      5 IRanWt=     -1 IRanGd=            0 ICorTp=0 IEmpDi=  4
 NAtoms=   23 NActive=   23 NUniq=   23 SFac= 1.00D+00 NAtFMM=   60 NAOKFM=F Big=F
 Integral buffers will be    131072 words long.
 Raffenetti 2 integral format.
 Two-electron integral symmetry is turned on.
 Leave Link  301 at Sun Sep 29 22:19:35 2019, MaxMem=   671088640 cpu:               1.7 elap:               0.8
 (Enter /shared/centos7/gaussian/g16/l302.exe)
 NPDir=0 NMtPBC=     1 NCelOv=     1 NCel=       1 NClECP=     1 NCelD=      1
         NCelK=      1 NCelE2=     1 NClLst=     1 CellRange=     0.0.
 One-electron integrals computed using PRISM.
 One-electron integral symmetry used in STVInt
 NBasis=   434 RedAO= T EigKep=  1.56D-04  NBF=   434
 NBsUse=   434 1.00D-06 EigRej= -1.00D+00 NBFU=   434
 Precomputing XC quadrature grid using
 IXCGrd= 4 IRadAn=           5 IRanWt=          -1 IRanGd=           0 AccXCQ= 0.00D+00.
 Generated NRdTot=       0 NPtTot=           0 NUsed=           0 NTot=          32
 NSgBfM=   485   485   485   485   485 MxSgAt=    23 MxSgA2=    23.
 Leave Link  302 at Sun Sep 29 22:20:38 2019, MaxMem=   671088640 cpu:             125.6 elap:              62.8
 (Enter /shared/centos7/gaussian/g16/l303.exe)
 DipDrv:  MaxL=1.
 Leave Link  303 at Sun Sep 29 22:20:43 2019, MaxMem=   671088640 cpu:               8.7 elap:               4.3
 (Enter /shared/centos7/gaussian/g16/l401.exe)
 ExpMin= 1.03D-01 ExpMax= 8.24D+03 ExpMxC= 2.81D+02 IAcc=3 IRadAn=         5 AccDes= 0.00D+00
 Harris functional with IExCor= 1009 and IRadAn=       5 diagonalized for initial guess.
 HarFok:  IExCor= 1009 AccDes= 0.00D+00 IRadAn=         5 IDoV= 1 UseB2=F ITyADJ=14
 ICtDFT=  3500011 ScaDFX=  1.000000  1.000000  1.000000  1.000000
 FoFCou: FMM=F IPFlag=           0 FMFlag=      100000 FMFlg1=           0
         NFxFlg=           0 DoJE=T BraDBF=F KetDBF=T FulRan=T
         wScrn=  0.000000 ICntrl=       500 IOpCl=  0 I1Cent=   200000004 NGrid=           0
         NMat0=    1 NMatS0=      1 NMatT0=    0 NMatD0=    1 NMtDS0=    0 NMtDT0=    0
 Petite list used in FoFCou.
 Harris En= -276.292066952410    
 JPrj=0 DoOrth=F DoCkMO=F.
 Leave Link  401 at Sun Sep 29 22:21:31 2019, MaxMem=   671088640 cpu:              96.7 elap:              48.4
 (Enter /shared/centos7/gaussian/g16/l502.exe)
 Integral symmetry usage will be decided dynamically.
 Closed shell SCF:
 Using DIIS extrapolation, IDIIS=  1040.
 NGot=   671088640 LenX=   670604095 LenY=   670368385
 Requested convergence on RMS density matrix=1.00D-08 within 900 cycles.
 Requested convergence on MAX density matrix=1.00D-06.
 Requested convergence on             energy=1.00D-06.
 No special actions if energy rises.
 Fock matrices will be formed incrementally for  20 cycles.
 Integral accuracy reduced to 1.0D-05 until final iterations.

 Cycle   1  Pass 0  IDiag  1:
 FoFJK:  IHMeth= 1 ICntrl=       0 DoSepK=F KAlg= 0 I1Cent=           0 FoldK=F
 IRaf= 970000000 NMat=       1 IRICut=       1 DoRegI=T DoRafI=F ISym2E= 0 IDoP0=0 IntGTp=1.
 FoFCou: FMM=F IPFlag=           0 FMFlag=      100000 FMFlg1=           0
         NFxFlg=           0 DoJE=F BraDBF=F KetDBF=F FulRan=T
         wScrn=  0.000000 ICntrl=         0 IOpCl=  0 I1Cent=           0 NGrid=           0
         NMat0=    1 NMatS0=      1 NMatT0=    0 NMatD0=    1 NMtDS0=    0 NMtDT0=    0
 Symmetry not used in FoFCou.
 E= -275.935913297021    
 DIIS: error= 2.65D-02 at cycle   1 NSaved=   1.
 NSaved= 1 IEnMin= 1 EnMin= -275.935913297021     IErMin= 1 ErrMin= 2.65D-02
 ErrMax= 2.65D-02  0.00D+00 EMaxC= 1.00D-01 BMatC= 3.76D-01 BMatP= 3.76D-01
 IDIUse=3 WtCom= 7.35D-01 WtEn= 2.65D-01
 Coeff-Com:  0.100D+01
 Coeff-En:   0.100D+01
 Coeff:      0.100D+01
 Gap=     0.355 Goal=   None    Shift=    0.000
 GapD=    0.355 DampG=1.000 DampE=0.500 DampFc=0.5000 IDamp=-1.
 Damping current iteration by 5.00D-01
 RMSDP=1.99D-03 MaxDP=7.41D-02              OVMax= 1.65D-01

 Cycle   2  Pass 0  IDiag  1:
 RMSU=  9.92D-04    CP:  9.91D-01
 E= -276.106058578900     Delta-E=       -0.170145281878 Rises=F Damp=T
 DIIS: error= 4.84D-03 at cycle   2 NSaved=   2.
 NSaved= 2 IEnMin= 2 EnMin= -276.106058578900     IErMin= 2 ErrMin= 4.84D-03
 ErrMax= 4.84D-03  0.00D+00 EMaxC= 1.00D-01 BMatC= 2.12D-02 BMatP= 3.76D-01
 IDIUse=3 WtCom= 9.52D-01 WtEn= 4.84D-02
 Coeff-Com: -0.221D-01 0.102D+01
 Coeff-En:   0.000D+00 0.100D+01
 Coeff:     -0.210D-01 0.102D+01
 Gap=     0.441 Goal=   None    Shift=    0.000
 RMSDP=5.97D-04 MaxDP=2.14D-02 DE=-1.70D-01 OVMax= 9.42D-02

 Cycle   3  Pass 0  IDiag  1:
 RMSU=  5.83D-04    CP:  1.00D+00  8.88D-01
 E= -276.287512066852     Delta-E=       -0.181453487952 Rises=F Damp=F
 DIIS: error= 3.37D-03 at cycle   3 NSaved=   3.
 NSaved= 3 IEnMin= 3 EnMin= -276.287512066852     IErMin= 3 ErrMin= 3.37D-03
 ErrMax= 3.37D-03  0.00D+00 EMaxC= 1.00D-01 BMatC= 5.08D-03 BMatP= 2.12D-02
 IDIUse=3 WtCom= 9.66D-01 WtEn= 3.37D-02
 Coeff-Com: -0.556D-01 0.307D+00 0.749D+00
 Coeff-En:   0.000D+00 0.000D+00 0.100D+01
 Coeff:     -0.537D-01 0.297D+00 0.757D+00
 Gap=     0.399 Goal=   None    Shift=    0.000
 RMSDP=1.25D-04 MaxDP=3.21D-03 DE=-1.81D-01 OVMax= 1.34D-02

 Cycle   4  Pass 0  IDiag  1:
 RMSU=  9.47D-05    CP:  9.98D-01  9.43D-01  8.99D-01
 E= -276.291907037826     Delta-E=       -0.004394970973 Rises=F Damp=F
 DIIS: error= 7.34D-04 at cycle   4 NSaved=   4.
 NSaved= 4 IEnMin= 4 EnMin= -276.291907037826     IErMin= 4 ErrMin= 7.34D-04
 ErrMax= 7.34D-04  0.00D+00 EMaxC= 1.00D-01 BMatC= 3.38D-04 BMatP= 5.08D-03
 IDIUse=3 WtCom= 9.93D-01 WtEn= 7.34D-03
 Coeff-Com: -0.148D-01 0.424D-01 0.241D+00 0.731D+00
 Coeff-En:   0.000D+00 0.000D+00 0.000D+00 0.100D+01
 Coeff:     -0.147D-01 0.421D-01 0.240D+00 0.733D+00
 Gap=     0.400 Goal=   None    Shift=    0.000
 RMSDP=3.64D-05 MaxDP=1.55D-03 DE=-4.39D-03 OVMax= 3.20D-03

 Cycle   5  Pass 0  IDiag  1:
 RMSU=  2.17D-05    CP:  9.99D-01  9.36D-01  9.35D-01  7.97D-01
 E= -276.292207802329     Delta-E=       -0.000300764503 Rises=F Damp=F
 DIIS: error= 1.73D-04 at cycle   5 NSaved=   5.
 NSaved= 5 IEnMin= 5 EnMin= -276.292207802329     IErMin= 5 ErrMin= 1.73D-04
 ErrMax= 1.73D-04  0.00D+00 EMaxC= 1.00D-01 BMatC= 2.46D-05 BMatP= 3.38D-04
 IDIUse=3 WtCom= 9.98D-01 WtEn= 1.73D-03
 Coeff-Com: -0.254D-02 0.236D-02 0.532D-01 0.279D+00 0.668D+00
 Coeff-En:   0.000D+00 0.000D+00 0.000D+00 0.000D+00 0.100D+01
 Coeff:     -0.254D-02 0.236D-02 0.531D-01 0.279D+00 0.668D+00
 Gap=     0.400 Goal=   None    Shift=    0.000
 RMSDP=8.04D-06 MaxDP=4.34D-04 DE=-3.01D-04 OVMax= 8.81D-04

 Initial convergence to 1.0D-05 achieved.  Increase integral accuracy.
 Cycle   6  Pass 1  IDiag  1:
 E= -276.292137389669     Delta-E=        0.000070412660 Rises=F Damp=F
 DIIS: error= 3.42D-05 at cycle   1 NSaved=   1.
 NSaved= 1 IEnMin= 1 EnMin= -276.292137389669     IErMin= 1 ErrMin= 3.42D-05
 ErrMax= 3.42D-05  0.00D+00 EMaxC= 1.00D-01 BMatC= 1.38D-06 BMatP= 1.38D-06
 IDIUse=1 WtCom= 1.00D+00 WtEn= 0.00D+00
 Coeff-Com:  0.100D+01
 Coeff:      0.100D+01
 Gap=     0.400 Goal=   None    Shift=    0.000
 RMSDP=8.04D-06 MaxDP=4.34D-04 DE= 7.04D-05 OVMax= 2.32D-04

 Cycle   7  Pass 1  IDiag  1:
 RMSU=  8.09D-06    CP:  1.00D+00
 E= -276.292138147259     Delta-E=       -0.000000757590 Rises=F Damp=F
 DIIS: error= 2.23D-05 at cycle   2 NSaved=   2.
 NSaved= 2 IEnMin= 2 EnMin= -276.292138147259     IErMin= 2 ErrMin= 2.23D-05
 ErrMax= 2.23D-05  0.00D+00 EMaxC= 1.00D-01 BMatC= 4.05D-07 BMatP= 1.38D-06
 IDIUse=1 WtCom= 1.00D+00 WtEn= 0.00D+00
 Coeff-Com:  0.312D+00 0.688D+00
 Coeff:      0.312D+00 0.688D+00
 Gap=     0.400 Goal=   None    Shift=    0.000
 RMSDP=1.30D-06 MaxDP=5.85D-05 DE=-7.58D-07 OVMax= 1.31D-04

 Cycle   8  Pass 1  IDiag  1:
 RMSU=  1.30D-06    CP:  1.00D+00  9.91D-01
 E= -276.292138503478     Delta-E=       -0.000000356219 Rises=F Damp=F
 DIIS: error= 8.82D-06 at cycle   3 NSaved=   3.
 NSaved= 3 IEnMin= 3 EnMin= -276.292138503478     IErMin= 3 ErrMin= 8.82D-06
 ErrMax= 8.82D-06  0.00D+00 EMaxC= 1.00D-01 BMatC= 4.73D-08 BMatP= 4.05D-07
 IDIUse=1 WtCom= 1.00D+00 WtEn= 0.00D+00
 Coeff-Com: -0.133D-01 0.236D+00 0.777D+00
 Coeff:     -0.133D-01 0.236D+00 0.777D+00
 Gap=     0.400 Goal=   None    Shift=    0.000
 RMSDP=4.19D-07 MaxDP=1.64D-05 DE=-3.56D-07 OVMax= 3.79D-05

 Cycle   9  Pass 1  IDiag  1:
 RMSU=  3.28D-07    CP:  1.00D+00  1.02D+00  8.69D-01
 E= -276.292138549466     Delta-E=       -0.000000045988 Rises=F Damp=F
 DIIS: error= 2.37D-06 at cycle   4 NSaved=   4.
 NSaved= 4 IEnMin= 4 EnMin= -276.292138549466     IErMin= 4 ErrMin= 2.37D-06
 ErrMax= 2.37D-06  0.00D+00 EMaxC= 1.00D-01 BMatC= 1.86D-09 BMatP= 4.73D-08
 IDIUse=1 WtCom= 1.00D+00 WtEn= 0.00D+00
 Coeff-Com: -0.165D-01 0.548D-01 0.260D+00 0.702D+00
 Coeff:     -0.165D-01 0.548D-01 0.260D+00 0.702D+00
 Gap=     0.400 Goal=   None    Shift=    0.000
 RMSDP=8.95D-08 MaxDP=3.63D-06 DE=-4.60D-08 OVMax= 8.00D-06

 Cycle  10  Pass 1  IDiag  1:
 RMSU=  8.43D-08    CP:  1.00D+00  1.02D+00  8.76D-01  9.63D-01
 E= -276.292138551308     Delta-E=       -0.000000001842 Rises=F Damp=F
 DIIS: error= 4.77D-07 at cycle   5 NSaved=   5.
 NSaved= 5 IEnMin= 5 EnMin= -276.292138551308     IErMin= 5 ErrMin= 4.77D-07
 ErrMax= 4.77D-07  0.00D+00 EMaxC= 1.00D-01 BMatC= 1.02D-10 BMatP= 1.86D-09
 IDIUse=1 WtCom= 1.00D+00 WtEn= 0.00D+00
 Coeff-Com: -0.181D-02-0.113D-01-0.231D-01 0.133D+00 0.903D+00
 Coeff:     -0.181D-02-0.113D-01-0.231D-01 0.133D+00 0.903D+00
 Gap=     0.400 Goal=   None    Shift=    0.000
 RMSDP=3.66D-08 MaxDP=1.03D-06 DE=-1.84D-09 OVMax= 2.84D-06

 Cycle  11  Pass 1  IDiag  1:
 RMSU=  2.15D-08    CP:  1.00D+00  1.02D+00  8.83D-01  1.05D+00  1.03D+00
 E= -276.292138551407     Delta-E=       -0.000000000099 Rises=F Damp=F
 DIIS: error= 1.95D-07 at cycle   6 NSaved=   6.
 NSaved= 6 IEnMin= 6 EnMin= -276.292138551407     IErMin= 6 ErrMin= 1.95D-07
 ErrMax= 1.95D-07  0.00D+00 EMaxC= 1.00D-01 BMatC= 2.44D-11 BMatP= 1.02D-10
 IDIUse=1 WtCom= 1.00D+00 WtEn= 0.00D+00
 Coeff-Com:  0.475D-03-0.934D-02-0.308D-01 0.298D-02 0.408D+00 0.628D+00
 Coeff:      0.475D-03-0.934D-02-0.308D-01 0.298D-02 0.408D+00 0.628D+00
 Gap=     0.400 Goal=   None    Shift=    0.000
 RMSDP=8.16D-09 MaxDP=2.63D-07 DE=-9.86D-11 OVMax= 8.87D-07

 SCF Done:  E(RM062X) =  -276.292138551     A.U. after   11 cycles
            NFock= 11  Conv=0.82D-08     -V/T= 2.0061
 KE= 2.746134524693D+02 PE=-1.331494937713D+03 EE= 4.340811860157D+02
 Leave Link  502 at Sun Sep 29 22:38:03 2019, MaxMem=   671088640 cpu:            1984.7 elap:             992.4
 (Enter /shared/centos7/gaussian/g16/l801.exe)
 DoSCS=F DFT=T ScalE2(SS,OS)=  1.000000  1.000000
 Range of M.O.s used for correlation:     1   434
 NBasis=   434 NAE=    29 NBE=    29 NFC=     0 NFV=     0
 NROrb=    434 NOA=    29 NOB=    29 NVA=   405 NVB=   405

 **** Warning!!: The largest alpha MO coefficient is  0.12090156D+02

 Leave Link  801 at Sun Sep 29 22:38:04 2019, MaxMem=   671088640 cpu:               1.4 elap:               0.7
 (Enter /shared/centos7/gaussian/g16/l1101.exe)
 Using compressed storage, NAtomX=    23.
 Will process     24 centers per pass.
 Leave Link 1101 at Sun Sep 29 22:38:40 2019, MaxMem=   671088640 cpu:              71.5 elap:              35.8
 (Enter /shared/centos7/gaussian/g16/l1102.exe)
 Symmetrizing basis deriv contribution to polar:
 IMax=3 JMax=2 DiffMx= 0.00D+00
 Leave Link 1102 at Sun Sep 29 22:38:43 2019, MaxMem=   671088640 cpu:               5.1 elap:               2.6
 (Enter /shared/centos7/gaussian/g16/l1110.exe)
 Forming Gx(P) for the SCF density, NAtomX=    23.
 Integral derivatives from FoFJK, PRISM(SPDF).
 Do as many integral derivatives as possible in FoFJK.
 G2DrvN: MDV=     671086848.
 G2DrvN: will do    24 centers at a time, making    1 passes.
 Calling FoFCou, ICntrl=  3107 FMM=F I1Cent=   0 AccDes= 0.00D+00.
 FoFJK:  IHMeth= 1 ICntrl=    3107 DoSepK=F KAlg= 0 I1Cent=           0 FoldK=F
 IRaf=         0 NMat=       1 IRICut=       1 DoRegI=T DoRafI=F ISym2E= 0 IDoP0=0 IntGTp=1.
 FoFCou: FMM=F IPFlag=           0 FMFlag=      100000 FMFlg1=           0
         NFxFlg=           0 DoJE=F BraDBF=F KetDBF=F FulRan=T
         wScrn=  0.000000 ICntrl=      3107 IOpCl=  0 I1Cent=           0 NGrid=           0
         NMat0=    1 NMatS0=      1 NMatT0=    0 NMatD0=    1 NMtDS0=    0 NMtDT0=    0
 Symmetry not used in FoFCou.
 End of G2Drv F.D. properties file   721 does not exist.
 End of G2Drv F.D. properties file   722 does not exist.
 End of G2Drv F.D. properties file   788 does not exist.
 Leave Link 1110 at Sun Sep 29 23:24:05 2019, MaxMem=   671088640 cpu:            5444.3 elap:            2722.4
 (Enter /shared/centos7/gaussian/g16/l1002.exe)
 Minotr:  Closed shell wavefunction.
          IDoAtm=11111111111111111111111
          Direct CPHF calculation.
          Differentiating once with respect to nuclear coordinates.
          Requested convergence is 1.0D-08 RMS, and 1.0D-07 maximum.
          Secondary convergence is 1.0D-12 RMS, and 1.0D-12 maximum.
          NewPWx=T KeepS1=F KeepF1=F KeepIn=T MapXYZ=F SortEE=F KeepMc=T.
         6848 words used for storage of precomputed grid.
 Two-electron integrals replicated using symmetry.
          MDV=     671088640 using IRadAn=       1.
          Solving linear equations simultaneously, MaxMat=     380.
 FoF2E skips out because all densities are zero.
 CalDSu exits because no D1Ps are significant.
 FoFJK:  IHMeth= 1 ICntrl=       0 DoSepK=F KAlg= 0 I1Cent=           0 FoldK=F
 IRaf= 960000000 NMat=      69 IRICut=     172 DoRegI=T DoRafI=T ISym2E= 2 IDoP0=3 IntGTp=3.
 FoFCou: FMM=F IPFlag=           0 FMFlag=      100000 FMFlg1=           0
         NFxFlg=           0 DoJE=F BraDBF=F KetDBF=F FulRan=T
         wScrn=  0.000000 ICntrl=         0 IOpCl=  0 I1Cent=           0 NGrid=           0
         NMat0=   69 NMatS0=     69 NMatT0=    0 NMatD0=   69 NMtDS0=    0 NMtDT0=    0
 Integrals replicated using symmetry in FoFCou.
 Raff kept on since  93.44% of shell-pairs survive, threshold=   0.20 IRatSp=93.
          There are    72 degrees of freedom in the 1st order CPHF.  IDoFFX=6 NUNeed=     0.
     66 vectors produced by pass  0 Test12= 1.63D-14 1.39D-09 XBig12= 5.56D-02 3.37D-02.
 AX will form    66 AO Fock derivatives at one time.
     66 vectors produced by pass  1 Test12= 1.63D-14 1.39D-09 XBig12= 2.61D-03 6.97D-03.
     66 vectors produced by pass  2 Test12= 1.63D-14 1.39D-09 XBig12= 5.94D-05 9.66D-04.
     66 vectors produced by pass  3 Test12= 1.63D-14 1.39D-09 XBig12= 5.10D-07 8.44D-05.
     66 vectors produced by pass  4 Test12= 1.63D-14 1.39D-09 XBig12= 2.29D-09 4.91D-06.
     66 vectors produced by pass  5 Test12= 1.63D-14 1.39D-09 XBig12= 1.15D-11 3.07D-07.
     24 vectors produced by pass  6 Test12= 1.63D-14 1.39D-09 XBig12= 4.53D-14 1.59D-08.
 InvSVY:  IOpt=1 It=  1 EMax= 4.16D-16
 Solved reduced A of dimension   420 with    72 vectors.
 End of Minotr F.D. properties file   721 does not exist.
 End of Minotr F.D. properties file   722 does not exist.
 End of Minotr F.D. properties file   788 does not exist.
 Leave Link 1002 at Mon Sep 30 00:39:32 2019, MaxMem=   671088640 cpu:            9054.1 elap:            4527.4
 (Enter /shared/centos7/gaussian/g16/l601.exe)
 Copying SCF densities to generalized density rwf, IOpCl= 0 IROHF=0.

 **********************************************************************

            Population analysis using the SCF density.

 **********************************************************************

 Orbital symmetries:
       Occupied  (A) (A) (A) (A) (A) (A) (A) (A) (A) (A) (A) (A)
                 (A) (A) (A) (A) (A) (A) (A) (A) (A) (A) (A) (A)
                 (A) (A) (A) (A) (A)
       Virtual   (A) (A) (A) (A) (A) (A) (A) (A) (A) (A) (A) (A)
                 (A) (A) (A) (A) (A) (A) (A) (A) (A) (A) (A) (A)
                 (A) (A) (A) (A) (A) (A) (A) (A) (A) (A) (A) (A)
                 (A) (A) (A) (A) (A) (A) (A) (A) (A) (A) (A) (A)
                 (A) (A) (A) (A) (A) (A) (A) (A) (A) (A) (A) (A)
                 (A) (A) (A) (A) (A) (A) (A) (A) (A) (A) (A) (A)
                 (A) (A) (A) (A) (A) (A) (A) (A) (A) (A) (A) (A)
                 (A) (A) (A) (A) (A) (A) (A) (A) (A) (A) (A) (A)
                 (A) (A) (A) (A) (A) (A) (A) (A) (A) (A) (A) (A)
                 (A) (A) (A) (A) (A) (A) (A) (A) (A) (A) (A) (A)
                 (A) (A) (A) (A) (A) (A) (A) (A) (A) (A) (A) (A)
                 (A) (A) (A) (A) (A) (A) (A) (A) (A) (A) (A) (A)
                 (A) (A) (A) (A) (A) (A) (A) (A) (A) (A) (A) (A)
                 (A) (A) (A) (A) (A) (A) (A) (A) (A) (A) (A) (A)
                 (A) (A) (A) (A) (A) (A) (A) (A) (A) (A) (A) (A)
                 (A) (A) (A) (A) (A) (A) (A) (A) (A) (A) (A) (A)
                 (A) (A) (A) (A) (A) (A) (A) (A) (A) (A) (A) (A)
                 (A) (A) (A) (A) (A) (A) (A) (A) (A) (A) (A) (A)
                 (A) (A) (A) (A) (A) (A) (A) (A) (A) (A) (A) (A)
                 (A) (A) (A) (A) (A) (A) (A) (A) (A) (A) (A) (A)
                 (A) (A) (A) (A) (A) (A) (A) (A) (A) (A) (A) (A)
                 (A) (A) (A) (A) (A) (A) (A) (A) (A) (A) (A) (A)
                 (A) (A) (A) (A) (A) (A) (A) (A) (A) (A) (A) (A)
                 (A) (A) (A) (A) (A) (A) (A) (A) (A) (A) (A) (A)
                 (A) (A) (A) (A) (A) (A) (A) (A) (A) (A) (A) (A)
                 (A) (A) (A) (A) (A) (A) (A) (A) (A) (A) (A) (A)
                 (A) (A) (A) (A) (A) (A) (A) (A) (A) (A) (A) (A)
                 (A) (A) (A) (A) (A) (A) (A) (A) (A) (A) (A) (A)
                 (A) (A) (A) (A) (A) (A) (A) (A) (A) (A) (A) (A)
                 (A) (A) (A) (A) (A) (A) (A) (A) (A) (A) (A) (A)
                 (A) (A) (A) (A) (A) (A) (A) (A) (A) (A) (A) (A)
                 (A) (A) (A) (A) (A) (A) (A) (A) (A) (A) (A) (A)
                 (A) (A) (A) (A) (A) (A) (A) (A) (A) (A) (A) (A)
                 (A) (A) (A) (A) (A) (A) (A) (A) (A)
 The electronic state is 1-A.
 Alpha  occ. eigenvalues --  -10.52501 -10.52464 -10.52444 -10.52342 -10.52335
 Alpha  occ. eigenvalues --  -10.52073 -10.52039  -0.93068  -0.87157  -0.82645
 Alpha  occ. eigenvalues --   -0.77954  -0.71121  -0.65671  -0.60824  -0.56352
 Alpha  occ. eigenvalues --   -0.55501  -0.51529  -0.48845  -0.46679  -0.45714
 Alpha  occ. eigenvalues --   -0.45337  -0.43876  -0.42191  -0.40146  -0.39712
 Alpha  occ. eigenvalues --   -0.37544  -0.36289  -0.35645  -0.34115
 Alpha virt. eigenvalues --    0.05857   0.08053   0.08463   0.08915   0.10103
 Alpha virt. eigenvalues --    0.12048   0.12873   0.13219   0.14590   0.15805
 Alpha virt. eigenvalues --    0.16808   0.17703   0.18036   0.19831   0.21066
 Alpha virt. eigenvalues --    0.22120   0.23331   0.23714   0.25408   0.26847
 Alpha virt. eigenvalues --    0.28342   0.29090   0.29441   0.29698   0.31855
 Alpha virt. eigenvalues --    0.33124   0.34411   0.35611   0.36895   0.38579
 Alpha virt. eigenvalues --    0.38857   0.40255   0.41461   0.42788   0.44025
 Alpha virt. eigenvalues --    0.44621   0.46242   0.46950   0.47653   0.48511
 Alpha virt. eigenvalues --    0.49603   0.49921   0.50823   0.51103   0.52275
 Alpha virt. eigenvalues --    0.52392   0.52883   0.53131   0.54169   0.54389
 Alpha virt. eigenvalues --    0.54959   0.55588   0.56530   0.56793   0.57312
 Alpha virt. eigenvalues --    0.58160   0.59447   0.60310   0.62436   0.63337
 Alpha virt. eigenvalues --    0.65939   0.68178   0.73825   0.75780   0.78255
 Alpha virt. eigenvalues --    0.80409   0.81229   0.84600   0.85867   0.87229
 Alpha virt. eigenvalues --    0.88807   0.90214   0.90406   0.91349   0.93858
 Alpha virt. eigenvalues --    0.96254   0.97593   0.98076   1.00533   1.01596
 Alpha virt. eigenvalues --    1.03171   1.03997   1.04959   1.05482   1.07339
 Alpha virt. eigenvalues --    1.07796   1.08175   1.09978   1.10612   1.11305
 Alpha virt. eigenvalues --    1.12502   1.13489   1.13912   1.15505   1.16719
 Alpha virt. eigenvalues --    1.17188   1.18165   1.18940   1.19520   1.20125
 Alpha virt. eigenvalues --    1.20698   1.23571   1.23836   1.24726   1.25308
 Alpha virt. eigenvalues --    1.26181   1.27557   1.28827   1.29653   1.30262
 Alpha virt. eigenvalues --    1.32156   1.32884   1.34232   1.34693   1.36186
 Alpha virt. eigenvalues --    1.36839   1.37415   1.39215   1.40018   1.41073
 Alpha virt. eigenvalues --    1.42759   1.43362   1.43610   1.45874   1.46299
 Alpha virt. eigenvalues --    1.47693   1.48188   1.49307   1.51426   1.53465
 Alpha virt. eigenvalues --    1.54036   1.55159   1.57699   1.58146   1.59380
 Alpha virt. eigenvalues --    1.59810   1.61654   1.63926   1.66914   1.67285
 Alpha virt. eigenvalues --    1.69332   1.71118   1.75173   1.75598   1.79869
 Alpha virt. eigenvalues --    1.82574   1.83224   1.83774   1.89538   2.23755
 Alpha virt. eigenvalues --    2.26775   2.29246   2.30019   2.34753   2.37493
 Alpha virt. eigenvalues --    2.39931   2.42369   2.44240   2.46397   2.46942
 Alpha virt. eigenvalues --    2.48903   2.52025   2.53624   2.55439   2.57457
 Alpha virt. eigenvalues --    2.59075   2.59573   2.60236   2.61794   2.65116
 Alpha virt. eigenvalues --    2.65888   2.66585   2.66767   2.67616   2.68922
 Alpha virt. eigenvalues --    2.70546   2.71216   2.73648   2.74721   2.75789
 Alpha virt. eigenvalues --    2.77171   2.78237   2.79492   2.81181   2.83793
 Alpha virt. eigenvalues --    2.84636   2.85710   2.86657   2.87407   2.87566
 Alpha virt. eigenvalues --    2.88934   2.91142   2.92306   2.94859   2.95715
 Alpha virt. eigenvalues --    2.96259   2.97615   2.98178   2.98794   3.00013
 Alpha virt. eigenvalues --    3.00836   3.01499   3.02687   3.03503   3.05306
 Alpha virt. eigenvalues --    3.06325   3.07097   3.07881   3.09784   3.10486
 Alpha virt. eigenvalues --    3.11224   3.12698   3.13375   3.13740   3.14286
 Alpha virt. eigenvalues --    3.16262   3.16706   3.18697   3.19014   3.20061
 Alpha virt. eigenvalues --    3.21682   3.21814   3.22925   3.23795   3.25321
 Alpha virt. eigenvalues --    3.25741   3.28742   3.30248   3.30926   3.32816
 Alpha virt. eigenvalues --    3.33727   3.34397   3.35800   3.37175   3.38445
 Alpha virt. eigenvalues --    3.40384   3.41108   3.41545   3.43886   3.44312
 Alpha virt. eigenvalues --    3.47218   3.49084   3.49741   3.51092   3.53192
 Alpha virt. eigenvalues --    3.53738   3.54259   3.56278   3.57498   3.57952
 Alpha virt. eigenvalues --    3.58534   3.58842   3.60398   3.62666   3.63640
 Alpha virt. eigenvalues --    3.64137   3.65687   3.66396   3.66978   3.69355
 Alpha virt. eigenvalues --    3.71099   3.71763   3.73111   3.75070   3.75714
 Alpha virt. eigenvalues --    3.76300   3.78000   3.79597   3.80894   3.83092
 Alpha virt. eigenvalues --    3.83517   3.85316   3.86230   3.87637   3.88394
 Alpha virt. eigenvalues --    3.90407   3.91259   3.93162   3.93513   3.94839
 Alpha virt. eigenvalues --    3.95297   3.95862   3.98069   3.99516   4.00306
 Alpha virt. eigenvalues --    4.01052   4.02377   4.02862   4.03923   4.04615
 Alpha virt. eigenvalues --    4.06633   4.06971   4.08738   4.10249   4.11410
 Alpha virt. eigenvalues --    4.12932   4.13029   4.13543   4.14862   4.15975
 Alpha virt. eigenvalues --    4.17279   4.17755   4.19371   4.20587   4.22463
 Alpha virt. eigenvalues --    4.23700   4.24147   4.25155   4.27277   4.28506
 Alpha virt. eigenvalues --    4.29784   4.30632   4.31808   4.33989   4.34300
 Alpha virt. eigenvalues --    4.37616   4.38053   4.39703   4.41672   4.42551
 Alpha virt. eigenvalues --    4.42980   4.44818   4.46984   4.49264   4.49721
 Alpha virt. eigenvalues --    4.52262   4.52593   4.54343   4.56398   4.57485
 Alpha virt. eigenvalues --    4.59435   4.61512   4.63482   4.65622   4.67203
 Alpha virt. eigenvalues --    4.70199   4.71202   4.72919   4.76774   4.77636
 Alpha virt. eigenvalues --    4.79092   4.81295   4.82915   4.83470   4.85354
 Alpha virt. eigenvalues --    4.85846   4.88060   4.90566   4.91062   4.92926
 Alpha virt. eigenvalues --    4.95322   4.96776   4.99307   4.99751   5.00888
 Alpha virt. eigenvalues --    5.02939   5.05545   5.07058   5.08326   5.10332
 Alpha virt. eigenvalues --    5.12254   5.12876   5.15423   5.16949   5.19034
 Alpha virt. eigenvalues --    5.21022   5.22855   5.27005   5.27589   5.28757
 Alpha virt. eigenvalues --    5.29817   5.30116   5.32040   5.34179   5.37467
 Alpha virt. eigenvalues --    5.39525   5.40937   5.44229   5.46235   5.47500
 Alpha virt. eigenvalues --    5.50506   5.52018   5.54642   5.55205   5.60871
 Alpha virt. eigenvalues --    5.63414   5.66679   5.79918   5.85112   5.85633
 Alpha virt. eigenvalues --    5.86231   5.88707   5.92882   5.98522   5.99484
 Alpha virt. eigenvalues --    6.02330   6.10137   6.11050  11.33466  11.83226
 Alpha virt. eigenvalues --   12.32230  12.99575  13.32549  13.67828  14.05585
          Condensed to atoms (all electrons):
               1          2          3          4          5          6
     1  C    5.122919   0.297136  -0.057484   0.289787   0.003883  -0.044666
     2  C    0.297136   5.132916   0.305596  -0.039859  -0.055371  -0.022354
     3  C   -0.057484   0.305596   5.131052   0.001493   0.299169  -0.001222
     4  C    0.289787  -0.039859   0.001493   5.112884   0.000018   0.251378
     5  C    0.003883  -0.055371   0.299169   0.000018   5.117258  -0.017540
     6  C   -0.044666  -0.022354  -0.001222   0.251378  -0.017540   5.077477
     7  C   -0.005600  -0.005297  -0.047100   0.000188   0.280877   0.000020
     8  H   -0.040650   0.006757  -0.000968   0.407395   0.000957  -0.039873
     9  H   -0.061636   0.005516   0.000434   0.434165  -0.008403  -0.053364
    10  H    0.412624  -0.043574   0.009308  -0.042575  -0.000981   0.005119
    11  H    0.435767  -0.046976  -0.004026  -0.058202  -0.001113   0.008397
    12  H   -0.044642   0.412896  -0.044550   0.008135   0.005103   0.000835
    13  H   -0.042595   0.421700  -0.056068  -0.005950   0.007703  -0.003885
    14  H    0.006555  -0.048346   0.403239  -0.001087  -0.037320   0.000786
    15  H    0.006774  -0.051525   0.425804   0.001511  -0.049112  -0.008245
    16  H   -0.008761  -0.004120  -0.048873  -0.001813   0.430390  -0.018640
    17  H   -0.000673   0.008055  -0.035571   0.000590   0.408366   0.000488
    18  H   -0.009899  -0.010787  -0.003852  -0.060359  -0.008373   0.427834
    19  H    0.008611   0.000517   0.000230  -0.055494  -0.009594   0.419156
    20  H    0.005683  -0.000078  -0.000164  -0.037266   0.001504   0.398224
    21  H   -0.007744   0.002868  -0.001119  -0.001184  -0.057969  -0.000004
    22  H    0.000597  -0.000690   0.001464   0.000090  -0.037216  -0.000073
    23  H   -0.001846   0.000122   0.007171   0.000162  -0.051014   0.000316
               7          8          9         10         11         12
     1  C   -0.005600  -0.040650  -0.061636   0.412624   0.435767  -0.044642
     2  C   -0.005297   0.006757   0.005516  -0.043574  -0.046976   0.412896
     3  C   -0.047100  -0.000968   0.000434   0.009308  -0.004026  -0.044550
     4  C    0.000188   0.407395   0.434165  -0.042575  -0.058202   0.008135
     5  C    0.280877   0.000957  -0.008403  -0.000981  -0.001113   0.005103
     6  C    0.000020  -0.039873  -0.053364   0.005119   0.008397   0.000835
     7  C    5.032442  -0.000221   0.003637   0.000746  -0.011537   0.000350
     8  H   -0.000221   0.606748  -0.037443  -0.019546   0.005179  -0.000446
     9  H    0.003637  -0.037443   0.629335   0.008395  -0.019541  -0.000442
    10  H    0.000746  -0.019546   0.008395   0.590437  -0.032851  -0.006390
    11  H   -0.011537   0.005179  -0.019541  -0.032851   0.594476  -0.008593
    12  H    0.000350  -0.000446  -0.000442  -0.006390  -0.008593   0.573806
    13  H   -0.000489   0.000683  -0.000515  -0.010175   0.009217  -0.030277
    14  H   -0.004998   0.000074   0.000014  -0.000499   0.000824  -0.017849
    15  H    0.009458  -0.000041  -0.000133  -0.000494  -0.000824   0.006976
    16  H   -0.050193   0.001948  -0.006416  -0.000087   0.000153  -0.000534
    17  H   -0.034484  -0.000031   0.000923   0.000059  -0.000241  -0.000442
    18  H    0.000599   0.005412   0.006912   0.000908   0.000209   0.000487
    19  H    0.000805   0.005911  -0.022029  -0.000710   0.000066  -0.000050
    20  H   -0.000068  -0.017542   0.006414   0.000130  -0.000571   0.000018
    21  H    0.412559  -0.000038   0.000224   0.000938  -0.012749  -0.001334
    22  H    0.397211   0.000007  -0.000131  -0.000031   0.001585  -0.000027
    23  H    0.410960   0.000009   0.000386   0.000033   0.000147   0.000029
              13         14         15         16         17         18
     1  C   -0.042595   0.006555   0.006774  -0.008761  -0.000673  -0.009899
     2  C    0.421700  -0.048346  -0.051525  -0.004120   0.008055  -0.010787
     3  C   -0.056068   0.403239   0.425804  -0.048873  -0.035571  -0.003852
     4  C   -0.005950  -0.001087   0.001511  -0.001813   0.000590  -0.060359
     5  C    0.007703  -0.037320  -0.049112   0.430390   0.408366  -0.008373
     6  C   -0.003885   0.000786  -0.008245  -0.018640   0.000488   0.427834
     7  C   -0.000489  -0.004998   0.009458  -0.050193  -0.034484   0.000599
     8  H    0.000683   0.000074  -0.000041   0.001948  -0.000031   0.005412
     9  H   -0.000515   0.000014  -0.000133  -0.006416   0.000923   0.006912
    10  H   -0.010175  -0.000499  -0.000494  -0.000087   0.000059   0.000908
    11  H    0.009217   0.000824  -0.000824   0.000153  -0.000241   0.000209
    12  H   -0.030277  -0.017849   0.006976  -0.000534  -0.000442   0.000487
    13  H    0.607600   0.005928  -0.019613   0.001038  -0.000487  -0.005588
    14  H    0.005928   0.578837  -0.031229   0.008519  -0.005664   0.001539
    15  H   -0.019613  -0.031229   0.602337  -0.008011  -0.007616  -0.005553
    16  H    0.001038   0.008519  -0.008011   0.638322  -0.039193  -0.003930
    17  H   -0.000487  -0.005664  -0.007616  -0.039193   0.578203   0.000350
    18  H   -0.005588   0.001539  -0.005553  -0.003930   0.000350   0.610711
    19  H    0.000470  -0.000082   0.000769  -0.013421   0.000935  -0.040099
    20  H   -0.000035   0.000010   0.000429   0.002723  -0.000057  -0.034318
    21  H   -0.000310   0.000135   0.000302   0.003802   0.006262  -0.000067
    22  H    0.000073   0.002504  -0.000534   0.008915  -0.016404  -0.000012
    23  H    0.000011  -0.000285  -0.000500  -0.016805   0.003817   0.000051
              19         20         21         22         23
     1  C    0.008611   0.005683  -0.007744   0.000597  -0.001846
     2  C    0.000517  -0.000078   0.002868  -0.000690   0.000122
     3  C    0.000230  -0.000164  -0.001119   0.001464   0.007171
     4  C   -0.055494  -0.037266  -0.001184   0.000090   0.000162
     5  C   -0.009594   0.001504  -0.057969  -0.037216  -0.051014
     6  C    0.419156   0.398224  -0.000004  -0.000073   0.000316
     7  C    0.000805  -0.000068   0.412559   0.397211   0.410960
     8  H    0.005911  -0.017542  -0.000038   0.000007   0.000009
     9  H   -0.022029   0.006414   0.000224  -0.000131   0.000386
    10  H   -0.000710   0.000130   0.000938  -0.000031   0.000033
    11  H    0.000066  -0.000571  -0.012749   0.001585   0.000147
    12  H   -0.000050   0.000018  -0.001334  -0.000027   0.000029
    13  H    0.000470  -0.000035  -0.000310   0.000073   0.000011
    14  H   -0.000082   0.000010   0.000135   0.002504  -0.000285
    15  H    0.000769   0.000429   0.000302  -0.000534  -0.000500
    16  H   -0.013421   0.002723   0.003802   0.008915  -0.016805
    17  H    0.000935  -0.000057   0.006262  -0.016404   0.003817
    18  H   -0.040099  -0.034318  -0.000067  -0.000012   0.000051
    19  H    0.623948  -0.031623   0.000008  -0.000098   0.000144
    20  H   -0.031623   0.592521   0.000012   0.000004  -0.000038
    21  H    0.000008   0.000012   0.602778  -0.031642  -0.040702
    22  H   -0.000098   0.000004  -0.031642   0.586635  -0.026971
    23  H    0.000144  -0.000038  -0.040702  -0.026971   0.593189
 Mulliken charges:
               1
     1  C   -0.264141
     2  C   -0.265101
     3  C   -0.283964
     4  C   -0.204010
     5  C   -0.221224
     6  C   -0.380165
     7  C   -0.389867
     8  H    0.115718
     9  H    0.113697
    10  H    0.129218
    11  H    0.141203
    12  H    0.146941
    13  H    0.121562
    14  H    0.138395
    15  H    0.129067
    16  H    0.124988
    17  H    0.132812
    18  H    0.127823
    19  H    0.111629
    20  H    0.114087
    21  H    0.124975
    22  H    0.114742
    23  H    0.121613
 Sum of Mulliken charges =  -0.00000
 Mulliken charges with hydrogens summed into heavy atoms:
               1
     1  C    0.006280
     2  C    0.003401
     3  C   -0.016502
     4  C    0.025405
     5  C    0.036577
     6  C   -0.026625
     7  C   -0.028536
 APT charges:
               1
     1  C   -0.701762
     2  C   -0.761809
     3  C   -0.796326
     4  C   -0.678206
     5  C   -0.496004
     6  C   -1.064999
     7  C   -1.183952
     8  H    0.477478
     9  H    0.254411
    10  H    0.455435
    11  H    0.293018
    12  H    0.424169
    13  H    0.347680
    14  H    0.428502
    15  H    0.335011
    16  H    0.229954
    17  H    0.456125
    18  H    0.189348
    19  H    0.265653
    20  H    0.497432
    21  H    0.207592
    22  H    0.508863
    23  H    0.312386
 Sum of APT charges =  -0.00000
 APT charges with hydrogens summed into heavy atoms:
               1
     1  C    0.046691
     2  C    0.010040
     3  C   -0.032813
     4  C    0.053683
     5  C    0.190075
     6  C   -0.112566
     7  C   -0.155111
 Electronic spatial extent (au):  <R**2>=            898.4327
 Charge=             -0.0000 electrons
 Dipole moment (field-independent basis, Debye):
    X=             -0.0555    Y=              0.0706    Z=             -0.0094  Tot=              0.0904
 Quadrupole moment (field-independent basis, Debye-Ang):
   XX=            -48.9327   YY=            -49.1036   ZZ=            -49.7681
   XY=             -0.1041   XZ=             -0.3878   YZ=              0.1465
 Traceless Quadrupole moment (field-independent basis, Debye-Ang):
   XX=              0.3354   YY=              0.1645   ZZ=             -0.5000
   XY=             -0.1041   XZ=             -0.3878   YZ=              0.1465
 Octapole moment (field-independent basis, Debye-Ang**2):
  XXX=             -1.8784  YYY=             -0.3377  ZZZ=             -0.4225  XYY=              0.7171
  XXY=              1.3247  XXZ=             -0.4548  XZZ=              0.1023  YZZ=              1.0523
  YYZ=              0.5260  XYZ=              0.8845
 Hexadecapole moment (field-independent basis, Debye-Ang**3):
 XXXX=           -632.2795 YYYY=           -334.8954 ZZZZ=           -300.5674 XXXY=             -0.1064
 XXXZ=             -9.0145 YYYX=              1.0693 YYYZ=              1.6132 ZZZX=             -3.2598
 ZZZY=              0.6341 XXYY=           -166.0430 XXZZ=           -159.3222 YYZZ=           -105.2158
 XXYZ=              1.7746 YYXZ=              0.6203 ZZXY=             -1.7341
 N-N= 3.465081606770D+02 E-N=-1.331494840508D+03  KE= 2.746134524693D+02
  Exact polarizability:   0.000   0.000   0.000   0.000   0.000   0.000
 Approx polarizability: 100.652  -0.111  97.625  -0.282  -0.153  96.485
 No NMR shielding tensors so no spin-rotation constants.
 Leave Link  601 at Mon Sep 30 00:40:01 2019, MaxMem=   671088640 cpu:              57.9 elap:              29.0
 (Enter /shared/centos7/gaussian/g16/l701.exe)
 SCFChk:  SCF convergence  8.16D-09 required  1.00D-08
 ... and contract with generalized density number  0.
 Compute integral second derivatives.
 Entering OneElI...
 Calculate overlap and kinetic energy integrals
    NBasis = 485  MinDer = 2  MaxDer = 2
 Requested accuracy = 0.1000D-12
 PrmmSu-InSpLW:  IPartL=    0 NPrtUS=   20 NPrtUL=    1 DoSpLW=F IThBeg=    0 IThEnd=   19 NThAct=   20.
 PrsmSu:  NPrtUS=  20 ThrOK=T IAlg=1 NPAlg=1 LenDen=           0 ISkipM=0 DoSpLW=F IThBeg=    0 IThEnd=   19.
 Prism:   IPart=     0 DynPar=F LinDyn=F Incr=           6.
 PRISM was handed    33190123 working-precision words and 13839 shell-pairs
 PRISM was handed    33190123 working-precision words and 13839 shell-pairs
 PRISM was handed    33190123 working-precision words and 13839 shell-pairs
 PRISM was handed    33190123 working-precision words and 13839 shell-pairs
 PRISM was handed    33190123 working-precision words and 13839 shell-pairs
 PRISM was handed    33190123 working-precision words and 13839 shell-pairs
 PRISM was handed    33190123 working-precision words and 13839 shell-pairs
 PRISM was handed    33190123 working-precision words and 13839 shell-pairs
 PRISM was handed    33190123 working-precision words and 13839 shell-pairs
 PRISM was handed    33190123 working-precision words and 13839 shell-pairs
 PRISM was handed    33190123 working-precision words and 13839 shell-pairs
 PRISM was handed    33190123 working-precision words and 13839 shell-pairs
 PRISM was handed    33190123 working-precision words and 13839 shell-pairs
 IPart=  0 NShTot=         728 NBatch=          77 AvBLen=         9.5
 IPart=  8 NShTot=         693 NBatch=          60 AvBLen=        11.6
 PRISM was handed    33190123 working-precision words and 13839 shell-pairs
 PRISM was handed    33190123 working-precision words and 13839 shell-pairs
 PRISM was handed    33190123 working-precision words and 13839 shell-pairs
 PRISM was handed    33190123 working-precision words and 13839 shell-pairs
 IPart= 15 NShTot=         672 NBatch=          51 AvBLen=        13.2
 IPart= 13 NShTot=         674 NBatch=          51 AvBLen=        13.2
 IPart=  3 NShTot=         715 NBatch=          69 AvBLen=        10.4
 PRISM was handed    33190123 working-precision words and 13839 shell-pairs
 IPart=  9 NShTot=         688 NBatch=          59 AvBLen=        11.7
 IPart= 10 NShTot=         684 NBatch=          56 AvBLen=        12.2
 PRISM was handed    33190123 working-precision words and 13839 shell-pairs
 PRISM was handed    33190123 working-precision words and 13839 shell-pairs
 IPart=  6 NShTot=         707 NBatch=          67 AvBLen=        10.6
 IPart= 17 NShTot=         672 NBatch=          51 AvBLen=        13.2
 IPart=  4 NShTot=         712 NBatch=          69 AvBLen=        10.3
 IPart= 18 NShTot=         668 NBatch=          48 AvBLen=        13.9
 IPart=  2 NShTot=         719 NBatch=          71 AvBLen=        10.1
 IPart= 12 NShTot=         676 NBatch=          52 AvBLen=        13.0
 IPart= 19 NShTot=         668 NBatch=          48 AvBLen=        13.9
 IPart= 16 NShTot=         672 NBatch=          51 AvBLen=        13.2
 IPart=  1 NShTot=         726 NBatch=          76 AvBLen=         9.6
 IPart= 14 NShTot=         673 NBatch=          51 AvBLen=        13.2
 IPart=  5 NShTot=         711 NBatch=          69 AvBLen=        10.3
 IPart= 11 NShTot=         682 NBatch=          55 AvBLen=        12.4
 IPart=  7 NShTot=         699 NBatch=          61 AvBLen=        11.5
 PrSmSu:  NxtVal=            121.
 Entering OneElI...
 Calculate potential energy integrals
    NBasis = 485  MinDer = 2  MaxDer = 2
 Requested accuracy = 0.1000D-12
 PrmmSu-InSpLW:  IPartL=    0 NPrtUS=   20 NPrtUL=    1 DoSpLW=F IThBeg=    0 IThEnd=   19 NThAct=   20.
 PrsmSu:  NPrtUS=  20 ThrOK=T IAlg=1 NPAlg=1 LenDen=           0 ISkipM=0 DoSpLW=F IThBeg=    0 IThEnd=   19.
 Prism:   IPart=     0 DynPar=F LinDyn=F Incr=         149.
 PRISM was handed    33249425 working-precision words and 12960 shell-pairs
 PRISM was handed    33249425 working-precision words and 12960 shell-pairs
 PRISM was handed    33249425 working-precision words and 12960 shell-pairs
 PRISM was handed    33249425 working-precision words and 12960 shell-pairs
 PRISM was handed    33249425 working-precision words and 12960 shell-pairs
 PRISM was handed    33249425 working-precision words and 12960 shell-pairs
 PRISM was handed    33249425 working-precision words and 12960 shell-pairs
 PRISM was handed    33249425 working-precision words and 12960 shell-pairs
 PRISM was handed    33249425 working-precision words and 12960 shell-pairs
 PRISM was handed    33249425 working-precision words and 12960 shell-pairs
 PRISM was handed    33249425 working-precision words and 12960 shell-pairs
 PRISM was handed    33249425 working-precision words and 12960 shell-pairs
 PRISM was handed    33249425 working-precision words and 12960 shell-pairs
 PRISM was handed    33249425 working-precision words and 12960 shell-pairs
 PRISM was handed    33249425 working-precision words and 12960 shell-pairs
 PRISM was handed    33249425 working-precision words and 12960 shell-pairs
 PRISM was handed    33249425 working-precision words and 12960 shell-pairs
 PRISM was handed    33249425 working-precision words and 12960 shell-pairs
 PRISM was handed    33249425 working-precision words and 12960 shell-pairs
 PRISM was handed    33249425 working-precision words and 12960 shell-pairs
 IPart= 19 NShTot=       14306 NBatch=         623 AvBLen=        23.0
 IPart= 10 NShTot=       14789 NBatch=         644 AvBLen=        23.0
 IPart=  0 NShTot=       15640 NBatch=         682 AvBLen=        22.9
 IPart= 13 NShTot=       14582 NBatch=         635 AvBLen=        23.0
 IPart=  4 NShTot=       15479 NBatch=         675 AvBLen=        22.9
 IPart=  9 NShTot=       14812 NBatch=         645 AvBLen=        23.0
 IPart= 15 NShTot=       14444 NBatch=         629 AvBLen=        23.0
 IPart=  6 NShTot=       15249 NBatch=         665 AvBLen=        22.9
 IPart= 16 NShTot=       14329 NBatch=         624 AvBLen=        23.0
 IPart= 18 NShTot=       14306 NBatch=         623 AvBLen=        23.0
 IPart= 17 NShTot=       14306 NBatch=         623 AvBLen=        23.0
 IPart=  8 NShTot=       14904 NBatch=         649 AvBLen=        23.0
 IPart= 11 NShTot=       14720 NBatch=         641 AvBLen=        23.0
 IPart=  7 NShTot=       14950 NBatch=         652 AvBLen=        22.9
 IPart= 12 NShTot=       14628 NBatch=         637 AvBLen=        23.0
 IPart= 14 NShTot=       14513 NBatch=         632 AvBLen=        23.0
 IPart=  2 NShTot=       15594 NBatch=         680 AvBLen=        22.9
 IPart=  1 NShTot=       15594 NBatch=         680 AvBLen=        22.9
 IPart=  3 NShTot=       15548 NBatch=         678 AvBLen=        22.9
 IPart=  5 NShTot=       15387 NBatch=         671 AvBLen=        22.9
 PrSmSu:  NxtVal=           2981.
 Polarizability after L701:
                1             2             3 
      1  0.000000D+00
      2  0.000000D+00  0.000000D+00
      3  0.000000D+00  0.000000D+00  0.000000D+00
 Dipole Derivatives after L701:
                 1             2             3             4             5 
      1  -0.587617D+00  0.471148D+00  0.438257D+00 -0.550762D+00  0.130647D+00
      2   0.321247D+00 -0.171112D+00 -0.430511D+00  0.336522D+00 -0.151883D+01
      3  -0.158563D+00 -0.268122D+00 -0.134656D+01 -0.374656D+00 -0.160184D+00
                 6             7             8             9            10 
      1  -0.385226D+00 -0.767370D+00 -0.562269D+00  0.221676D+00 -0.965738D+00
      2  -0.129734D+00 -0.541849D+00 -0.483279D+00  0.580045D+00  0.704258D-01
      3  -0.215840D+00 -0.182455D-01  0.348913D+00 -0.113833D+01  0.335005D+00
                11            12            13            14            15 
      1  -0.643796D+00  0.952314D+00 -0.425170D+00  0.412834D+00  0.944342D+00
      2  -0.891249D+00  0.531842D+00 -0.215600D+00 -0.575222D+00 -0.492621D+00
      3   0.522784D+00 -0.177633D+00  0.277715D+00 -0.542168D+00 -0.487620D+00
                16            17            18            19            20 
      1  -0.111211D+01 -0.436411D-03 -0.119686D+01 -0.143546D+01  0.302388D+00
      2  -0.658055D-01 -0.948360D+00 -0.542629D+00  0.206467D+00 -0.112730D+01
      3  -0.686041D-01 -0.554348D-01 -0.113453D+01  0.116948D-02  0.674698D-01
                21            22            23            24            25 
      1  -0.855255D+00  0.942346D+00  0.949248D-01 -0.410525D+00 -0.331549D-01
      2   0.380643D+00  0.255060D+00  0.159390D+00 -0.111519D+00 -0.364941D+00
      3  -0.989093D+00 -0.345758D+00 -0.192129D-01  0.330699D+00  0.179537D+00
                26            27            28            29            30 
      1   0.219778D+00 -0.458486D-01  0.515991D+00 -0.250089D+00 -0.319842D+00
      2   0.581931D+00 -0.695769D-01 -0.246004D+00  0.365398D+00  0.225861D+00
      3  -0.195867D+00  0.214458D+00 -0.428689D+00  0.310530D+00  0.484916D+00
                31            32            33            34            35 
      1   0.217887D+00 -0.205515D-01  0.209759D-01  0.231004D+00  0.989138D-01
      2   0.324548D-01  0.176754D+00  0.247900D-01  0.392719D+00  0.744247D+00
      3   0.585181D+00 -0.250433D+00  0.484414D+00  0.101326D+00  0.189628D+00
                36            37            38            39            40 
      1   0.419936D-01  0.429216D+00 -0.118220D+00  0.209986D+00  0.625752D+00
      2   0.416734D+00 -0.533396D+00  0.331285D+00 -0.387268D+00  0.435604D+00
      3   0.297257D+00  0.129009D+00 -0.423419D-01  0.282540D+00 -0.241069D+00
                41            42            43            44            45 
      1   0.405153D+00 -0.373152D-02  0.110780D+00 -0.229063D-01 -0.113523D+00
      2   0.521246D+00  0.383289D-01 -0.201724D+00  0.145789D+00 -0.291951D+00
      3  -0.164226D+00  0.138507D+00  0.365592D+00  0.186857D-01  0.748465D+00
                46            47            48            49            50 
      1   0.107573D+00 -0.763095D-01 -0.741519D-02  0.568709D+00 -0.220134D+00
      2   0.428236D+00  0.416561D+00 -0.249602D-01 -0.187342D+00  0.217283D+00
      3   0.237540D+00  0.123829D+00  0.165727D+00 -0.315353D+00  0.150017D+00
                51            52            53            54            55 
      1  -0.554021D+00 -0.733048D-01 -0.329853D+00  0.210550D+00 -0.117823D+00
      2   0.227539D+00  0.939356D-01  0.290570D+00 -0.360747D-01 -0.375667D+00
      3   0.582384D+00 -0.247977D+00 -0.423217D+00  0.350778D+00 -0.263813D+00
                56            57            58            59            60 
      1   0.298621D+00  0.172263D+00  0.116297D+01  0.357628D-01  0.218886D+00
      2   0.615085D+00  0.189863D+00  0.252142D+00  0.962389D-01  0.558716D-01
      3   0.376911D+00  0.299696D+00  0.392033D+00  0.110884D-01  0.233093D+00
                61            62            63            64            65 
      1  -0.825674D-01  0.349803D+00  0.446857D+00  0.130901D+01 -0.923639D-01
      2  -0.292845D-01  0.202853D+00  0.394696D-01 -0.309819D+00  0.110068D+00
      3  -0.198962D+00  0.357185D+00  0.502491D+00  0.169294D+00 -0.145540D-01
                66            67            68            69 
      1  -0.235187D+00 -0.701606D-01 -0.483047D+00  0.249331D+00
      2   0.594427D-01  0.246618D+00  0.740655D+00 -0.253585D+00
      3   0.107511D+00 -0.111713D+00 -0.341280D+00  0.266662D+00
 Hessian after L701:
                1             2             3             4             5 
      1  0.165776D+02
      2 -0.669360D+00  0.174701D+02
      3  0.365356D+00 -0.213831D+00  0.170110D+02
      4 -0.561190D+01  0.112983D+01 -0.115086D+01  0.166251D+02
      5  0.116104D+01 -0.477801D+01 -0.166988D+01 -0.163777D+00  0.165352D+02
      6 -0.116750D+01 -0.164797D+01 -0.479188D+01  0.964518D+00  0.980055D-01
      7  0.152889D+00  0.109687D-02 -0.166908D+00 -0.434544D+01 -0.927179D+00
      8 -0.599734D-02 -0.110741D-01  0.172499D-01 -0.897715D+00 -0.573363D+01
      9 -0.219592D+00 -0.471337D-02  0.972864D-01 -0.161685D+01  0.101160D+01
     10 -0.513696D+01  0.145906D+01  0.718530D+00  0.563158D-01  0.250778D+00
     11  0.136655D+01 -0.385147D+01  0.113152D+01  0.309675D+00  0.216232D+00
     12  0.691805D+00  0.116726D+01 -0.581277D+01 -0.212515D-01 -0.129907D-01
     13  0.114870D+00 -0.158164D+00 -0.270912D+00  0.111957D+00 -0.174674D+00
     14 -0.131048D+00 -0.169403D+00  0.898049D-01 -0.180079D+00  0.133792D+00
     15 -0.282625D+00  0.107976D+00 -0.357551D-01 -0.646515D-01  0.477094D-01
     16 -0.578564D-01  0.580679D-01  0.129223D+00 -0.300707D-01  0.108569D+00
     17  0.106881D+00 -0.333925D-01  0.159102D+00  0.214995D+00  0.159273D-01
     18  0.156907D+00  0.103807D+00  0.213117D+00  0.156739D-01  0.569603D-02
     19  0.231159D+00 -0.178311D+00 -0.185793D-02  0.113103D-01 -0.162095D+00
     20 -0.209161D+00 -0.973525D-01  0.689921D-02 -0.203832D+00  0.286430D-01
     21 -0.161495D+00  0.686937D-01 -0.195309D+00 -0.324313D-03 -0.190495D-01
     22  0.795462D-01 -0.104042D+00 -0.550267D-01  0.657050D-01  0.941893D-01
     23 -0.100830D+00 -0.405494D-01 -0.180445D-01  0.862965D-01  0.344247D-01
     24 -0.432464D-01 -0.102473D-01  0.111796D+00 -0.533086D-01 -0.411616D-01
     25  0.204303D+00 -0.144879D+00 -0.112777D-01 -0.399845D-01  0.244029D-01
     26 -0.985267D-01 -0.148287D+00 -0.114371D+00  0.481341D-01  0.115085D+00
     27 -0.101923D-02 -0.570933D-01  0.182940D+00 -0.106203D-01 -0.348574D-01
     28 -0.351989D+01 -0.749531D+00 -0.917826D+00  0.646558D-01 -0.726293D-01
     29 -0.743184D+00 -0.375212D+01  0.794556D+00 -0.715258D-01  0.106001D+00
     30 -0.927806D+00  0.807912D+00 -0.338797D+01  0.651731D-01  0.848780D-01
     31 -0.331157D+01 -0.646287D+00  0.125407D+01  0.175637D+00 -0.193216D-01
     32 -0.645980D+00 -0.457183D+01 -0.501808D+00  0.932607D-02 -0.187366D-01
     33  0.150795D+01 -0.602850D+00 -0.362736D+01 -0.681366D-02  0.180578D+00
     34  0.578766D-01 -0.777237D-01  0.529800D-01 -0.407624D+01  0.714194D+00
     35 -0.105019D+00 -0.431725D-01  0.998916D-01  0.766725D+00 -0.290256D+01
     36  0.553215D-01  0.894124D-01  0.127332D+00  0.482850D+00  0.933680D+00
     37  0.158344D+00 -0.419387D-01  0.369837D-01 -0.313579D+01 -0.821863D+00
     38 -0.201253D-01  0.459081D-01  0.136498D+00 -0.974321D+00 -0.406381D+01
     39  0.276442D-01  0.726940D-01 -0.404334D-01  0.101419D+01 -0.534799D+00
     40  0.713416D-01  0.486968D-01 -0.837401D-01 -0.139854D-01  0.656247D-01
     41  0.636334D-01 -0.211364D-01 -0.386082D-01  0.371424D-01  0.170929D+00
     42 -0.798830D-01 -0.312613D-01  0.159611D-01  0.163372D+00 -0.119139D-01
     43 -0.308161D-01  0.573393D-02 -0.472043D-01  0.110855D+00  0.404096D-01
     44  0.107736D-01 -0.453470D-01 -0.275329D-01  0.218335D-01  0.133993D+00
     45 -0.762049D-01 -0.290051D-01  0.126163D+00  0.146471D+00 -0.101543D+00
     46 -0.284068D-01  0.345058D-01  0.355593D-01 -0.799239D-02  0.189947D-01
     47 -0.768059D-02  0.190934D-01 -0.926398D-03 -0.158829D-01  0.374217D-02
     48  0.489372D-02 -0.262497D-02 -0.167679D-01 -0.703241D-02 -0.131861D-02
     49  0.873049D-02 -0.647693D-02 -0.785648D-02  0.337241D-01 -0.832741D-01
     50 -0.114575D-01 -0.609900D-02  0.482448D-02 -0.827549D-01  0.359155D-01
[...]
 Cycle   5  Pass 1  IDiag  1:
 E= -276.338508092831     Delta-E=       -0.000051187931 Rises=F Damp=F
 DIIS: error= 5.04D-05 at cycle   1 NSaved=   1.
 NSaved= 1 IEnMin= 1 EnMin= -276.338508092831     IErMin= 1 ErrMin= 5.04D-05
 ErrMax= 5.04D-05  0.00D+00 EMaxC= 1.00D-01 BMatC= 9.86D-07 BMatP= 9.86D-07
 IDIUse=1 WtCom= 1.00D+00 WtEn= 0.00D+00
 Coeff-Com:  0.100D+01
 Coeff:      0.100D+01
 Gap=     0.427 Goal=   None    Shift=    0.000
 RMSDP=4.42D-06 MaxDP=1.56D-04 DE=-5.12D-05 OVMax= 8.61D-05

 Cycle   6  Pass 1  IDiag  1:
 RMSU=  8.36D-06    CP:  1.00D+00
 E= -276.338508453513     Delta-E=       -0.000000360681 Rises=F Damp=F
 DIIS: error= 7.09D-06 at cycle   2 NSaved=   2.
 NSaved= 2 IEnMin= 2 EnMin= -276.338508453513     IErMin= 2 ErrMin= 7.09D-06
 ErrMax= 7.09D-06  0.00D+00 EMaxC= 1.00D-01 BMatC= 2.31D-08 BMatP= 9.86D-07
 IDIUse=1 WtCom= 1.00D+00 WtEn= 0.00D+00
 Coeff-Com:  0.255D-01 0.974D+00
 Coeff:      0.255D-01 0.974D+00
 Gap=     0.427 Goal=   None    Shift=    0.000
 RMSDP=5.92D-07 MaxDP=1.60D-05 DE=-3.61D-07 OVMax= 4.89D-05

 Cycle   7  Pass 1  IDiag  1:
 RMSU=  5.40D-07    CP:  1.00D+00  1.03D+00
 E= -276.338508457421     Delta-E=       -0.000000003908 Rises=F Damp=F
 DIIS: error= 8.17D-06 at cycle   3 NSaved=   3.
 NSaved= 3 IEnMin= 3 EnMin= -276.338508457421     IErMin= 2 ErrMin= 7.09D-06
 ErrMax= 8.17D-06  0.00D+00 EMaxC= 1.00D-01 BMatC= 2.02D-08 BMatP= 2.31D-08
 IDIUse=1 WtCom= 1.00D+00 WtEn= 0.00D+00
 Coeff-Com: -0.965D-02 0.485D+00 0.525D+00
 Coeff:     -0.965D-02 0.485D+00 0.525D+00
 Gap=     0.427 Goal=   None    Shift=    0.000
 RMSDP=2.30D-07 MaxDP=8.84D-06 DE=-3.91D-09 OVMax= 2.45D-05

 Cycle   8  Pass 1  IDiag  1:
 RMSU=  1.47D-07    CP:  1.00D+00  1.03D+00  6.72D-01
 E= -276.338508477343     Delta-E=       -0.000000019922 Rises=F Damp=F
 DIIS: error= 4.52D-07 at cycle   4 NSaved=   4.
 NSaved= 4 IEnMin= 4 EnMin= -276.338508477343     IErMin= 4 ErrMin= 4.52D-07
 ErrMax= 4.52D-07  0.00D+00 EMaxC= 1.00D-01 BMatC= 8.09D-11 BMatP= 2.02D-08
 IDIUse=1 WtCom= 1.00D+00 WtEn= 0.00D+00
 Coeff-Com: -0.194D-02 0.367D-01 0.685D-01 0.897D+00
 Coeff:     -0.194D-02 0.367D-01 0.685D-01 0.897D+00
 Gap=     0.427 Goal=   None    Shift=    0.000
 RMSDP=3.23D-08 MaxDP=9.72D-07 DE=-1.99D-08 OVMax= 2.48D-06

 Cycle   9  Pass 1  IDiag  1:
 RMSU=  2.76D-08    CP:  1.00D+00  1.03D+00  6.95D-01  1.05D+00
 E= -276.338508477429     Delta-E=       -0.000000000087 Rises=F Damp=F
 DIIS: error= 1.59D-07 at cycle   5 NSaved=   5.
 NSaved= 5 IEnMin= 5 EnMin= -276.338508477429     IErMin= 5 ErrMin= 1.59D-07
 ErrMax= 1.59D-07  0.00D+00 EMaxC= 1.00D-01 BMatC= 1.09D-11 BMatP= 8.09D-11
 IDIUse=1 WtCom= 1.00D+00 WtEn= 0.00D+00
 Coeff-Com:  0.293D-03-0.308D-01-0.253D-01 0.245D+00 0.811D+00
 Coeff:      0.293D-03-0.308D-01-0.253D-01 0.245D+00 0.811D+00
 Gap=     0.427 Goal=   None    Shift=    0.000
 RMSDP=1.04D-08 MaxDP=3.22D-07 DE=-8.67D-11 OVMax= 8.40D-07

 Cycle  10  Pass 1  IDiag  1:
 RMSU=  7.36D-09    CP:  1.00D+00  1.03D+00  7.01D-01  1.09D+00  9.65D-01
 E= -276.338508477452     Delta-E=       -0.000000000023 Rises=F Damp=F
 DIIS: error= 1.55D-08 at cycle   6 NSaved=   6.
 NSaved= 6 IEnMin= 6 EnMin= -276.338508477452     IErMin= 6 ErrMin= 1.55D-08
 ErrMax= 1.55D-08  0.00D+00 EMaxC= 1.00D-01 BMatC= 2.29D-13 BMatP= 1.09D-11
 IDIUse=1 WtCom= 1.00D+00 WtEn= 0.00D+00
 Coeff-Com:  0.104D-03-0.644D-02-0.642D-02 0.150D-01 0.140D+00 0.857D+00
 Coeff:      0.104D-03-0.644D-02-0.642D-02 0.150D-01 0.140D+00 0.857D+00
 Gap=     0.427 Goal=   None    Shift=    0.000
 RMSDP=1.77D-09 MaxDP=6.19D-08 DE=-2.31D-11 OVMax= 1.41D-07

 SCF Done:  E(RM062X) =  -276.338508477     A.U. after   10 cycles
            NFock= 10  Conv=0.18D-08     -V/T= 2.0064
 KE= 2.745826829165D+02 PE=-1.302865444011D+03 EE= 4.197715243154D+02
 Leave Link  502 at Mon Sep 30 11:49:23 2019, MaxMem=   671088640 cpu:            1752.0 elap:             876.1
 (Enter /shared/centos7/gaussian/g16/l701.exe)
 SCFChk:  SCF convergence  1.77D-09 required  1.00D-08
 ... and contract with generalized density number  0.
 Compute integral first derivatives.
 DipInt: DoE/N= T T RetVal/Mat= T F Init=T NMatP=  1 IDeriv=0 Min/MaxMlt=  1  1
 Entering OneElI...
 Multipole integrals L=1 to 1 MinM= 0 MaxM= 0.
 Requested accuracy = 0.1000D-12
 PrmmSu-InSpLW:  IPartL=    0 NPrtUS=    1 NPrtUL=    1 DoSpLW=F IThBeg=    0 IThEnd=    0 NThAct=    1.
 PrsmSu:  NPrtUS=   1 ThrOK=F IAlg=1 NPAlg=1 LenDen=           0 ISkipM=0 DoSpLW=F IThBeg=    0 IThEnd=    0.
 Prism:   IPart=     0 DynPar=F LinDyn=F Incr=         131.
 PRISM was handed   669658186 working-precision words and 13135 shell-pairs
 IPart=  0 NShTot=       13135 NBatch=          78 AvBLen=       168.4
 PrSmSu:  NxtVal=            132.
 Entering OneElI...
 Calculate overlap and kinetic energy integrals
    NBasis = 485  MinDer = 1  MaxDer = 1
 Requested accuracy = 0.1000D-12
 PrmmSu-InSpLW:  IPartL=    0 NPrtUS=   20 NPrtUL=    1 DoSpLW=F IThBeg=    0 IThEnd=   19 NThAct=   20.
 PrsmSu:  NPrtUS=  20 ThrOK=T IAlg=1 NPAlg=1 LenDen=           0 ISkipM=0 DoSpLW=F IThBeg=    0 IThEnd=   19.
 Prism:   IPart=     0 DynPar=F LinDyn=F Incr=           6.
 PRISM was handed    33211039 working-precision words and 13594 shell-pairs
 PRISM was handed    33211039 working-precision words and 13594 shell-pairs
 PRISM was handed    33211039 working-precision words and 13594 shell-pairs
 PRISM was handed    33211039 working-precision words and 13594 shell-pairs
 PRISM was handed    33211039 working-precision words and 13594 shell-pairs
 PRISM was handed    33211039 working-precision words and 13594 shell-pairs
 IPart=  1 NShTot=         709 NBatch=          64 AvBLen=        11.1
 IPart=  0 NShTot=         713 NBatch=          67 AvBLen=        10.6
 PRISM was handed    33211039 working-precision words and 13594 shell-pairs
 PRISM was handed    33211039 working-precision words and 13594 shell-pairs
 IPart= 16 NShTot=         657 NBatch=          39 AvBLen=        16.8
 IPart= 14 NShTot=         663 NBatch=          42 AvBLen=        15.8
 PRISM was handed    33211039 working-precision words and 13594 shell-pairs
 PRISM was handed    33211039 working-precision words and 13594 shell-pairs
 IPart= 13 NShTot=         665 NBatch=          42 AvBLen=        15.8
 IPart=  3 NShTot=         706 NBatch=          63 AvBLen=        11.2
 PRISM was handed    33211039 working-precision words and 13594 shell-pairs
 PRISM was handed    33211039 working-precision words and 13594 shell-pairs
 IPart= 15 NShTot=         663 NBatch=          42 AvBLen=        15.8
 IPart=  5 NShTot=         698 NBatch=          59 AvBLen=        11.8
 IPart=  8 NShTot=         679 NBatch=          45 AvBLen=        15.1
 PRISM was handed    33211039 working-precision words and 13594 shell-pairs
 PRISM was handed    33211039 working-precision words and 13594 shell-pairs
 PRISM was handed    33211039 working-precision words and 13594 shell-pairs
 PRISM was handed    33211039 working-precision words and 13594 shell-pairs
 PRISM was handed    33211039 working-precision words and 13594 shell-pairs
 IPart=  2 NShTot=         708 NBatch=          64 AvBLen=        11.1
 PRISM was handed    33211039 working-precision words and 13594 shell-pairs
 IPart= 11 NShTot=         671 NBatch=          45 AvBLen=        14.9
 PRISM was handed    33211039 working-precision words and 13594 shell-pairs
 PRISM was handed    33211039 working-precision words and 13594 shell-pairs
 IPart= 10 NShTot=         672 NBatch=          45 AvBLen=        14.9
 IPart= 17 NShTot=         657 NBatch=          39 AvBLen=        16.8
 IPart= 12 NShTot=         667 NBatch=          42 AvBLen=        15.9
 IPart= 19 NShTot=         657 NBatch=          39 AvBLen=        16.8
 IPart= 18 NShTot=         657 NBatch=          39 AvBLen=        16.8
 IPart=  7 NShTot=         681 NBatch=          46 AvBLen=        14.8
 IPart=  9 NShTot=         675 NBatch=          45 AvBLen=        15.0
 IPart=  4 NShTot=         703 NBatch=          62 AvBLen=        11.3
 IPart=  6 NShTot=         693 NBatch=          55 AvBLen=        12.6
 PrSmSu:  NxtVal=            121.
 Entering OneElI...
 Calculate potential energy integrals
    NBasis = 485  MinDer = 1  MaxDer = 1
 Requested accuracy = 0.1000D-12
 PrmmSu-InSpLW:  IPartL=    0 NPrtUS=   20 NPrtUL=    1 DoSpLW=F IThBeg=    0 IThEnd=   19 NThAct=   20.
 PrsmSu:  NPrtUS=  20 ThrOK=T IAlg=1 NPAlg=1 LenDen=           0 ISkipM=0 DoSpLW=F IThBeg=    0 IThEnd=   19.
 Prism:   IPart=     0 DynPar=F LinDyn=F Incr=         141.
 PRISM was handed    33270846 working-precision words and 12346 shell-pairs
 PRISM was handed    33270846 working-precision words and 12346 shell-pairs
 PRISM was handed    33270846 working-precision words and 12346 shell-pairs
 PRISM was handed    33270846 working-precision words and 12346 shell-pairs
 PRISM was handed    33270846 working-precision words and 12346 shell-pairs
 PRISM was handed    33270846 working-precision words and 12346 shell-pairs
 PRISM was handed    33270846 working-precision words and 12346 shell-pairs
 PRISM was handed    33270846 working-precision words and 12346 shell-pairs
 PRISM was handed    33270846 working-precision words and 12346 shell-pairs
 PRISM was handed    33270846 working-precision words and 12346 shell-pairs
 PRISM was handed    33270846 working-precision words and 12346 shell-pairs
 PRISM was handed    33270846 working-precision words and 12346 shell-pairs
 PRISM was handed    33270846 working-precision words and 12346 shell-pairs
 PRISM was handed    33270846 working-precision words and 12346 shell-pairs
 PRISM was handed    33270846 working-precision words and 12346 shell-pairs
 PRISM was handed    33270846 working-precision words and 12346 shell-pairs
 PRISM was handed    33270846 working-precision words and 12346 shell-pairs
 PRISM was handed    33270846 working-precision words and 12346 shell-pairs
 PRISM was handed    33270846 working-precision words and 12346 shell-pairs
 PRISM was handed    33270846 working-precision words and 12346 shell-pairs
 IPart=  3 NShTot=       14651 NBatch=         637 AvBLen=        23.0
 IPart= 15 NShTot=       13846 NBatch=         602 AvBLen=        23.0
 IPart=  1 NShTot=       14904 NBatch=         648 AvBLen=        23.0
 IPart= 17 NShTot=       13708 NBatch=         596 AvBLen=        23.0
 IPart= 10 NShTot=       14122 NBatch=         614 AvBLen=        23.0
 IPart= 14 NShTot=       13869 NBatch=         603 AvBLen=        23.0
 IPart= 11 NShTot=       14053 NBatch=         611 AvBLen=        23.0
 IPart= 19 NShTot=       13616 NBatch=         592 AvBLen=        23.0
 IPart= 13 NShTot=       13938 NBatch=         606 AvBLen=        23.0
 IPart=  0 NShTot=       14950 NBatch=         650 AvBLen=        23.0
 IPart= 18 NShTot=       13662 NBatch=         594 AvBLen=        23.0
 IPart=  8 NShTot=       14191 NBatch=         617 AvBLen=        23.0
 IPart=  2 NShTot=       14766 NBatch=         642 AvBLen=        23.0
 IPart= 16 NShTot=       13777 NBatch=         599 AvBLen=        23.0
 IPart= 12 NShTot=       14007 NBatch=         609 AvBLen=        23.0
 IPart=  5 NShTot=       14513 NBatch=         631 AvBLen=        23.0
 IPart=  9 NShTot=       14168 NBatch=         616 AvBLen=        23.0
 IPart=  4 NShTot=       14605 NBatch=         635 AvBLen=        23.0
 IPart=  6 NShTot=       14398 NBatch=         626 AvBLen=        23.0
 IPart=  7 NShTot=       14214 NBatch=         618 AvBLen=        23.0
 PrSmSu:  NxtVal=           2821.
 Force l701 out
 I=    0 X=  -1.190461726667D-02 Y=   2.049096017534D-03 Z=   2.424965367972D-02
 I=    1 X=  -1.526186949986D+00 Y=   3.827598861868D+00 Z=  -8.405510405513D-01
 I=    2 X=  -1.673642059442D-01 Y=   7.488154608809D-01 Z=  -3.856201544568D+00
 I=    3 X=   1.885924098724D+00 Y=  -3.188050870438D+00 Z=  -1.864018313457D+00
 I=    4 X=  -3.734408318021D+00 Y=   1.467842643639D+00 Z=   2.601930954486D+00
 I=    5 X=   3.633956431862D+00 Y=  -1.966493968315D+00 Z=   2.266059280925D+00
 I=    6 X=  -5.324464045184D+00 Y=  -1.793294605301D+00 Z=   7.432022262229D-01
 I=    7 X=   5.311719129857D+00 Y=   1.134143293177D+00 Z=   6.842738986809D-01
 I=    8 X=  -2.230001206565D+00 Y=   2.505141645419D+00 Z=   2.296599538816D+00
 I=    9 X=   1.399319604464D+00 Y=  -1.864844293481D+00 Z=   3.219023004036D+00
 I=   10 X=  -2.044940182597D+00 Y=   3.083737877860D+00 Z=  -2.046199720525D+00
 I=   11 X=   2.276483676635D+00 Y=   2.701017627590D+00 Z=   2.190528757230D+00
 I=   12 X=   2.415377390693D+00 Y=   2.335546042675D+00 Z=  -2.609645058999D+00
 I=   13 X=  -2.369321998352D+00 Y=  -1.599999493432D+00 Z=  -3.156070009707D+00
 I=   14 X=   1.947735281628D+00 Y=  -2.647853228988D+00 Z=  -2.741850530586D+00
 I=   15 X=  -2.396507356687D+00 Y=  -3.020647153649D+00 Z=   1.625885577199D+00
 I=   16 X=  -1.314542826423D+00 Y=   1.874136961233D+00 Z=   3.274254647963D+00
 I=   17 X=   1.541852027127D+00 Y=  -3.034808514568D+00 Z=   2.192329103439D+00
 I=   18 X=  -2.173118197605D+00 Y=   1.154783486737D+00 Z=  -2.675195449871D+00
 I=   19 X=   7.554950027125D-01 Y=  -3.129900204558D+00 Z=  -1.576501735495D+00
 I=   20 X=  -2.879114015622D+00 Y=  -1.524013790248D+00 Z=   1.845695014153D+00
 I=   21 X=  -1.119048776737D-01 Y=   3.016947204692D+00 Z=  -1.910637044012D+00
 I=   22 X=   2.650667457819D+00 Y=  -1.504032125794D+00 Z=  -1.996871173249D+00
 I=   23 X=   2.453344079137D+00 Y=   1.424227143001D+00 Z=   2.333959617868D+00
 Leave Link  701 at Mon Sep 30 11:49:46 2019, MaxMem=   671088640 cpu:              45.7 elap:              22.9
 (Enter /shared/centos7/gaussian/g16/l702.exe)
 L702 exits ... SP integral derivatives will be done elsewhere.
 Leave Link  702 at Mon Sep 30 11:49:47 2019, MaxMem=   671088640 cpu:               1.6 elap:               0.8
 (Enter /shared/centos7/gaussian/g16/l703.exe)
 Integral derivatives from FoFJK, PRISM(SPDF).
 Compute integral first derivatives, UseDBF=F ICtDFT=           0.
 ICntrl=      2127.
 Calling FoFJK, ICntrl=      2127 FMM=F ISym2X=0 I1Cent= 0 IOpClX= 0 NMat=1 NMatS=1 NMatT=0.
 FoFJK:  IHMeth= 1 ICntrl=    2127 DoSepK=F KAlg= 0 I1Cent=           0 FoldK=F
 IRaf=         0 NMat=       1 IRICut=       1 DoRegI=T DoRafI=F ISym2E= 0 IDoP0=0 IntGTp=1.
 FoFCou: FMM=F IPFlag=           0 FMFlag=      100000 FMFlg1=         800
         NFxFlg=           0 DoJE=F BraDBF=F KetDBF=F FulRan=T
         wScrn=  0.000000 ICntrl=      2127 IOpCl=  0 I1Cent=           0 NGrid=           0
         NMat0=    1 NMatS0=      1 NMatT0=    0 NMatD0=    1 NMtDS0=    0 NMtDT0=    0
 Symmetry not used in FoFCou.
 FoFCou:  KetSym=F NOpSet=  1 NOpAb=1 NOp=  1.
 FoFCou:  CnvScl= 1.00D+00 Thresh= 1.00D-12 IAcrcy=      10.
 PrismS was handed   669993661 working-precision words and 13114 shell-pairs
 FoFCou: LinMIO=F DoNuc=F BraDBF=F KetDBF=F HaveP=T PDBF=F HaveZ=T HaveW=F
         NIJTC =      10 NIJTAt=       0 NIJTCD=       0 NIJTT =      10
         IJTBeg=       1 IJTEnd=      10 KLTBeg=       1 KLTEnd=      10
         IPTBeg=       1 IPTEnd=      10 IPTBCv=       1 IPTECv=      10
         IZTBeg=       1 IZTEnd=      10 IZTBCv=       1 IZTECv=      10
         IWTBeg=      11 IWTEnd=      10 IWTBCv=      11 IWTECv=      10
         INTBeg=       1 INTEnd=       0 IFTBCv=       1 IFTECv=      10
 NCel replicated for PrismC:     1
 CoulSu-InSpLW:  IPartL=    0 NPrtUS=   20 NPrtUL=    1 DoSpLW=F IThBeg=    0 IThEnd=   19 NThAct=   20.
 CoulSu:  IncDef=  1024 NBBP=       85995055 NTPThr=   100 NPartT=   20 Incr=        1024 LDynOK=F GPUOK=T.
 CoulSu:  NPrtUS=  20 ThrOK=T IAlg=1 NPAlg=1 LenDen=           0 LWGrdD=           0 DoCopy=F ISkipM=0
          DoSpLW=F IThBeg=    0 IThEnd=   19.
 Enter PrismC:  IPart=  0 JobTyp=21 DoJE=F Cont=F.
 PrismC:  IPart=     0 DynPar=T LinDyn=F Incr=        1024 UseFst=F UseS4=T ISplat=2.
 PrismC was handed    33265145 working-precision words and 13114 shell-pairs
 Enter PrismC:  IPart= 17 JobTyp=21 DoJE=F Cont=F.
 PrismC:  IPart=    17 DynPar=T LinDyn=F Incr=        1024 UseFst=F UseS4=T ISplat=2.
 PrismC was handed    33265145 working-precision words and 13114 shell-pairs
 Enter PrismC:  IPart= 16 JobTyp=21 DoJE=F Cont=F.
 PrismC:  IPart=    16 DynPar=T LinDyn=F Incr=        1024 UseFst=F UseS4=T ISplat=2.
 PrismC was handed    33265145 working-precision words and 13114 shell-pairs
 Enter PrismC:  IPart=  2 JobTyp=21 DoJE=F Cont=F.
 PrismC:  IPart=     2 DynPar=T LinDyn=F Incr=        1024 UseFst=F UseS4=T ISplat=2.
 PrismC was handed    33265145 working-precision words and 13114 shell-pairs
 Enter PrismC:  IPart=  4 JobTyp=21 DoJE=F Cont=F.
 PrismC:  IPart=     4 DynPar=T LinDyn=F Incr=        1024 UseFst=F UseS4=T ISplat=2.
 PrismC was handed    33265145 working-precision words and 13114 shell-pairs
 Enter PrismC:  IPart=  3 JobTyp=21 DoJE=F Cont=F.
 PrismC:  IPart=     3 DynPar=T LinDyn=F Incr=        1024 UseFst=F UseS4=T ISplat=2.
 PrismC was handed    33265145 working-precision words and 13114 shell-pairs
 Enter PrismC:  IPart=  5 JobTyp=21 DoJE=F Cont=F.
 PrismC:  IPart=     5 DynPar=T LinDyn=F Incr=        1024 UseFst=F UseS4=T ISplat=2.
 PrismC was handed    33265145 working-precision words and 13114 shell-pairs
 Enter PrismC:  IPart=  9 JobTyp=21 DoJE=F Cont=F.
 PrismC:  IPart=     9 DynPar=T LinDyn=F Incr=        1024 UseFst=F UseS4=T ISplat=2.
 PrismC was handed    33265145 working-precision words and 13114 shell-pairs
 Enter PrismC:  IPart= 10 JobTyp=21 DoJE=F Cont=F.
 PrismC:  IPart=    10 DynPar=T LinDyn=F Incr=        1024 UseFst=F UseS4=T ISplat=2.
 PrismC was handed    33265145 working-precision words and 13114 shell-pairs
 Enter PrismC:  IPart= 12 JobTyp=21 DoJE=F Cont=F.
 PrismC:  IPart=    12 DynPar=T LinDyn=F Incr=        1024 UseFst=F UseS4=T ISplat=2.
 PrismC was handed    33265145 working-precision words and 13114 shell-pairs
 Enter PrismC:  IPart= 11 JobTyp=21 DoJE=F Cont=F.
 PrismC:  IPart=    11 DynPar=T LinDyn=F Incr=        1024 UseFst=F UseS4=T ISplat=2.
 PrismC was handed    33265145 working-precision words and 13114 shell-pairs
 Enter PrismC:  IPart=  8 JobTyp=21 DoJE=F Cont=F.
 PrismC:  IPart=     8 DynPar=T LinDyn=F Incr=        1024 UseFst=F UseS4=T ISplat=2.
 PrismC was handed    33265145 working-precision words and 13114 shell-pairs
 Enter PrismC:  IPart= 18 JobTyp=21 DoJE=F Cont=F.
 PrismC:  IPart=    18 DynPar=T LinDyn=F Incr=        1024 UseFst=F UseS4=T ISplat=2.
 PrismC was handed    33265145 working-precision words and 13114 shell-pairs
 Enter PrismC:  IPart=  6 JobTyp=21 DoJE=F Cont=F.
 PrismC:  IPart=     6 DynPar=T LinDyn=F Incr=        1024 UseFst=F UseS4=T ISplat=2.
 PrismC was handed    33265145 working-precision words and 13114 shell-pairs
 Enter PrismC:  IPart= 13 JobTyp=21 DoJE=F Cont=F.
 PrismC:  IPart=    13 DynPar=T LinDyn=F Incr=        1024 UseFst=F UseS4=T ISplat=2.
 PrismC was handed    33265145 working-precision words and 13114 shell-pairs
 Enter PrismC:  IPart=  1 JobTyp=21 DoJE=F Cont=F.
 PrismC:  IPart=     1 DynPar=T LinDyn=F Incr=        1024 UseFst=F UseS4=T ISplat=2.
 PrismC was handed    33265145 working-precision words and 13114 shell-pairs
 Enter PrismC:  IPart=  7 JobTyp=21 DoJE=F Cont=F.
 PrismC:  IPart=     7 DynPar=T LinDyn=F Incr=        1024 UseFst=F UseS4=T ISplat=2.
 PrismC was handed    33265145 working-precision words and 13114 shell-pairs
 Enter PrismC:  IPart= 19 JobTyp=21 DoJE=F Cont=F.
 PrismC:  IPart=    19 DynPar=T LinDyn=F Incr=        1024 UseFst=F UseS4=T ISplat=2.
 PrismC was handed    33265145 working-precision words and 13114 shell-pairs
 Enter PrismC:  IPart= 14 JobTyp=21 DoJE=F Cont=F.
 PrismC:  IPart=    14 DynPar=T LinDyn=F Incr=        1024 UseFst=F UseS4=T ISplat=2.
 PrismC was handed    33265145 working-precision words and 13114 shell-pairs
 Enter PrismC:  IPart= 15 JobTyp=21 DoJE=F Cont=F.
 PrismC:  IPart=    15 DynPar=T LinDyn=F Incr=        1024 UseFst=F UseS4=T ISplat=2.
 PrismC was handed    33265145 working-precision words and 13114 shell-pairs
