 Entering Gaussian System, Link 0=g16
 Input=loose/species/CCCCCCC/conformers/CCCCCCC_421.com
 Output=loose/species/CCCCCCC/conformers/CCCCCCC_421.log
 Initial command:
 /shared/centos7/gaussian/g16/l1.exe "/scratch/harms.n/gauss_scrdir/Gau-31814.inp" -scrdir="/scratch/harms.n/gauss_scrdir/"
 Entering Link 1 = /shared/centos7/gaussian/g16/l1.exe PID=     31815.
  
 Copyright (c) 1988,1990,1992,1993,1995,1998,2003,2009,2016,
            Gaussian, Inc.  All Rights Reserved.
  
 This is part of the Gaussian(R) 16 program.  It is based on
 the Gaussian(R) 09 system (copyright 2009, Gaussian, Inc.),
 the Gaussian(R) 03 system (copyright 2003, Gaussian, Inc.),
 the Gaussian(R) 98 system (copyright 1998, Gaussian, Inc.),
 the Gaussian(R) 94 system (copyright 1995, Gaussian, Inc.),
 the Gaussian 92(TM) system (copyright 1992, Gaussian, Inc.),
 the Gaussian 90(TM) system (copyright 1990, Gaussian, Inc.),
 the Gaussian 88(TM) system (copyright 1988, Gaussian, Inc.),
 the Gaussian 86(TM) system (copyright 1986, Carnegie Mellon
 University), and the Gaussian 82(TM) system (copyright 1983,
 Carnegie Mellon University). Gaussian is a federally registered
 trademark of Gaussian, Inc.
  
 This software contains proprietary and confidential information,
 including trade secrets, belonging to Gaussian, Inc.
  
 This software is provided under written license and may be
 used, copied, transmitted, or stored only in accord with that
 written license.
  
 The following legend is applicable only to US Government
 contracts under FAR:
  
                    RESTRICTED RIGHTS LEGEND
  
 Use, reproduction and disclosure by the US Government is
 subject to restrictions as set forth in subparagraphs (a)
 and (c) of the Commercial Computer Software - Restricted
 Rights clause in FAR 52.227-19.
  
 Gaussian, Inc.
 340 Quinnipiac St., Bldg. 40, Wallingford CT 06492
  
  
 ---------------------------------------------------------------
 Warning -- This program may not be used in any manner that
 competes with the business of Gaussian, Inc. or will provide
 assistance to any competitor of Gaussian, Inc.  The licensee
 of this program is prohibited from giving any competitor of
 Gaussian, Inc. access to this program.  By using this program,
 the user acknowledges that Gaussian, Inc. is engaged in the
 business of creating and licensing software in the field of
 computational chemistry and represents and warrants to the
 licensee that it is not a competitor of Gaussian, Inc. and that
 it will not use this program in any manner prohibited above.
 ---------------------------------------------------------------
  

 Cite this work as:
 Gaussian 16, Revision A.03,
 M. J. Frisch, G. W. Trucks, H. B. Schlegel, G. E. Scuseria, 
 M. A. Robb, J. R. Cheeseman, G. Scalmani, V. Barone, 
 G. A. Petersson, H. Nakatsuji, X. Li, M. Caricato, A. V. Marenich, 
 J. Bloino, B. G. Janesko, R. Gomperts, B. Mennucci, H. P. Hratchian, 
 J. V. Ortiz, A. F. Izmaylov, J. L. Sonnenberg, D. Williams-Young, 
 F. Ding, F. Lipparini, F. Egidi, J. Goings, B. Peng, A. Petrone, 
 T. Henderson, D. Ranasinghe, V. G. Zakrzewski, J. Gao, N. Rega, 
 G. Zheng, W. Liang, M. Hada, M. Ehara, K. Toyota, R. Fukuda, 
 J. Hasegawa, M. Ishida, T. Nakajima, Y. Honda, O. Kitao, H. Nakai, 
 T. Vreven, K. Throssell, J. A. Montgomery, Jr., J. E. Peralta, 
 F. Ogliaro, M. J. Bearpark, J. J. Heyd, E. N. Brothers, K. N. Kudin, 
 V. N. Staroverov, T. A. Keith, R. Kobayashi, J. Normand, 
 K. Raghavachari, A. P. Rendell, J. C. Burant, S. S. Iyengar, 
 J. Tomasi, M. Cossi, J. M. Millam, M. Klene, C. Adamo, R. Cammi, 
 J. W. Ochterski, R. L. Martin, K. Morokuma, O. Farkas, 
 J. B. Foresman, and D. J. Fox, Gaussian, Inc., Wallingford CT, 2016.
 
 ******************************************
 Gaussian 16:  EM64L-G16RevA.03 25-Dec-2016
                27-Sep-2019 
 ******************************************
 %nprocshared=20
 Will use up to   20 processors via shared memory.
 %mem=5GB
 ----------------------------------------------------------------------
 #p m062x/cc-pVTZ opt=(calcfc,maxcycles=900,Tight) freq IOP(7/33=1,2/16
 =3) scf=(maxcycle=900)
 ----------------------------------------------------------------------
 1/6=900,7=10,10=4,18=20,19=15,26=3,38=1/1,3;
 2/9=110,12=2,16=3,17=6,18=5,40=1/2;
 3/5=16,6=1,11=2,25=1,30=1,71=2,74=-55,140=1/1,2,3;
 4//1;
 5/5=2,7=900,38=5/2;
 8/6=4,10=90,11=11/1;
 11/6=1,8=1,9=11,15=111,16=1/1,2,10;
 10/6=1,13=1/2;
 6/7=2,8=2,9=2,10=2,28=1/1;
 7/10=1,18=20,25=1,33=1/1,2,3,16;
 1/6=900,7=10,10=4,18=20,19=15,26=3/3(2);
 2/9=110,16=3/2;
 99//99;
 2/9=110,16=3/2;
 3/5=16,6=1,11=2,25=1,30=1,71=1,74=-55/1,2,3;
 4/5=5,16=3,69=1/1;
 5/5=2,7=900,38=5/2;
 7/33=1/1,2,3,16;
 1/6=900,7=10,18=20,19=15,26=3/3(-5);
 2/9=110,16=3/2;
 6/7=2,8=2,9=2,10=2,19=2,28=1/1;
 99/9=1/99;
 Leave Link    1 at Fri Sep 27 03:45:24 2019, MaxMem=   671088640 cpu:               4.2 elap:               2.1
 (Enter /shared/centos7/gaussian/g16/l101.exe)
 ------------------------------
 Gaussian input prepared by ASE
 ------------------------------
 Symbolic Z-matrix:
 Charge =  0 Multiplicity = 1
 C                     1.92965  -1.02587   0.59775 
 C                     0.72186  -0.2685    1.03317 
 C                    -0.39731   0.04924   0.07323 
 C                     2.97065  -0.20729  -0.08875 
 C                    -0.13504   0.30897  -1.39151 
 C                     3.13933   1.13446   0.49507 
 C                     0.8225    1.40595  -1.77839 
 H                     2.72784  -0.09759  -1.18335 
 H                     3.94624  -0.74891  -0.06378 
 H                     1.66558  -1.90736  -0.02419 
 H                     2.3888   -1.44075   1.51846 
 H                     1.07845   0.67454   1.47612 
 H                     0.27135  -0.83008   1.87869 
 H                    -0.93252   0.92758   0.4722 
 H                    -1.13257  -0.78068   0.1154 
 H                     0.20317  -0.64173  -1.88071 
 H                    -1.11622   0.53016  -1.84495 
 H                     2.79827   1.16557   1.54701 
 H                     4.22149   1.45998   0.47306 
 H                     2.54496   1.89218  -0.05818 
 H                     1.72666   0.97827  -2.21331 
 H                     1.14668   2.05743  -0.92029 
 H                     0.36044   2.05916  -2.57318 
 
 ITRead=  0  0  0  0  0  0  0  0  0  0  0  0  0  0  0  0  0  0  0  0
 ITRead=  0  0  0
 MicOpt= -1 -1 -1 -1 -1 -1 -1 -1 -1 -1 -1 -1 -1 -1 -1 -1 -1 -1 -1 -1
 MicOpt= -1 -1 -1
 NAtoms=     23 NQM=       23 NQMF=       0 NMMI=      0 NMMIF=      0
                NMic=       0 NMicF=      0.
                    Isotopes and Nuclear Properties:
 (Nuclear quadrupole moments (NQMom) in fm**2, nuclear magnetic moments (NMagM)
  in nuclear magnetons)

  Atom         1           2           3           4           5           6           7           8           9          10
 IAtWgt=          12          12          12          12          12          12          12           1           1           1
 AtmWgt=  12.0000000  12.0000000  12.0000000  12.0000000  12.0000000  12.0000000  12.0000000   1.0078250   1.0078250   1.0078250
 NucSpn=           0           0           0           0           0           0           0           1           1           1
 AtZEff=  -0.0000000  -0.0000000  -0.0000000  -0.0000000  -0.0000000  -0.0000000  -0.0000000  -0.0000000  -0.0000000  -0.0000000
 NQMom=    0.0000000   0.0000000   0.0000000   0.0000000   0.0000000   0.0000000   0.0000000   0.0000000   0.0000000   0.0000000
 NMagM=    0.0000000   0.0000000   0.0000000   0.0000000   0.0000000   0.0000000   0.0000000   2.7928460   2.7928460   2.7928460
 AtZNuc=   6.0000000   6.0000000   6.0000000   6.0000000   6.0000000   6.0000000   6.0000000   1.0000000   1.0000000   1.0000000

  Atom        11          12          13          14          15          16          17          18          19          20
 IAtWgt=           1           1           1           1           1           1           1           1           1           1
 AtmWgt=   1.0078250   1.0078250   1.0078250   1.0078250   1.0078250   1.0078250   1.0078250   1.0078250   1.0078250   1.0078250
 NucSpn=           1           1           1           1           1           1           1           1           1           1
 AtZEff=  -0.0000000  -0.0000000  -0.0000000  -0.0000000  -0.0000000  -0.0000000  -0.0000000  -0.0000000  -0.0000000  -0.0000000
 NQMom=    0.0000000   0.0000000   0.0000000   0.0000000   0.0000000   0.0000000   0.0000000   0.0000000   0.0000000   0.0000000
 NMagM=    2.7928460   2.7928460   2.7928460   2.7928460   2.7928460   2.7928460   2.7928460   2.7928460   2.7928460   2.7928460
 AtZNuc=   1.0000000   1.0000000   1.0000000   1.0000000   1.0000000   1.0000000   1.0000000   1.0000000   1.0000000   1.0000000

  Atom        21          22          23
 IAtWgt=           1           1           1
 AtmWgt=   1.0078250   1.0078250   1.0078250
 NucSpn=           1           1           1
 AtZEff=  -0.0000000  -0.0000000  -0.0000000
 NQMom=    0.0000000   0.0000000   0.0000000
 NMagM=    2.7928460   2.7928460   2.7928460
 AtZNuc=   1.0000000   1.0000000   1.0000000
 Leave Link  101 at Fri Sep 27 03:45:25 2019, MaxMem=   671088640 cpu:               2.6 elap:               1.3
 (Enter /shared/centos7/gaussian/g16/l103.exe)

 GradGradGradGradGradGradGradGradGradGradGradGradGradGradGradGradGradGrad
 Berny optimization.
 Initialization pass.
                           ----------------------------
                           !    Initial Parameters    !
                           ! (Angstroms and Degrees)  !
 --------------------------                            --------------------------
 ! Name  Definition              Value          Derivative Info.                !
 --------------------------------------------------------------------------------
 ! R1    R(1,2)                  1.4906         calculate D2E/DX2 analytically  !
 ! R2    R(1,4)                  1.4917         calculate D2E/DX2 analytically  !
 ! R3    R(1,10)                 1.1107         calculate D2E/DX2 analytically  !
 ! R4    R(1,11)                 1.1093         calculate D2E/DX2 analytically  !
 ! R5    R(2,3)                  1.5083         calculate D2E/DX2 analytically  !
 ! R6    R(2,12)                 1.1012         calculate D2E/DX2 analytically  !
 ! R7    R(2,13)                 1.1105         calculate D2E/DX2 analytically  !
 ! R8    R(3,5)                  1.5105         calculate D2E/DX2 analytically  !
 ! R9    R(3,14)                 1.1032         calculate D2E/DX2 analytically  !
 ! R10   R(3,15)                 1.1096         calculate D2E/DX2 analytically  !
 ! R11   R(4,6)                  1.473          calculate D2E/DX2 analytically  !
 ! R12   R(4,8)                  1.1266         calculate D2E/DX2 analytically  !
 ! R13   R(4,9)                  1.1161         calculate D2E/DX2 analytically  !
 ! R14   R(5,7)                  1.5066         calculate D2E/DX2 analytically  !
 ! R15   R(5,16)                 1.1214         calculate D2E/DX2 analytically  !
 ! R16   R(5,17)                 1.1033         calculate D2E/DX2 analytically  !
 ! R17   R(6,18)                 1.1063         calculate D2E/DX2 analytically  !
 ! R18   R(6,19)                 1.1303         calculate D2E/DX2 analytically  !
 ! R19   R(6,20)                 1.1106         calculate D2E/DX2 analytically  !
 ! R20   R(7,21)                 1.0907         calculate D2E/DX2 analytically  !
 ! R21   R(7,22)                 1.1251         calculate D2E/DX2 analytically  !
 ! R22   R(7,23)                 1.1278         calculate D2E/DX2 analytically  !
 ! A1    A(2,1,4)              114.9021         calculate D2E/DX2 analytically  !
 ! A2    A(2,1,10)             111.973          calculate D2E/DX2 analytically  !
 ! A3    A(2,1,11)             106.436          calculate D2E/DX2 analytically  !
 ! A4    A(4,1,10)             110.1057         calculate D2E/DX2 analytically  !
 ! A5    A(4,1,11)             107.359          calculate D2E/DX2 analytically  !
 ! A6    A(10,1,11)            105.4474         calculate D2E/DX2 analytically  !
 ! A7    A(1,2,3)              121.4897         calculate D2E/DX2 analytically  !
 ! A8    A(1,2,12)             106.8716         calculate D2E/DX2 analytically  !
 ! A9    A(1,2,13)             107.1073         calculate D2E/DX2 analytically  !
 ! A10   A(3,2,12)             108.4136         calculate D2E/DX2 analytically  !
 ! A11   A(3,2,13)             106.8629         calculate D2E/DX2 analytically  !
 ! A12   A(12,2,13)            104.9614         calculate D2E/DX2 analytically  !
 ! A13   A(2,3,5)              121.6367         calculate D2E/DX2 analytically  !
 ! A14   A(2,3,14)             107.3091         calculate D2E/DX2 analytically  !
 ! A15   A(2,3,15)             108.0558         calculate D2E/DX2 analytically  !
 ! A16   A(5,3,14)             107.338          calculate D2E/DX2 analytically  !
 ! A17   A(5,3,15)             106.2914         calculate D2E/DX2 analytically  !
 ! A18   A(14,3,15)            105.0863         calculate D2E/DX2 analytically  !
 ! A19   A(1,4,6)              113.4155         calculate D2E/DX2 analytically  !
 ! A20   A(1,4,8)              110.4995         calculate D2E/DX2 analytically  !
 ! A21   A(1,4,9)              109.4757         calculate D2E/DX2 analytically  !
 ! A22   A(6,4,8)              108.7291         calculate D2E/DX2 analytically  !
 ! A23   A(6,4,9)              109.4554         calculate D2E/DX2 analytically  !
 ! A24   A(8,4,9)              104.9146         calculate D2E/DX2 analytically  !
 ! A25   A(3,5,7)              118.9828         calculate D2E/DX2 analytically  !
 ! A26   A(3,5,16)             109.245          calculate D2E/DX2 analytically  !
 ! A27   A(3,5,17)             106.1761         calculate D2E/DX2 analytically  !
 ! A28   A(7,5,16)             108.2744         calculate D2E/DX2 analytically  !
 ! A29   A(7,5,17)             108.2824         calculate D2E/DX2 analytically  !
 ! A30   A(16,5,17)            105.0045         calculate D2E/DX2 analytically  !
 ! A31   A(4,6,18)             111.543          calculate D2E/DX2 analytically  !
 ! A32   A(4,6,19)             111.3627         calculate D2E/DX2 analytically  !
 ! A33   A(4,6,20)             111.2688         calculate D2E/DX2 analytically  !
 ! A34   A(18,6,19)            107.7933         calculate D2E/DX2 analytically  !
 ! A35   A(18,6,20)            106.8282         calculate D2E/DX2 analytically  !
 ! A36   A(19,6,20)            107.83           calculate D2E/DX2 analytically  !
 ! A37   A(5,7,21)             110.1059         calculate D2E/DX2 analytically  !
 ! A38   A(5,7,22)             114.1345         calculate D2E/DX2 analytically  !
 ! A39   A(5,7,23)             110.0169         calculate D2E/DX2 analytically  !
 ! A40   A(21,7,22)            106.9971         calculate D2E/DX2 analytically  !
 ! A41   A(21,7,23)            106.6032         calculate D2E/DX2 analytically  !
 ! A42   A(22,7,23)            108.6728         calculate D2E/DX2 analytically  !
 ! D1    D(4,1,2,3)             81.7772         calculate D2E/DX2 analytically  !
 ! D2    D(4,1,2,12)           -43.1729         calculate D2E/DX2 analytically  !
 ! D3    D(4,1,2,13)          -155.2352         calculate D2E/DX2 analytically  !
 ! D4    D(10,1,2,3)           -44.8053         calculate D2E/DX2 analytically  !
 ! D5    D(10,1,2,12)         -169.7554         calculate D2E/DX2 analytically  !
 ! D6    D(10,1,2,13)           78.1823         calculate D2E/DX2 analytically  !
 ! D7    D(11,1,2,3)          -159.5439         calculate D2E/DX2 analytically  !
 ! D8    D(11,1,2,12)           75.5061         calculate D2E/DX2 analytically  !
 ! D9    D(11,1,2,13)          -36.5562         calculate D2E/DX2 analytically  !
 ! D10   D(2,1,4,6)             38.3047         calculate D2E/DX2 analytically  !
 ! D11   D(2,1,4,8)            -84.0715         calculate D2E/DX2 analytically  !
 ! D12   D(2,1,4,9)            160.8618         calculate D2E/DX2 analytically  !
 ! D13   D(10,1,4,6)           165.8384         calculate D2E/DX2 analytically  !
 ! D14   D(10,1,4,8)            43.4623         calculate D2E/DX2 analytically  !
 ! D15   D(10,1,4,9)           -71.6045         calculate D2E/DX2 analytically  !
 ! D16   D(11,1,4,6)           -79.8561         calculate D2E/DX2 analytically  !
 ! D17   D(11,1,4,8)           157.7677         calculate D2E/DX2 analytically  !
 ! D18   D(11,1,4,9)            42.701          calculate D2E/DX2 analytically  !
 ! D19   D(1,2,3,5)            -32.7577         calculate D2E/DX2 analytically  !
 ! D20   D(1,2,3,14)          -156.7184         calculate D2E/DX2 analytically  !
 ! D21   D(1,2,3,15)            90.4308         calculate D2E/DX2 analytically  !
 ! D22   D(12,2,3,5)            91.4813         calculate D2E/DX2 analytically  !
 ! D23   D(12,2,3,14)          -32.4794         calculate D2E/DX2 analytically  !
 ! D24   D(12,2,3,15)         -145.3302         calculate D2E/DX2 analytically  !
 ! D25   D(13,2,3,5)          -155.8601         calculate D2E/DX2 analytically  !
 ! D26   D(13,2,3,14)           80.1792         calculate D2E/DX2 analytically  !
 ! D27   D(13,2,3,15)          -32.6716         calculate D2E/DX2 analytically  !
 ! D28   D(2,3,5,7)            -56.6961         calculate D2E/DX2 analytically  !
 ! D29   D(2,3,5,16)            68.2678         calculate D2E/DX2 analytically  !
 ! D30   D(2,3,5,17)          -178.9771         calculate D2E/DX2 analytically  !
 ! D31   D(14,3,5,7)            67.2512         calculate D2E/DX2 analytically  !
 ! D32   D(14,3,5,16)         -167.7849         calculate D2E/DX2 analytically  !
 ! D33   D(14,3,5,17)          -55.0298         calculate D2E/DX2 analytically  !
 ! D34   D(15,3,5,7)           179.2946         calculate D2E/DX2 analytically  !
 ! D35   D(15,3,5,16)          -55.7415         calculate D2E/DX2 analytically  !
 ! D36   D(15,3,5,17)           57.0136         calculate D2E/DX2 analytically  !
 ! D37   D(1,4,6,18)            23.4134         calculate D2E/DX2 analytically  !
 ! D38   D(1,4,6,19)           143.8902         calculate D2E/DX2 analytically  !
 ! D39   D(1,4,6,20)           -95.7738         calculate D2E/DX2 analytically  !
 ! D40   D(8,4,6,18)           146.7662         calculate D2E/DX2 analytically  !
 ! D41   D(8,4,6,19)           -92.757          calculate D2E/DX2 analytically  !
 ! D42   D(8,4,6,20)            27.579          calculate D2E/DX2 analytically  !
 ! D43   D(9,4,6,18)           -99.1549         calculate D2E/DX2 analytically  !
 ! D44   D(9,4,6,19)            21.3219         calculate D2E/DX2 analytically  !
 ! D45   D(9,4,6,20)           141.6579         calculate D2E/DX2 analytically  !
 ! D46   D(3,5,7,21)           111.167          calculate D2E/DX2 analytically  !
 ! D47   D(3,5,7,22)            -9.1727         calculate D2E/DX2 analytically  !
 ! D48   D(3,5,7,23)          -131.6259         calculate D2E/DX2 analytically  !
 ! D49   D(16,5,7,21)          -14.2643         calculate D2E/DX2 analytically  !
 ! D50   D(16,5,7,22)         -134.604          calculate D2E/DX2 analytically  !
 ! D51   D(16,5,7,23)          102.9428         calculate D2E/DX2 analytically  !
 ! D52   D(17,5,7,21)         -127.6075         calculate D2E/DX2 analytically  !
 ! D53   D(17,5,7,22)          112.0527         calculate D2E/DX2 analytically  !
 ! D54   D(17,5,7,23)          -10.4004         calculate D2E/DX2 analytically  !
 --------------------------------------------------------------------------------
 Trust Radius=3.00D-01 FncErr=1.00D-07 GrdErr=1.00D-06 EigMax=2.50D+02 EigMin=1.00D-04
 Number of steps in this run=    138 maximum allowed number of steps=    138.
 GradGradGradGradGradGradGradGradGradGradGradGradGradGradGradGradGradGrad

 Leave Link  103 at Fri Sep 27 03:45:26 2019, MaxMem=   671088640 cpu:               1.6 elap:               0.8
 (Enter /shared/centos7/gaussian/g16/l202.exe)
                          Input orientation:                          
 ---------------------------------------------------------------------
 Center     Atomic      Atomic             Coordinates (Angstroms)
 Number     Number       Type             X           Y           Z
 ---------------------------------------------------------------------
      1          6           0        1.929653   -1.025872    0.597753
      2          6           0        0.721861   -0.268497    1.033166
      3          6           0       -0.397310    0.049235    0.073226
      4          6           0        2.970646   -0.207291   -0.088751
      5          6           0       -0.135039    0.308968   -1.391511
      6          6           0        3.139326    1.134458    0.495068
      7          6           0        0.822502    1.405949   -1.778391
      8          1           0        2.727842   -0.097591   -1.183350
      9          1           0        3.946238   -0.748911   -0.063780
     10          1           0        1.665576   -1.907360   -0.024194
     11          1           0        2.388800   -1.440747    1.518462
     12          1           0        1.078454    0.674543    1.476116
     13          1           0        0.271349   -0.830083    1.878693
     14          1           0       -0.932522    0.927583    0.472196
     15          1           0       -1.132572   -0.780677    0.115399
     16          1           0        0.203173   -0.641725   -1.880709
     17          1           0       -1.116224    0.530162   -1.844953
     18          1           0        2.798267    1.165567    1.547014
     19          1           0        4.221494    1.459978    0.473059
     20          1           0        2.544962    1.892176   -0.058183
     21          1           0        1.726665    0.978268   -2.213311
     22          1           0        1.146683    2.057432   -0.920291
     23          1           0        0.360441    2.059164   -2.573184
 ---------------------------------------------------------------------
                    Distance matrix (angstroms):
                    1          2          3          4          5
     1  C    0.000000
     2  C    1.490625   0.000000
     3  C    2.616436   1.508304   0.000000
     4  C    1.491652   2.513857   3.381592   0.000000
     5  C    3.162581   2.635679   1.510531   3.407196   0.000000
     6  C    2.478079   2.846395   3.723365   1.472952   3.868084
     7  C    3.575695   3.273950   2.599442   3.173634   1.506627
     8  H    2.161281   2.994346   3.371515   1.126559   2.899087
     9  H    2.140315   3.439578   4.418395   1.116134   4.420271
    10  H    1.110665   2.166675   2.844864   2.144204   3.166051
    11  H    1.109344   2.094843   3.474358   2.107864   4.230746
    12  H    2.094629   1.101220   2.130020   2.608990   3.135202
    13  H    2.104546   1.110520   2.116604   3.397780   3.486663
    14  H    3.467535   2.117140   1.103233   4.103331   2.119449
    15  H    3.109664   2.131561   1.109570   4.148114   2.110256
    16  H    3.044844   2.983121   2.157747   3.325471   1.121392
    17  H    4.203025   3.507133   2.104172   4.508945   1.103295
    18  H    2.541257   2.575274   3.691877   2.142470   4.239454
    19  H    3.383420   3.943193   4.845968   2.158712   4.876558
    20  H    3.053500   3.030387   3.474286   2.142406   3.386254
    21  H    3.458303   3.619899   3.256167   2.732544   2.142255
    22  H    3.524806   3.066987   2.721000   3.024445   2.218554
    23  H    4.694114   4.307480   3.408443   4.257041   2.169109
                    6          7          8          9         10
     6  C    0.000000
     7  C    3.257299   0.000000
     8  H    2.122345   2.499005   0.000000
     9  H    2.123793   4.164258   1.778242   0.000000
    10  H    3.419682   3.842655   2.397356   2.558318   0.000000
    11  H    2.870941   4.628846   3.036249   2.325455   1.766514
    12  H    2.328341   3.345487   3.223264   3.552702   3.043331
    13  H    3.741540   4.321790   3.993370   4.157475   2.593332
    14  H    4.077164   2.893801   4.146091   5.186541   3.877295
    15  H    4.696914   3.491431   4.129910   5.082070   3.019691
    16  H    4.173744   2.141730   2.675135   4.162122   2.680877
    17  H    4.893932   2.128400   3.950776   5.516985   4.122509
    18  H    1.106291   3.875532   3.009221   2.752766   3.632432
    19  H    1.130281   4.077388   2.720424   2.289793   4.256635
    20  H    1.110627   2.482419   2.293168   2.989807   3.900122
    21  H    3.058647   1.090678   1.794616   3.539793   3.622542
    22  H    2.612613   1.125104   2.685774   4.055450   4.097781
    23  H    4.241632   1.127778   3.491105   5.200031   4.892242
                   11         12         13         14         15
    11  H    0.000000
    12  H    2.488624   0.000000
    13  H    2.232997   1.754247   0.000000
    14  H    4.211276   2.261837   2.552828   0.000000
    15  H    3.847641   2.976214   2.254471   1.756553   0.000000
    16  H    4.119438   3.710384   3.764735   3.047736   2.405821
    17  H    5.242350   3.983334   4.200138   2.358149   2.358293
    18  H    2.638436   1.789941   3.236965   3.889814   4.613988
    19  H    3.586898   3.391421   4.777429   5.181440   5.815022
    20  H    3.690335   2.446907   4.041225   3.647552   4.549564
    21  H    4.496241   3.758231   4.704527   3.779655   4.085587
    22  H    4.441579   2.767635   4.115612   2.745664   3.784511
    23  H    5.753710   4.339302   5.308002   3.496650   4.185960
                   16         17         18         19         20
    16  H    0.000000
    17  H    1.765051   0.000000
    18  H    4.663701   5.218469   0.000000
    19  H    5.109235   5.893129   1.807106   0.000000
    20  H    3.902081   4.295569   1.780108   1.811014   0.000000
    21  H    2.248561   2.901466   3.914519   3.697675   2.479802
    22  H    3.016299   2.882412   3.100120   3.428241   1.650976
    23  H    2.792679   2.246932   4.870065   4.954426   3.335452
                   21         22         23
    21  H    0.000000
    22  H    1.781257   0.000000
    23  H    1.778879   1.830364   0.000000
 Stoichiometry    C7H16
 Framework group  C1[X(C7H16)]
 Deg. of freedom    63
 Full point group                 C1      NOp   1
 Largest Abelian subgroup         C1      NOp   1
 Largest concise Abelian subgroup C1      NOp   1
                         Standard orientation:                         
 ---------------------------------------------------------------------
 Center     Atomic      Atomic             Coordinates (Angstroms)
 Number     Number       Type             X           Y           Z
 ---------------------------------------------------------------------
      1          6           0       -1.057585   -1.021907    0.625976
      2          6           0       -0.106850   -1.343588   -0.476107
      3          6           0        1.361388   -1.014583   -0.371147
      4          6           0       -1.542557    0.388572    0.645429
      5          6           0        1.849267    0.199984    0.382844
      6          6           0       -1.790263    0.940952   -0.697369
      7          6           0        1.333188    1.559614   -0.010852
      8          1           0       -0.804911    1.052065    1.179086
      9          1           0       -2.477381    0.452325    1.251890
     10          1           0       -0.649446   -1.299064    1.621055
     11          1           0       -1.942541   -1.674168    0.477476
     12          1           0       -0.504435   -0.872817   -1.388787
     13          1           0       -0.179704   -2.436024   -0.661933
     14          1           0        1.756257   -0.944079   -1.398878
     15          1           0        1.878288   -1.887870    0.077551
     16          1           0        1.659585    0.055627    1.478609
     17          1           0        2.947866    0.204035    0.281231
     18          1           0       -1.979074    0.140578   -1.437390
     19          1           0       -2.684923    1.631687   -0.699824
     20          1           0       -0.914517    1.517474   -1.063680
     21          1           0        0.690247    1.958500    0.774701
     22          1           0        0.732627    1.565941   -0.962243
     23          1           0        2.192535    2.281529   -0.121509
 ---------------------------------------------------------------------
 Rotational constants (GHZ):           3.1235656           2.0047185           1.5085028
 Leave Link  202 at Fri Sep 27 03:45:28 2019, MaxMem=   671088640 cpu:               3.6 elap:               1.8
 (Enter /shared/centos7/gaussian/g16/l301.exe)
 Standard basis: CC-pVTZ (5D, 7F)
 Ernie: Thresh=  0.10000D-02 Tol=  0.10000D-05 Strict=F.
 Ernie:  21 primitive shells out of 310 were deleted.
 There are   485 symmetry adapted cartesian basis functions of A   symmetry.
 There are   434 symmetry adapted basis functions of A   symmetry.
   434 basis functions,   636 primitive gaussians,   485 cartesian basis functions
    29 alpha electrons       29 beta electrons
       nuclear repulsion energy       340.0505518952 Hartrees.
 IExCor= 4336 DFT=T Ex+Corr=M062X ExCW=0 ScaHFX=  0.540000
 ScaDFX=  1.000000  1.000000  1.000000  1.000000 ScalE2=  1.000000  1.000000
 IRadAn=      5 IRanWt=     -1 IRanGd=            0 ICorTp=0 IEmpDi=  4
 NAtoms=   23 NActive=   23 NUniq=   23 SFac= 1.00D+00 NAtFMM=   60 NAOKFM=F Big=F
 Integral buffers will be    131072 words long.
 Raffenetti 2 integral format.
 Two-electron integral symmetry is turned on.
 Leave Link  301 at Fri Sep 27 03:45:28 2019, MaxMem=   671088640 cpu:               1.4 elap:               0.7
 (Enter /shared/centos7/gaussian/g16/l302.exe)
 NPDir=0 NMtPBC=     1 NCelOv=     1 NCel=       1 NClECP=     1 NCelD=      1
         NCelK=      1 NCelE2=     1 NClLst=     1 CellRange=     0.0.
 One-electron integrals computed using PRISM.
 One-electron integral symmetry used in STVInt
 NBasis=   434 RedAO= T EigKep=  2.23D-04  NBF=   434
 NBsUse=   434 1.00D-06 EigRej= -1.00D+00 NBFU=   434
 Precomputing XC quadrature grid using
 IXCGrd= 4 IRadAn=           5 IRanWt=          -1 IRanGd=           0 AccXCQ= 0.00D+00.
 Generated NRdTot=       0 NPtTot=           0 NUsed=           0 NTot=          32
 NSgBfM=   485   485   485   485   485 MxSgAt=    23 MxSgA2=    23.
 Leave Link  302 at Fri Sep 27 03:46:50 2019, MaxMem=   671088640 cpu:             163.5 elap:              81.8
 (Enter /shared/centos7/gaussian/g16/l303.exe)
 DipDrv:  MaxL=1.
 Leave Link  303 at Fri Sep 27 03:46:55 2019, MaxMem=   671088640 cpu:               9.8 elap:               4.9
 (Enter /shared/centos7/gaussian/g16/l401.exe)
 ExpMin= 1.03D-01 ExpMax= 8.24D+03 ExpMxC= 2.81D+02 IAcc=3 IRadAn=         5 AccDes= 0.00D+00
 Harris functional with IExCor= 1009 and IRadAn=       5 diagonalized for initial guess.
 HarFok:  IExCor= 1009 AccDes= 0.00D+00 IRadAn=         5 IDoV= 1 UseB2=F ITyADJ=14
 ICtDFT=  3500011 ScaDFX=  1.000000  1.000000  1.000000  1.000000
 FoFCou: FMM=F IPFlag=           0 FMFlag=      100000 FMFlg1=           0
         NFxFlg=           0 DoJE=T BraDBF=F KetDBF=T FulRan=T
         wScrn=  0.000000 ICntrl=       500 IOpCl=  0 I1Cent=   200000004 NGrid=           0
         NMat0=    1 NMatS0=      1 NMatT0=    0 NMatD0=    1 NMtDS0=    0 NMtDT0=    0
 Petite list used in FoFCou.
 Harris En= -276.303556726710    
 JPrj=0 DoOrth=F DoCkMO=F.
 Leave Link  401 at Fri Sep 27 03:47:40 2019, MaxMem=   671088640 cpu:              90.0 elap:              45.0
 (Enter /shared/centos7/gaussian/g16/l502.exe)
 Integral symmetry usage will be decided dynamically.
 Closed shell SCF:
 Using DIIS extrapolation, IDIIS=  1040.
 NGot=   671088640 LenX=   670604095 LenY=   670368385
 Requested convergence on RMS density matrix=1.00D-08 within 900 cycles.
 Requested convergence on MAX density matrix=1.00D-06.
 Requested convergence on             energy=1.00D-06.
 No special actions if energy rises.
 Fock matrices will be formed incrementally for  20 cycles.
 Integral accuracy reduced to 1.0D-05 until final iterations.

 Cycle   1  Pass 0  IDiag  1:
 FoFJK:  IHMeth= 1 ICntrl=       0 DoSepK=F KAlg= 0 I1Cent=           0 FoldK=F
 IRaf= 970000000 NMat=       1 IRICut=       1 DoRegI=T DoRafI=F ISym2E= 0 IDoP0=0 IntGTp=1.
 FoFCou: FMM=F IPFlag=           0 FMFlag=      100000 FMFlg1=           0
         NFxFlg=           0 DoJE=F BraDBF=F KetDBF=F FulRan=T
         wScrn=  0.000000 ICntrl=         0 IOpCl=  0 I1Cent=           0 NGrid=           0
         NMat0=    1 NMatS0=      1 NMatT0=    0 NMatD0=    1 NMtDS0=    0 NMtDT0=    0
 Symmetry not used in FoFCou.
 E= -275.940898368679    
 DIIS: error= 2.22D-02 at cycle   1 NSaved=   1.
 NSaved= 1 IEnMin= 1 EnMin= -275.940898368679     IErMin= 1 ErrMin= 2.22D-02
 ErrMax= 2.22D-02  0.00D+00 EMaxC= 1.00D-01 BMatC= 3.75D-01 BMatP= 3.75D-01
 IDIUse=3 WtCom= 7.78D-01 WtEn= 2.22D-01
 Coeff-Com:  0.100D+01
 Coeff-En:   0.100D+01
 Coeff:      0.100D+01
 Gap=     0.355 Goal=   None    Shift=    0.000
 GapD=    0.355 DampG=1.000 DampE=0.500 DampFc=0.5000 IDamp=-1.
 Damping current iteration by 5.00D-01
 RMSDP=1.93D-03 MaxDP=7.14D-02              OVMax= 1.62D-01

 Cycle   2  Pass 0  IDiag  1:
 RMSU=  9.63D-04    CP:  9.90D-01
 E= -276.114116412043     Delta-E=       -0.173218043364 Rises=F Damp=T
 DIIS: error= 4.42D-03 at cycle   2 NSaved=   2.
 NSaved= 2 IEnMin= 2 EnMin= -276.114116412043     IErMin= 2 ErrMin= 4.42D-03
 ErrMax= 4.42D-03  0.00D+00 EMaxC= 1.00D-01 BMatC= 2.05D-02 BMatP= 3.75D-01
 IDIUse=3 WtCom= 9.56D-01 WtEn= 4.42D-02
 Coeff-Com: -0.324D-01 0.103D+01
 Coeff-En:   0.000D+00 0.100D+01
 Coeff:     -0.310D-01 0.103D+01
 Gap=     0.441 Goal=   None    Shift=    0.000
 RMSDP=6.06D-04 MaxDP=2.37D-02 DE=-1.73D-01 OVMax= 9.44D-02

 Cycle   3  Pass 0  IDiag  1:
 RMSU=  5.96D-04    CP:  9.99D-01  9.10D-01
 E= -276.294409869666     Delta-E=       -0.180293457623 Rises=F Damp=F
 DIIS: error= 3.81D-03 at cycle   3 NSaved=   3.
 NSaved= 3 IEnMin= 3 EnMin= -276.294409869666     IErMin= 3 ErrMin= 3.81D-03
 ErrMax= 3.81D-03  0.00D+00 EMaxC= 1.00D-01 BMatC= 4.53D-03 BMatP= 2.05D-02
 IDIUse=3 WtCom= 9.62D-01 WtEn= 3.81D-02
 Coeff-Com: -0.551D-01 0.299D+00 0.756D+00
 Coeff-En:   0.000D+00 0.000D+00 0.100D+01
 Coeff:     -0.530D-01 0.288D+00 0.765D+00
 Gap=     0.409 Goal=   None    Shift=    0.000
 RMSDP=1.36D-04 MaxDP=4.04D-03 DE=-1.80D-01 OVMax= 1.34D-02

 Cycle   4  Pass 0  IDiag  1:
 RMSU=  1.01D-04    CP:  9.98D-01  9.61D-01  8.74D-01
 E= -276.298413724508     Delta-E=       -0.004003854842 Rises=F Damp=F
 DIIS: error= 9.23D-04 at cycle   4 NSaved=   4.
 NSaved= 4 IEnMin= 4 EnMin= -276.298413724508     IErMin= 4 ErrMin= 9.23D-04
 ErrMax= 9.23D-04  0.00D+00 EMaxC= 1.00D-01 BMatC= 3.06D-04 BMatP= 4.53D-03
 IDIUse=3 WtCom= 9.91D-01 WtEn= 9.23D-03
 Coeff-Com: -0.130D-01 0.353D-01 0.239D+00 0.739D+00
 Coeff-En:   0.000D+00 0.000D+00 0.000D+00 0.100D+01
 Coeff:     -0.128D-01 0.350D-01 0.237D+00 0.741D+00
 Gap=     0.410 Goal=   None    Shift=    0.000
 RMSDP=3.69D-05 MaxDP=1.11D-03 DE=-4.00D-03 OVMax= 2.93D-03

 Cycle   5  Pass 0  IDiag  1:
 RMSU=  1.82D-05    CP:  9.98D-01  9.56D-01  9.15D-01  8.01D-01
 E= -276.298696778745     Delta-E=       -0.000283054236 Rises=F Damp=F
 DIIS: error= 1.34D-04 at cycle   5 NSaved=   5.
 NSaved= 5 IEnMin= 5 EnMin= -276.298696778745     IErMin= 5 ErrMin= 1.34D-04
 ErrMax= 1.34D-04  0.00D+00 EMaxC= 1.00D-01 BMatC= 1.52D-05 BMatP= 3.06D-04
 IDIUse=3 WtCom= 9.99D-01 WtEn= 1.34D-03
 Coeff-Com: -0.175D-02 0.990D-03 0.483D-01 0.249D+00 0.703D+00
 Coeff-En:   0.000D+00 0.000D+00 0.000D+00 0.000D+00 0.100D+01
 Coeff:     -0.175D-02 0.989D-03 0.482D-01 0.249D+00 0.704D+00
 Gap=     0.409 Goal=   None    Shift=    0.000
 RMSDP=6.44D-06 MaxDP=3.10D-04 DE=-2.83D-04 OVMax= 7.06D-04

 Initial convergence to 1.0D-05 achieved.  Increase integral accuracy.
 Cycle   6  Pass 1  IDiag  1:
 E= -276.298700418747     Delta-E=       -0.000003640003 Rises=F Damp=F
 DIIS: error= 7.48D-05 at cycle   1 NSaved=   1.
 NSaved= 1 IEnMin= 1 EnMin= -276.298700418747     IErMin= 1 ErrMin= 7.48D-05
 ErrMax= 7.48D-05  0.00D+00 EMaxC= 1.00D-01 BMatC= 2.03D-06 BMatP= 2.03D-06
 IDIUse=1 WtCom= 1.00D+00 WtEn= 0.00D+00
 Coeff-Com:  0.100D+01
 Coeff:      0.100D+01
 Gap=     0.409 Goal=   None    Shift=    0.000
 RMSDP=6.44D-06 MaxDP=3.10D-04 DE=-3.64D-06 OVMax= 2.97D-04

 Cycle   7  Pass 1  IDiag  1:
 RMSU=  1.11D-05    CP:  1.00D+00
 E= -276.298701182253     Delta-E=       -0.000000763505 Rises=F Damp=F
 DIIS: error= 2.88D-05 at cycle   2 NSaved=   2.
 NSaved= 2 IEnMin= 2 EnMin= -276.298701182253     IErMin= 2 ErrMin= 2.88D-05
 ErrMax= 2.88D-05  0.00D+00 EMaxC= 1.00D-01 BMatC= 5.79D-07 BMatP= 2.03D-06
 IDIUse=1 WtCom= 1.00D+00 WtEn= 0.00D+00
 Coeff-Com:  0.308D+00 0.692D+00
 Coeff:      0.308D+00 0.692D+00
 Gap=     0.409 Goal=   None    Shift=    0.000
 RMSDP=1.54D-06 MaxDP=5.91D-05 DE=-7.64D-07 OVMax= 1.60D-04

 Cycle   8  Pass 1  IDiag  1:
 RMSU=  1.53D-06    CP:  1.00D+00  9.92D-01
 E= -276.298701681638     Delta-E=       -0.000000499385 Rises=F Damp=F
 DIIS: error= 1.01D-05 at cycle   3 NSaved=   3.
 NSaved= 3 IEnMin= 3 EnMin= -276.298701681638     IErMin= 3 ErrMin= 1.01D-05
 ErrMax= 1.01D-05  0.00D+00 EMaxC= 1.00D-01 BMatC= 7.33D-08 BMatP= 5.79D-07
 IDIUse=1 WtCom= 1.00D+00 WtEn= 0.00D+00
 Coeff-Com: -0.741D-02 0.253D+00 0.754D+00
 Coeff:     -0.741D-02 0.253D+00 0.754D+00
 Gap=     0.409 Goal=   None    Shift=    0.000
 RMSDP=4.70D-07 MaxDP=1.64D-05 DE=-4.99D-07 OVMax= 4.60D-05

 Cycle   9  Pass 1  IDiag  1:
 RMSU=  3.01D-07    CP:  1.00D+00  1.01D+00  8.02D-01
 E= -276.298701752452     Delta-E=       -0.000000070814 Rises=F Damp=F
 DIIS: error= 1.77D-06 at cycle   4 NSaved=   4.
 NSaved= 4 IEnMin= 4 EnMin= -276.298701752452     IErMin= 4 ErrMin= 1.77D-06
 ErrMax= 1.77D-06  0.00D+00 EMaxC= 1.00D-01 BMatC= 1.59D-09 BMatP= 7.33D-08
 IDIUse=1 WtCom= 1.00D+00 WtEn= 0.00D+00
 Coeff-Com: -0.927D-02 0.707D-01 0.252D+00 0.687D+00
 Coeff:     -0.927D-02 0.707D-01 0.252D+00 0.687D+00
 Gap=     0.409 Goal=   None    Shift=    0.000
 RMSDP=8.21D-08 MaxDP=2.50D-06 DE=-7.08D-08 OVMax= 7.76D-06

 Cycle  10  Pass 1  IDiag  1:
 RMSU=  7.96D-08    CP:  1.00D+00  1.01D+00  8.01D-01  9.50D-01
 E= -276.298701754030     Delta-E=       -0.000000001578 Rises=F Damp=F
 DIIS: error= 6.11D-07 at cycle   5 NSaved=   5.
 NSaved= 5 IEnMin= 5 EnMin= -276.298701754030     IErMin= 5 ErrMin= 6.11D-07
 ErrMax= 6.11D-07  0.00D+00 EMaxC= 1.00D-01 BMatC= 9.32D-11 BMatP= 1.59D-09
 IDIUse=1 WtCom= 1.00D+00 WtEn= 0.00D+00
 Coeff-Com: -0.608D-03-0.169D-01-0.442D-01 0.108D+00 0.954D+00
 Coeff:     -0.608D-03-0.169D-01-0.442D-01 0.108D+00 0.954D+00
 Gap=     0.409 Goal=   None    Shift=    0.000
 RMSDP=3.90D-08 MaxDP=1.04D-06 DE=-1.58D-09 OVMax= 3.09D-06

 Cycle  11  Pass 1  IDiag  1:
 RMSU=  1.92D-08    CP:  1.00D+00  1.01D+00  8.03D-01  1.06D+00  1.05D+00
 E= -276.298701754131     Delta-E=       -0.000000000101 Rises=F Damp=F
 DIIS: error= 1.86D-07 at cycle   6 NSaved=   6.
 NSaved= 6 IEnMin= 6 EnMin= -276.298701754131     IErMin= 6 ErrMin= 1.86D-07
 ErrMax= 1.86D-07  0.00D+00 EMaxC= 1.00D-01 BMatC= 2.16D-11 BMatP= 9.32D-11
 IDIUse=1 WtCom= 1.00D+00 WtEn= 0.00D+00
 Coeff-Com:  0.342D-03-0.125D-01-0.374D-01 0.159D-02 0.440D+00 0.608D+00
 Coeff:      0.342D-03-0.125D-01-0.374D-01 0.159D-02 0.440D+00 0.608D+00
 Gap=     0.409 Goal=   None    Shift=    0.000
 RMSDP=7.42D-09 MaxDP=2.76D-07 DE=-1.01D-10 OVMax= 7.43D-07

 SCF Done:  E(RM062X) =  -276.298701754     A.U. after   11 cycles
            NFock= 11  Conv=0.74D-08     -V/T= 2.0064
 KE= 2.745466319992D+02 PE=-1.318550865780D+03 EE= 4.276549801311D+02
 Leave Link  502 at Fri Sep 27 04:04:06 2019, MaxMem=   671088640 cpu:            1972.1 elap:             986.3
 (Enter /shared/centos7/gaussian/g16/l801.exe)
 DoSCS=F DFT=T ScalE2(SS,OS)=  1.000000  1.000000
 Range of M.O.s used for correlation:     1   434
 NBasis=   434 NAE=    29 NBE=    29 NFC=     0 NFV=     0
 NROrb=    434 NOA=    29 NOB=    29 NVA=   405 NVB=   405

 **** Warning!!: The largest alpha MO coefficient is  0.10085025D+02

 Leave Link  801 at Fri Sep 27 04:04:08 2019, MaxMem=   671088640 cpu:               2.1 elap:               1.0
 (Enter /shared/centos7/gaussian/g16/l1101.exe)
 Using compressed storage, NAtomX=    23.
 Will process     24 centers per pass.
 Leave Link 1101 at Fri Sep 27 04:04:42 2019, MaxMem=   671088640 cpu:              69.6 elap:              34.8
 (Enter /shared/centos7/gaussian/g16/l1102.exe)
 Symmetrizing basis deriv contribution to polar:
 IMax=3 JMax=2 DiffMx= 0.00D+00
 Leave Link 1102 at Fri Sep 27 04:04:45 2019, MaxMem=   671088640 cpu:               4.4 elap:               2.2
 (Enter /shared/centos7/gaussian/g16/l1110.exe)
 Forming Gx(P) for the SCF density, NAtomX=    23.
 Integral derivatives from FoFJK, PRISM(SPDF).
 Do as many integral derivatives as possible in FoFJK.
 G2DrvN: MDV=     671086848.
 G2DrvN: will do    24 centers at a time, making    1 passes.
 Calling FoFCou, ICntrl=  3107 FMM=F I1Cent=   0 AccDes= 0.00D+00.
 FoFJK:  IHMeth= 1 ICntrl=    3107 DoSepK=F KAlg= 0 I1Cent=           0 FoldK=F
 IRaf=         0 NMat=       1 IRICut=       1 DoRegI=T DoRafI=F ISym2E= 0 IDoP0=0 IntGTp=1.
 FoFCou: FMM=F IPFlag=           0 FMFlag=      100000 FMFlg1=           0
         NFxFlg=           0 DoJE=F BraDBF=F KetDBF=F FulRan=T
         wScrn=  0.000000 ICntrl=      3107 IOpCl=  0 I1Cent=           0 NGrid=           0
         NMat0=    1 NMatS0=      1 NMatT0=    0 NMatD0=    1 NMtDS0=    0 NMtDT0=    0
 Symmetry not used in FoFCou.
 End of G2Drv F.D. properties file   721 does not exist.
 End of G2Drv F.D. properties file   722 does not exist.
 End of G2Drv F.D. properties file   788 does not exist.
 Leave Link 1110 at Fri Sep 27 04:49:21 2019, MaxMem=   671088640 cpu:            5351.7 elap:            2676.4
 (Enter /shared/centos7/gaussian/g16/l1002.exe)
 Minotr:  Closed shell wavefunction.
          IDoAtm=11111111111111111111111
          Direct CPHF calculation.
          Differentiating once with respect to nuclear coordinates.
          Requested convergence is 1.0D-08 RMS, and 1.0D-07 maximum.
          Secondary convergence is 1.0D-12 RMS, and 1.0D-12 maximum.
          NewPWx=T KeepS1=F KeepF1=F KeepIn=T MapXYZ=F SortEE=F KeepMc=T.
         6897 words used for storage of precomputed grid.
 Two-electron integrals replicated using symmetry.
          MDV=     671088640 using IRadAn=       1.
          Solving linear equations simultaneously, MaxMat=     380.
 FoF2E skips out because all densities are zero.
 CalDSu exits because no D1Ps are significant.
 FoFJK:  IHMeth= 1 ICntrl=       0 DoSepK=F KAlg= 0 I1Cent=           0 FoldK=F
 IRaf= 950000000 NMat=      69 IRICut=     172 DoRegI=T DoRafI=T ISym2E= 2 IDoP0=3 IntGTp=3.
 FoFCou: FMM=F IPFlag=           0 FMFlag=      100000 FMFlg1=           0
         NFxFlg=           0 DoJE=F BraDBF=F KetDBF=F FulRan=T
         wScrn=  0.000000 ICntrl=         0 IOpCl=  0 I1Cent=           0 NGrid=           0
         NMat0=   69 NMatS0=     69 NMatT0=    0 NMatD0=   69 NMtDS0=    0 NMtDT0=    0
 Integrals replicated using symmetry in FoFCou.
 Raff kept on since  92.28% of shell-pairs survive, threshold=   0.20 IRatSp=92.
          There are    72 degrees of freedom in the 1st order CPHF.  IDoFFX=6 NUNeed=     0.
     66 vectors produced by pass  0 Test12= 1.63D-14 1.39D-09 XBig12= 5.60D-02 4.40D-02.
 AX will form    66 AO Fock derivatives at one time.
     66 vectors produced by pass  1 Test12= 1.63D-14 1.39D-09 XBig12= 3.34D-03 6.69D-03.
     66 vectors produced by pass  2 Test12= 1.63D-14 1.39D-09 XBig12= 4.70D-05 9.48D-04.
     66 vectors produced by pass  3 Test12= 1.63D-14 1.39D-09 XBig12= 3.83D-07 7.77D-05.
     66 vectors produced by pass  4 Test12= 1.63D-14 1.39D-09 XBig12= 1.64D-09 4.35D-06.
     66 vectors produced by pass  5 Test12= 1.63D-14 1.39D-09 XBig12= 8.09D-12 2.88D-07.
     24 vectors produced by pass  6 Test12= 1.63D-14 1.39D-09 XBig12= 2.97D-14 1.74D-08.
 InvSVY:  IOpt=1 It=  1 EMax= 3.05D-16
 Solved reduced A of dimension   420 with    72 vectors.
 End of Minotr F.D. properties file   721 does not exist.
 End of Minotr F.D. properties file   722 does not exist.
 End of Minotr F.D. properties file   788 does not exist.
 Leave Link 1002 at Fri Sep 27 06:02:49 2019, MaxMem=   671088640 cpu:            8814.1 elap:            4407.9
 (Enter /shared/centos7/gaussian/g16/l601.exe)
 Copying SCF densities to generalized density rwf, IOpCl= 0 IROHF=0.

 **********************************************************************

            Population analysis using the SCF density.

 **********************************************************************

 Orbital symmetries:
       Occupied  (A) (A) (A) (A) (A) (A) (A) (A) (A) (A) (A) (A)
                 (A) (A) (A) (A) (A) (A) (A) (A) (A) (A) (A) (A)
                 (A) (A) (A) (A) (A)
       Virtual   (A) (A) (A) (A) (A) (A) (A) (A) (A) (A) (A) (A)
                 (A) (A) (A) (A) (A) (A) (A) (A) (A) (A) (A) (A)
                 (A) (A) (A) (A) (A) (A) (A) (A) (A) (A) (A) (A)
                 (A) (A) (A) (A) (A) (A) (A) (A) (A) (A) (A) (A)
                 (A) (A) (A) (A) (A) (A) (A) (A) (A) (A) (A) (A)
                 (A) (A) (A) (A) (A) (A) (A) (A) (A) (A) (A) (A)
                 (A) (A) (A) (A) (A) (A) (A) (A) (A) (A) (A) (A)
                 (A) (A) (A) (A) (A) (A) (A) (A) (A) (A) (A) (A)
                 (A) (A) (A) (A) (A) (A) (A) (A) (A) (A) (A) (A)
                 (A) (A) (A) (A) (A) (A) (A) (A) (A) (A) (A) (A)
                 (A) (A) (A) (A) (A) (A) (A) (A) (A) (A) (A) (A)
                 (A) (A) (A) (A) (A) (A) (A) (A) (A) (A) (A) (A)
                 (A) (A) (A) (A) (A) (A) (A) (A) (A) (A) (A) (A)
                 (A) (A) (A) (A) (A) (A) (A) (A) (A) (A) (A) (A)
                 (A) (A) (A) (A) (A) (A) (A) (A) (A) (A) (A) (A)
                 (A) (A) (A) (A) (A) (A) (A) (A) (A) (A) (A) (A)
                 (A) (A) (A) (A) (A) (A) (A) (A) (A) (A) (A) (A)
                 (A) (A) (A) (A) (A) (A) (A) (A) (A) (A) (A) (A)
                 (A) (A) (A) (A) (A) (A) (A) (A) (A) (A) (A) (A)
                 (A) (A) (A) (A) (A) (A) (A) (A) (A) (A) (A) (A)
                 (A) (A) (A) (A) (A) (A) (A) (A) (A) (A) (A) (A)
                 (A) (A) (A) (A) (A) (A) (A) (A) (A) (A) (A) (A)
                 (A) (A) (A) (A) (A) (A) (A) (A) (A) (A) (A) (A)
                 (A) (A) (A) (A) (A) (A) (A) (A) (A) (A) (A) (A)
                 (A) (A) (A) (A) (A) (A) (A) (A) (A) (A) (A) (A)
                 (A) (A) (A) (A) (A) (A) (A) (A) (A) (A) (A) (A)
                 (A) (A) (A) (A) (A) (A) (A) (A) (A) (A) (A) (A)
                 (A) (A) (A) (A) (A) (A) (A) (A) (A) (A) (A) (A)
                 (A) (A) (A) (A) (A) (A) (A) (A) (A) (A) (A) (A)
                 (A) (A) (A) (A) (A) (A) (A) (A) (A) (A) (A) (A)
                 (A) (A) (A) (A) (A) (A) (A) (A) (A) (A) (A) (A)
                 (A) (A) (A) (A) (A) (A) (A) (A) (A) (A) (A) (A)
                 (A) (A) (A) (A) (A) (A) (A) (A) (A) (A) (A) (A)
                 (A) (A) (A) (A) (A) (A) (A) (A) (A)
 The electronic state is 1-A.
 Alpha  occ. eigenvalues --  -10.52903 -10.52514 -10.52432 -10.52382 -10.52329
 Alpha  occ. eigenvalues --  -10.52037 -10.51952  -0.92333  -0.87754  -0.82975
 Alpha  occ. eigenvalues --   -0.76633  -0.72044  -0.65868  -0.60509  -0.55573
 Alpha  occ. eigenvalues --   -0.54763  -0.50289  -0.49659  -0.48046  -0.47587
 Alpha  occ. eigenvalues --   -0.44992  -0.43510  -0.41833  -0.39377  -0.39053
 Alpha  occ. eigenvalues --   -0.37366  -0.36346  -0.35602  -0.34980
 Alpha virt. eigenvalues --    0.05960   0.08135   0.08706   0.08902   0.10542
 Alpha virt. eigenvalues --    0.12235   0.12581   0.13257   0.14076   0.15512
 Alpha virt. eigenvalues --    0.15938   0.17276   0.18010   0.20442   0.21260
 Alpha virt. eigenvalues --    0.22019   0.23208   0.24318   0.25093   0.26679
 Alpha virt. eigenvalues --    0.27703   0.28659   0.30248   0.30557   0.31941
 Alpha virt. eigenvalues --    0.33039   0.34048   0.34647   0.35147   0.36216
 Alpha virt. eigenvalues --    0.38591   0.40001   0.41417   0.44064   0.45141
 Alpha virt. eigenvalues --    0.45344   0.45464   0.45885   0.47815   0.47991
 Alpha virt. eigenvalues --    0.48698   0.49778   0.50226   0.51105   0.52233
 Alpha virt. eigenvalues --    0.52697   0.52771   0.54273   0.54663   0.55351
 Alpha virt. eigenvalues --    0.55466   0.55753   0.56993   0.57340   0.58105
 Alpha virt. eigenvalues --    0.59025   0.59919   0.60841   0.61641   0.62140
 Alpha virt. eigenvalues --    0.65406   0.69282   0.69919   0.73202   0.77012
 Alpha virt. eigenvalues --    0.77473   0.80212   0.84014   0.84891   0.86483
 Alpha virt. eigenvalues --    0.88636   0.88892   0.91161   0.91624   0.94416
 Alpha virt. eigenvalues --    0.95075   0.96384   0.98353   0.99408   0.99439
 Alpha virt. eigenvalues --    1.00727   1.01451   1.04138   1.05251   1.06124
 Alpha virt. eigenvalues --    1.07578   1.08395   1.08953   1.09266   1.10776
 Alpha virt. eigenvalues --    1.12165   1.12894   1.13922   1.14593   1.15502
 Alpha virt. eigenvalues --    1.16403   1.17731   1.18509   1.19540   1.20762
 Alpha virt. eigenvalues --    1.21234   1.22187   1.22347   1.23704   1.24221
 Alpha virt. eigenvalues --    1.26276   1.27187   1.28104   1.29456   1.31001
 Alpha virt. eigenvalues --    1.31302   1.32385   1.32861   1.34627   1.35090
 Alpha virt. eigenvalues --    1.35586   1.37080   1.38206   1.39290   1.40151
 Alpha virt. eigenvalues --    1.41288   1.42212   1.43040   1.44003   1.46236
 Alpha virt. eigenvalues --    1.47405   1.48925   1.49653   1.50895   1.51711
 Alpha virt. eigenvalues --    1.52633   1.53484   1.54540   1.56261   1.57384
 Alpha virt. eigenvalues --    1.57960   1.61040   1.62645   1.64632   1.66957
 Alpha virt. eigenvalues --    1.68153   1.71272   1.73462   1.77305   1.78722
 Alpha virt. eigenvalues --    1.81789   1.89066   1.90117   1.91165   2.24364
 Alpha virt. eigenvalues --    2.25078   2.29933   2.32141   2.33999   2.35522
 Alpha virt. eigenvalues --    2.37404   2.37691   2.41451   2.43893   2.44672
 Alpha virt. eigenvalues --    2.49281   2.50248   2.51599   2.53178   2.54837
 Alpha virt. eigenvalues --    2.57354   2.58256   2.59375   2.59605   2.63054
 Alpha virt. eigenvalues --    2.63345   2.65109   2.65682   2.67757   2.68161
 Alpha virt. eigenvalues --    2.69713   2.70850   2.71462   2.72926   2.75039
 Alpha virt. eigenvalues --    2.75976   2.76742   2.77588   2.78268   2.80271
 Alpha virt. eigenvalues --    2.80535   2.82078   2.83848   2.85408   2.86601
 Alpha virt. eigenvalues --    2.89491   2.90024   2.90273   2.92121   2.94292
 Alpha virt. eigenvalues --    2.95121   2.96527   2.97273   2.98545   3.00482
 Alpha virt. eigenvalues --    3.01065   3.02120   3.03799   3.04730   3.05087
 Alpha virt. eigenvalues --    3.06309   3.06609   3.08547   3.08649   3.09666
 Alpha virt. eigenvalues --    3.10534   3.11266   3.12627   3.13596   3.14205
 Alpha virt. eigenvalues --    3.15204   3.16577   3.17091   3.17537   3.18411
 Alpha virt. eigenvalues --    3.20134   3.21958   3.23264   3.24262   3.24700
 Alpha virt. eigenvalues --    3.25830   3.27488   3.28162   3.29608   3.30985
 Alpha virt. eigenvalues --    3.32529   3.33314   3.35554   3.36243   3.38854
 Alpha virt. eigenvalues --    3.39835   3.40688   3.42355   3.42848   3.43971
 Alpha virt. eigenvalues --    3.46184   3.46919   3.48022   3.51141   3.51469
 Alpha virt. eigenvalues --    3.53178   3.53859   3.55397   3.55958   3.57364
 Alpha virt. eigenvalues --    3.58008   3.59758   3.60652   3.62431   3.62966
 Alpha virt. eigenvalues --    3.63471   3.63980   3.65401   3.66100   3.67864
 Alpha virt. eigenvalues --    3.68460   3.68961   3.70984   3.72458   3.74074
 Alpha virt. eigenvalues --    3.74120   3.75421   3.76561   3.78703   3.80956
 Alpha virt. eigenvalues --    3.81326   3.81734   3.82276   3.84331   3.87180
 Alpha virt. eigenvalues --    3.88586   3.90067   3.91362   3.91918   3.92896
 Alpha virt. eigenvalues --    3.94892   3.95316   3.96287   3.97951   3.99018
 Alpha virt. eigenvalues --    3.99512   4.00198   4.01332   4.02281   4.02432
 Alpha virt. eigenvalues --    4.03341   4.05342   4.06104   4.06753   4.07978
 Alpha virt. eigenvalues --    4.10444   4.11231   4.11681   4.12735   4.13904
 Alpha virt. eigenvalues --    4.15944   4.16673   4.17709   4.18931   4.20310
 Alpha virt. eigenvalues --    4.20842   4.21701   4.22885   4.23551   4.24864
 Alpha virt. eigenvalues --    4.26441   4.29321   4.29691   4.30969   4.31526
 Alpha virt. eigenvalues --    4.33685   4.35307   4.36572   4.37539   4.39262
 Alpha virt. eigenvalues --    4.39714   4.42303   4.43323   4.44746   4.47939
 Alpha virt. eigenvalues --    4.49782   4.50390   4.51859   4.55815   4.57252
 Alpha virt. eigenvalues --    4.59123   4.60277   4.65169   4.65350   4.67191
 Alpha virt. eigenvalues --    4.70040   4.71227   4.73200   4.73790   4.76068
 Alpha virt. eigenvalues --    4.78104   4.81518   4.82545   4.83404   4.84557
 Alpha virt. eigenvalues --    4.85651   4.87637   4.88993   4.91049   4.91831
 Alpha virt. eigenvalues --    4.92964   4.96499   4.97427   4.99031   5.01545
 Alpha virt. eigenvalues --    5.01939   5.04475   5.06568   5.07302   5.08370
 Alpha virt. eigenvalues --    5.12684   5.14485   5.15809   5.15955   5.19378
 Alpha virt. eigenvalues --    5.21348   5.23583   5.25171   5.26405   5.27780
 Alpha virt. eigenvalues --    5.29851   5.30644   5.33412   5.34722   5.35140
 Alpha virt. eigenvalues --    5.38424   5.39657   5.40512   5.43190   5.44998
 Alpha virt. eigenvalues --    5.46890   5.49269   5.51136   5.58116   5.58337
 Alpha virt. eigenvalues --    5.61170   5.66262   5.73157   5.75277   5.82600
 Alpha virt. eigenvalues --    5.84524   5.89069   5.92749   5.97336   6.00050
 Alpha virt. eigenvalues --    6.00552   6.07098   6.11103  11.62103  11.97621
 Alpha virt. eigenvalues --   12.15684  12.92471  13.33871  13.65298  13.87937
          Condensed to atoms (all electrons):
               1          2          3          4          5          6
     1  C    5.096415   0.276591  -0.046410   0.310550   0.004953  -0.047701
     2  C    0.276591   5.171287   0.306878  -0.038902  -0.041487  -0.022329
     3  C   -0.046410   0.306878   5.066086  -0.001059   0.296441   0.001145
     4  C    0.310550  -0.038902  -0.001059   5.125187   0.005694   0.265201
     5  C    0.004953  -0.041487   0.296441   0.005694   5.099251  -0.002411
     6  C   -0.047701  -0.022329   0.001145   0.265201  -0.002411   5.070501
     7  C   -0.004968   0.004391  -0.041503  -0.001883   0.273488  -0.008941
     8  H   -0.041155  -0.004421   0.000557   0.409201  -0.000020  -0.051432
     9  H   -0.044834   0.009171  -0.000467   0.420944  -0.000135  -0.041171
    10  H    0.414706  -0.047036  -0.001007  -0.050763  -0.002453   0.009664
    11  H    0.430117  -0.055723   0.008996  -0.049009  -0.000606  -0.002502
    12  H   -0.048470   0.416033  -0.047558  -0.015236   0.000075  -0.002474
    13  H   -0.045282   0.425018  -0.044997   0.008372   0.008295   0.000682
    14  H    0.009059  -0.057820   0.420985  -0.000607  -0.043189   0.000308
    15  H   -0.000771  -0.047496   0.417500  -0.000336  -0.049083  -0.000032
    16  H    0.005785  -0.008844  -0.039842  -0.002793   0.401819   0.000195
    17  H   -0.000476   0.007987  -0.042581   0.000207   0.420847  -0.000152
    18  H    0.006603  -0.021187   0.001445  -0.056251  -0.000002   0.410782
    19  H    0.007330   0.001109  -0.000126  -0.040138   0.000038   0.400707
    20  H    0.000778   0.001219  -0.000204  -0.048935  -0.000122   0.420068
    21  H    0.000390   0.000374   0.003573  -0.008843  -0.046957  -0.002164
    22  H    0.001271  -0.000910  -0.000703  -0.003344  -0.055185  -0.012054
    23  H    0.000090  -0.000663   0.006377   0.000299  -0.039113   0.000898
               7          8          9         10         11         12
     1  C   -0.004968  -0.041155  -0.044834   0.414706   0.430117  -0.048470
     2  C    0.004391  -0.004421   0.009171  -0.047036  -0.055723   0.416033
     3  C   -0.041503   0.000557  -0.000467  -0.001007   0.008996  -0.047558
     4  C   -0.001883   0.409201   0.420944  -0.050763  -0.049009  -0.015236
     5  C    0.273488  -0.000020  -0.000135  -0.002453  -0.000606   0.000075
     6  C   -0.008941  -0.051432  -0.041171   0.009664  -0.002502  -0.002474
     7  C    5.074007  -0.011647   0.000509   0.000721  -0.000008   0.000744
     8  H   -0.011647   0.616716  -0.034203  -0.009830   0.009495   0.000471
     9  H    0.000509  -0.034203   0.584857  -0.001360  -0.014768   0.000146
    10  H    0.000721  -0.009830  -0.001360   0.566061  -0.027194   0.008154
    11  H   -0.000008   0.009495  -0.014768  -0.027194   0.582882  -0.002891
    12  H    0.000744   0.000471   0.000146   0.008154  -0.002891   0.594607
    13  H   -0.000459  -0.000567  -0.000402  -0.001534  -0.016050  -0.032687
    14  H   -0.005464  -0.000029   0.000042  -0.000184  -0.000432  -0.013744
    15  H    0.008889  -0.000035   0.000014   0.002636  -0.000306   0.009838
    16  H   -0.050887   0.000607   0.000016  -0.000586   0.000090  -0.000158
    17  H   -0.041763   0.000404  -0.000007  -0.000158   0.000036  -0.000433
    18  H    0.000082   0.008594   0.001040   0.000024   0.002634  -0.004979
    19  H    0.000600   0.002639  -0.016648  -0.000367   0.000209   0.001106
    20  H   -0.008817  -0.016093   0.007045  -0.000618  -0.000328  -0.006470
    21  H    0.411367  -0.008517   0.000776   0.000016  -0.000098  -0.000167
    22  H    0.410257  -0.000568   0.000054  -0.000015   0.000011  -0.000662
    23  H    0.403192   0.001183  -0.000019  -0.000033   0.000008   0.000011
              13         14         15         16         17         18
     1  C   -0.045282   0.009059  -0.000771   0.005785  -0.000476   0.006603
     2  C    0.425018  -0.057820  -0.047496  -0.008844   0.007987  -0.021187
     3  C   -0.044997   0.420985   0.417500  -0.039842  -0.042581   0.001445
     4  C    0.008372  -0.000607  -0.000336  -0.002793   0.000207  -0.056251
     5  C    0.008295  -0.043189  -0.049083   0.401819   0.420847  -0.000002
     6  C    0.000682   0.000308  -0.000032   0.000195  -0.000152   0.410782
     7  C   -0.000459  -0.005464   0.008889  -0.050887  -0.041763   0.000082
     8  H   -0.000567  -0.000029  -0.000035   0.000607   0.000404   0.008594
     9  H   -0.000402   0.000042   0.000014   0.000016  -0.000007   0.001040
    10  H   -0.001534  -0.000184   0.002636  -0.000586  -0.000158   0.000024
    11  H   -0.016050  -0.000432  -0.000306   0.000090   0.000036   0.002634
    12  H   -0.032687  -0.013744   0.009838  -0.000158  -0.000433  -0.004979
    13  H    0.584628  -0.000212  -0.016870  -0.000142  -0.000398  -0.000304
    14  H   -0.000212   0.589310  -0.032982   0.009057  -0.010492   0.000106
    15  H   -0.016870  -0.032982   0.596817  -0.008094  -0.006898  -0.000098
    16  H   -0.000142   0.009057  -0.008094   0.605059  -0.031768  -0.000003
    17  H   -0.000398  -0.010492  -0.006898  -0.031768   0.578977   0.000026
    18  H   -0.000304   0.000106  -0.000098  -0.000003   0.000026   0.607165
    19  H   -0.000018  -0.000025   0.000007   0.000002   0.000003  -0.029103
    20  H    0.000291   0.000216  -0.000077  -0.000141  -0.000121  -0.041079
    21  H    0.000010  -0.000251  -0.000519  -0.017107   0.006406   0.000083
    22  H   -0.000176   0.002143   0.000397   0.007513   0.003687   0.000780
    23  H    0.000020   0.000529  -0.000479   0.005260  -0.018745  -0.000017
              19         20         21         22         23
     1  C    0.007330   0.000778   0.000390   0.001271   0.000090
     2  C    0.001109   0.001219   0.000374  -0.000910  -0.000663
     3  C   -0.000126  -0.000204   0.003573  -0.000703   0.006377
     4  C   -0.040138  -0.048935  -0.008843  -0.003344   0.000299
     5  C    0.000038  -0.000122  -0.046957  -0.055185  -0.039113
     6  C    0.400707   0.420068  -0.002164  -0.012054   0.000898
     7  C    0.000600  -0.008817   0.411367   0.410257   0.403192
     8  H    0.002639  -0.016093  -0.008517  -0.000568   0.001183
     9  H   -0.016648   0.007045   0.000776   0.000054  -0.000019
    10  H   -0.000367  -0.000618   0.000016  -0.000015  -0.000033
    11  H    0.000209  -0.000328  -0.000098   0.000011   0.000008
    12  H    0.001106  -0.006470  -0.000167  -0.000662   0.000011
    13  H   -0.000018   0.000291   0.000010  -0.000176   0.000020
    14  H   -0.000025   0.000216  -0.000251   0.002143   0.000529
    15  H    0.000007  -0.000077  -0.000519   0.000397  -0.000479
    16  H    0.000002  -0.000141  -0.017107   0.007513   0.005260
    17  H    0.000003  -0.000121   0.006406   0.003687  -0.018745
    18  H   -0.029103  -0.041079   0.000083   0.000780  -0.000017
    19  H    0.591564  -0.028319  -0.000055   0.001117  -0.000038
    20  H   -0.028319   0.590927  -0.000333  -0.011801   0.001250
    21  H   -0.000055  -0.000333   0.598042  -0.041932  -0.031440
    22  H    0.001117  -0.011801  -0.041932   0.598625  -0.025861
    23  H   -0.000038   0.001250  -0.031440  -0.025861   0.582207
 Mulliken charges:
               1
     1  C   -0.284568
     2  C   -0.273238
     3  C   -0.263528
     4  C   -0.227557
     5  C   -0.230140
     6  C   -0.386787
     7  C   -0.411907
     8  H    0.128652
     9  H    0.129401
    10  H    0.141158
    11  H    0.135438
    12  H    0.144747
    13  H    0.132784
    14  H    0.133676
    15  H    0.127978
    16  H    0.124962
    17  H    0.135411
    18  H    0.113659
    19  H    0.108405
    20  H    0.141666
    21  H    0.137347
    22  H    0.127356
    23  H    0.115084
 Sum of Mulliken charges =  -0.00000
 Mulliken charges with hydrogens summed into heavy atoms:
               1
     1  C   -0.007971
     2  C    0.004293
     3  C   -0.001874
     4  C    0.030496
     5  C    0.030233
     6  C   -0.023057
     7  C   -0.032120
 APT charges:
               1
     1  C   -0.890143
     2  C   -0.611928
     3  C   -0.891201
     4  C   -0.592666
     5  C   -0.756391
     6  C   -1.089258
     7  C   -1.021438
     8  H    0.228099
     9  H    0.502412
    10  H    0.340716
    11  H    0.463562
    12  H    0.282281
    13  H    0.466315
    14  H    0.383685
    15  H    0.440535
    16  H    0.284118
    17  H    0.523635
    18  H    0.247265
    19  H    0.515680
    20  H    0.205385
    21  H    0.250543
    22  H    0.187024
    23  H    0.531771
 Sum of APT charges =  -0.00000
 APT charges with hydrogens summed into heavy atoms:
               1
     1  C   -0.085865
     2  C    0.136668
     3  C   -0.066980
     4  C    0.137845
     5  C    0.051362
     6  C   -0.120929
     7  C   -0.052100
 Electronic spatial extent (au):  <R**2>=            952.3033
 Charge=             -0.0000 electrons
 Dipole moment (field-independent basis, Debye):
    X=              0.0605    Y=             -0.0717    Z=              0.0513  Tot=              0.1069
 Quadrupole moment (field-independent basis, Debye-Ang):
   XX=            -48.7600   YY=            -49.4541   ZZ=            -49.2551
   XY=              0.3840   XZ=             -0.1622   YZ=              0.1674
 Traceless Quadrupole moment (field-independent basis, Debye-Ang):
   XX=              0.3964   YY=             -0.2977   ZZ=             -0.0987
   XY=              0.3840   XZ=             -0.1622   YZ=              0.1674
 Octapole moment (field-independent basis, Debye-Ang**2):
  XXX=              0.5717  YYY=             -3.0042  ZZZ=              0.4736  XYY=              0.0247
  XXY=              0.6720  XXZ=              0.4688  XZZ=              0.5465  YZZ=             -0.3428
  YYZ=              0.8438  XYZ=             -0.9328
 Hexadecapole moment (field-independent basis, Debye-Ang**3):
 XXXX=           -695.7747 YYYY=           -449.1973 ZZZZ=           -195.6402 XXXY=              3.0214
 XXXZ=             -6.0575 YYYX=              0.5024 YYYZ=              1.1496 ZZZX=             -0.9354
 ZZZY=              0.6184 XXYY=           -190.0897 XXZZ=           -155.2062 YYZZ=           -109.9011
 XXYZ=              0.7914 YYXZ=              0.9039 ZZXY=              0.4418
 N-N= 3.400505518952D+02 E-N=-1.318550786209D+03  KE= 2.745466319991D+02
  Exact polarizability:   0.000   0.000   0.000   0.000   0.000   0.000
 Approx polarizability: 100.552   0.603  97.977   0.245   0.124  97.872
 No NMR shielding tensors so no spin-rotation constants.
 Leave Link  601 at Fri Sep 27 06:03:23 2019, MaxMem=   671088640 cpu:              68.2 elap:              34.2
 (Enter /shared/centos7/gaussian/g16/l701.exe)
 SCFChk:  SCF convergence  7.42D-09 required  1.00D-08
 ... and contract with generalized density number  0.
 Compute integral second derivatives.
 Entering OneElI...
 Calculate overlap and kinetic energy integrals
    NBasis = 485  MinDer = 2  MaxDer = 2
 Requested accuracy = 0.1000D-12
 PrmmSu-InSpLW:  IPartL=    0 NPrtUS=   20 NPrtUL=    1 DoSpLW=F IThBeg=    0 IThEnd=   19 NThAct=   20.
 PrsmSu:  NPrtUS=  20 ThrOK=T IAlg=1 NPAlg=1 LenDen=           0 ISkipM=0 DoSpLW=F IThBeg=    0 IThEnd=   19.
 Prism:   IPart=     0 DynPar=F LinDyn=F Incr=           6.
 PRISM was handed    33192212 working-precision words and 13829 shell-pairs
 PRISM was handed    33192212 working-precision words and 13829 shell-pairs
 PRISM was handed    33192212 working-precision words and 13829 shell-pairs
 PRISM was handed    33192212 working-precision words and 13829 shell-pairs
 PRISM was handed    33192212 working-precision words and 13829 shell-pairs
 PRISM was handed    33192212 working-precision words and 13829 shell-pairs
 PRISM was handed    33192212 working-precision words and 13829 shell-pairs
 PRISM was handed    33192212 working-precision words and 13829 shell-pairs
 PRISM was handed    33192212 working-precision words and 13829 shell-pairs
 PRISM was handed    33192212 working-precision words and 13829 shell-pairs
 PRISM was handed    33192212 working-precision words and 13829 shell-pairs
 PRISM was handed    33192212 working-precision words and 13829 shell-pairs
 IPart=  2 NShTot=         720 NBatch=          74 AvBLen=         9.7
 PRISM was handed    33192212 working-precision words and 13829 shell-pairs
 IPart=  0 NShTot=         729 NBatch=          79 AvBLen=         9.2
 PRISM was handed    33192212 working-precision words and 13829 shell-pairs
 IPart= 16 NShTot=         669 NBatch=          51 AvBLen=        13.1
 PRISM was handed    33192212 working-precision words and 13829 shell-pairs
 PRISM was handed    33192212 working-precision words and 13829 shell-pairs
 PRISM was handed    33192212 working-precision words and 13829 shell-pairs
 PRISM was handed    33192212 working-precision words and 13829 shell-pairs
 IPart=  6 NShTot=         701 NBatch=          66 AvBLen=        10.6
 IPart=  5 NShTot=         708 NBatch=          69 AvBLen=        10.3
 IPart= 17 NShTot=         669 NBatch=          51 AvBLen=        13.1
 PRISM was handed    33192212 working-precision words and 13829 shell-pairs
 PRISM was handed    33192212 working-precision words and 13829 shell-pairs
 IPart= 19 NShTot=         666 NBatch=          50 AvBLen=        13.3
 IPart= 13 NShTot=         674 NBatch=          52 AvBLen=        13.0
 IPart= 11 NShTot=         684 NBatch=          57 AvBLen=        12.0
 IPart=  7 NShTot=         696 NBatch=          61 AvBLen=        11.4
 IPart=  1 NShTot=         728 NBatch=          79 AvBLen=         9.2
 IPart=  9 NShTot=         689 NBatch=          59 AvBLen=        11.7
 IPart= 12 NShTot=         677 NBatch=          54 AvBLen=        12.5
 IPart= 14 NShTot=         673 NBatch=          52 AvBLen=        12.9
 IPart=  8 NShTot=         692 NBatch=          59 AvBLen=        11.7
 IPart= 10 NShTot=         685 NBatch=          57 AvBLen=        12.0
 IPart=  4 NShTot=         713 NBatch=          71 AvBLen=        10.0
 IPart=  3 NShTot=         718 NBatch=          73 AvBLen=         9.8
 IPart= 15 NShTot=         671 NBatch=          52 AvBLen=        12.9
 IPart= 18 NShTot=         667 NBatch=          50 AvBLen=        13.3
 PrSmSu:  NxtVal=            121.
 Entering OneElI...
 Calculate potential energy integrals
    NBasis = 485  MinDer = 2  MaxDer = 2
 Requested accuracy = 0.1000D-12
 PrmmSu-InSpLW:  IPartL=    0 NPrtUS=   20 NPrtUL=    1 DoSpLW=F IThBeg=    0 IThEnd=   19 NThAct=   20.
 PrsmSu:  NPrtUS=  20 ThrOK=T IAlg=1 NPAlg=1 LenDen=           0 ISkipM=0 DoSpLW=F IThBeg=    0 IThEnd=   19.
 Prism:   IPart=     0 DynPar=F LinDyn=F Incr=         147.
 PRISM was handed    33254324 working-precision words and 12791 shell-pairs
 PRISM was handed    33254324 working-precision words and 12791 shell-pairs
 PRISM was handed    33254324 working-precision words and 12791 shell-pairs
 PRISM was handed    33254324 working-precision words and 12791 shell-pairs
 PRISM was handed    33254324 working-precision words and 12791 shell-pairs
 PRISM was handed    33254324 working-precision words and 12791 shell-pairs
 PRISM was handed    33254324 working-precision words and 12791 shell-pairs
 PRISM was handed    33254324 working-precision words and 12791 shell-pairs
 PRISM was handed    33254324 working-precision words and 12791 shell-pairs
 PRISM was handed    33254324 working-precision words and 12791 shell-pairs
 PRISM was handed    33254324 working-precision words and 12791 shell-pairs
 PRISM was handed    33254324 working-precision words and 12791 shell-pairs
 PRISM was handed    33254324 working-precision words and 12791 shell-pairs
 PRISM was handed    33254324 working-precision words and 12791 shell-pairs
 PRISM was handed    33254324 working-precision words and 12791 shell-pairs
 PRISM was handed    33254324 working-precision words and 12791 shell-pairs
 PRISM was handed    33254324 working-precision words and 12791 shell-pairs
 PRISM was handed    33254324 working-precision words and 12791 shell-pairs
 PRISM was handed    33254324 working-precision words and 12791 shell-pairs
 PRISM was handed    33254324 working-precision words and 12791 shell-pairs
 IPart= 17 NShTot=       14260 NBatch=         621 AvBLen=        23.0
 IPart= 18 NShTot=       14214 NBatch=         619 AvBLen=        23.0
 IPart=  2 NShTot=       15318 NBatch=         668 AvBLen=        22.9
 IPart=  9 NShTot=       14605 NBatch=         636 AvBLen=        23.0
 IPart= 19 NShTot=       14168 NBatch=         617 AvBLen=        23.0
 IPart= 12 NShTot=       14444 NBatch=         629 AvBLen=        23.0
 IPart= 10 NShTot=       14559 NBatch=         634 AvBLen=        23.0
 IPart= 13 NShTot=       14421 NBatch=         628 AvBLen=        23.0
 IPart=  1 NShTot=       15456 NBatch=         674 AvBLen=        22.9
 IPart=  8 NShTot=       14605 NBatch=         636 AvBLen=        23.0
 IPart= 16 NShTot=       14283 NBatch=         622 AvBLen=        23.0
 IPart=  6 NShTot=       14904 NBatch=         650 AvBLen=        22.9
 IPart= 11 NShTot=       14513 NBatch=         632 AvBLen=        23.0
 IPart=  0 NShTot=       15502 NBatch=         676 AvBLen=        22.9
 IPart= 14 NShTot=       14421 NBatch=         628 AvBLen=        23.0
 IPart= 15 NShTot=       14352 NBatch=         625 AvBLen=        23.0
 IPart=  7 NShTot=       14674 NBatch=         640 AvBLen=        22.9
 IPart=  4 NShTot=       15157 NBatch=         661 AvBLen=        22.9
 IPart=  3 NShTot=       15272 NBatch=         666 AvBLen=        22.9
 IPart=  5 NShTot=       15065 NBatch=         657 AvBLen=        22.9
 PrSmSu:  NxtVal=           2941.
 Polarizability after L701:
                1             2             3 
      1  0.000000D+00
      2  0.000000D+00  0.000000D+00
      3  0.000000D+00  0.000000D+00  0.000000D+00
 Dipole Derivatives after L701:
                 1             2             3             4             5 
      1  -0.982706D+00 -0.733016D+00  0.151918D+00  0.391638D-01 -0.479550D-01
      2  -0.554353D+00 -0.825689D+00  0.629409D+00 -0.239295D+00 -0.117162D+01
      3  -0.143458D+00  0.494128D+00 -0.862035D+00 -0.326077D+00 -0.966081D-01
                 6             7             8             9            10 
      1  -0.315424D+00 -0.940504D+00  0.784965D+00  0.564972D+00 -0.892140D+00
      2  -0.693385D+00  0.733066D+00 -0.918423D+00 -0.100944D-01 -0.115330D+00
      3  -0.703330D+00  0.373672D+00  0.145233D+00 -0.814677D+00  0.180052D+00
                11            12            13            14            15 
      1   0.391206D+00  0.113148D+01 -0.158136D+01  0.720346D-01 -0.771660D+00
      2  -0.326177D+00 -0.538616D+00 -0.258507D+00  0.124621D+00 -0.516233D-01
      3  -0.516491D+00 -0.559681D+00 -0.278877D-01  0.851152D-01 -0.812434D+00
                16            17            18            19            20 
      1  -0.115133D+01  0.402716D+00 -0.107061D+01 -0.573361D+00 -0.947734D+00
      2   0.104938D+00 -0.113818D+01  0.445008D+00  0.152314D+00 -0.154020D+01
      3  -0.892523D-02  0.327586D-01 -0.978272D+00  0.522608D-01 -0.139708D+00
                21            22            23            24            25 
      1   0.249260D+00 -0.379101D-01 -0.147546D+00 -0.993571D-01  0.962804D+00
      2   0.920539D-01  0.328358D+00  0.401486D+00  0.128737D+00 -0.151735D+00
      3  -0.950753D+00  0.336332D+00  0.251176D+00  0.320719D+00 -0.405778D+00
                26            27            28            29            30 
      1  -0.823868D-01 -0.448281D+00  0.593204D-01  0.485255D-01 -0.188231D+00
      2   0.176034D+00  0.607237D-01 -0.176583D+00  0.257861D+00 -0.425850D+00
      3   0.182792D-01  0.368400D+00  0.239058D+00 -0.127946D+00  0.704965D+00
                31            32            33            34            35 
      1   0.758634D+00  0.394701D+00  0.986143D-01  0.255503D+00 -0.120975D+00
      2   0.485016D+00  0.521763D+00  0.129295D+00  0.854450D-01  0.150215D-01
      3  -0.156929D+00 -0.667312D-01  0.110291D+00  0.176472D+00 -0.296702D+00
                36            37            38            39            40 
      1   0.144939D+00  0.197021D+00  0.508349D-01 -0.436997D-02  0.397819D+00
      2   0.217553D+00  0.865090D-01  0.104328D+01  0.114470D+00 -0.100084D+00
      3   0.576319D+00  0.131635D-01  0.229088D+00  0.158639D+00 -0.170885D+00
                41            42            43            44            45 
      1   0.639183D-01 -0.557095D+00  0.444459D+00 -0.519762D+00  0.276712D+00
      2   0.107100D+00  0.292677D+00 -0.272605D+00  0.722964D+00 -0.265328D+00
      3  -0.458680D-01  0.646137D+00  0.424455D-01 -0.370627D-01  0.154183D+00
                46            47            48            49            50 
      1   0.166007D-01 -0.664412D-01  0.523862D+00  0.125504D+01  0.514300D-01
      2  -0.206458D-01  0.167067D+00  0.144691D-01  0.887549D-01  0.193313D+00
      3  -0.128114D+00 -0.508311D-01  0.668687D+00  0.856480D-01  0.599045D-02
                51            52            53            54            55 
      1  -0.142069D+00  0.968546D-01  0.525496D+00  0.523318D+00  0.961025D+00
      2  -0.704115D-02  0.132596D-01  0.163298D+00  0.220820D-02 -0.543208D+00
      3   0.122556D+00  0.759625D-02  0.416348D+00  0.481641D+00  0.196467D+00
                56            57            58            59            60 
      1  -0.607096D+00 -0.646673D-01 -0.741348D-01 -0.101398D+00  0.104119D+00
      2   0.469097D+00  0.192394D-01  0.560223D+00  0.423736D+00 -0.165013D+00
      3  -0.155686D+00  0.116919D+00 -0.355638D+00 -0.183236D+00  0.266553D+00
                61            62            63            64            65 
      1   0.613898D-02  0.531612D-01  0.116189D+00 -0.653737D-01  0.316142D-01
      2  -0.482949D+00  0.322422D+00  0.482071D+00 -0.441737D+00  0.154556D+00
      3  -0.236114D+00  0.723742D-01  0.423068D+00  0.302045D+00  0.453249D-02
                66            67            68            69 
      1  -0.172184D+00  0.848437D+00  0.503707D+00 -0.514319D-01
      2  -0.414264D+00  0.719147D+00  0.656661D+00 -0.566999D-01
      3   0.471889D+00 -0.454049D-01 -0.381527D-01  0.902157D-01
 Hessian after L701:
                1             2             3             4             5 
      1  0.161595D+02
      2  0.655579D+00  0.164163D+02
      3  0.672894D+00  0.333782D+00  0.173891D+02
      4 -0.447451D+01 -0.667507D+00 -0.192550D+01  0.156051D+02
      5 -0.679858D+00 -0.602505D+01  0.773093D+00 -0.143081D+00  0.169285D+02
      6 -0.187966D+01  0.737232D+00 -0.425164D+01  0.536832D+00 -0.557616D+00
      7  0.229756D+00  0.571736D-01 -0.108361D+00 -0.227712D+01  0.938128D+00
      8  0.121885D+00 -0.783565D-01 -0.233424D-01  0.925280D+00 -0.588045D+01
      9 -0.180738D+00  0.168924D-02  0.928564D-02  0.338594D+00 -0.236637D-01
     10 -0.581129D+01 -0.134583D+01  0.207944D-01  0.138148D+00 -0.252133D+00
     11 -0.130000D+01 -0.277530D+01  0.112890D+00 -0.247858D+00  0.111575D+00
     12  0.291762D-01  0.112061D+00 -0.636116D+01 -0.153398D+00  0.966492D-01
     13  0.253420D+00  0.126175D+00  0.280071D-01  0.194588D+00  0.213468D+00
     14  0.159930D+00 -0.144851D+00  0.333029D-01  0.230977D+00  0.127932D+00
     15 -0.450502D-01  0.733492D-02 -0.215819D+00  0.110357D-01  0.473954D-01
     16 -0.350190D-01 -0.160840D+00  0.127122D+00 -0.104282D+00 -0.133850D+00
     17 -0.245508D+00  0.112043D+00 -0.266034D+00 -0.167206D+00  0.128090D+00
     18  0.145565D+00 -0.207644D+00  0.887552D-01 -0.878793D-01  0.885717D-01
     19  0.108561D-01  0.137244D+00 -0.230776D-01 -0.677008D-01  0.205258D+00
     20  0.113431D+00  0.312057D-01 -0.302139D-01  0.163829D+00  0.148906D+00
     21 -0.386141D-01 -0.384160D-01 -0.115581D+00  0.486708D-01  0.108861D+00
     22  0.156348D+00  0.515525D-01  0.377084D-01 -0.901372D-02  0.119646D-01
     23 -0.127254D-01 -0.157286D+00  0.232730D-02 -0.110340D-01  0.616022D-02
     24  0.137558D-01 -0.418717D-01  0.135564D+00 -0.817469D-02  0.655998D-02
     25  0.891115D-01  0.104339D+00  0.291476D-03  0.833869D-01 -0.941388D-01
     26  0.994854D-01 -0.372273D-01 -0.586858D-01 -0.807547D-01  0.481979D-02
     27  0.389345D-02 -0.659214D-01  0.991670D-01 -0.907755D-01  0.650388D-01
     28 -0.418646D+01 -0.231061D+00  0.746345D+00  0.108274D+00 -0.120466D-02
     29 -0.293012D+00 -0.420561D+01 -0.763396D+00 -0.139772D-01  0.135511D+00
     30  0.872446D+00 -0.715452D+00 -0.224357D+01  0.125912D+00 -0.394669D-01
     31 -0.270454D+01  0.127962D+01  0.223860D+00 -0.555470D-01  0.319760D-01
     32  0.132753D+01 -0.348699D+01  0.154138D+00  0.786630D-02  0.171360D+00
     33  0.171444D+00  0.112152D+00 -0.439281D+01  0.151210D+00  0.119524D-01
     34  0.117665D+00 -0.311533D-01  0.131868D+00 -0.448042D+01 -0.407854D+00
     35 -0.115313D-01  0.155177D+00 -0.511713D-01 -0.351687D+00 -0.434418D+01
     36  0.130303D+00  0.256056D-01 -0.129801D+00  0.887622D+00 -0.108043D+01
     37  0.306782D-01  0.757819D-01  0.753085D-01 -0.439579D+01  0.250840D+00
     38  0.794002D-01  0.130829D+00 -0.632770D-01  0.260004D+00 -0.199610D+01
     39  0.777451D-01 -0.607831D-01  0.210992D-01  0.682908D-01  0.543117D+00
     40  0.986985D-01 -0.437838D-03 -0.109859D+00 -0.177082D+00 -0.234723D-01
     41 -0.588669D-04 -0.526668D-01 -0.151076D-02  0.612980D-02  0.170102D+00
     42 -0.127107D+00  0.191171D-03  0.379079D-01  0.118136D+00  0.321536D-02
     43  0.442153D-01 -0.223543D-01  0.756021D-03 -0.118795D+00 -0.289321D-01
     44 -0.354766D-01 -0.434790D-02 -0.351834D-02 -0.196228D-01  0.181318D+00
     45 -0.192015D-02 -0.190461D-02 -0.218330D-01 -0.371541D-01 -0.326928D-01
     46  0.668274D-01  0.463247D-01  0.492452D-01 -0.178070D-01 -0.129227D-01
     47  0.459482D-01 -0.287637D-01  0.204623D-01 -0.118232D-01  0.238454D-02
     48  0.824489D-01  0.288949D-01 -0.108751D-01 -0.162610D-01 -0.517724D-02
     49  0.221017D-01  0.276093D-02  0.409739D-02  0.134780D+00  0.887910D-01
     50  0.667822D-02 -0.751602D-02  0.415966D-03  0.739830D-01 -0.110455D-01
[...]
   A34        1.88361  -0.00030   0.00121  -0.00030   0.00091   1.88451
   A35        1.88265  -0.00034   0.00088  -0.00130  -0.00042   1.88223
   A36        1.87446  -0.00012   0.00174  -0.00133   0.00040   1.87486
   A37        1.94541  -0.00024   0.00050  -0.00097  -0.00048   1.94493
   A38        1.94496   0.00031   0.00269  -0.00121   0.00148   1.94645
   A39        1.93180   0.00008   0.00284  -0.00078   0.00205   1.93386
   A40        1.87608  -0.00005  -0.00435   0.00230  -0.00205   1.87403
   A41        1.88564  -0.00004   0.00160  -0.00112   0.00047   1.88611
   A42        1.87710  -0.00007  -0.00362   0.00196  -0.00166   1.87544
    D1        1.70680  -0.00021  -0.02967  -0.00064  -0.03030   1.67650
    D2       -0.45274   0.00030  -0.02696  -0.00358  -0.03052  -0.48327
    D3       -2.46440  -0.00005  -0.02177  -0.00496  -0.02673  -2.49113
    D4       -0.43209  -0.00032  -0.01749  -0.00964  -0.02714  -0.45923
    D5       -2.59164   0.00019  -0.01478  -0.01258  -0.02736  -2.61900
    D6        1.67990  -0.00016  -0.00960  -0.01396  -0.02357   1.65633
    D7       -2.45135  -0.00033  -0.02208  -0.00615  -0.02822  -2.47958
    D8        1.67229   0.00018  -0.01936  -0.00909  -0.02845   1.64384
    D9       -0.33936  -0.00018  -0.01418  -0.01047  -0.02466  -0.36402
   D10        1.19656   0.00001  -0.02520  -0.00213  -0.02734   1.16923
   D11       -0.94994   0.00023  -0.02458  -0.00489  -0.02948  -0.97942
   D12       -2.97205   0.00011  -0.02346  -0.00530  -0.02877  -3.00082
   D13       -2.95117  -0.00005  -0.03651   0.00650  -0.03000  -2.98117
   D14        1.18551   0.00018  -0.03588   0.00373  -0.03214   1.15337
   D15       -0.83660   0.00005  -0.03476   0.00332  -0.03143  -0.86803
   D16       -0.94522   0.00001  -0.03202   0.00302  -0.02899  -0.97421
   D17       -3.09172   0.00024  -0.03140   0.00026  -0.03114  -3.12286
   D18        1.16935   0.00011  -0.03028  -0.00016  -0.03043   1.13893
   D19       -1.14733   0.00124  -0.02169   0.01463  -0.00705  -1.15439
   D20        3.00022   0.00104  -0.01712   0.01201  -0.00511   2.99511
   D21        0.98681   0.00087  -0.02357   0.01483  -0.00873   0.97808
   D22        1.01155   0.00065  -0.02630   0.01878  -0.00752   1.00403
   D23       -1.12408   0.00045  -0.02174   0.01616  -0.00558  -1.12966
   D24       -3.13749   0.00028  -0.02819   0.01898  -0.00920   3.13650
   D25        3.00758   0.00070  -0.02509   0.01796  -0.00713   3.00046
   D26        0.87195   0.00050  -0.02052   0.01534  -0.00518   0.86676
   D27       -1.14146   0.00033  -0.02697   0.01817  -0.00881  -1.15026
   D28       -1.14814   0.00067   0.05915   0.00080   0.05994  -1.08820
   D29        1.00178   0.00037   0.05697   0.00288   0.05986   1.06164
   D30        3.01512   0.00028   0.05691   0.00246   0.05937   3.07449
   D31        0.98746   0.00063   0.05439   0.00446   0.05884   1.04630
   D32        3.13737   0.00033   0.05221   0.00655   0.05876  -3.08705
   D33       -1.13247   0.00025   0.05215   0.00613   0.05828  -1.07419
   D34        3.00370   0.00074   0.05628   0.00217   0.05845   3.06214
   D35       -1.12957   0.00045   0.05410   0.00426   0.05836  -1.07121
   D36        0.88377   0.00036   0.05404   0.00384   0.05788   0.94165
   D37        0.98513  -0.00005  -0.01763  -0.00245  -0.02008   0.96505
   D38        3.07509   0.00008  -0.01956  -0.00105  -0.02061   3.05448
   D39       -1.11454   0.00027  -0.01716  -0.00178  -0.01894  -1.13347
   D40        3.13563  -0.00015  -0.02150   0.00248  -0.01903   3.11660
   D41       -1.05760  -0.00002  -0.02343   0.00388  -0.01956  -1.07716
   D42        1.03596   0.00017  -0.02104   0.00315  -0.01789   1.01807
   D43       -1.13088  -0.00003  -0.02524   0.00449  -0.02076  -1.15164
   D44        0.95908   0.00010  -0.02717   0.00589  -0.02128   0.93780
   D45        3.05264   0.00029  -0.02477   0.00516  -0.01961   3.03302
   D46       -3.14045   0.00014   0.03243   0.00530   0.03772  -3.10273
   D47        1.04678   0.00015   0.03579   0.00385   0.03964   1.08642
   D48       -1.04130  -0.00002   0.03669   0.00271   0.03939  -1.00191
   D49        0.99436   0.00024   0.03212   0.00369   0.03581   1.03016
   D50       -1.10160   0.00025   0.03548   0.00224   0.03773  -1.06387
   D51        3.09350   0.00008   0.03637   0.00109   0.03747   3.13098
   D52       -1.02568   0.00024   0.03385   0.00324   0.03709  -0.98859
   D53       -3.12163   0.00026   0.03722   0.00180   0.03901  -3.08262
   D54        1.07347   0.00009   0.03811   0.00065   0.03876   1.11223
         Item               Value     Threshold  Converged?
 Maximum Force            0.001903     0.000015     NO 
 RMS     Force            0.000501     0.000010     NO 
 Maximum Displacement     0.217271     0.000060     NO 
 RMS     Displacement     0.055922     0.000040     NO 
 Predicted change in Energy=-1.298958D-04
 Lowest energy point so far.  Saving SCF results.
 GradGradGradGradGradGradGradGradGradGradGradGradGradGradGradGradGradGrad

 Leave Link  103 at Sat Sep 28 03:37:36 2019, MaxMem=   671088640 cpu:             280.8 elap:             142.1
 (Enter /shared/centos7/gaussian/g16/l202.exe)
                          Input orientation:                          
 ---------------------------------------------------------------------
 Center     Atomic      Atomic             Coordinates (Angstroms)
 Number     Number       Type             X           Y           Z
 ---------------------------------------------------------------------
      1          6           0        1.814931   -0.877062    0.788180
      2          6           0        0.618529    0.077812    0.899640
      3          6           0       -0.459491   -0.131272   -0.164505
      4          6           0        3.015438   -0.312176    0.032629
      5          6           0       -0.040825    0.184696   -1.599479
      6          6           0        3.691756    0.843851    0.756150
      7          6           0        0.345677    1.641903   -1.821441
      8          1           0        2.710753    0.007281   -0.966921
      9          1           0        3.748944   -1.108202   -0.115981
     10          1           0        1.485059   -1.797498    0.296936
     11          1           0        2.150057   -1.168073    1.787163
     12          1           0        0.970699    1.110979    0.869662
     13          1           0        0.152214   -0.041102    1.879002
     14          1           0       -1.325571    0.486932    0.089292
     15          1           0       -0.794291   -1.171471   -0.121294
     16          1           0        0.789524   -0.463507   -1.891340
     17          1           0       -0.869571   -0.069054   -2.263720
     18          1           0        3.979148    0.545910    1.766737
     19          1           0        4.592408    1.160042    0.229718
     20          1           0        3.039273    1.712573    0.837060
     21          1           0        0.599238    1.832191   -2.863454
     22          1           0        1.211448    1.922916   -1.218705
     23          1           0       -0.475082    2.307063   -1.545785
 ---------------------------------------------------------------------
                    Distance matrix (angstroms):
                    1          2          3          4          5
     1  C    0.000000
     2  C    1.534791   0.000000
     3  C    2.576200   1.529133   0.000000
     4  C    1.526817   2.578559   3.485214   0.000000
     5  C    3.205008   2.586845   1.527831   3.500200   0.000000
     6  C    2.546574   3.170509   4.362490   1.522264   4.462693
     7  C    3.913313   3.150415   2.556928   3.792575   1.523845
     8  H    2.159847   2.804714   3.273150   1.092697   2.828919
     9  H    2.147403   3.498229   4.320610   1.092600   4.270211
    10  H    1.094229   2.151955   2.602020   2.148976   3.139077
    11  H    1.093144   2.164602   3.419606   2.135376   4.254326
    12  H    2.161406   1.091951   2.158271   2.628108   2.824507
    13  H    2.157162   1.091210   2.135002   3.417693   3.491143
    14  H    3.494521   2.145593   1.093930   4.414310   2.143331
    15  H    2.778823   2.144545   1.093605   3.908467   2.142880
    16  H    2.898675   2.848129   2.156938   2.946056   1.093083
    17  H    4.144095   3.498980   2.139799   4.519471   1.091983
    18  H    2.768801   3.502104   4.887718   2.161523   5.255670
    19  H    3.489420   4.172736   5.229205   2.166358   5.075835
    20  H    2.864894   2.921705   4.079736   2.178827   4.214040
    21  H    4.706633   4.151999   3.501489   4.338620   2.172913
    22  H    3.497379   2.871123   2.850099   3.133026   2.175910
    23  H    4.564012   3.485061   2.802438   4.640639   2.167003
                    6          7          8          9         10
     6  C    0.000000
     7  C    4.298500   0.000000
     8  H    2.152020   2.999296   0.000000
     9  H    2.138783   4.696158   1.745349   0.000000
    10  H    3.472335   4.197045   2.521286   2.402250   0.000000
    11  H    2.736359   4.916684   3.046443   2.486358   1.749049
    12  H    2.736493   2.813284   2.760249   3.689838   3.008624
    13  H    3.817367   4.069792   3.827236   4.249132   2.713731
    14  H    5.074018   2.788893   4.199709   5.323278   3.627861
    15  H    4.995603   3.479239   3.793399   4.543679   2.400471
    16  H    4.140210   2.152821   2.183417   3.510797   2.655532
    17  H    5.546054   2.144717   3.808705   5.198394   3.884426
    18  H    1.092085   5.222867   3.061346   2.516685   3.724561
    19  H    1.090083   4.740692   2.510265   2.444560   4.290359
    20  H    1.089477   3.785245   2.504057   3.060833   3.876585
    21  H    4.862305   1.089172   3.374259   5.110300   4.893606
    22  H    3.349083   1.091704   2.445601   4.103969   4.026600
    23  H    4.980204   1.091819   3.971602   5.617008   4.907667
                   11         12         13         14         15
    11  H    0.000000
    12  H    2.725211   0.000000
    13  H    2.295621   1.736656   0.000000
    14  H    4.207351   2.504250   2.380279   0.000000
    15  H    3.508761   3.050698   2.484912   1.754111   0.000000
    16  H    3.984827   3.183546   3.847086   3.049568   2.478457
    17  H    5.170653   3.820622   4.266963   2.460431   2.410598
    18  H    2.506737   3.189799   3.873321   5.563933   5.412927
    19  H    3.716293   3.678140   4.886533   5.957790   5.880110
    20  H    3.160937   2.154525   3.534986   4.594912   4.892072
    21  H    5.747596   3.820247   5.118588   3.772707   4.299227
    22  H    4.412532   2.253548   3.817739   3.195211   3.847406
    23  H    5.484202   3.058641   4.199589   2.590306   3.772436
                   16         17         18         19         20
    16  H    0.000000
    17  H    1.745526   0.000000
    18  H    4.957232   6.335049   0.000000
    19  H    4.647228   6.128713   1.765127   0.000000
    20  H    4.152212   5.297933   1.763170   1.756811   0.000000
    21  H    2.500289   2.476250   5.875115   5.095577   4.434172
    22  H    2.515049   3.064415   4.297578   3.756434   2.758869
    23  H    3.065077   2.513361   5.823627   5.490676   4.287431
                   21         22         23
    21  H    0.000000
    22  H    1.757337   0.000000
    23  H    1.765197   1.760379   0.000000
 Stoichiometry    C7H16
 Framework group  C1[X(C7H16)]
 Deg. of freedom    63
 Full point group                 C1      NOp   1
 RotChk:  IX=0 Diff= 1.74D-02
 Largest Abelian subgroup         C1      NOp   1
 Largest concise Abelian subgroup C1      NOp   1
                         Standard orientation:                         
 ---------------------------------------------------------------------
 Center     Atomic      Atomic             Coordinates (Angstroms)
 Number     Number       Type             X           Y           Z
 ---------------------------------------------------------------------
      1          6           0       -1.059083   -1.082707    0.355249
      2          6           0        0.036025   -1.061654   -0.719870
      3          6           0        1.462749   -1.045605   -0.169914
      4          6           0       -1.636286    0.286418    0.706682
      5          6           0        1.861409    0.215512    0.594888
      6          6           0       -2.424265    0.917398   -0.432721
      7          6           0        1.832946    1.483102   -0.250397
      8          1           0       -0.834659    0.960895    1.017263
      9          1           0       -2.295391    0.183194    1.571955
     10          1           0       -0.652714   -1.541927    1.261515
     11          1           0       -1.882758   -1.724364    0.031522
     12          1           0       -0.114634   -0.204328   -1.379150
     13          1           0       -0.068621   -1.940251   -1.358505
     14          1           0        2.159542   -1.182671   -1.002005
     15          1           0        1.591001   -1.907681    0.490652
     16          1           0        1.210260    0.339604    1.464045
     17          1           0        2.869248    0.073992    0.990690
     18          1           0       -3.213748    0.242628   -0.770435
     19          1           0       -2.891622    1.849387   -0.114514
     20          1           0       -1.791229    1.145844   -1.289481
     21          1           0        2.160502    2.350298    0.321419
     22          1           0        0.827656    1.696328   -0.618835
     23          1           0        2.486196    1.384262   -1.119629
 ---------------------------------------------------------------------
 Rotational constants (GHZ):           3.4144266           1.5640810           1.2833526
 Leave Link  202 at Sat Sep 28 03:37:38 2019, MaxMem=   671088640 cpu:               4.9 elap:               2.5
 (Enter /shared/centos7/gaussian/g16/l301.exe)
 Standard basis: CC-pVTZ (5D, 7F)
 Ernie: Thresh=  0.10000D-02 Tol=  0.10000D-05 Strict=F.
 Ernie:  21 primitive shells out of 310 were deleted.
 There are   485 symmetry adapted cartesian basis functions of A   symmetry.
 There are   434 symmetry adapted basis functions of A   symmetry.
   434 basis functions,   636 primitive gaussians,   485 cartesian basis functions
    29 alpha electrons       29 beta electrons
       nuclear repulsion energy       330.1880064913 Hartrees.
 IExCor= 4336 DFT=T Ex+Corr=M062X ExCW=0 ScaHFX=  0.540000
 ScaDFX=  1.000000  1.000000  1.000000  1.000000 ScalE2=  1.000000  1.000000
 IRadAn=      5 IRanWt=     -1 IRanGd=            0 ICorTp=0 IEmpDi=  4
 NAtoms=   23 NActive=   23 NUniq=   23 SFac= 1.00D+00 NAtFMM=   60 NAOKFM=F Big=F
 Integral buffers will be    131072 words long.
 Raffenetti 2 integral format.
 Two-electron integral symmetry is turned on.
 Leave Link  301 at Sat Sep 28 03:37:39 2019, MaxMem=   671088640 cpu:               1.9 elap:               0.9
 (Enter /shared/centos7/gaussian/g16/l302.exe)
 NPDir=0 NMtPBC=     1 NCelOv=     1 NCel=       1 NClECP=     1 NCelD=      1
         NCelK=      1 NCelE2=     1 NClLst=     1 CellRange=     0.0.
 One-electron integrals computed using PRISM.
 One-electron integral symmetry used in STVInt
 NBasis=   434 RedAO= T EigKep=  3.55D-04  NBF=   434
 NBsUse=   434 1.00D-06 EigRej= -1.00D+00 NBFU=   434
 Precomputing XC quadrature grid using
 IXCGrd= 4 IRadAn=           5 IRanWt=          -1 IRanGd=           0 AccXCQ= 0.00D+00.
 Generated NRdTot=       0 NPtTot=           0 NUsed=           0 NTot=          32
 NSgBfM=   485   485   485   485   485 MxSgAt=    23 MxSgA2=    23.
 Leave Link  302 at Sat Sep 28 03:39:36 2019, MaxMem=   671088640 cpu:             234.3 elap:             117.2
 (Enter /shared/centos7/gaussian/g16/l303.exe)
 DipDrv:  MaxL=1.
 Leave Link  303 at Sat Sep 28 03:39:42 2019, MaxMem=   671088640 cpu:              11.0 elap:               5.5
 (Enter /shared/centos7/gaussian/g16/l401.exe)
 Initial guess from the checkpoint file:  "/scratch/harms.n/gauss_scrdir/Gau-31815.chk"
 B after Tr=     0.000000   -0.000000   -0.000000
         Rot=    0.999984   -0.003662   -0.000232   -0.004314 Ang=  -0.65 deg.
 Guess basis will be translated and rotated to current coordinates.
 JPrj=2 DoOrth=T DoCkMO=T.
 Generating alternative initial guess.
 ExpMin= 1.03D-01 ExpMax= 8.24D+03 ExpMxC= 2.81D+02 IAcc=2 IRadAn=         4 AccDes= 0.00D+00
 Harris functional with IExCor= 1009 and IRadAn=       4 diagonalized for initial guess.
 HarFok:  IExCor= 1009 AccDes= 0.00D+00 IRadAn=         4 IDoV= 1 UseB2=F ITyADJ=14
 ICtDFT=  3500011 ScaDFX=  1.000000  1.000000  1.000000  1.000000
 FoFCou: FMM=F IPFlag=           0 FMFlag=      100000 FMFlg1=           0
         NFxFlg=           0 DoJE=T BraDBF=F KetDBF=T FulRan=T
         wScrn=  0.000000 ICntrl=       500 IOpCl=  0 I1Cent=   200000004 NGrid=           0
         NMat0=    1 NMatS0=      1 NMatT0=    0 NMatD0=    1 NMtDS0=    0 NMtDT0=    0
 Petite list used in FoFCou.
 Harris En= -276.346700223951    
 Leave Link  401 at Sat Sep 28 03:40:54 2019, MaxMem=   671088640 cpu:             144.6 elap:              72.3
 (Enter /shared/centos7/gaussian/g16/l502.exe)
 Integral symmetry usage will be decided dynamically.
 Closed shell SCF:
 Using DIIS extrapolation, IDIIS=  1040.
 NGot=   671088640 LenX=   670604095 LenY=   670368385
 Requested convergence on RMS density matrix=1.00D-08 within 900 cycles.
 Requested convergence on MAX density matrix=1.00D-06.
 Requested convergence on             energy=1.00D-06.
 No special actions if energy rises.
 Fock matrices will be formed incrementally for  20 cycles.
 Integral accuracy reduced to 1.0D-05 until final iterations.

 Cycle   1  Pass 0  IDiag  1:
 FoFJK:  IHMeth= 1 ICntrl=       0 DoSepK=F KAlg= 0 I1Cent=           0 FoldK=F
 IRaf= 950000000 NMat=       1 IRICut=       1 DoRegI=T DoRafI=F ISym2E= 0 IDoP0=0 IntGTp=1.
 FoFCou: FMM=F IPFlag=           0 FMFlag=      100000 FMFlg1=           0
         NFxFlg=           0 DoJE=F BraDBF=F KetDBF=F FulRan=T
         wScrn=  0.000000 ICntrl=         0 IOpCl=  0 I1Cent=           0 NGrid=           0
         NMat0=    1 NMatS0=      1 NMatT0=    0 NMatD0=    1 NMtDS0=    0 NMtDT0=    0
 Symmetry not used in FoFCou.
 E= -276.332948405069    
 DIIS: error= 2.20D-03 at cycle   1 NSaved=   1.
 NSaved= 1 IEnMin= 1 EnMin= -276.332948405069     IErMin= 1 ErrMin= 2.20D-03
 ErrMax= 2.20D-03  0.00D+00 EMaxC= 1.00D-01 BMatC= 2.40D-03 BMatP= 2.40D-03
 IDIUse=3 WtCom= 9.78D-01 WtEn= 2.20D-02
 Coeff-Com:  0.100D+01
 Coeff-En:   0.100D+01
 Coeff:      0.100D+01
 Gap=     0.785 Goal=   None    Shift=    0.000
 GapD=    0.785 DampG=2.000 DampE=1.000 DampFc=2.0000 IDamp=-1.
 RMSDP=9.11D-05 MaxDP=4.05D-03              OVMax= 1.07D-02

 Cycle   2  Pass 0  IDiag  1:
 RMSU=  9.11D-05    CP:  1.00D+00
 E= -276.335826282480     Delta-E=       -0.002877877411 Rises=F Damp=F
 DIIS: error= 2.97D-04 at cycle   2 NSaved=   2.
 NSaved= 2 IEnMin= 2 EnMin= -276.335826282480     IErMin= 2 ErrMin= 2.97D-04
 ErrMax= 2.97D-04  0.00D+00 EMaxC= 1.00D-01 BMatC= 4.96D-05 BMatP= 2.40D-03
 IDIUse=3 WtCom= 9.97D-01 WtEn= 2.97D-03
 Coeff-Com: -0.121D+00 0.112D+01
 Coeff-En:   0.000D+00 0.100D+01
 Coeff:     -0.121D+00 0.112D+01
 Gap=     0.426 Goal=   None    Shift=    0.000
 RMSDP=2.28D-05 MaxDP=1.13D-03 DE=-2.88D-03 OVMax= 2.71D-03

 Cycle   3  Pass 0  IDiag  1:
 RMSU=  1.22D-05    CP:  1.00D+00  1.21D+00
 E= -276.335943411832     Delta-E=       -0.000117129352 Rises=F Damp=F
 DIIS: error= 4.20D-05 at cycle   3 NSaved=   3.
 NSaved= 3 IEnMin= 3 EnMin= -276.335943411832     IErMin= 3 ErrMin= 4.20D-05
 ErrMax= 4.20D-05  0.00D+00 EMaxC= 1.00D-01 BMatC= 1.21D-06 BMatP= 4.96D-05
 IDIUse=1 WtCom= 1.00D+00 WtEn= 0.00D+00
 Coeff-Com:  0.526D-03-0.938D-01 0.109D+01
 Coeff:      0.526D-03-0.938D-01 0.109D+01
 Gap=     0.426 Goal=   None    Shift=    0.000
 RMSDP=5.24D-06 MaxDP=1.94D-04 DE=-1.17D-04 OVMax= 5.03D-04

 Initial convergence to 1.0D-05 achieved.  Increase integral accuracy.
 Cycle   4  Pass 1  IDiag  1:
