 Entering Gaussian System, Link 0=g16
 Input=loose/species/CCCCCCC/conformers/CCCCCCC_423.com
 Output=loose/species/CCCCCCC/conformers/CCCCCCC_423.log
 Initial command:
 /shared/centos7/gaussian/g16/l1.exe "/scratch/harms.n/gauss_scrdir/Gau-37132.inp" -scrdir="/scratch/harms.n/gauss_scrdir/"
 Entering Link 1 = /shared/centos7/gaussian/g16/l1.exe PID=     37133.
  
 Copyright (c) 1988,1990,1992,1993,1995,1998,2003,2009,2016,
            Gaussian, Inc.  All Rights Reserved.
  
 This is part of the Gaussian(R) 16 program.  It is based on
 the Gaussian(R) 09 system (copyright 2009, Gaussian, Inc.),
 the Gaussian(R) 03 system (copyright 2003, Gaussian, Inc.),
 the Gaussian(R) 98 system (copyright 1998, Gaussian, Inc.),
 the Gaussian(R) 94 system (copyright 1995, Gaussian, Inc.),
 the Gaussian 92(TM) system (copyright 1992, Gaussian, Inc.),
 the Gaussian 90(TM) system (copyright 1990, Gaussian, Inc.),
 the Gaussian 88(TM) system (copyright 1988, Gaussian, Inc.),
 the Gaussian 86(TM) system (copyright 1986, Carnegie Mellon
 University), and the Gaussian 82(TM) system (copyright 1983,
 Carnegie Mellon University). Gaussian is a federally registered
 trademark of Gaussian, Inc.
  
 This software contains proprietary and confidential information,
 including trade secrets, belonging to Gaussian, Inc.
  
 This software is provided under written license and may be
 used, copied, transmitted, or stored only in accord with that
 written license.
  
 The following legend is applicable only to US Government
 contracts under FAR:
  
                    RESTRICTED RIGHTS LEGEND
  
 Use, reproduction and disclosure by the US Government is
 subject to restrictions as set forth in subparagraphs (a)
 and (c) of the Commercial Computer Software - Restricted
 Rights clause in FAR 52.227-19.
  
 Gaussian, Inc.
 340 Quinnipiac St., Bldg. 40, Wallingford CT 06492
  
  
 ---------------------------------------------------------------
 Warning -- This program may not be used in any manner that
 competes with the business of Gaussian, Inc. or will provide
 assistance to any competitor of Gaussian, Inc.  The licensee
 of this program is prohibited from giving any competitor of
 Gaussian, Inc. access to this program.  By using this program,
 the user acknowledges that Gaussian, Inc. is engaged in the
 business of creating and licensing software in the field of
 computational chemistry and represents and warrants to the
 licensee that it is not a competitor of Gaussian, Inc. and that
 it will not use this program in any manner prohibited above.
 ---------------------------------------------------------------
  

 Cite this work as:
 Gaussian 16, Revision A.03,
 M. J. Frisch, G. W. Trucks, H. B. Schlegel, G. E. Scuseria, 
 M. A. Robb, J. R. Cheeseman, G. Scalmani, V. Barone, 
 G. A. Petersson, H. Nakatsuji, X. Li, M. Caricato, A. V. Marenich, 
 J. Bloino, B. G. Janesko, R. Gomperts, B. Mennucci, H. P. Hratchian, 
 J. V. Ortiz, A. F. Izmaylov, J. L. Sonnenberg, D. Williams-Young, 
 F. Ding, F. Lipparini, F. Egidi, J. Goings, B. Peng, A. Petrone, 
 T. Henderson, D. Ranasinghe, V. G. Zakrzewski, J. Gao, N. Rega, 
 G. Zheng, W. Liang, M. Hada, M. Ehara, K. Toyota, R. Fukuda, 
 J. Hasegawa, M. Ishida, T. Nakajima, Y. Honda, O. Kitao, H. Nakai, 
 T. Vreven, K. Throssell, J. A. Montgomery, Jr., J. E. Peralta, 
 F. Ogliaro, M. J. Bearpark, J. J. Heyd, E. N. Brothers, K. N. Kudin, 
 V. N. Staroverov, T. A. Keith, R. Kobayashi, J. Normand, 
 K. Raghavachari, A. P. Rendell, J. C. Burant, S. S. Iyengar, 
 J. Tomasi, M. Cossi, J. M. Millam, M. Klene, C. Adamo, R. Cammi, 
 J. W. Ochterski, R. L. Martin, K. Morokuma, O. Farkas, 
 J. B. Foresman, and D. J. Fox, Gaussian, Inc., Wallingford CT, 2016.
 
 ******************************************
 Gaussian 16:  EM64L-G16RevA.03 25-Dec-2016
                29-Sep-2019 
 ******************************************
 %nprocshared=20
 Will use up to   20 processors via shared memory.
 %mem=5GB
 ----------------------------------------------------------------------
 #p m062x/cc-pVTZ opt=(calcfc,maxcycles=900,Tight) freq IOP(7/33=1,2/16
 =3) scf=(maxcycle=900)
 ----------------------------------------------------------------------
 1/6=900,7=10,10=4,18=20,19=15,26=3,38=1/1,3;
 2/9=110,12=2,16=3,17=6,18=5,40=1/2;
 3/5=16,6=1,11=2,25=1,30=1,71=2,74=-55,140=1/1,2,3;
 4//1;
 5/5=2,7=900,38=5/2;
 8/6=4,10=90,11=11/1;
 11/6=1,8=1,9=11,15=111,16=1/1,2,10;
 10/6=1,13=1/2;
 6/7=2,8=2,9=2,10=2,28=1/1;
 7/10=1,18=20,25=1,33=1/1,2,3,16;
 1/6=900,7=10,10=4,18=20,19=15,26=3/3(2);
 2/9=110,16=3/2;
 99//99;
 2/9=110,16=3/2;
 3/5=16,6=1,11=2,25=1,30=1,71=1,74=-55/1,2,3;
 4/5=5,16=3,69=1/1;
 5/5=2,7=900,38=5/2;
 7/33=1/1,2,3,16;
 1/6=900,7=10,18=20,19=15,26=3/3(-5);
 2/9=110,16=3/2;
 6/7=2,8=2,9=2,10=2,19=2,28=1/1;
 99/9=1/99;
 Leave Link    1 at Sun Sep 29 06:35:50 2019, MaxMem=   671088640 cpu:               4.7 elap:               2.3
 (Enter /shared/centos7/gaussian/g16/l101.exe)
 ------------------------------
 Gaussian input prepared by ASE
 ------------------------------
 Symbolic Z-matrix:
 Charge =  0 Multiplicity = 1
 C                     1.3597   -1.16716   0.32568 
 C                     0.17244  -0.45235   0.87471 
 C                     0.46655   0.86064   1.55628 
 C                     2.11385  -0.43752  -0.73446 
 C                     1.24556   0.81387   2.84959 
 C                     2.34329  -1.24126  -1.94729 
 C                     1.51381  -0.53726   3.45985 
 H                     3.105    -0.10431  -0.31527 
 H                     1.59426   0.51473  -0.99715 
 H                     1.01398  -2.14153  -0.0801 
 H                     2.04116  -1.42548   1.16206 
 H                    -0.34531  -1.11819   1.58271 
 H                    -0.54123  -0.25821   0.04632 
 H                    -0.4991    1.36184   1.73913 
 H                     1.00836   1.51188   0.83971 
 H                     2.23558   1.31579   2.69004 
 H                     0.71443   1.42747   3.59702 
 H                     1.90123  -2.24995  -1.84236 
 H                     1.88339  -0.78345  -2.87273 
 H                     3.42719  -1.36467  -2.15564 
 H                     1.56712  -1.32198   2.70423 
 H                     0.71708  -0.80767   4.20683 
 H                     2.49368  -0.53348   4.01818 
 
 ITRead=  0  0  0  0  0  0  0  0  0  0  0  0  0  0  0  0  0  0  0  0
 ITRead=  0  0  0
 MicOpt= -1 -1 -1 -1 -1 -1 -1 -1 -1 -1 -1 -1 -1 -1 -1 -1 -1 -1 -1 -1
 MicOpt= -1 -1 -1
 NAtoms=     23 NQM=       23 NQMF=       0 NMMI=      0 NMMIF=      0
                NMic=       0 NMicF=      0.
                    Isotopes and Nuclear Properties:
 (Nuclear quadrupole moments (NQMom) in fm**2, nuclear magnetic moments (NMagM)
  in nuclear magnetons)

  Atom         1           2           3           4           5           6           7           8           9          10
 IAtWgt=          12          12          12          12          12          12          12           1           1           1
 AtmWgt=  12.0000000  12.0000000  12.0000000  12.0000000  12.0000000  12.0000000  12.0000000   1.0078250   1.0078250   1.0078250
 NucSpn=           0           0           0           0           0           0           0           1           1           1
 AtZEff=  -0.0000000  -0.0000000  -0.0000000  -0.0000000  -0.0000000  -0.0000000  -0.0000000  -0.0000000  -0.0000000  -0.0000000
 NQMom=    0.0000000   0.0000000   0.0000000   0.0000000   0.0000000   0.0000000   0.0000000   0.0000000   0.0000000   0.0000000
 NMagM=    0.0000000   0.0000000   0.0000000   0.0000000   0.0000000   0.0000000   0.0000000   2.7928460   2.7928460   2.7928460
 AtZNuc=   6.0000000   6.0000000   6.0000000   6.0000000   6.0000000   6.0000000   6.0000000   1.0000000   1.0000000   1.0000000

  Atom        11          12          13          14          15          16          17          18          19          20
 IAtWgt=           1           1           1           1           1           1           1           1           1           1
 AtmWgt=   1.0078250   1.0078250   1.0078250   1.0078250   1.0078250   1.0078250   1.0078250   1.0078250   1.0078250   1.0078250
 NucSpn=           1           1           1           1           1           1           1           1           1           1
 AtZEff=  -0.0000000  -0.0000000  -0.0000000  -0.0000000  -0.0000000  -0.0000000  -0.0000000  -0.0000000  -0.0000000  -0.0000000
 NQMom=    0.0000000   0.0000000   0.0000000   0.0000000   0.0000000   0.0000000   0.0000000   0.0000000   0.0000000   0.0000000
 NMagM=    2.7928460   2.7928460   2.7928460   2.7928460   2.7928460   2.7928460   2.7928460   2.7928460   2.7928460   2.7928460
 AtZNuc=   1.0000000   1.0000000   1.0000000   1.0000000   1.0000000   1.0000000   1.0000000   1.0000000   1.0000000   1.0000000

  Atom        21          22          23
 IAtWgt=           1           1           1
 AtmWgt=   1.0078250   1.0078250   1.0078250
 NucSpn=           1           1           1
 AtZEff=  -0.0000000  -0.0000000  -0.0000000
 NQMom=    0.0000000   0.0000000   0.0000000
 NMagM=    2.7928460   2.7928460   2.7928460
 AtZNuc=   1.0000000   1.0000000   1.0000000
 Leave Link  101 at Sun Sep 29 06:35:51 2019, MaxMem=   671088640 cpu:               2.5 elap:               1.3
 (Enter /shared/centos7/gaussian/g16/l103.exe)

 GradGradGradGradGradGradGradGradGradGradGradGradGradGradGradGradGradGrad
 Berny optimization.
 Initialization pass.
                           ----------------------------
                           !    Initial Parameters    !
                           ! (Angstroms and Degrees)  !
 --------------------------                            --------------------------
 ! Name  Definition              Value          Derivative Info.                !
 --------------------------------------------------------------------------------
 ! R1    R(1,2)                  1.4906         calculate D2E/DX2 analytically  !
 ! R2    R(1,4)                  1.4917         calculate D2E/DX2 analytically  !
 ! R3    R(1,10)                 1.1107         calculate D2E/DX2 analytically  !
 ! R4    R(1,11)                 1.1093         calculate D2E/DX2 analytically  !
 ! R5    R(2,3)                  1.5083         calculate D2E/DX2 analytically  !
 ! R6    R(2,12)                 1.1012         calculate D2E/DX2 analytically  !
 ! R7    R(2,13)                 1.1105         calculate D2E/DX2 analytically  !
 ! R8    R(3,5)                  1.5105         calculate D2E/DX2 analytically  !
 ! R9    R(3,14)                 1.1032         calculate D2E/DX2 analytically  !
 ! R10   R(3,15)                 1.1096         calculate D2E/DX2 analytically  !
 ! R11   R(4,6)                  1.473          calculate D2E/DX2 analytically  !
 ! R12   R(4,8)                  1.1266         calculate D2E/DX2 analytically  !
 ! R13   R(4,9)                  1.1161         calculate D2E/DX2 analytically  !
 ! R14   R(5,7)                  1.5066         calculate D2E/DX2 analytically  !
 ! R15   R(5,16)                 1.1214         calculate D2E/DX2 analytically  !
 ! R16   R(5,17)                 1.1033         calculate D2E/DX2 analytically  !
 ! R17   R(6,18)                 1.1063         calculate D2E/DX2 analytically  !
 ! R18   R(6,19)                 1.1303         calculate D2E/DX2 analytically  !
 ! R19   R(6,20)                 1.1106         calculate D2E/DX2 analytically  !
 ! R20   R(7,21)                 1.0907         calculate D2E/DX2 analytically  !
 ! R21   R(7,22)                 1.1251         calculate D2E/DX2 analytically  !
 ! R22   R(7,23)                 1.1278         calculate D2E/DX2 analytically  !
 ! A1    A(2,1,4)              115.4605         calculate D2E/DX2 analytically  !
 ! A2    A(2,1,10)             107.8986         calculate D2E/DX2 analytically  !
 ! A3    A(2,1,11)             108.8591         calculate D2E/DX2 analytically  !
 ! A4    A(4,1,10)             109.0771         calculate D2E/DX2 analytically  !
 ! A5    A(4,1,11)             109.8262         calculate D2E/DX2 analytically  !
 ! A6    A(10,1,11)            105.2116         calculate D2E/DX2 analytically  !
 ! A7    A(1,2,3)              115.3769         calculate D2E/DX2 analytically  !
 ! A8    A(1,2,12)             108.7432         calculate D2E/DX2 analytically  !
 ! A9    A(1,2,13)             108.72           calculate D2E/DX2 analytically  !
 ! A10   A(3,2,12)             109.1169         calculate D2E/DX2 analytically  !
 ! A11   A(3,2,13)             108.0717         calculate D2E/DX2 analytically  !
 ! A12   A(12,2,13)            106.4482         calculate D2E/DX2 analytically  !
 ! A13   A(2,3,5)              117.4197         calculate D2E/DX2 analytically  !
 ! A14   A(2,3,14)             107.4389         calculate D2E/DX2 analytically  !
 ! A15   A(2,3,15)             108.3192         calculate D2E/DX2 analytically  !
 ! A16   A(5,3,14)             108.8791         calculate D2E/DX2 analytically  !
 ! A17   A(5,3,15)             108.6201         calculate D2E/DX2 analytically  !
 ! A18   A(14,3,15)            105.5334         calculate D2E/DX2 analytically  !
 ! A19   A(1,4,6)              113.3936         calculate D2E/DX2 analytically  !
 ! A20   A(1,4,8)              108.9677         calculate D2E/DX2 analytically  !
 ! A21   A(1,4,9)              110.4409         calculate D2E/DX2 analytically  !
 ! A22   A(6,4,8)              109.3134         calculate D2E/DX2 analytically  !
 ! A23   A(6,4,9)              110.1371         calculate D2E/DX2 analytically  !
 ! A24   A(8,4,9)              104.1697         calculate D2E/DX2 analytically  !
 ! A25   A(3,5,7)              117.8004         calculate D2E/DX2 analytically  !
 ! A26   A(3,5,16)             108.6399         calculate D2E/DX2 analytically  !
 ! A27   A(3,5,17)             108.3328         calculate D2E/DX2 analytically  !
 ! A28   A(7,5,16)             107.5682         calculate D2E/DX2 analytically  !
 ! A29   A(7,5,17)             108.0632         calculate D2E/DX2 analytically  !
 ! A30   A(16,5,17)            105.8115         calculate D2E/DX2 analytically  !
 ! A31   A(4,6,18)             110.9274         calculate D2E/DX2 analytically  !
 ! A32   A(4,6,19)             112.941          calculate D2E/DX2 analytically  !
 ! A33   A(4,6,20)             111.5384         calculate D2E/DX2 analytically  !
 ! A34   A(18,6,19)            106.5216         calculate D2E/DX2 analytically  !
 ! A35   A(18,6,20)            107.8453         calculate D2E/DX2 analytically  !
 ! A36   A(19,6,20)            106.7681         calculate D2E/DX2 analytically  !
 ! A37   A(5,7,21)             111.9192         calculate D2E/DX2 analytically  !
 ! A38   A(5,7,22)             111.0002         calculate D2E/DX2 analytically  !
 ! A39   A(5,7,23)             110.6226         calculate D2E/DX2 analytically  !
 ! A40   A(21,7,22)            108.7633         calculate D2E/DX2 analytically  !
 ! A41   A(21,7,23)            107.6332         calculate D2E/DX2 analytically  !
 ! A42   A(22,7,23)            106.7018         calculate D2E/DX2 analytically  !
 ! D1    D(4,1,2,3)            -61.6417         calculate D2E/DX2 analytically  !
 ! D2    D(4,1,2,12)           175.4206         calculate D2E/DX2 analytically  !
 ! D3    D(4,1,2,13)            59.909          calculate D2E/DX2 analytically  !
 ! D4    D(10,1,2,3)           176.0699         calculate D2E/DX2 analytically  !
 ! D5    D(10,1,2,12)           53.1323         calculate D2E/DX2 analytically  !
 ! D6    D(10,1,2,13)          -62.3793         calculate D2E/DX2 analytically  !
 ! D7    D(11,1,2,3)            62.3861         calculate D2E/DX2 analytically  !
 ! D8    D(11,1,2,12)          -60.5515         calculate D2E/DX2 analytically  !
 ! D9    D(11,1,2,13)         -176.0631         calculate D2E/DX2 analytically  !
 ! D10   D(2,1,4,6)           -128.7184         calculate D2E/DX2 analytically  !
 ! D11   D(2,1,4,8)            109.2943         calculate D2E/DX2 analytically  !
 ! D12   D(2,1,4,9)             -4.5557         calculate D2E/DX2 analytically  !
 ! D13   D(10,1,4,6)            -7.0614         calculate D2E/DX2 analytically  !
 ! D14   D(10,1,4,8)          -129.0487         calculate D2E/DX2 analytically  !
 ! D15   D(10,1,4,9)           117.1013         calculate D2E/DX2 analytically  !
 ! D16   D(11,1,4,6)           107.7614         calculate D2E/DX2 analytically  !
 ! D17   D(11,1,4,8)           -14.226          calculate D2E/DX2 analytically  !
 ! D18   D(11,1,4,9)          -128.076          calculate D2E/DX2 analytically  !
 ! D19   D(1,2,3,5)            -67.4458         calculate D2E/DX2 analytically  !
 ! D20   D(1,2,3,14)           169.5261         calculate D2E/DX2 analytically  !
 ! D21   D(1,2,3,15)            55.9672         calculate D2E/DX2 analytically  !
 ! D22   D(12,2,3,5)            55.2933         calculate D2E/DX2 analytically  !
 ! D23   D(12,2,3,14)          -67.7348         calculate D2E/DX2 analytically  !
 ! D24   D(12,2,3,15)          178.7063         calculate D2E/DX2 analytically  !
 ! D25   D(13,2,3,5)           170.6547         calculate D2E/DX2 analytically  !
 ! D26   D(13,2,3,14)           47.6266         calculate D2E/DX2 analytically  !
 ! D27   D(13,2,3,15)          -65.9323         calculate D2E/DX2 analytically  !
 ! D28   D(2,3,5,7)             -7.9329         calculate D2E/DX2 analytically  !
 ! D29   D(2,3,5,16)           114.6122         calculate D2E/DX2 analytically  !
 ! D30   D(2,3,5,17)          -130.8873         calculate D2E/DX2 analytically  !
 ! D31   D(14,3,5,7)           114.3582         calculate D2E/DX2 analytically  !
 ! D32   D(14,3,5,16)         -123.0967         calculate D2E/DX2 analytically  !
 ! D33   D(14,3,5,17)           -8.5961         calculate D2E/DX2 analytically  !
 ! D34   D(15,3,5,7)          -131.193          calculate D2E/DX2 analytically  !
 ! D35   D(15,3,5,16)           -8.6479         calculate D2E/DX2 analytically  !
 ! D36   D(15,3,5,17)          105.8526         calculate D2E/DX2 analytically  !
 ! D37   D(1,4,6,18)             0.2595         calculate D2E/DX2 analytically  !
 ! D38   D(1,4,6,19)           119.7625         calculate D2E/DX2 analytically  !
 ! D39   D(1,4,6,20)          -119.9825         calculate D2E/DX2 analytically  !
 ! D40   D(8,4,6,18)           122.054          calculate D2E/DX2 analytically  !
 ! D41   D(8,4,6,19)          -118.4429         calculate D2E/DX2 analytically  !
 ! D42   D(8,4,6,20)             1.812          calculate D2E/DX2 analytically  !
 ! D43   D(9,4,6,18)          -124.0682         calculate D2E/DX2 analytically  !
 ! D44   D(9,4,6,19)            -4.5651         calculate D2E/DX2 analytically  !
 ! D45   D(9,4,6,20)           115.6898         calculate D2E/DX2 analytically  !
 ! D46   D(3,5,7,21)            28.7036         calculate D2E/DX2 analytically  !
 ! D47   D(3,5,7,22)           -93.0223         calculate D2E/DX2 analytically  !
 ! D48   D(3,5,7,23)           148.7242         calculate D2E/DX2 analytically  !
 ! D49   D(16,5,7,21)          -94.3848         calculate D2E/DX2 analytically  !
 ! D50   D(16,5,7,22)          143.8893         calculate D2E/DX2 analytically  !
 ! D51   D(16,5,7,23)           25.6358         calculate D2E/DX2 analytically  !
 ! D52   D(17,5,7,21)          151.7943         calculate D2E/DX2 analytically  !
 ! D53   D(17,5,7,22)           30.0684         calculate D2E/DX2 analytically  !
 ! D54   D(17,5,7,23)          -88.1851         calculate D2E/DX2 analytically  !
 --------------------------------------------------------------------------------
 Trust Radius=3.00D-01 FncErr=1.00D-07 GrdErr=1.00D-06 EigMax=2.50D+02 EigMin=1.00D-04
 Number of steps in this run=    138 maximum allowed number of steps=    138.
 GradGradGradGradGradGradGradGradGradGradGradGradGradGradGradGradGradGrad

 Leave Link  103 at Sun Sep 29 06:35:52 2019, MaxMem=   671088640 cpu:               1.6 elap:               0.8
 (Enter /shared/centos7/gaussian/g16/l202.exe)
                          Input orientation:                          
 ---------------------------------------------------------------------
 Center     Atomic      Atomic             Coordinates (Angstroms)
 Number     Number       Type             X           Y           Z
 ---------------------------------------------------------------------
      1          6           0        1.359700   -1.167163    0.325683
      2          6           0        0.172445   -0.452349    0.874709
      3          6           0        0.466553    0.860640    1.556282
      4          6           0        2.113849   -0.437519   -0.734461
      5          6           0        1.245565    0.813866    2.849594
      6          6           0        2.343289   -1.241256   -1.947288
      7          6           0        1.513808   -0.537265    3.459854
      8          1           0        3.105002   -0.104307   -0.315270
      9          1           0        1.594264    0.514733   -0.997147
     10          1           0        1.013977   -2.141532   -0.080097
     11          1           0        2.041158   -1.425478    1.162063
     12          1           0       -0.345306   -1.118193    1.582714
     13          1           0       -0.541229   -0.258205    0.046317
     14          1           0       -0.499102    1.361839    1.739127
     15          1           0        1.008357    1.511879    0.839705
     16          1           0        2.235584    1.315787    2.690037
     17          1           0        0.714428    1.427470    3.597020
     18          1           0        1.901234   -2.249947   -1.842359
     19          1           0        1.883393   -0.783451   -2.872732
     20          1           0        3.427194   -1.364665   -2.155644
     21          1           0        1.567122   -1.321975    2.704231
     22          1           0        0.717081   -0.807668    4.206826
     23          1           0        2.493678   -0.533484    4.018176
 ---------------------------------------------------------------------
                    Distance matrix (angstroms):
                    1          2          3          4          5
     1  C    0.000000
     2  C    1.490625   0.000000
     3  C    2.534575   1.508304   0.000000
     4  C    1.491652   2.521646   3.105849   0.000000
     5  C    3.210550   2.579740   1.510531   3.894269   0.000000
     6  C    2.477768   3.646726   4.496121   1.472952   5.332786
     7  C    3.200554   2.913664   2.583499   4.238192   1.506627
     8  H    2.141627   3.183878   3.375684   1.126559   3.783770
     9  H    2.152597   2.541784   2.812718   1.116134   3.874079
    10  H    1.110665   2.114988   3.462723   2.131096   4.167865
    11  H    1.109344   2.126415   2.803770   2.139661   2.914686
    12  H    2.118860   1.101220   2.139064   3.446746   2.805122
    13  H    2.125507   1.110520   2.132471   2.773302   3.492897
    14  H    3.442212   2.118838   1.103233   4.022914   2.139456
    15  H    2.750441   2.134986   1.109570   2.738660   2.140827
    16  H    3.538698   3.267761   2.149890   3.849167   1.121392
    17  H    4.224942   3.352378   2.132451   4.919175   1.103295
    18  H    2.483160   3.688161   4.825435   2.134840   5.641921
    19  H    3.263640   4.132831   4.932204   2.178298   5.975221
    20  H    3.235818   4.539686   5.243641   2.145749   5.878597
    21  H    2.392589   2.459375   2.700527   3.592461   2.164797
    22  H    3.950376   3.394979   3.141878   5.148231   2.179620
    23  H    3.914328   3.908464   3.480480   4.768756   2.176861
                    6          7          8          9         10
     6  C    0.000000
     7  C    5.515508   0.000000
     8  H    2.129869   4.119577   0.000000
     9  H    2.132441   4.580178   1.769321   0.000000
    10  H    2.462512   3.918515   2.928818   2.869400   0.000000
    11  H    3.129423   2.519298   2.249394   2.937060   1.763744
    12  H    4.438986   2.705076   4.066317   3.617190   2.379036
    13  H    3.641606   3.994156   3.667347   2.499317   2.445724
    14  H    5.333381   3.258727   4.399966   3.547812   4.227600
    15  H    4.138735   3.364468   2.888243   2.170626   3.767423
    16  H    5.296684   2.132458   3.435758   3.827311   4.595544
    17  H    6.365110   2.125560   4.833963   4.765875   5.133098
    18  H    1.106291   5.585413   2.895657   2.907244   1.975992
    19  H    1.130281   6.348137   2.914477   2.299281   3.224760
    20  H    1.110627   5.989946   2.253727   2.869474   3.276435
    21  H    4.716522   1.090678   3.600720   4.132123   2.954679
    22  H    6.380099   1.125104   5.162000   5.440545   4.499450
    23  H    6.009186   1.127778   4.397348   5.202035   4.644478
                   11         12         13         14         15
    11  H    0.000000
    12  H    2.442658   0.000000
    13  H    3.045675   1.771576   0.000000
    14  H    3.815110   2.489715   2.343486   0.000000
    15  H    3.130281   3.049876   2.482716   1.761790   0.000000
    16  H    3.144367   3.716371   4.144562   2.895662   2.228961
    17  H    3.978509   3.414801   4.126216   2.220074   2.774221
    18  H    3.118634   4.249580   3.674202   5.624381   4.705532
    19  H    4.088601   4.993010   3.830865   5.616743   4.451564
    20  H    3.596105   5.316749   4.671324   6.165944   4.805975
    21  H    1.616696   2.226366   3.555454   3.521870   3.437936
    22  H    3.377196   2.847991   4.381219   3.503626   4.099102
    23  H    3.026187   3.785920   5.006206   4.212250   4.061079
                   16         17         18         19         20
    16  H    0.000000
    17  H    1.774543   0.000000
    18  H    5.776579   6.672236   0.000000
    19  H    5.956110   6.936305   1.792372   0.000000
    20  H    5.664396   6.946096   1.791766   1.798707   0.000000
    21  H    2.721182   3.013902   4.652338   5.611823   5.203852
    22  H    3.019198   2.316832   6.330484   7.175027   6.938010
    23  H    2.291368   2.681127   6.135398   6.922394   6.299076
                   21         22         23
    21  H    0.000000
    22  H    1.801353   0.000000
    23  H    1.790720   1.807502   0.000000
 Stoichiometry    C7H16
 Framework group  C1[X(C7H16)]
 Deg. of freedom    63
 Full point group                 C1      NOp   1
 Largest Abelian subgroup         C1      NOp   1
 Largest concise Abelian subgroup C1      NOp   1
                         Standard orientation:                         
 ---------------------------------------------------------------------
 Center     Atomic      Atomic             Coordinates (Angstroms)
 Number     Number       Type             X           Y           Z
 ---------------------------------------------------------------------
      1          6           0       -0.781821   -0.370483    0.544875
      2          6           0        0.189801    0.693589    0.926538
      3          6           0        1.126781    1.136604   -0.169267
      4          6           0       -1.736689   -0.007054   -0.541943
      5          6           0        2.153268    0.139226   -0.652238
      6          6           0       -3.144273   -0.267866   -0.195142
      7          6           0        2.291221   -1.152519    0.110842
      8          1           0       -1.469212   -0.583377   -1.472235
      9          1           0       -1.604914    1.061741   -0.835315
     10          1           0       -1.355672   -0.650614    1.453609
     11          1           0       -0.220072   -1.284345    0.262142
     12          1           0        0.781124    0.341054    1.786038
     13          1           0       -0.375196    1.583017    1.277183
     14          1           0        1.648116    2.041209    0.187138
     15          1           0        0.518126    1.466602   -1.036322
     16          1           0        1.926256   -0.120549   -1.719245
     17          1           0        3.138816    0.634955   -0.666669
     18          1           0       -3.228724   -0.686971    0.825200
     19          1           0       -3.782600    0.664732   -0.213412
     20          1           0       -3.610716   -0.989252   -0.899077
     21          1           0        1.355227   -1.445496    0.587977
     22          1           0        3.089623   -1.071681    0.899435
     23          1           0        2.600084   -1.990007   -0.578434
 ---------------------------------------------------------------------
 Rotational constants (GHZ):           4.9027760           1.2093486           1.1511000
 Leave Link  202 at Sun Sep 29 06:35:54 2019, MaxMem=   671088640 cpu:               3.6 elap:               1.8
 (Enter /shared/centos7/gaussian/g16/l301.exe)
 Standard basis: CC-pVTZ (5D, 7F)
 Ernie: Thresh=  0.10000D-02 Tol=  0.10000D-05 Strict=F.
 Ernie:  21 primitive shells out of 310 were deleted.
 There are   485 symmetry adapted cartesian basis functions of A   symmetry.
 There are   434 symmetry adapted basis functions of A   symmetry.
   434 basis functions,   636 primitive gaussians,   485 cartesian basis functions
    29 alpha electrons       29 beta electrons
       nuclear repulsion energy       328.6796949035 Hartrees.
 IExCor= 4336 DFT=T Ex+Corr=M062X ExCW=0 ScaHFX=  0.540000
 ScaDFX=  1.000000  1.000000  1.000000  1.000000 ScalE2=  1.000000  1.000000
 IRadAn=      5 IRanWt=     -1 IRanGd=            0 ICorTp=0 IEmpDi=  4
 NAtoms=   23 NActive=   23 NUniq=   23 SFac= 1.00D+00 NAtFMM=   60 NAOKFM=F Big=F
 Integral buffers will be    131072 words long.
 Raffenetti 2 integral format.
 Two-electron integral symmetry is turned on.
 Leave Link  301 at Sun Sep 29 06:35:56 2019, MaxMem=   671088640 cpu:               2.8 elap:               1.4
 (Enter /shared/centos7/gaussian/g16/l302.exe)
 NPDir=0 NMtPBC=     1 NCelOv=     1 NCel=       1 NClECP=     1 NCelD=      1
         NCelK=      1 NCelE2=     1 NClLst=     1 CellRange=     0.0.
 One-electron integrals computed using PRISM.
 One-electron integral symmetry used in STVInt
 NBasis=   434 RedAO= T EigKep=  2.17D-04  NBF=   434
 NBsUse=   434 1.00D-06 EigRej= -1.00D+00 NBFU=   434
 Precomputing XC quadrature grid using
 IXCGrd= 4 IRadAn=           5 IRanWt=          -1 IRanGd=           0 AccXCQ= 0.00D+00.
 Generated NRdTot=       0 NPtTot=           0 NUsed=           0 NTot=          32
 NSgBfM=   485   485   485   485   485 MxSgAt=    23 MxSgA2=    23.
 Leave Link  302 at Sun Sep 29 06:37:05 2019, MaxMem=   671088640 cpu:             139.1 elap:              69.6
 (Enter /shared/centos7/gaussian/g16/l303.exe)
 DipDrv:  MaxL=1.
 Leave Link  303 at Sun Sep 29 06:37:11 2019, MaxMem=   671088640 cpu:              11.5 elap:               5.8
 (Enter /shared/centos7/gaussian/g16/l401.exe)
 ExpMin= 1.03D-01 ExpMax= 8.24D+03 ExpMxC= 2.81D+02 IAcc=3 IRadAn=         5 AccDes= 0.00D+00
 Harris functional with IExCor= 1009 and IRadAn=       5 diagonalized for initial guess.
 HarFok:  IExCor= 1009 AccDes= 0.00D+00 IRadAn=         5 IDoV= 1 UseB2=F ITyADJ=14
 ICtDFT=  3500011 ScaDFX=  1.000000  1.000000  1.000000  1.000000
 FoFCou: FMM=F IPFlag=           0 FMFlag=      100000 FMFlg1=           0
         NFxFlg=           0 DoJE=T BraDBF=F KetDBF=T FulRan=T
         wScrn=  0.000000 ICntrl=       500 IOpCl=  0 I1Cent=   200000004 NGrid=           0
         NMat0=    1 NMatS0=      1 NMatT0=    0 NMatD0=    1 NMtDS0=    0 NMtDT0=    0
 Petite list used in FoFCou.
 Harris En= -276.309958164105    
 JPrj=0 DoOrth=F DoCkMO=F.
 Leave Link  401 at Sun Sep 29 06:37:54 2019, MaxMem=   671088640 cpu:              85.4 elap:              42.8
 (Enter /shared/centos7/gaussian/g16/l502.exe)
 Integral symmetry usage will be decided dynamically.
 Closed shell SCF:
 Using DIIS extrapolation, IDIIS=  1040.
 NGot=   671088640 LenX=   670604095 LenY=   670368385
 Requested convergence on RMS density matrix=1.00D-08 within 900 cycles.
 Requested convergence on MAX density matrix=1.00D-06.
 Requested convergence on             energy=1.00D-06.
 No special actions if energy rises.
 Fock matrices will be formed incrementally for  20 cycles.
 Integral accuracy reduced to 1.0D-05 until final iterations.

 Cycle   1  Pass 0  IDiag  1:
 FoFJK:  IHMeth= 1 ICntrl=       0 DoSepK=F KAlg= 0 I1Cent=           0 FoldK=F
 IRaf= 940000000 NMat=       1 IRICut=       1 DoRegI=T DoRafI=F ISym2E= 0 IDoP0=0 IntGTp=1.
 FoFCou: FMM=F IPFlag=           0 FMFlag=      100000 FMFlg1=           0
         NFxFlg=           0 DoJE=F BraDBF=F KetDBF=F FulRan=T
         wScrn=  0.000000 ICntrl=         0 IOpCl=  0 I1Cent=           0 NGrid=           0
         NMat0=    1 NMatS0=      1 NMatT0=    0 NMatD0=    1 NMtDS0=    0 NMtDT0=    0
 Symmetry not used in FoFCou.
 E= -275.940573250842    
 DIIS: error= 2.34D-02 at cycle   1 NSaved=   1.
 NSaved= 1 IEnMin= 1 EnMin= -275.940573250842     IErMin= 1 ErrMin= 2.34D-02
 ErrMax= 2.34D-02  0.00D+00 EMaxC= 1.00D-01 BMatC= 3.75D-01 BMatP= 3.75D-01
 IDIUse=3 WtCom= 7.66D-01 WtEn= 2.34D-01
 Coeff-Com:  0.100D+01
 Coeff-En:   0.100D+01
 Coeff:      0.100D+01
 Gap=     0.353 Goal=   None    Shift=    0.000
 GapD=    0.353 DampG=1.000 DampE=0.500 DampFc=0.5000 IDamp=-1.
 Damping current iteration by 5.00D-01
 RMSDP=1.92D-03 MaxDP=7.03D-02              OVMax= 1.67D-01

 Cycle   2  Pass 0  IDiag  1:
 RMSU=  9.57D-04    CP:  9.90D-01
 E= -276.118068789617     Delta-E=       -0.177495538775 Rises=F Damp=T
 DIIS: error= 3.65D-03 at cycle   2 NSaved=   2.
 NSaved= 2 IEnMin= 2 EnMin= -276.118068789617     IErMin= 2 ErrMin= 3.65D-03
 ErrMax= 3.65D-03  0.00D+00 EMaxC= 1.00D-01 BMatC= 1.88D-02 BMatP= 3.75D-01
 IDIUse=3 WtCom= 9.64D-01 WtEn= 3.65D-02
 Coeff-Com: -0.492D-01 0.105D+01
 Coeff-En:   0.000D+00 0.100D+01
 Coeff:     -0.474D-01 0.105D+01
 Gap=     0.438 Goal=   None    Shift=    0.000
 RMSDP=5.38D-04 MaxDP=1.92D-02 DE=-1.77D-01 OVMax= 8.91D-02

 Cycle   3  Pass 0  IDiag  1:
 RMSU=  5.30D-04    CP:  9.98D-01  9.18D-01
 E= -276.297223063410     Delta-E=       -0.179154273793 Rises=F Damp=F
 DIIS: error= 2.35D-03 at cycle   3 NSaved=   3.
 NSaved= 3 IEnMin= 3 EnMin= -276.297223063410     IErMin= 3 ErrMin= 2.35D-03
 ErrMax= 2.35D-03  0.00D+00 EMaxC= 1.00D-01 BMatC= 2.81D-03 BMatP= 1.88D-02
 IDIUse=3 WtCom= 9.77D-01 WtEn= 2.35D-02
 Coeff-Com: -0.522D-01 0.246D+00 0.806D+00
 Coeff-En:   0.000D+00 0.000D+00 0.100D+01
 Coeff:     -0.509D-01 0.240D+00 0.811D+00
 Gap=     0.405 Goal=   None    Shift=    0.000
 RMSDP=9.46D-05 MaxDP=2.68D-03 DE=-1.79D-01 OVMax= 1.04D-02

 Cycle   4  Pass 0  IDiag  1:
 RMSU=  7.40D-05    CP:  9.97D-01  9.67D-01  9.34D-01
 E= -276.299662355790     Delta-E=       -0.002439292380 Rises=F Damp=F
 DIIS: error= 6.28D-04 at cycle   4 NSaved=   4.
 NSaved= 4 IEnMin= 4 EnMin= -276.299662355790     IErMin= 4 ErrMin= 6.28D-04
 ErrMax= 6.28D-04  0.00D+00 EMaxC= 1.00D-01 BMatC= 2.84D-04 BMatP= 2.81D-03
 IDIUse=3 WtCom= 9.94D-01 WtEn= 6.28D-03
 Coeff-Com: -0.144D-01 0.414D-01 0.281D+00 0.692D+00
 Coeff-En:   0.000D+00 0.000D+00 0.000D+00 0.100D+01
 Coeff:     -0.143D-01 0.411D-01 0.279D+00 0.694D+00
 Gap=     0.406 Goal=   None    Shift=    0.000
 RMSDP=3.18D-05 MaxDP=1.55D-03 DE=-2.44D-03 OVMax= 3.21D-03

 Cycle   5  Pass 0  IDiag  1:
 RMSU=  1.93D-05    CP:  9.97D-01  9.60D-01  9.66D-01  7.66D-01
 E= -276.299914433830     Delta-E=       -0.000252078040 Rises=F Damp=F
 DIIS: error= 1.64D-04 at cycle   5 NSaved=   5.
 NSaved= 5 IEnMin= 5 EnMin= -276.299914433830     IErMin= 5 ErrMin= 1.64D-04
 ErrMax= 1.64D-04  0.00D+00 EMaxC= 1.00D-01 BMatC= 2.20D-05 BMatP= 2.84D-04
 IDIUse=3 WtCom= 9.98D-01 WtEn= 1.64D-03
 Coeff-Com: -0.175D-02 0.104D-02 0.542D-01 0.265D+00 0.681D+00
 Coeff-En:   0.000D+00 0.000D+00 0.000D+00 0.000D+00 0.100D+01
 Coeff:     -0.174D-02 0.103D-02 0.541D-01 0.265D+00 0.682D+00
 Gap=     0.405 Goal=   None    Shift=    0.000
 RMSDP=6.99D-06 MaxDP=4.25D-04 DE=-2.52D-04 OVMax= 8.65D-04

 Initial convergence to 1.0D-05 achieved.  Increase integral accuracy.
 Cycle   6  Pass 1  IDiag  1:
 E= -276.299876202381     Delta-E=        0.000038231448 Rises=F Damp=F
 DIIS: error= 4.55D-05 at cycle   1 NSaved=   1.
 NSaved= 1 IEnMin= 1 EnMin= -276.299876202381     IErMin= 1 ErrMin= 4.55D-05
 ErrMax= 4.55D-05  0.00D+00 EMaxC= 1.00D-01 BMatC= 1.36D-06 BMatP= 1.36D-06
 IDIUse=1 WtCom= 1.00D+00 WtEn= 0.00D+00
 Coeff-Com:  0.100D+01
 Coeff:      0.100D+01
 Gap=     0.405 Goal=   None    Shift=    0.000
 RMSDP=6.99D-06 MaxDP=4.25D-04 DE= 3.82D-05 OVMax= 2.30D-04

 Cycle   7  Pass 1  IDiag  1:
 RMSU=  1.03D-05    CP:  1.00D+00
 E= -276.299876881661     Delta-E=       -0.000000679279 Rises=F Damp=F
 DIIS: error= 1.91D-05 at cycle   2 NSaved=   2.
 NSaved= 2 IEnMin= 2 EnMin= -276.299876881661     IErMin= 2 ErrMin= 1.91D-05
 ErrMax= 1.91D-05  0.00D+00 EMaxC= 1.00D-01 BMatC= 2.98D-07 BMatP= 1.36D-06
 IDIUse=1 WtCom= 1.00D+00 WtEn= 0.00D+00
 Coeff-Com:  0.261D+00 0.739D+00
 Coeff:      0.261D+00 0.739D+00
 Gap=     0.405 Goal=   None    Shift=    0.000
 RMSDP=1.13D-06 MaxDP=4.39D-05 DE=-6.79D-07 OVMax= 1.14D-04

 Cycle   8  Pass 1  IDiag  1:
 RMSU=  1.12D-06    CP:  1.00D+00  1.01D+00
 E= -276.299877111214     Delta-E=       -0.000000229553 Rises=F Damp=F
 DIIS: error= 8.95D-06 at cycle   3 NSaved=   3.
 NSaved= 3 IEnMin= 3 EnMin= -276.299877111214     IErMin= 3 ErrMin= 8.95D-06
 ErrMax= 8.95D-06  0.00D+00 EMaxC= 1.00D-01 BMatC= 6.44D-08 BMatP= 2.98D-07
 IDIUse=1 WtCom= 1.00D+00 WtEn= 0.00D+00
 Coeff-Com: -0.893D-02 0.307D+00 0.702D+00
 Coeff:     -0.893D-02 0.307D+00 0.702D+00
 Gap=     0.405 Goal=   None    Shift=    0.000
 RMSDP=4.32D-07 MaxDP=1.44D-05 DE=-2.30D-07 OVMax= 4.47D-05

 Cycle   9  Pass 1  IDiag  1:
 RMSU=  3.10D-07    CP:  1.00D+00  1.03D+00  7.75D-01
 E= -276.299877172659     Delta-E=       -0.000000061446 Rises=F Damp=F
 DIIS: error= 2.19D-06 at cycle   4 NSaved=   4.
 NSaved= 4 IEnMin= 4 EnMin= -276.299877172659     IErMin= 4 ErrMin= 2.19D-06
 ErrMax= 2.19D-06  0.00D+00 EMaxC= 1.00D-01 BMatC= 1.48D-09 BMatP= 6.44D-08
 IDIUse=1 WtCom= 1.00D+00 WtEn= 0.00D+00
 Coeff-Com: -0.119D-01 0.752D-01 0.227D+00 0.709D+00
 Coeff:     -0.119D-01 0.752D-01 0.227D+00 0.709D+00
 Gap=     0.405 Goal=   None    Shift=    0.000
 RMSDP=7.37D-08 MaxDP=3.29D-06 DE=-6.14D-08 OVMax= 7.47D-06

 Cycle  10  Pass 1  IDiag  1:
 RMSU=  7.06D-08    CP:  1.00D+00  1.03D+00  7.83D-01  9.68D-01
 E= -276.299877174141     Delta-E=       -0.000000001482 Rises=F Damp=F
 DIIS: error= 3.79D-07 at cycle   5 NSaved=   5.
 NSaved= 5 IEnMin= 5 EnMin= -276.299877174141     IErMin= 5 ErrMin= 3.79D-07
 ErrMax= 3.79D-07  0.00D+00 EMaxC= 1.00D-01 BMatC= 6.37D-11 BMatP= 1.48D-09
 IDIUse=1 WtCom= 1.00D+00 WtEn= 0.00D+00
 Coeff-Com: -0.794D-03-0.168D-01-0.313D-01 0.876D-01 0.961D+00
 Coeff:     -0.794D-03-0.168D-01-0.313D-01 0.876D-01 0.961D+00
 Gap=     0.405 Goal=   None    Shift=    0.000
 RMSDP=3.25D-08 MaxDP=9.03D-07 DE=-1.48D-09 OVMax= 2.70D-06

 Cycle  11  Pass 1  IDiag  1:
 RMSU=  1.65D-08    CP:  1.00D+00  1.03D+00  7.87D-01  1.05D+00  1.08D+00
 E= -276.299877174229     Delta-E=       -0.000000000088 Rises=F Damp=F
 DIIS: error= 1.35D-07 at cycle   6 NSaved=   6.
 NSaved= 6 IEnMin= 6 EnMin= -276.299877174229     IErMin= 6 ErrMin= 1.35D-07
 ErrMax= 1.35D-07  0.00D+00 EMaxC= 1.00D-01 BMatC= 1.42D-11 BMatP= 6.37D-11
 IDIUse=1 WtCom= 1.00D+00 WtEn= 0.00D+00
 Coeff-Com:  0.425D-03-0.120D-01-0.281D-01-0.988D-02 0.411D+00 0.639D+00
 Coeff:      0.425D-03-0.120D-01-0.281D-01-0.988D-02 0.411D+00 0.639D+00
 Gap=     0.405 Goal=   None    Shift=    0.000
 RMSDP=6.63D-09 MaxDP=2.45D-07 DE=-8.75D-11 OVMax= 6.38D-07

 SCF Done:  E(RM062X) =  -276.299877174     A.U. after   11 cycles
            NFock= 11  Conv=0.66D-08     -V/T= 2.0064
 KE= 2.745443805606D+02 PE=-1.295823191611D+03 EE= 4.162992389725D+02
 Leave Link  502 at Sun Sep 29 06:55:12 2019, MaxMem=   671088640 cpu:            2076.1 elap:            1038.2
 (Enter /shared/centos7/gaussian/g16/l801.exe)
 DoSCS=F DFT=T ScalE2(SS,OS)=  1.000000  1.000000
 Range of M.O.s used for correlation:     1   434
 NBasis=   434 NAE=    29 NBE=    29 NFC=     0 NFV=     0
 NROrb=    434 NOA=    29 NOB=    29 NVA=   405 NVB=   405

 **** Warning!!: The largest alpha MO coefficient is  0.13956349D+02

 Leave Link  801 at Sun Sep 29 06:55:13 2019, MaxMem=   671088640 cpu:               1.7 elap:               0.8
 (Enter /shared/centos7/gaussian/g16/l1101.exe)
 Using compressed storage, NAtomX=    23.
 Will process     24 centers per pass.
 Leave Link 1101 at Sun Sep 29 06:55:53 2019, MaxMem=   671088640 cpu:              80.4 elap:              40.2
 (Enter /shared/centos7/gaussian/g16/l1102.exe)
 Symmetrizing basis deriv contribution to polar:
 IMax=3 JMax=2 DiffMx= 0.00D+00
 Leave Link 1102 at Sun Sep 29 06:55:56 2019, MaxMem=   671088640 cpu:               6.1 elap:               3.1
 (Enter /shared/centos7/gaussian/g16/l1110.exe)
 Forming Gx(P) for the SCF density, NAtomX=    23.
 Integral derivatives from FoFJK, PRISM(SPDF).
 Do as many integral derivatives as possible in FoFJK.
 G2DrvN: MDV=     671086848.
 G2DrvN: will do    24 centers at a time, making    1 passes.
 Calling FoFCou, ICntrl=  3107 FMM=F I1Cent=   0 AccDes= 0.00D+00.
 FoFJK:  IHMeth= 1 ICntrl=    3107 DoSepK=F KAlg= 0 I1Cent=           0 FoldK=F
 IRaf=         0 NMat=       1 IRICut=       1 DoRegI=T DoRafI=F ISym2E= 0 IDoP0=0 IntGTp=1.
 FoFCou: FMM=F IPFlag=           0 FMFlag=      100000 FMFlg1=           0
         NFxFlg=           0 DoJE=F BraDBF=F KetDBF=F FulRan=T
         wScrn=  0.000000 ICntrl=      3107 IOpCl=  0 I1Cent=           0 NGrid=           0
         NMat0=    1 NMatS0=      1 NMatT0=    0 NMatD0=    1 NMtDS0=    0 NMtDT0=    0
 Symmetry not used in FoFCou.
 End of G2Drv F.D. properties file   721 does not exist.
 End of G2Drv F.D. properties file   722 does not exist.
 End of G2Drv F.D. properties file   788 does not exist.
 Leave Link 1110 at Sun Sep 29 07:40:23 2019, MaxMem=   671088640 cpu:            5332.9 elap:            2666.8
 (Enter /shared/centos7/gaussian/g16/l1002.exe)
 Minotr:  Closed shell wavefunction.
          IDoAtm=11111111111111111111111
          Direct CPHF calculation.
          Differentiating once with respect to nuclear coordinates.
          Requested convergence is 1.0D-08 RMS, and 1.0D-07 maximum.
          Secondary convergence is 1.0D-12 RMS, and 1.0D-12 maximum.
          NewPWx=T KeepS1=F KeepF1=F KeepIn=T MapXYZ=F SortEE=F KeepMc=T.
         6911 words used for storage of precomputed grid.
 Two-electron integrals replicated using symmetry.
          MDV=     671088640 using IRadAn=       1.
          Solving linear equations simultaneously, MaxMat=     380.
 FoF2E skips out because all densities are zero.
 CalDSu exits because no D1Ps are significant.
 FoFJK:  IHMeth= 1 ICntrl=       0 DoSepK=F KAlg= 0 I1Cent=           0 FoldK=F
 IRaf= 920000000 NMat=      69 IRICut=     172 DoRegI=T DoRafI=T ISym2E= 2 IDoP0=3 IntGTp=3.
 FoFCou: FMM=F IPFlag=           0 FMFlag=      100000 FMFlg1=           0
         NFxFlg=           0 DoJE=F BraDBF=F KetDBF=F FulRan=T
         wScrn=  0.000000 ICntrl=         0 IOpCl=  0 I1Cent=           0 NGrid=           0
         NMat0=   69 NMatS0=     69 NMatT0=    0 NMatD0=   69 NMtDS0=    0 NMtDT0=    0
 Integrals replicated using symmetry in FoFCou.
 Raff kept on since  88.29% of shell-pairs survive, threshold=   0.20 IRatSp=88.
          There are    72 degrees of freedom in the 1st order CPHF.  IDoFFX=6 NUNeed=     0.
     66 vectors produced by pass  0 Test12= 1.63D-14 1.39D-09 XBig12= 5.59D-02 4.21D-02.
 AX will form    66 AO Fock derivatives at one time.
     66 vectors produced by pass  1 Test12= 1.63D-14 1.39D-09 XBig12= 2.78D-03 6.33D-03.
     66 vectors produced by pass  2 Test12= 1.63D-14 1.39D-09 XBig12= 5.11D-05 1.01D-03.
     66 vectors produced by pass  3 Test12= 1.63D-14 1.39D-09 XBig12= 4.08D-07 7.87D-05.
     66 vectors produced by pass  4 Test12= 1.63D-14 1.39D-09 XBig12= 1.91D-09 4.64D-06.
     66 vectors produced by pass  5 Test12= 1.63D-14 1.39D-09 XBig12= 8.44D-12 3.04D-07.
     22 vectors produced by pass  6 Test12= 1.63D-14 1.39D-09 XBig12= 3.28D-14 1.45D-08.
 InvSVY:  IOpt=1 It=  1 EMax= 3.61D-16
 Solved reduced A of dimension   418 with    72 vectors.
 End of Minotr F.D. properties file   721 does not exist.
 End of Minotr F.D. properties file   722 does not exist.
 End of Minotr F.D. properties file   788 does not exist.
 Leave Link 1002 at Sun Sep 29 08:57:05 2019, MaxMem=   671088640 cpu:            9202.2 elap:            4601.7
 (Enter /shared/centos7/gaussian/g16/l601.exe)
 Copying SCF densities to generalized density rwf, IOpCl= 0 IROHF=0.

 **********************************************************************

            Population analysis using the SCF density.

 **********************************************************************

 Orbital symmetries:
       Occupied  (A) (A) (A) (A) (A) (A) (A) (A) (A) (A) (A) (A)
                 (A) (A) (A) (A) (A) (A) (A) (A) (A) (A) (A) (A)
                 (A) (A) (A) (A) (A)
       Virtual   (A) (A) (A) (A) (A) (A) (A) (A) (A) (A) (A) (A)
                 (A) (A) (A) (A) (A) (A) (A) (A) (A) (A) (A) (A)
                 (A) (A) (A) (A) (A) (A) (A) (A) (A) (A) (A) (A)
                 (A) (A) (A) (A) (A) (A) (A) (A) (A) (A) (A) (A)
                 (A) (A) (A) (A) (A) (A) (A) (A) (A) (A) (A) (A)
                 (A) (A) (A) (A) (A) (A) (A) (A) (A) (A) (A) (A)
                 (A) (A) (A) (A) (A) (A) (A) (A) (A) (A) (A) (A)
                 (A) (A) (A) (A) (A) (A) (A) (A) (A) (A) (A) (A)
                 (A) (A) (A) (A) (A) (A) (A) (A) (A) (A) (A) (A)
                 (A) (A) (A) (A) (A) (A) (A) (A) (A) (A) (A) (A)
                 (A) (A) (A) (A) (A) (A) (A) (A) (A) (A) (A) (A)
                 (A) (A) (A) (A) (A) (A) (A) (A) (A) (A) (A) (A)
                 (A) (A) (A) (A) (A) (A) (A) (A) (A) (A) (A) (A)
                 (A) (A) (A) (A) (A) (A) (A) (A) (A) (A) (A) (A)
                 (A) (A) (A) (A) (A) (A) (A) (A) (A) (A) (A) (A)
                 (A) (A) (A) (A) (A) (A) (A) (A) (A) (A) (A) (A)
                 (A) (A) (A) (A) (A) (A) (A) (A) (A) (A) (A) (A)
                 (A) (A) (A) (A) (A) (A) (A) (A) (A) (A) (A) (A)
                 (A) (A) (A) (A) (A) (A) (A) (A) (A) (A) (A) (A)
                 (A) (A) (A) (A) (A) (A) (A) (A) (A) (A) (A) (A)
                 (A) (A) (A) (A) (A) (A) (A) (A) (A) (A) (A) (A)
                 (A) (A) (A) (A) (A) (A) (A) (A) (A) (A) (A) (A)
                 (A) (A) (A) (A) (A) (A) (A) (A) (A) (A) (A) (A)
                 (A) (A) (A) (A) (A) (A) (A) (A) (A) (A) (A) (A)
                 (A) (A) (A) (A) (A) (A) (A) (A) (A) (A) (A) (A)
                 (A) (A) (A) (A) (A) (A) (A) (A) (A) (A) (A) (A)
                 (A) (A) (A) (A) (A) (A) (A) (A) (A) (A) (A) (A)
                 (A) (A) (A) (A) (A) (A) (A) (A) (A) (A) (A) (A)
                 (A) (A) (A) (A) (A) (A) (A) (A) (A) (A) (A) (A)
                 (A) (A) (A) (A) (A) (A) (A) (A) (A) (A) (A) (A)
                 (A) (A) (A) (A) (A) (A) (A) (A) (A) (A) (A) (A)
                 (A) (A) (A) (A) (A) (A) (A) (A) (A) (A) (A) (A)
                 (A) (A) (A) (A) (A) (A) (A) (A) (A) (A) (A) (A)
                 (A) (A) (A) (A) (A) (A) (A) (A) (A)
 The electronic state is 1-A.
 Alpha  occ. eigenvalues --  -10.52646 -10.52513 -10.52406 -10.52316 -10.52237
 Alpha  occ. eigenvalues --  -10.52207 -10.52068  -0.92389  -0.88038  -0.82458
 Alpha  occ. eigenvalues --   -0.77052  -0.70818  -0.66070  -0.61689  -0.55494
 Alpha  occ. eigenvalues --   -0.54236  -0.50759  -0.49434  -0.48664  -0.45768
 Alpha  occ. eigenvalues --   -0.43794  -0.43475  -0.41854  -0.41093  -0.39639
 Alpha  occ. eigenvalues --   -0.37529  -0.36599  -0.35244  -0.34731
 Alpha virt. eigenvalues --    0.05806   0.08099   0.08520   0.08824   0.10699
 Alpha virt. eigenvalues --    0.11493   0.11866   0.13612   0.14551   0.15301
 Alpha virt. eigenvalues --    0.15574   0.17082   0.17911   0.19405   0.19984
 Alpha virt. eigenvalues --    0.21628   0.22502   0.22984   0.25606   0.25887
 Alpha virt. eigenvalues --    0.27183   0.27710   0.29891   0.30942   0.31662
 Alpha virt. eigenvalues --    0.33509   0.34275   0.35183   0.36902   0.37348
 Alpha virt. eigenvalues --    0.38605   0.39545   0.40444   0.41872   0.43031
 Alpha virt. eigenvalues --    0.44105   0.45658   0.46366   0.47285   0.47494
 Alpha virt. eigenvalues --    0.48011   0.48819   0.49479   0.50215   0.51334
 Alpha virt. eigenvalues --    0.51453   0.51929   0.52683   0.53360   0.53995
 Alpha virt. eigenvalues --    0.54529   0.55703   0.56233   0.56872   0.57738
 Alpha virt. eigenvalues --    0.58585   0.58970   0.59796   0.61746   0.63460
 Alpha virt. eigenvalues --    0.64306   0.66078   0.69244   0.74094   0.76789
 Alpha virt. eigenvalues --    0.79440   0.81418   0.82543   0.83791   0.85165
 Alpha virt. eigenvalues --    0.86850   0.88480   0.89876   0.91142   0.92584
 Alpha virt. eigenvalues --    0.93536   0.95505   0.96929   0.98388   0.98892
 Alpha virt. eigenvalues --    1.00859   1.02145   1.03938   1.04789   1.05151
 Alpha virt. eigenvalues --    1.06533   1.07636   1.08458   1.08807   1.09487
 Alpha virt. eigenvalues --    1.10669   1.11365   1.12509   1.14031   1.14669
 Alpha virt. eigenvalues --    1.16081   1.16594   1.16959   1.18579   1.19030
 Alpha virt. eigenvalues --    1.20448   1.21348   1.23248   1.24009   1.24341
 Alpha virt. eigenvalues --    1.25704   1.26300   1.27422   1.28076   1.29583
 Alpha virt. eigenvalues --    1.30048   1.30578   1.32440   1.34303   1.34557
 Alpha virt. eigenvalues --    1.35155   1.35956   1.37451   1.37971   1.38801
 Alpha virt. eigenvalues --    1.40228   1.40840   1.42045   1.42969   1.43415
 Alpha virt. eigenvalues --    1.45399   1.47286   1.47482   1.49406   1.51406
 Alpha virt. eigenvalues --    1.52257   1.53103   1.53283   1.54179   1.57279
 Alpha virt. eigenvalues --    1.58200   1.59174   1.60640   1.61437   1.64138
 Alpha virt. eigenvalues --    1.65182   1.68034   1.69299   1.70638   1.74007
 Alpha virt. eigenvalues --    1.74415   1.81060   1.83539   1.93220   2.19107
 Alpha virt. eigenvalues --    2.21091   2.25647   2.28010   2.30200   2.31685
 Alpha virt. eigenvalues --    2.33555   2.35794   2.39181   2.44227   2.46606
 Alpha virt. eigenvalues --    2.48707   2.49534   2.51316   2.52011   2.53458
 Alpha virt. eigenvalues --    2.54798   2.56039   2.56981   2.59505   2.60114
 Alpha virt. eigenvalues --    2.62366   2.63906   2.65129   2.65627   2.66963
 Alpha virt. eigenvalues --    2.67265   2.69624   2.70703   2.73138   2.73716
 Alpha virt. eigenvalues --    2.74874   2.76091   2.77845   2.79061   2.80091
 Alpha virt. eigenvalues --    2.81426   2.82303   2.83778   2.85309   2.85499
 Alpha virt. eigenvalues --    2.86250   2.87122   2.89592   2.92037   2.93063
 Alpha virt. eigenvalues --    2.94117   2.95105   2.96765   2.97600   2.98285
 Alpha virt. eigenvalues --    3.00293   3.01616   3.01683   3.02832   3.05005
 Alpha virt. eigenvalues --    3.05408   3.05935   3.07676   3.08447   3.09930
 Alpha virt. eigenvalues --    3.10203   3.11263   3.11655   3.12009   3.12759
 Alpha virt. eigenvalues --    3.14419   3.14936   3.15129   3.15533   3.17134
 Alpha virt. eigenvalues --    3.18499   3.19978   3.21315   3.21922   3.22581
 Alpha virt. eigenvalues --    3.25494   3.26471   3.27748   3.28581   3.30620
 Alpha virt. eigenvalues --    3.32249   3.33028   3.33940   3.35390   3.36184
 Alpha virt. eigenvalues --    3.37059   3.39517   3.41047   3.42332   3.42913
 Alpha virt. eigenvalues --    3.43135   3.43354   3.44290   3.46385   3.47747
 Alpha virt. eigenvalues --    3.50638   3.52324   3.52589   3.54226   3.55144
 Alpha virt. eigenvalues --    3.56868   3.57497   3.58592   3.60395   3.61665
 Alpha virt. eigenvalues --    3.61989   3.64305   3.64743   3.66449   3.67113
 Alpha virt. eigenvalues --    3.67764   3.69196   3.70425   3.72649   3.73822
 Alpha virt. eigenvalues --    3.74867   3.75548   3.76815   3.77991   3.79422
 Alpha virt. eigenvalues --    3.79750   3.81178   3.83381   3.84128   3.85139
 Alpha virt. eigenvalues --    3.86623   3.87185   3.88278   3.90569   3.90985
 Alpha virt. eigenvalues --    3.91665   3.92856   3.94942   3.95419   3.96334
 Alpha virt. eigenvalues --    3.97868   3.99259   4.00359   4.01250   4.02120
 Alpha virt. eigenvalues --    4.03307   4.04892   4.05586   4.05977   4.07059
 Alpha virt. eigenvalues --    4.07829   4.09379   4.09886   4.10907   4.12415
 Alpha virt. eigenvalues --    4.13698   4.14278   4.16311   4.17445   4.18149
 Alpha virt. eigenvalues --    4.19414   4.20562   4.20824   4.22331   4.23320
 Alpha virt. eigenvalues --    4.25531   4.26440   4.27091   4.29410   4.30501
 Alpha virt. eigenvalues --    4.32206   4.32620   4.33993   4.36611   4.38683
 Alpha virt. eigenvalues --    4.40035   4.42060   4.44349   4.45010   4.45055
 Alpha virt. eigenvalues --    4.46651   4.48986   4.49965   4.54059   4.55941
 Alpha virt. eigenvalues --    4.59220   4.59573   4.62173   4.62406   4.64931
 Alpha virt. eigenvalues --    4.66738   4.68790   4.70994   4.74290   4.75686
 Alpha virt. eigenvalues --    4.77560   4.79783   4.81560   4.82094   4.84626
 Alpha virt. eigenvalues --    4.85646   4.87331   4.88897   4.90373   4.92423
 Alpha virt. eigenvalues --    4.94042   4.95613   4.98221   4.99891   5.01469
 Alpha virt. eigenvalues --    5.01842   5.03416   5.03945   5.06362   5.08142
 Alpha virt. eigenvalues --    5.09487   5.10581   5.11643   5.13904   5.19332
 Alpha virt. eigenvalues --    5.20034   5.20776   5.23456   5.25776   5.27531
 Alpha virt. eigenvalues --    5.28293   5.30241   5.31136   5.32714   5.35435
 Alpha virt. eigenvalues --    5.37168   5.39026   5.40749   5.42466   5.44271
 Alpha virt. eigenvalues --    5.45463   5.48726   5.50049   5.53817   5.57811
 Alpha virt. eigenvalues --    5.61934   5.65565   5.75577   5.76561   5.76917
 Alpha virt. eigenvalues --    5.78935   5.81866   5.88355   5.91722   5.93505
 Alpha virt. eigenvalues --    6.01154   6.04471   6.05413  11.36018  11.48113
 Alpha virt. eigenvalues --   12.67624  12.90208  13.31067  13.58304  13.89561
          Condensed to atoms (all electrons):
               1          2          3          4          5          6
     1  C    5.188431   0.292640  -0.048127   0.283562   0.009029  -0.060014
     2  C    0.292640   5.098467   0.307052  -0.045013  -0.048215   0.006782
     3  C   -0.048127   0.307052   5.111423  -0.005604   0.298072  -0.000331
     4  C    0.283562  -0.045013  -0.005604   5.103145  -0.004104   0.291585
     5  C    0.009029  -0.048215   0.298072  -0.004104   5.058653   0.000078
     6  C   -0.060014   0.006782  -0.000331   0.291585   0.000078   4.955397
     7  C   -0.016105  -0.008532  -0.047465   0.001495   0.286098  -0.000100
     8  H   -0.042458   0.003141   0.000631   0.404038  -0.000232  -0.033941
     9  H   -0.060974   0.000108  -0.006219   0.416226   0.000687  -0.040093
    10  H    0.417713  -0.047387   0.008614  -0.043230  -0.000504  -0.020920
    11  H    0.427171  -0.046317  -0.004576  -0.053161   0.005970   0.006486
    12  H   -0.052708   0.421883  -0.041225   0.010994  -0.007615  -0.000583
    13  H   -0.041288   0.413078  -0.047493  -0.007224   0.008183   0.000921
    14  H    0.009082  -0.046146   0.418558   0.000018  -0.046464   0.000030
    15  H   -0.009703  -0.042467   0.420466   0.003382  -0.051924   0.000262
    16  H    0.000393   0.003930  -0.048966   0.000257   0.413612  -0.000018
    17  H   -0.001050   0.007019  -0.046291   0.000071   0.418049   0.000000
    18  H   -0.014434   0.001135  -0.000109  -0.060436   0.000011   0.415711
    19  H    0.006794  -0.000502   0.000139  -0.047206  -0.000009   0.406798
    20  H    0.005320  -0.000409  -0.000018  -0.045826  -0.000003   0.407186
    21  H   -0.016268   0.002562  -0.006549   0.000378  -0.051587  -0.000069
    22  H    0.001445  -0.002526   0.003701  -0.000059  -0.045499   0.000002
    23  H    0.000398   0.000148   0.007324  -0.000007  -0.040425   0.000001
               7          8          9         10         11         12
     1  C   -0.016105  -0.042458  -0.060974   0.417713   0.427171  -0.052708
     2  C   -0.008532   0.003141   0.000108  -0.047387  -0.046317   0.421883
     3  C   -0.047465   0.000631  -0.006219   0.008614  -0.004576  -0.041225
     4  C    0.001495   0.404038   0.416226  -0.043230  -0.053161   0.010994
     5  C    0.286098  -0.000232   0.000687  -0.000504   0.005970  -0.007615
     6  C   -0.000100  -0.033941  -0.040093  -0.020920   0.006486  -0.000583
     7  C    5.015689   0.000498  -0.000261   0.000969  -0.018256   0.001505
     8  H    0.000498   0.618275  -0.045769   0.007240  -0.018692  -0.000635
     9  H   -0.000261  -0.045769   0.609021   0.003954   0.007680   0.000529
    10  H    0.000969   0.007240   0.003954   0.587716  -0.035849  -0.008671
    11  H   -0.018256  -0.018692   0.007680  -0.035849   0.596263  -0.005836
    12  H    0.001505  -0.000635   0.000529  -0.008671  -0.005836   0.573330
    13  H   -0.000101   0.000003   0.001748  -0.007174   0.008250  -0.025333
    14  H    0.005567   0.000085  -0.000486  -0.000458  -0.000289  -0.005164
    15  H    0.006815  -0.002353   0.001457  -0.000297   0.000256   0.007785
    16  H   -0.049081   0.000603  -0.000109   0.000072  -0.001664  -0.000029
    17  H   -0.041153   0.000017  -0.000030   0.000047  -0.000256   0.000273
    18  H   -0.000025   0.005615   0.005880   0.004399   0.000922  -0.000207
    19  H    0.000004   0.006916  -0.018527   0.001577  -0.000612   0.000016
    20  H    0.000004  -0.019915   0.007140   0.000654   0.000188   0.000039
    21  H    0.416612   0.000499  -0.000171   0.002133  -0.015774  -0.003674
    22  H    0.403497  -0.000012   0.000007  -0.000061   0.001307  -0.000600
    23  H    0.406831  -0.000068   0.000016  -0.000038   0.001592   0.000173
              13         14         15         16         17         18
     1  C   -0.041288   0.009082  -0.009703   0.000393  -0.001050  -0.014434
     2  C    0.413078  -0.046146  -0.042467   0.003930   0.007019   0.001135
     3  C   -0.047493   0.418558   0.420466  -0.048966  -0.046291  -0.000109
     4  C   -0.007224   0.000018   0.003382   0.000257   0.000071  -0.060436
     5  C    0.008183  -0.046464  -0.051924   0.413612   0.418049   0.000011
     6  C    0.000921   0.000030   0.000262  -0.000018   0.000000   0.415711
     7  C   -0.000101   0.005567   0.006815  -0.049081  -0.041153  -0.000025
     8  H    0.000003   0.000085  -0.002353   0.000603   0.000017   0.005615
     9  H    0.001748  -0.000486   0.001457  -0.000109  -0.000030   0.005880
    10  H   -0.007174  -0.000458  -0.000297   0.000072   0.000047   0.004399
    11  H    0.008250  -0.000289   0.000256  -0.001664  -0.000256   0.000922
    12  H   -0.025333  -0.005164   0.007785  -0.000029   0.000273  -0.000207
    13  H    0.568284  -0.009137  -0.004380  -0.000525  -0.000374   0.000354
    14  H   -0.009137   0.589844  -0.033727   0.007813  -0.018543   0.000006
    15  H   -0.004380  -0.033727   0.584668  -0.017615   0.004915  -0.000049
    16  H   -0.000525   0.007813  -0.017615   0.621873  -0.035482   0.000003
    17  H   -0.000374  -0.018543   0.004915  -0.035482   0.598695  -0.000000
    18  H    0.000354   0.000006  -0.000049   0.000003  -0.000000   0.612872
    19  H   -0.000038  -0.000006   0.000004   0.000001   0.000000  -0.037234
    20  H   -0.000049  -0.000001   0.000003  -0.000001  -0.000000  -0.035035
    21  H   -0.000420   0.000099   0.000172   0.001577   0.007539   0.000010
    22  H    0.000031   0.000722  -0.000532   0.008970  -0.016192   0.000001
    23  H    0.000038  -0.000527  -0.000202  -0.016388   0.001777   0.000000
              19         20         21         22         23
     1  C    0.006794   0.005320  -0.016268   0.001445   0.000398
     2  C   -0.000502  -0.000409   0.002562  -0.002526   0.000148
     3  C    0.000139  -0.000018  -0.006549   0.003701   0.007324
     4  C   -0.047206  -0.045826   0.000378  -0.000059  -0.000007
     5  C   -0.000009  -0.000003  -0.051587  -0.045499  -0.040425
     6  C    0.406798   0.407186  -0.000069   0.000002   0.000001
     7  C    0.000004   0.000004   0.416612   0.403497   0.406831
     8  H    0.006916  -0.019915   0.000499  -0.000012  -0.000068
     9  H   -0.018527   0.007140  -0.000171   0.000007   0.000016
    10  H    0.001577   0.000654   0.002133  -0.000061  -0.000038
    11  H   -0.000612   0.000188  -0.015774   0.001307   0.001592
    12  H    0.000016   0.000039  -0.003674  -0.000600   0.000173
    13  H   -0.000038  -0.000049  -0.000420   0.000031   0.000038
    14  H   -0.000006  -0.000001   0.000099   0.000722  -0.000527
    15  H    0.000004   0.000003   0.000172  -0.000532  -0.000202
    16  H    0.000001  -0.000001   0.001577   0.008970  -0.016388
    17  H    0.000000  -0.000000   0.007539  -0.016192   0.001777
    18  H   -0.037234  -0.035035   0.000010   0.000001   0.000000
    19  H    0.615581  -0.033260   0.000002  -0.000000  -0.000000
    20  H   -0.033260   0.608660  -0.000003  -0.000000   0.000000
    21  H    0.000002  -0.000003   0.614560  -0.039956  -0.035508
    22  H   -0.000000  -0.000000  -0.039956   0.603992  -0.028934
    23  H   -0.000000   0.000000  -0.035508  -0.028934   0.598457
 Mulliken charges:
               1
     1  C   -0.278847
     2  C   -0.270432
     3  C   -0.273005
     4  C   -0.203279
     5  C   -0.201862
     6  C   -0.335169
     7  C   -0.364503
     8  H    0.116514
     9  H    0.118186
    10  H    0.129502
    11  H    0.145197
    12  H    0.135754
    13  H    0.142645
    14  H    0.129123
    15  H    0.133065
    16  H    0.110774
    17  H    0.120968
    18  H    0.100608
    19  H    0.099562
    20  H    0.105325
    21  H    0.123837
    22  H    0.110697
    23  H    0.105341
 Sum of Mulliken charges =  -0.00000
 Mulliken charges with hydrogens summed into heavy atoms:
               1
     1  C   -0.004148
     2  C    0.007967
     3  C   -0.010818
     4  C    0.031420
     5  C    0.029880
     6  C   -0.029673
     7  C   -0.024628
 APT charges:
               1
     1  C   -0.534171
     2  C   -0.715539
     3  C   -0.696253
     4  C   -0.343716
     5  C   -0.817263
     6  C   -1.498593
     7  C   -1.090531
     8  H    0.292237
     9  H    0.275980
    10  H    0.395131
    11  H    0.285664
    12  H    0.356005
    13  H    0.381059
    14  H    0.459739
    15  H    0.272320
    16  H    0.296260
    17  H    0.521892
    18  H    0.277177
    19  H    0.450716
    20  H    0.448084
    21  H    0.089333
    22  H    0.463695
    23  H    0.430775
 Sum of APT charges =  -0.00000
 APT charges with hydrogens summed into heavy atoms:
               1
     1  C    0.146624
     2  C    0.021524
     3  C    0.035805
     4  C    0.224501
     5  C    0.000889
     6  C   -0.322616
     7  C   -0.106727
 Electronic spatial extent (au):  <R**2>=           1178.3365
 Charge=             -0.0000 electrons
 Dipole moment (field-independent basis, Debye):
    X=              0.0096    Y=              0.0722    Z=             -0.0283  Tot=              0.0782
 Quadrupole moment (field-independent basis, Debye-Ang):
   XX=            -49.8776   YY=            -49.1325   ZZ=            -48.9912
   XY=              0.1804   XZ=              0.2221   YZ=              0.5562
 Traceless Quadrupole moment (field-independent basis, Debye-Ang):
   XX=             -0.5438   YY=              0.2013   ZZ=              0.3426
   XY=              0.1804   XZ=              0.2221   YZ=              0.5562
 Octapole moment (field-independent basis, Debye-Ang**2):
  XXX=              5.7737  YYY=              1.5891  ZZZ=             -0.1908  XYY=             -1.2695
  XXY=              3.0213  XXZ=              1.0780  XZZ=             -0.6947  YZZ=             -1.3603
  YYZ=             -1.0882  XYZ=              0.7467
 Hexadecapole moment (field-independent basis, Debye-Ang**3):
 XXXX=          -1234.8402 YYYY=           -266.7998 ZZZZ=           -198.8426 XXXY=              3.2118
 XXXZ=              6.1714 YYYX=              0.4533 YYYZ=              4.7206 ZZZX=             -0.3222
 ZZZY=              0.8657 XXYY=           -244.4009 XXZZ=           -235.2600 YYZZ=            -76.8276
 XXYZ=              3.9089 YYXZ=             -0.2480 ZZXY=              1.2316
 N-N= 3.286796949035D+02 E-N=-1.295823132698D+03  KE= 2.745443805606D+02
  Exact polarizability:   0.000   0.000   0.000   0.000   0.000   0.000
 Approx polarizability:  98.069  -0.893  97.579   0.136   0.415  97.934
 No NMR shielding tensors so no spin-rotation constants.
 Leave Link  601 at Sun Sep 29 08:57:46 2019, MaxMem=   671088640 cpu:              83.3 elap:              41.7
 (Enter /shared/centos7/gaussian/g16/l701.exe)
 SCFChk:  SCF convergence  6.63D-09 required  1.00D-08
 ... and contract with generalized density number  0.
 Compute integral second derivatives.
 Entering OneElI...
 Calculate overlap and kinetic energy integrals
    NBasis = 485  MinDer = 2  MaxDer = 2
 Requested accuracy = 0.1000D-12
 PrmmSu-InSpLW:  IPartL=    0 NPrtUS=   20 NPrtUL=    1 DoSpLW=F IThBeg=    0 IThEnd=   19 NThAct=   20.
 PrsmSu:  NPrtUS=  20 ThrOK=T IAlg=1 NPAlg=1 LenDen=           0 ISkipM=0 DoSpLW=F IThBeg=    0 IThEnd=   19.
 Prism:   IPart=     0 DynPar=F LinDyn=F Incr=           6.
 PRISM was handed    33201375 working-precision words and 13622 shell-pairs
 PRISM was handed    33201375 working-precision words and 13622 shell-pairs
 PRISM was handed    33201375 working-precision words and 13622 shell-pairs
 PRISM was handed    33201375 working-precision words and 13622 shell-pairs
 PRISM was handed    33201375 working-precision words and 13622 shell-pairs
 PRISM was handed    33201375 working-precision words and 13622 shell-pairs
 PRISM was handed    33201375 working-precision words and 13622 shell-pairs
 PRISM was handed    33201375 working-precision words and 13622 shell-pairs
 PRISM was handed    33201375 working-precision words and 13622 shell-pairs
 PRISM was handed    33201375 working-precision words and 13622 shell-pairs
 PRISM was handed    33201375 working-precision words and 13622 shell-pairs
 PRISM was handed    33201375 working-precision words and 13622 shell-pairs
 PRISM was handed    33201375 working-precision words and 13622 shell-pairs
 PRISM was handed    33201375 working-precision words and 13622 shell-pairs
 PRISM was handed    33201375 working-precision words and 13622 shell-pairs
 PRISM was handed    33201375 working-precision words and 13622 shell-pairs
 PRISM was handed    33201375 working-precision words and 13622 shell-pairs
 IPart=  2 NShTot=         710 NBatch=          76 AvBLen=         9.3
 PRISM was handed    33201375 working-precision words and 13622 shell-pairs
 PRISM was handed    33201375 working-precision words and 13622 shell-pairs
 IPart=  0 NShTot=         720 NBatch=          81 AvBLen=         8.9
 PRISM was handed    33201375 working-precision words and 13622 shell-pairs
 IPart=  1 NShTot=         720 NBatch=          81 AvBLen=         8.9
 IPart= 11 NShTot=         671 NBatch=          56 AvBLen=        12.0
 IPart=  4 NShTot=         702 NBatch=          71 AvBLen=         9.9
 IPart=  8 NShTot=         677 NBatch=          58 AvBLen=        11.7
 IPart=  9 NShTot=         676 NBatch=          57 AvBLen=        11.9
 IPart= 18 NShTot=         658 NBatch=          50 AvBLen=        13.2
 IPart= 14 NShTot=         665 NBatch=          52 AvBLen=        12.8
 IPart= 19 NShTot=         657 NBatch=          50 AvBLen=        13.1
 IPart= 12 NShTot=         666 NBatch=          53 AvBLen=        12.6
 IPart= 15 NShTot=         663 NBatch=          52 AvBLen=        12.8
 IPart= 13 NShTot=         665 NBatch=          52 AvBLen=        12.8
 IPart= 17 NShTot=         659 NBatch=          51 AvBLen=        12.9
 IPart=  6 NShTot=         693 NBatch=          65 AvBLen=        10.7
 IPart= 16 NShTot=         661 NBatch=          51 AvBLen=        13.0
 IPart=  7 NShTot=         683 NBatch=          59 AvBLen=        11.6
 IPart=  3 NShTot=         706 NBatch=          73 AvBLen=         9.7
 IPart= 10 NShTot=         673 NBatch=          56 AvBLen=        12.0
 IPart=  5 NShTot=         697 NBatch=          67 AvBLen=        10.4
 PrSmSu:  NxtVal=            121.
 Entering OneElI...
 Calculate potential energy integrals
    NBasis = 485  MinDer = 2  MaxDer = 2
 Requested accuracy = 0.1000D-12
 PrmmSu-InSpLW:  IPartL=    0 NPrtUS=   20 NPrtUL=    1 DoSpLW=F IThBeg=    0 IThEnd=   19 NThAct=   20.
 PrsmSu:  NPrtUS=  20 ThrOK=T IAlg=1 NPAlg=1 LenDen=           0 ISkipM=0 DoSpLW=F IThBeg=    0 IThEnd=   19.
 Prism:   IPart=     0 DynPar=F LinDyn=F Incr=         140.
 PRISM was handed    33265579 working-precision words and 12251 shell-pairs
 PRISM was handed    33265579 working-precision words and 12251 shell-pairs
 PRISM was handed    33265579 working-precision words and 12251 shell-pairs
 PRISM was handed    33265579 working-precision words and 12251 shell-pairs
 PRISM was handed    33265579 working-precision words and 12251 shell-pairs
 PRISM was handed    33265579 working-precision words and 12251 shell-pairs
 PRISM was handed    33265579 working-precision words and 12251 shell-pairs
 PRISM was handed    33265579 working-precision words and 12251 shell-pairs
 PRISM was handed    33265579 working-precision words and 12251 shell-pairs
 PRISM was handed    33265579 working-precision words and 12251 shell-pairs
 PRISM was handed    33265579 working-precision words and 12251 shell-pairs
 PRISM was handed    33265579 working-precision words and 12251 shell-pairs
 PRISM was handed    33265579 working-precision words and 12251 shell-pairs
 PRISM was handed    33265579 working-precision words and 12251 shell-pairs
 PRISM was handed    33265579 working-precision words and 12251 shell-pairs
 PRISM was handed    33265579 working-precision words and 12251 shell-pairs
 PRISM was handed    33265579 working-precision words and 12251 shell-pairs
 PRISM was handed    33265579 working-precision words and 12251 shell-pairs
 PRISM was handed    33265579 working-precision words and 12251 shell-pairs
 PRISM was handed    33265579 working-precision words and 12251 shell-pairs
 IPart=  8 NShTot=       14053 NBatch=         612 AvBLen=        23.0
 IPart= 14 NShTot=       13823 NBatch=         602 AvBLen=        23.0
 IPart=  1 NShTot=       14674 NBatch=         640 AvBLen=        22.9
 IPart= 17 NShTot=       13639 NBatch=         594 AvBLen=        23.0
 IPart=  2 NShTot=       14651 NBatch=         639 AvBLen=        22.9
 IPart=  4 NShTot=       14490 NBatch=         632 AvBLen=        22.9
 IPart=  3 NShTot=       14536 NBatch=         634 AvBLen=        22.9
 IPart= 18 NShTot=       13570 NBatch=         591 AvBLen=        23.0
 IPart= 12 NShTot=       13869 NBatch=         604 AvBLen=        23.0
 IPart=  6 NShTot=       14260 NBatch=         621 AvBLen=        23.0
 IPart=  5 NShTot=       14490 NBatch=         632 AvBLen=        22.9
 IPart=  9 NShTot=       14007 NBatch=         610 AvBLen=        23.0
 IPart= 10 NShTot=       14007 NBatch=         610 AvBLen=        23.0
 IPart= 15 NShTot=       13777 NBatch=         600 AvBLen=        23.0
 IPart= 16 NShTot=       13731 NBatch=         598 AvBLen=        23.0
 IPart=  7 NShTot=       14076 NBatch=         613 AvBLen=        23.0
 IPart= 11 NShTot=       13961 NBatch=         608 AvBLen=        23.0
 IPart= 13 NShTot=       13869 NBatch=         604 AvBLen=        23.0
 IPart=  0 NShTot=       14789 NBatch=         645 AvBLen=        22.9
 IPart= 19 NShTot=       13501 NBatch=         588 AvBLen=        23.0
 PrSmSu:  NxtVal=           2801.
 Polarizability after L701:
                1             2             3 
      1  0.000000D+00
      2  0.000000D+00  0.000000D+00
      3  0.000000D+00  0.000000D+00  0.000000D+00
 Dipole Derivatives after L701:
                 1             2             3             4             5 
      1  -0.293674D+00 -0.386133D+00  0.705802D+00 -0.471764D+00  0.360427D+00
      2   0.112977D+00 -0.738257D+00  0.839838D-01  0.406754D+00 -0.595244D+00
      3   0.445638D+00  0.311728D+00 -0.570582D+00 -0.255728D+00 -0.319375D+00
                 6             7             8             9            10 
      1  -0.317745D+00 -0.271252D+00 -0.868972D+00 -0.144501D+00  0.514681D+00
      2  -0.442815D+00 -0.109491D+00 -0.131741D+01  0.310811D+00  0.394570D-01
      3  -0.107961D+01 -0.422487D+00  0.154011D+00 -0.500098D+00  0.157949D+00
                11            12            13            14            15 
      1   0.578636D+00 -0.107755D+01 -0.146476D+01 -0.542229D+00  0.116030D+01
      2  -0.718220D+00 -0.133210D+00 -0.380125D+00 -0.425223D-01 -0.132230D+00
      3   0.244650D-01 -0.827610D+00  0.189038D+00 -0.157340D+00 -0.944504D+00
                16            17            18            19            20 
      1  -0.262343D+01 -0.315527D+00  0.354650D+00 -0.118318D+01  0.123235D+01
      2  -0.788677D-01 -0.984380D+00 -0.711445D-02  0.114365D+00 -0.125646D+01
      3  -0.208323D+00 -0.712079D-01 -0.887972D+00 -0.294681D-01 -0.189361D+00
                21            22            23            24            25 
      1  -0.763373D+00  0.429539D-01  0.255933D+00  0.431683D+00  0.946604D-01
      2   0.132858D+00 -0.476947D-01  0.279124D+00  0.198619D+00  0.334462D-01
      3  -0.831961D+00 -0.101868D+00  0.292817D+00  0.554632D+00 -0.285239D-01
                26            27            28            29            30 
      1  -0.528417D+00  0.203366D+00  0.427986D+00  0.140444D+00 -0.399454D+00
      2   0.531277D+00 -0.113415D+00  0.133326D+00  0.178667D+00 -0.177357D+00
      3  -0.256362D+00  0.202003D+00 -0.276275D+00 -0.126132D+00  0.578741D+00
                31            32            33            34            35 
      1   0.162398D+00  0.335629D-01  0.340670D-01  0.324564D+00 -0.104267D+00
      2  -0.330132D+00  0.537736D+00  0.155746D+00  0.742104D-01  0.107405D+00
      3   0.764947D-01 -0.492608D-01  0.156858D+00  0.382997D+00 -0.259502D+00
                36            37            38            39            40 
      1   0.223148D+00  0.240469D+00 -0.113161D+00 -0.581252D-01  0.478289D+00
      2   0.758313D-01 -0.295833D+00  0.638067D+00  0.157255D+00  0.368911D+00
      3   0.636045D+00 -0.257621D+00  0.369270D+00  0.264639D+00  0.266655D-01
                41            42            43            44            45 
      1   0.495473D+00  0.167974D+00  0.629805D-01  0.301111D-01 -0.133572D+00
      2   0.736880D+00  0.243110D+00 -0.300332D+00  0.265840D+00 -0.409247D+00
      3   0.824787D-01  0.164046D+00  0.218282D+00 -0.766655D-01  0.488138D+00
                46            47            48            49            50 
      1  -0.108931D-02 -0.205788D+00 -0.596390D+00  0.117608D+01  0.530578D+00
      2  -0.143284D-01  0.171704D+00  0.472257D-01  0.216559D+00  0.272137D+00
      3   0.150553D+00  0.170733D+00  0.718164D+00 -0.198243D+00 -0.104190D+00
                51            52            53            54            55 
      1   0.741799D-01  0.210138D+00  0.392202D+00 -0.101274D+01  0.881482D+00
      2   0.183445D-01  0.134130D-01  0.180645D+00 -0.261368D+00 -0.146548D+00
      3   0.117462D+00 -0.304930D-02 -0.143557D+00  0.440747D+00  0.376846D-01
                56            57            58            59            60 
      1  -0.111552D+01 -0.813601D-02  0.620681D+00  0.842214D+00  0.820153D+00
      2   0.387974D+00 -0.211275D-01  0.146704D+00  0.357737D+00  0.284707D+00
      3  -0.833360D-01  0.826913D-01  0.119835D+00  0.265871D+00  0.365833D+00
                61            62            63            64            65 
      1  -0.186881D+00 -0.111494D+00  0.192969D+00  0.947019D+00  0.141906D+00
      2   0.482476D+00  0.236452D+00 -0.243792D+00 -0.246296D+00  0.930936D-01
      3  -0.231586D+00 -0.463363D-01  0.218429D+00  0.273277D+00  0.319059D-01
                66            67            68            69 
      1   0.765871D+00  0.311646D+00 -0.742327D+00 -0.622574D+00
      2  -0.251254D+00 -0.192951D+00  0.677747D+00  0.484440D+00
      3   0.350974D+00 -0.652413D-01  0.179345D+00  0.302933D+00
 Hessian after L701:
                1             2             3             4             5 
      1  0.153113D+02
      2 -0.640489D+00  0.172591D+02
      3 -0.506463D+00 -0.147174D+00  0.178838D+02
      4 -0.454977D+01  0.178013D+01  0.635219D+00  0.153775D+02
      5  0.184230D+01 -0.434767D+01  0.758148D+00 -0.495349D+00  0.176491D+02
      6  0.623845D+00  0.748013D+00 -0.608776D+01  0.383980D+00 -0.387261D+00
      7  0.353749D+00  0.252518D+00 -0.115528D+00 -0.442001D+01  0.728308D+00
      8  0.256976D+00  0.116692D-01 -0.554079D-01  0.723263D+00 -0.587525D+01
      9 -0.991500D-01 -0.402103D-01 -0.492049D-01 -0.191017D+01 -0.796904D+00
     10 -0.433320D+01 -0.557603D+00  0.189925D+01  0.280171D+00  0.162392D-03
     11 -0.560147D+00 -0.590993D+01 -0.469887D+00  0.978232D-01 -0.153088D+00
     12  0.184734D+01 -0.462041D+00 -0.409352D+01  0.284421D+00 -0.196277D-01
     13  0.242445D+00  0.513406D-01 -0.196719D+00  0.211355D+00 -0.995656D-01
     14  0.921910D-01 -0.186085D+00 -0.462521D-01 -0.116242D+00 -0.189639D-01
     15 -0.172240D+00 -0.366729D-01 -0.119451D+00 -0.210211D+00  0.505618D-01
     16  0.296423D+00  0.303441D-01  0.405483D-02  0.213161D+00  0.895356D-01
     17 -0.607256D-01 -0.105948D+00 -0.356191D-01  0.120630D+00 -0.124476D+00
     18  0.142898D+00 -0.273737D-02 -0.556173D-01  0.137193D+00  0.286888D-01
     19  0.203128D+00 -0.174177D+00 -0.338906D-01  0.549149D-01 -0.219612D+00
     20 -0.920217D-02 -0.119732D+00  0.559890D-02 -0.193786D+00 -0.195669D-01
     21 -0.805728D-01  0.415463D-01 -0.121881D+00 -0.172275D+00  0.122624D+00
     22  0.719801D-01  0.557708D-02 -0.118612D+00 -0.119807D-01  0.203401D-01
     23  0.659230D-02  0.144284D+00  0.667679D-01  0.282675D-01 -0.130031D-01
     24 -0.798740D-01  0.958712D-01 -0.591101D-01  0.556231D-01  0.430166D-01
     25  0.102227D+00  0.140038D+00 -0.148551D+00  0.251911D-01  0.207545D-01
     26  0.108547D+00  0.117574D+00  0.158667D+00 -0.233684D-01 -0.371850D-01
     27 -0.117529D+00  0.163564D+00 -0.297022D-01  0.657312D-01  0.155757D-01
     28 -0.389239D+01  0.401074D+00 -0.104237D+01 -0.277137D-02 -0.122631D+00
     29  0.413507D+00 -0.420906D+01 -0.698084D+00 -0.122569D+00 -0.145632D-02
     30 -0.109722D+01 -0.705673D+00 -0.272644D+01  0.181092D-03  0.226918D-01
     31 -0.414372D+01 -0.110883D+01 -0.306764D+00  0.129771D+00 -0.163165D+00
     32 -0.129997D+01 -0.271159D+01  0.543469D+00 -0.119423D+00 -0.693553D-01
     33 -0.319482D+00  0.480274D+00 -0.461668D+01 -0.392558D-01 -0.658034D-01
     34 -0.212910D-01 -0.803186D-01 -0.108601D+00 -0.382409D+01 -0.440467D+00
     35 -0.104111D+00  0.126479D+00 -0.906545D-01 -0.410847D+00 -0.436541D+01
     36 -0.144495D+00 -0.877127D-01  0.569959D-01  0.124110D+01 -0.656980D+00
     37  0.963875D-01 -0.129798D+00 -0.430277D-01 -0.378322D+01 -0.101077D+01
     38 -0.106493D+00 -0.668497D-01 -0.612255D-02 -0.108445D+01 -0.276621D+01
     39 -0.389956D-01 -0.520869D-01  0.100848D+00 -0.483933D+00  0.743765D+00
     40  0.657554D-01  0.108947D+00 -0.107499D-01  0.986731D-02 -0.663765D-01
     41  0.130884D+00  0.663713D-01 -0.132073D-01 -0.679425D-01  0.619178D-01
     42 -0.842071D-02 -0.116361D-01 -0.512333D-01  0.814209D-01  0.869866D-01
     43 -0.388805D-02 -0.158572D-01  0.199657D-01  0.123125D+00 -0.337643D-01
     44  0.199496D-02 -0.113040D-01  0.140419D-01 -0.220043D-01  0.870303D-01
     45 -0.365258D-02  0.108246D-01 -0.277971D-02  0.607082D-01  0.373094D-01
     46  0.172607D-01 -0.363092D-02 -0.296031D-01 -0.512621D-02 -0.161193D-01
     47 -0.369499D-02 -0.184474D-01  0.131194D-02 -0.207540D-01 -0.273522D-01
     48 -0.552314D-01  0.106474D-01  0.234631D-01 -0.678238D-01  0.325302D-01
     49  0.111186D-01 -0.563070D-02 -0.441149D-03  0.126992D+00  0.184954D-02
     50  0.845206D-02 -0.963790D-02 -0.538920D-03  0.166287D-01 -0.444850D-01
[...]
 071780,-0.00028178,0.00028733,0.00550170,-0.00301884,-0.00344177,0.000
 21556,0.00025448,-0.00009932,0.00035326,-0.00007545,-0.00102306,0.0002
 7259,0.00025095,0.00012775,0.00000381,0.00000013,-0.00011972,0.0011947
 1,-0.00093913,-0.00096589,-0.00000544,0.00017206,0.00030062,0.00055322
 ,0.00068644,0.00080194,-0.00023215,0.00093263,0.00024893,-0.08007215,0
 .09235263,-0.00250691,-0.00210483,-0.00086111,0.01245205,-0.00593742,-
 0.00940972,0.10563738,-0.05214714,-0.12239696,0.00001851,-0.00015517,0
 .00046807,-0.01738608,0.00874040,0.01011397,-0.00016175,-0.00007937,-0
 .00008950,-0.00064375,-0.00038462,0.00181743,-0.00030138,-0.00007410,-
 0.00003385,-0.00002343,0.00008431,0.00002673,0.00074891,-0.00063085,-0
 .00042600,0.00005829,-0.00013796,0.00007760,-0.00026848,0.00016049,0.0
 0099034,0.00004822,0.00047098,-0.00024749,-0.11139204,0.05950820,0.133
 20900,-0.00006559,0.00064028,-0.00033674,-0.00501031,-0.00917750,0.006
 93165,-0.06912032,-0.05255697,0.05036811,-0.00011160,0.00018300,0.0004
 3005,0.00715378,0.01974955,-0.01873213,0.00001340,0.00014959,-0.000126
 69,-0.00443571,0.00015145,-0.00266526,-0.00056437,0.00082025,0.0008665
 9,-0.00007492,-0.00011392,-0.00019269,-0.00001993,-0.00007667,0.000037
 83,0.00004645,0.00002980,0.00004538,0.00005580,-0.00204151,-0.00194215
 ,0.00004472,0.00007065,0.00017446,-0.00739489,-0.01752444,0.01580192,0
 .07700037,-0.00041964,0.00040872,0.00107884,-0.00913301,-0.01998318,0.
 01698680,-0.05165014,-0.17673972,0.11842403,-0.00039572,-0.00026800,-0
 .00017229,-0.00165214,-0.00525519,0.00433841,0.00042337,0.00045649,-0.
 00004376,0.00172655,0.00118206,0.00056078,0.00107052,0.00020349,-0.000
 25358,-0.00003633,-0.00012102,-0.00027174,0.00008945,0.00022639,-0.000
 21985,-0.00002435,0.00001202,-0.00009696,-0.00166103,-0.00355356,-0.00
 325789,0.00013850,0.00119005,-0.00010931,0.00292172,0.00912630,-0.0080
 5587,0.05904527,0.19254034,0.00018827,0.00064246,0.00050621,-0.0060942
 2,-0.01311076,0.01183856,0.04917303,0.11933909,-0.15716213,0.00139746,
 -0.00005697,-0.00002612,0.00636348,0.01379845,-0.01400523,-0.00031307,
 -0.00018370,-0.00007750,-0.00444297,-0.00030534,-0.00172477,0.00055731
 ,-0.00094554,-0.00100397,-0.00017786,0.00027251,-0.00017029,-0.0001228
 0,0.00021100,0.00000726,0.00002465,-0.00007953,-0.00004904,-0.00117618
 ,-0.00367831,-0.00104372,0.00034820,0.00070188,0.00103252,0.00496278,0
 .01202449,-0.01203087,-0.05100861,-0.12900815,0.17328407,-0.00038286,0
 .00016643,-0.00023772,0.00031887,0.00063541,0.00109846,-0.02176205,0.0
 0871035,0.01305805,0.00021232,-0.00024627,-0.00009260,-0.20902930,0.05
 997349,0.10829980,0.00017607,0.00002803,0.00000041,-0.00560901,0.00141
 518,0.00408063,0.00016934,0.00027418,-0.00037843,0.00009564,0.00008009
 ,0.00025618,0.00042366,-0.00012539,0.00024614,0.00036106,-0.00091267,-
 0.00006977,0.00003447,0.00000765,-0.00006534,0.00021395,-0.00008852,-0
 .00011989,-0.00311137,0.00088643,-0.00380745,0.00093291,-0.00000169,-0
 .00003124,0.22861570,-0.00031023,-0.00018814,-0.00065047,-0.00068174,-
 0.00010642,0.00034167,0.00619412,-0.00306912,-0.00297811,0.00021424,0.
 00023976,0.00008039,0.06141021,-0.07079259,-0.04272735,-0.00015158,-0.
 00007843,-0.00002765,-0.02051273,0.00652546,0.01440270,-0.00002837,-0.
 00005995,0.00027133,-0.00007973,-0.00010614,0.00002569,-0.00009935,0.0
 0005413,0.00016243,-0.00065318,-0.00101230,-0.00091664,-0.00004301,0.0
 0002858,-0.00003802,0.00015639,-0.00000500,-0.00002417,0.00092507,0.00
 053297,0.00149982,0.00004700,-0.00003844,-0.00013138,-0.06761492,0.077
 97919,0.00006038,-0.00117846,-0.00038694,0.00061123,-0.00000077,0.0007
 3310,-0.01710716,0.00703284,0.01191805,-0.00037032,-0.00043110,-0.0003
 9091,0.10899989,-0.04175558,-0.12054125,0.00008831,0.00001657,0.000014
 47,0.01839602,-0.00594567,-0.01354908,0.00003863,0.00039803,-0.0004212
 6,0.00007596,0.00008522,0.00013829,-0.00003992,0.00018021,-0.00003515,
 -0.00056341,-0.00070335,-0.00083068,-0.00010069,-0.00002889,-0.0000561
 6,0.00024663,0.00017324,0.00008322,-0.00407231,0.00081003,-0.00203242,
 0.00094243,-0.00013280,0.00087560,-0.11861734,0.04299997,0.13443285,-0
 .00033319,0.00071432,0.00012447,-0.00345074,0.00335096,-0.00281283,-0.
 00872346,-0.02302632,-0.01404680,0.00004991,-0.00014044,-0.00002501,-0
 .06500332,-0.05670828,-0.02982312,0.00004215,0.00006130,-0.00003934,-0
 .00219037,-0.00664693,-0.00327162,0.00003559,0.00012522,-0.00004170,0.
 00000582,-0.00001182,0.00008236,0.00022784,-0.00012457,0.00008248,0.00
 029525,-0.00023503,0.00019161,0.00011272,0.00005846,0.00027288,-0.0006
 6429,-0.00131892,-0.00092946,0.00059232,-0.00044258,0.00087359,0.00104
 661,0.00031573,0.00041996,0.00702685,0.02217004,0.01201730,0.07021985,
 0.00022201,-0.00009259,0.00019516,0.00127698,0.00044229,0.00091521,0.0
 0282611,0.00674580,0.00436634,-0.00009344,0.00000957,-0.00000566,-0.05
 749287,-0.23401307,-0.10521590,-0.00000046,0.00001301,0.00000724,-0.00
 542941,-0.02128094,-0.00957514,-0.00001899,-0.00005739,0.00000711,0.00
 000669,0.00002142,-0.00005615,-0.00010698,0.00003867,-0.00006167,-0.00
 020104,0.00018156,0.00005224,0.00019895,0.00009461,0.00008084,0.000196
 17,0.00017851,0.00015680,-0.00057640,0.00038771,-0.00015255,-0.0004601
 0,0.00057867,-0.00048174,-0.00175655,-0.00857482,-0.00473579,0.0622450
 8,0.25584769,-0.00019105,0.00027785,0.00038386,-0.00288004,0.00239083,
 -0.00176310,-0.00514216,-0.01738285,-0.01076847,-0.00007152,-0.0000818
 9,0.00006340,-0.03066627,-0.10562455,-0.10502202,0.00000562,0.00005787
 ,-0.00001550,0.00610755,0.02274616,0.01055616,-0.00002287,-0.00009293,
 0.00005905,-0.00004295,-0.00001570,-0.00003596,-0.00005850,0.00000257,
 -0.00009749,0.00002037,0.00025554,-0.00003966,-0.00019820,-0.00010077,
 0.00003492,-0.00062157,-0.00102143,-0.00056827,0.00018439,0.00029487,0
 .00097342,0.00068125,-0.00007806,-0.00001564,-0.00441854,-0.01457537,-
 0.00893013,0.03626126,0.11058023,0.11623481,0.00074004,0.00014229,-0.0
 0166372,0.00014398,-0.00010789,0.00035908,0.00005569,0.00006880,-0.000
 07239,-0.01561432,0.00950445,-0.01211642,-0.00008805,-0.00000999,0.000
 03184,-0.16891190,0.07856272,-0.10596713,0.00003695,0.00001779,0.00002
 718,0.00096452,-0.00033369,0.00018464,-0.00156008,0.00233118,0.0031878
 7,-0.00014070,-0.00004535,-0.00001540,-0.00008337,-0.00035141,0.000894
 32,-0.00001677,-0.00000559,0.00009551,0.00026531,-0.00012540,-0.000058
 94,-0.00000709,-0.00003484,0.00002194,-0.00001392,-0.00009670,-0.00001
 900,-0.00001089,0.00006413,0.00002251,0.00002233,-0.00001608,-0.000007
 46,0.18348455,-0.00100772,0.00041696,0.00054450,-0.00020933,-0.0000241
 7,-0.00014980,0.00001329,-0.00003373,0.00006068,0.01354436,-0.00937715
 ,0.01104297,0.00015547,-0.00003425,-0.00006530,0.07855087,-0.09893458,
 0.06908019,-0.00005177,0.00003556,-0.00000428,-0.00052746,0.00012287,0
 .00051699,0.00228328,-0.00128416,-0.00270495,0.00000557,0.00000669,-0.
 00017784,0.00010508,0.00056239,-0.00042733,0.00000196,0.00001264,-0.00
 006048,-0.00016980,0.00001809,0.00007890,-0.00002199,0.00000073,-0.000
 04000,0.00002029,0.00005267,0.00002223,-0.00002851,0.00000769,0.000005
 22,-0.00002719,-0.00000200,-0.00000132,-0.09003331,0.10571437,0.000044
 08,-0.00063611,0.00165012,0.00013778,-0.00016889,0.00009602,-0.0000403
 4,-0.00000815,0.00001924,0.01434949,-0.00859683,0.01155097,0.00008907,
 -0.00002213,-0.00004832,-0.10663335,0.06950558,-0.13907185,-0.00002832
 ,0.00001043,0.00000614,-0.00070541,0.00060065,0.00091690,0.00329020,-0
 .00220924,-0.00154481,-0.00008921,0.00016009,-0.00004038,-0.00045362,0
 .00008016,-0.00010752,-0.00009042,0.00004590,-0.00000667,-0.00007545,0
 .00005972,-0.00013846,-0.00000561,0.00002222,0.00000488,0.00001870,0.0
 0001579,0.00002667,-0.00009353,0.00001559,0.00003427,-0.00001884,0.000
 01276,0.00002183,0.11464782,-0.07432781,0.14913426,0.00143622,0.001009
 47,-0.00043434,0.00010617,0.00023236,-0.00016749,-0.00005973,0.0001420
 3,0.00006809,0.01108982,0.01615065,0.01239273,-0.00005119,-0.00000723,
 0.00000893,-0.11315850,-0.09474056,-0.06744330,-0.00000168,0.00001353,
 0.00001394,-0.00222072,0.00262006,0.00324336,0.00111475,-0.00050786,-0
 .00072643,-0.00008177,-0.00040383,-0.00034910,-0.00006628,-0.00013446,
 -0.00000280,0.00002402,-0.00004625,-0.00006591,-0.00002172,0.00001046,
 -0.00000527,-0.00002159,-0.00005647,0.00007962,-0.00001353,-0.00014280
 ,0.00003775,-0.00003238,0.00003507,-0.00002479,-0.00000716,0.00000185,
 -0.00000201,-0.01120376,-0.01599564,-0.00965449,0.12138456,-0.00060675
 ,0.00058891,0.00122432,0.00016558,0.00013099,0.00015673,-0.00010573,-0
 .00016475,0.00014579,-0.00897694,-0.01443849,-0.00990325,-0.00001232,0
 .00004949,0.00003755,-0.09395588,-0.17973847,-0.09348152,0.00000740,-0
 .00002251,-0.00001769,0.00315477,-0.00096928,-0.00179208,-0.00018798,0
 .00017369,0.00058060,0.00036169,0.00071562,-0.00036784,0.00008408,0.00
 001792,0.00000780,0.00004033,0.00000814,-0.00002000,0.00003862,-0.0000
 5687,0.00000353,0.00004862,0.00008038,-0.00004318,-0.00000923,0.000145
 93,-0.00008136,0.00006650,-0.00004492,0.00002989,0.00001053,-0.0000067
 2,-0.00000877,0.00742661,0.01148732,0.00756201,0.10130067,0.19527213,-
 0.00163003,-0.00077617,0.00058400,0.00030472,0.00015989,0.00018009,-0.
 00011222,-0.00011551,0.00006529,-0.00894114,-0.01290829,-0.01024147,-0
 .00003793,0.00006022,0.00004571,-0.06665669,-0.09325124,-0.11408796,0.
 00001520,-0.00004385,-0.00002704,0.00298053,-0.00179182,-0.00111854,0.
 00017429,0.00058777,0.00079420,0.00071500,0.00056012,-0.00016437,0.000
 00161,-0.00001963,-0.00005735,0.00002624,0.00000865,-0.00002626,-0.000
 01319,-0.00001451,-0.00001123,0.00005783,0.00009814,-0.00002824,0.0000
 0991,0.00016859,-0.00004345,0.00004565,-0.00002977,0.00004235,0.000018
 71,-0.00000134,-0.00000367,-0.00903654,-0.01395130,-0.00995683,0.07115
 181,0.10576007,0.12191444,-0.00229673,0.00385337,0.00161122,0.00007093
 ,-0.00111043,0.00103794,-0.00014046,-0.00010637,-0.00000124,-0.0100881
 8,-0.01341449,0.01264145,-0.00002622,0.00003448,-0.00001842,-0.1086078
 1,-0.07515135,0.08431473,0.00001088,-0.00001358,-0.00000231,0.00089237
 ,0.00013449,-0.00038291,0.00012956,-0.00044170,-0.00065914,0.00025162,
 0.00040633,-0.00023741,0.00016454,-0.00013236,0.00029635,-0.00037087,0
 .00022281,0.00028131,0.00001343,-0.00001104,-0.00009228,0.00002356,0.0
 0008180,0.00004377,0.00004717,0.00003361,-0.00002167,-0.00001453,-0.00
 000517,-0.00000555,0.00002164,0.00001170,0.00003449,0.01195777,0.01339
 870,-0.01469293,-0.00821667,-0.00885581,0.01091905,0.11618174,0.001954
 22,-0.00230264,-0.00154002,0.00064686,0.00089098,-0.00077979,-0.000075
 05,0.00012705,0.00008659,0.00967893,0.01244833,-0.01404579,0.00001365,
 -0.00001511,-0.00000584,-0.07601414,-0.13891862,0.10406479,-0.00000463
 ,-0.00000022,-0.00000437,-0.00073106,0.00081346,0.00047845,-0.00061919
 ,0.00066286,0.00067287,0.00035010,0.00018222,0.00008853,-0.00007870,-0
 .00005733,-0.00019886,0.00028958,-0.00018238,-0.00021020,-0.00002951,0
 .00002308,0.00004470,-0.00000474,-0.00000255,0.00002861,-0.00002148,-0
 .00004851,0.00001508,-0.00001098,0.00000005,-0.00000174,-0.00001056,0.
 00000511,-0.00000350,-0.00692379,-0.00872421,0.00787082,-0.00944960,-0
 .01325837,0.01545439,0.08103391,0.14836033,0.00234502,-0.00378341,-0.0
 0109827,0.00039072,0.00120679,-0.00034382,0.00004220,0.00016699,0.0000
 5939,0.00692801,0.01102972,-0.01182569,-0.00000123,-0.00004091,0.00002
 228,0.08451035,0.10314619,-0.16361738,-0.00001214,0.00002544,0.0000050
 6,-0.00062177,0.00011218,0.00002747,-0.00011966,-0.00017454,0.00077806
 ,0.00005512,0.00016855,0.00014769,-0.00017414,-0.00022824,0.00042052,0
 .00034012,-0.00020970,-0.00024981,0.00009585,-0.00006361,-0.00001581,-
 0.00001856,-0.00005817,-0.00002755,-0.00003406,-0.00004375,0.00002982,
 0.00001972,0.00005665,0.00001621,-0.00000905,-0.00002665,-0.00005365,0
 .00946934,0.01055903,-0.01255466,-0.00813331,-0.00976791,0.01216057,-0
 .09506131,-0.11202414,0.17611471,0.00029375,-0.00031853,0.00020508,0.0
 0007577,0.00021323,-0.00057826,-0.00001889,0.00072184,0.00025575,-0.00
 017314,0.00012045,-0.00003388,-0.00251144,-0.00764949,-0.00327835,0.00
 001550,-0.00003607,0.00004207,-0.05474224,-0.03943707,-0.01990270,0.00
 001672,-0.00002552,-0.00000569,0.00002510,0.00003290,-0.00006409,-0.00
 006834,0.00004143,-0.00006573,-0.00014237,0.00006967,0.00027917,-0.000
 85806,0.00033714,-0.00103800,-0.00003132,0.00006079,0.00016579,0.00003
 599,0.00003196,-0.00001060,-0.00001042,-0.00015663,-0.00006070,0.00004
 777,-0.00002348,-0.00048941,0.00040662,-0.00121916,0.00147974,-0.00003
 006,0.00000846,0.00000351,-0.00000256,0.00000396,0.00000068,-0.0000168
 6,0.00001423,-0.00000051,0.05628946,0.00006545,0.00024088,0.00006637,-
 0.00029334,-0.00041336,0.00009990,-0.00052415,0.00005327,-0.00090824,-
 0.00017308,-0.00009259,-0.00015523,-0.00412098,-0.02076958,-0.00997281
 ,0.00005039,0.00008519,0.00000234,-0.03912785,-0.25484947,-0.10338222,
 0.00007243,0.00004739,-0.00002066,0.00005870,0.00003348,-0.00007846,-0
 .00009041,0.00004033,-0.00007522,-0.00016351,0.00021306,0.00032612,0.0
 0062616,0.00061073,-0.00013420,0.00015074,0.00037134,-0.00022421,-0.00
 002195,0.00002133,0.00006096,0.00008481,0.00020990,0.00015144,-0.00002
 846,0.00103755,-0.00014534,-0.00090619,-0.00197912,0.00406104,-0.00001
 314,-0.00001480,0.00000906,-0.00001400,0.00000967,0.00001837,0.0000247
 6,-0.00000279,-0.00003861,0.04529925,0.27826044,-0.00044172,0.00021479
 ,-0.00033011,-0.00109410,-0.00026280,-0.00051402,-0.00002970,-0.000460
 39,0.00101595,0.00023532,0.00008527,0.00005273,0.00429927,0.02167788,0
 .01196065,0.00000088,-0.00004419,0.00000999,-0.01966138,-0.10452338,-0
 .09847653,-0.00001829,-0.00002663,-0.00001941,-0.00002329,-0.00006590,
 0.00006082,0.00003045,-0.00002218,0.00006502,0.00051282,-0.00012505,-0
 .00020332,-0.00081851,0.00043964,-0.00122052,0.00015899,-0.00002845,0.
 00004791,-0.00004714,0.00003608,-0.00009055,0.00012124,-0.00024960,0.0
 0009403,-0.00015848,-0.00099559,0.00117897,0.00102185,0.00411366,-0.00
 299626,0.00000529,0.00000693,-0.00001148,0.00000438,0.00000510,-0.0000
 0214,-0.00002302,0.00000467,0.00002355,0.02177508,0.11188117,0.1067954
 6,0.00005069,0.00007801,-0.00012371,0.00022584,-0.00001244,0.00015632,
 0.00103977,0.00003694,-0.00114281,-0.00000381,-0.00006061,-0.00006456,
 -0.00674423,0.00152695,0.00406769,-0.00000232,0.00001218,-0.00001649,-
 0.22467374,0.05770181,0.10953728,0.00000440,0.00001691,-0.00004550,0.0
 0000703,0.00001989,0.00000752,0.00002344,0.00000447,0.00003679,-0.0000
 1315,-0.00004792,0.00000480,-0.00005852,-0.00002969,0.00029292,0.00000
 088,0.00002479,0.00008168,0.00050365,-0.00014663,0.00061740,0.00013353
 ,-0.00012055,-0.00011542,0.00090860,-0.00157122,0.00032866,-0.00012427
 ,-0.00025460,-0.00011222,0.00000652,-0.00001195,-0.00000424,0.00000610
 ,0.00000867,0.00000930,-0.00000341,-0.00000559,0.00000548,0.00537884,-
 0.00126309,-0.00377118,0.24261676,0.00012338,-0.00018431,0.00006498,0.
 00036158,0.00011581,-0.00006187,-0.00081802,0.00137725,-0.00075037,-0.
 00017549,-0.00002270,-0.00004593,-0.02053305,0.00649122,0.01351416,0.0
 0003966,0.00001623,0.00002011,0.05797533,-0.06586070,-0.03671223,0.000
 03865,0.00007357,-0.00004843,0.00004572,0.00005955,-0.00001574,0.00001
 733,0.00000742,-0.00004487,-0.00018334,0.00002650,0.00011880,-0.000018
 34,-0.00017282,0.00004253,-0.00003660,0.00003916,0.00003154,0.00055195
 ,-0.00012142,-0.00037445,-0.00011001,-0.00003857,-0.00037022,-0.001097
 39,-0.00311240,0.00385710,-0.00002390,0.00087543,-0.00089186,-0.000015
 03,-0.00001233,-0.00000371,-0.00000880,0.00001100,0.00001599,-0.000000
 37,0.00000494,-0.00000809,0.02455753,-0.00721999,-0.01345320,-0.062456
 02,0.06964336,0.00028107,-0.00008411,0.00015165,0.00007615,0.00003397,
 -0.00016773,0.00112975,-0.00120781,0.00091883,-0.00010635,0.00019383,-
 0.00002394,0.01881525,-0.00596345,-0.01328289,-0.00003993,-0.00002698,
 0.00001666,0.10925202,-0.03646011,-0.11498156,-0.00002921,-0.00010144,
 0.00004842,-0.00000657,-0.00001413,-0.00010497,-0.00008171,0.00002513,
 -0.00003663,-0.00013463,0.00019665,0.00010590,-0.00008729,-0.00031928,
 -0.00014645,-0.00010477,-0.00005038,0.00002950,-0.00076128,0.00046472,
 -0.00011498,-0.00020535,0.00002670,0.00043048,0.00083421,0.00398529,-0
 .00240856,-0.00047303,-0.00004442,0.00082527,-0.00001183,0.00001812,0.
 00001304,0.00000117,-0.00001430,-0.00001570,-0.00000539,0.00000742,0.0
 0000271,0.01176633,-0.00332376,-0.00782900,-0.12264630,0.03657445,0.12
 452736,-0.00001475,0.00010278,-0.00003175,-0.00011591,-0.00018249,0.00
 016442,0.00007967,-0.00109114,0.00100002,0.00003910,-0.00005794,-0.000
 01198,0.00744388,-0.00113084,0.00712725,-0.00000084,0.00002908,-0.0000
 1384,-0.20160844,0.02267455,-0.13234492,-0.00000218,-0.00000774,0.0000
 0426,-0.00000395,-0.00000043,-0.00000169,-0.00000579,-0.00001306,-0.00
 001528,-0.00002009,0.00001400,-0.00000675,0.00016248,0.00024721,0.0000
 2149,0.00004194,0.00008968,-0.00007996,0.00027208,-0.00029295,0.000100
 27,0.00036078,-0.00027400,0.00011086,0.00041516,0.00055844,-0.00043708
 ,0.00039129,0.00064054,-0.00033932,0.00000323,-0.00000267,0.00000510,-
 0.00000239,-0.00000739,-0.00000279,0.00001652,-0.00000242,-0.00001619,
 -0.00397981,0.00030748,-0.00207873,-0.01928260,0.00176521,-0.01746230,
 0.21581062,0.00009470,0.00008856,0.00003810,-0.00068200,-0.00056261,-0
 .00013932,-0.00282023,-0.00349386,0.00319600,-0.00006973,-0.00004205,-
 0.00003368,0.01963368,-0.00334697,0.01502161,0.00002256,0.00003813,-0.
 00000872,0.02187440,-0.04932358,0.01787216,0.00007084,0.00002776,-0.00
 000485,0.00001385,0.00000924,-0.00003796,-0.00004152,0.00004788,0.0000
 2937,-0.00014565,0.00002647,0.00002689,0.00035306,0.00035065,-0.000344
 85,0.00013830,0.00025496,-0.00013450,-0.00031005,0.00012685,-0.0002362
 4,0.00109989,-0.00028688,0.00125435,-0.00033238,0.00078330,-0.00052884
 ,0.00057109,0.00058661,-0.00078795,-0.00000576,0.00000344,0.00000210,-
 0.00000866,0.00000918,0.00001121,0.00000673,-0.00000568,-0.00000379,-0
 .02264691,0.00410713,-0.01820782,0.00654971,-0.00199620,0.00608388,-0.
 02336591,0.05259766,-0.00007974,0.00006004,0.00003883,0.00024318,0.000
 28600,0.00041900,0.00289733,0.00313659,-0.00209552,-0.00002238,-0.0000
 1741,-0.00001831,-0.01717103,0.00128881,-0.01403071,-0.00003371,0.0000
 3856,-0.00001287,-0.13168832,0.01838430,-0.15975513,-0.00004537,0.0000
 1993,0.00001089,0.00003463,0.00000173,0.00000471,0.00002184,-0.0000409
 6,-0.00005365,-0.00006408,0.00003643,0.00002480,0.00015884,-0.00003918
 ,0.00000741,-0.00001471,0.00000005,-0.00006822,-0.00013848,0.00011622,
 0.00010780,-0.00118585,0.00039367,-0.00077251,0.00015108,-0.00074700,0
 .00011518,0.00012430,-0.00013058,0.00115709,0.00002149,-0.00002537,0.0
 0000664,0.00000747,-0.00001548,-0.00000242,0.00002326,-0.00000266,-0.0
 0002140,-0.01044527,0.00178219,-0.00961172,0.01289659,-0.00145870,0.01
 204258,0.14430893,-0.02306717,0.17250754\\-0.00000118,0.00000044,-0.00
 000020,-0.00000002,0.00000124,0.00000085,0.00000151,0.00000061,0.00000
 088,-0.00000103,0.00000057,-0.00000006,0.00000180,-0.00000097,0.000000
 24,-0.00000214,-0.00000025,-0.00000127,0.00000142,-0.00000093,0.000000
 06,-0.00000011,-0.00000027,-0.00000030,-0.00000110,0.00000109,0.000000
 46,-0.00000221,0.00000120,-0.00000015,-0.00000113,-0.00000031,-0.00000
 076,-0.00000023,0.00000127,0.00000092,-0.00000017,0.00000209,0.0000014
 5,0.00000220,0.00000087,0.00000165,0.00000168,0.00000043,0.00000107,0.
 00000113,-0.00000143,-0.00000047,0.00000288,-0.00000142,0.00000029,-0.
 00000232,-0.00000104,-0.00000185,-0.00000326,0.00000047,-0.00000117,-0
 .00000220,-0.00000037,-0.00000119,0.00000047,-0.00000076,-0.00000038,0
 .00000215,-0.00000052,0.00000054,0.00000186,-0.00000201,-0.00000063\\\
 @


 A DANDELION FROM A LOVER MEANS MORE THAN AN ORCHID FROM A FRIEND.
 Job cpu time:       0 days  5 hours 32 minutes 54.4 seconds.
 Elapsed time:       0 days  2 hours 46 minutes 28.8 seconds.
 File lengths (MBytes):  RWF=   1488 Int=      0 D2E=      0 Chk=     32 Scr=     32
 Normal termination of Gaussian 16 at Sun Sep 29 12:49:22 2019.
