 Entering Gaussian System, Link 0=g16
 Input=verytight/species/CCCCCCC/conformers/CCCCCCC_124.com
 Output=verytight/species/CCCCCCC/conformers/CCCCCCC_124.log
 Initial command:
 /shared/centos7/gaussian/g16/l1.exe "/scratch/harms.n/gauss_scrdir/Gau-17453.inp" -scrdir="/scratch/harms.n/gauss_scrdir/"
 Entering Link 1 = /shared/centos7/gaussian/g16/l1.exe PID=     17454.
  
 Copyright (c) 1988,1990,1992,1993,1995,1998,2003,2009,2016,
            Gaussian, Inc.  All Rights Reserved.
  
 This is part of the Gaussian(R) 16 program.  It is based on
 the Gaussian(R) 09 system (copyright 2009, Gaussian, Inc.),
 the Gaussian(R) 03 system (copyright 2003, Gaussian, Inc.),
 the Gaussian(R) 98 system (copyright 1998, Gaussian, Inc.),
 the Gaussian(R) 94 system (copyright 1995, Gaussian, Inc.),
 the Gaussian 92(TM) system (copyright 1992, Gaussian, Inc.),
 the Gaussian 90(TM) system (copyright 1990, Gaussian, Inc.),
 the Gaussian 88(TM) system (copyright 1988, Gaussian, Inc.),
 the Gaussian 86(TM) system (copyright 1986, Carnegie Mellon
 University), and the Gaussian 82(TM) system (copyright 1983,
 Carnegie Mellon University). Gaussian is a federally registered
 trademark of Gaussian, Inc.
  
 This software contains proprietary and confidential information,
 including trade secrets, belonging to Gaussian, Inc.
  
 This software is provided under written license and may be
 used, copied, transmitted, or stored only in accord with that
 written license.
  
 The following legend is applicable only to US Government
 contracts under FAR:
  
                    RESTRICTED RIGHTS LEGEND
  
 Use, reproduction and disclosure by the US Government is
 subject to restrictions as set forth in subparagraphs (a)
 and (c) of the Commercial Computer Software - Restricted
 Rights clause in FAR 52.227-19.
  
 Gaussian, Inc.
 340 Quinnipiac St., Bldg. 40, Wallingford CT 06492
  
  
 ---------------------------------------------------------------
 Warning -- This program may not be used in any manner that
 competes with the business of Gaussian, Inc. or will provide
 assistance to any competitor of Gaussian, Inc.  The licensee
 of this program is prohibited from giving any competitor of
 Gaussian, Inc. access to this program.  By using this program,
 the user acknowledges that Gaussian, Inc. is engaged in the
 business of creating and licensing software in the field of
 computational chemistry and represents and warrants to the
 licensee that it is not a competitor of Gaussian, Inc. and that
 it will not use this program in any manner prohibited above.
 ---------------------------------------------------------------
  

 Cite this work as:
 Gaussian 16, Revision A.03,
 M. J. Frisch, G. W. Trucks, H. B. Schlegel, G. E. Scuseria, 
 M. A. Robb, J. R. Cheeseman, G. Scalmani, V. Barone, 
 G. A. Petersson, H. Nakatsuji, X. Li, M. Caricato, A. V. Marenich, 
 J. Bloino, B. G. Janesko, R. Gomperts, B. Mennucci, H. P. Hratchian, 
 J. V. Ortiz, A. F. Izmaylov, J. L. Sonnenberg, D. Williams-Young, 
 F. Ding, F. Lipparini, F. Egidi, J. Goings, B. Peng, A. Petrone, 
 T. Henderson, D. Ranasinghe, V. G. Zakrzewski, J. Gao, N. Rega, 
 G. Zheng, W. Liang, M. Hada, M. Ehara, K. Toyota, R. Fukuda, 
 J. Hasegawa, M. Ishida, T. Nakajima, Y. Honda, O. Kitao, H. Nakai, 
 T. Vreven, K. Throssell, J. A. Montgomery, Jr., J. E. Peralta, 
 F. Ogliaro, M. J. Bearpark, J. J. Heyd, E. N. Brothers, K. N. Kudin, 
 V. N. Staroverov, T. A. Keith, R. Kobayashi, J. Normand, 
 K. Raghavachari, A. P. Rendell, J. C. Burant, S. S. Iyengar, 
 J. Tomasi, M. Cossi, J. M. Millam, M. Klene, C. Adamo, R. Cammi, 
 J. W. Ochterski, R. L. Martin, K. Morokuma, O. Farkas, 
 J. B. Foresman, and D. J. Fox, Gaussian, Inc., Wallingford CT, 2016.
 
 ******************************************
 Gaussian 16:  EM64L-G16RevA.03 25-Dec-2016
                29-Sep-2019 
 ******************************************
 %nprocshared=20
 Will use up to   20 processors via shared memory.
 %mem=5GB
 ----------------------------------------------------------------------
 #p m062x/cc-pVTZ opt=(calcfc,maxcycles=900,Tight) freq IOP(7/33=1,2/16
 =3) scf=(maxcycle=900)
 ----------------------------------------------------------------------
 1/6=900,7=10,10=4,18=20,19=15,26=3,38=1/1,3;
 2/9=110,12=2,16=3,17=6,18=5,40=1/2;
 3/5=16,6=1,11=2,25=1,30=1,71=2,74=-55,140=1/1,2,3;
 4//1;
 5/5=2,7=900,38=5/2;
 8/6=4,10=90,11=11/1;
 11/6=1,8=1,9=11,15=111,16=1/1,2,10;
 10/6=1,13=1/2;
 6/7=2,8=2,9=2,10=2,28=1/1;
 7/10=1,18=20,25=1,33=1/1,2,3,16;
 1/6=900,7=10,10=4,18=20,19=15,26=3/3(2);
 2/9=110,16=3/2;
 99//99;
 2/9=110,16=3/2;
 3/5=16,6=1,11=2,25=1,30=1,71=1,74=-55/1,2,3;
 4/5=5,16=3,69=1/1;
 5/5=2,7=900,38=5/2;
 7/33=1/1,2,3,16;
 1/6=900,7=10,18=20,19=15,26=3/3(-5);
 2/9=110,16=3/2;
 6/7=2,8=2,9=2,10=2,19=2,28=1/1;
 99/9=1/99;
 Leave Link    1 at Sun Sep 29 12:49:17 2019, MaxMem=   671088640 cpu:               4.3 elap:               2.2
 (Enter /shared/centos7/gaussian/g16/l101.exe)
 ------------------------------
 Gaussian input prepared by ASE
 ------------------------------
 Symbolic Z-matrix:
 Charge =  0 Multiplicity = 1
 C                     0.89607  -1.33834   0.13514 
 C                     0.02892  -0.42933   0.93746 
 C                     0.73812   0.18367   2.11909 
 C                     2.12248  -0.67702  -0.39741 
 C                     0.02942   1.38719   2.69441 
 C                     1.86601   0.32933  -1.44196 
 C                    -0.18954   2.49131   1.69296 
 H                     2.82131  -1.46365  -0.79988 
 H                     2.65993  -0.19255   0.45241 
 H                     0.30296  -1.76219  -0.70281 
 H                     1.1985   -2.20305   0.7608 
 H                    -0.85613  -0.98357   1.28701 
 H                    -0.35401   0.38653   0.28862 
 H                     1.75877   0.46829   1.81184 
 H                     0.85565  -0.57954   2.91586 
 H                    -0.96339   1.06882   3.10731 
 H                     0.61026   1.77598   3.54807 
 H                     1.22837   1.14997  -1.06271 
 H                     2.83323   0.7881   -1.80467 
 H                     1.35566  -0.1162   -2.32204 
 H                    -0.64865   2.10195   0.78345 
 H                     0.78482   2.97827   1.41129 
 H                    -0.86255   3.28967   2.11907 
 
 ITRead=  0  0  0  0  0  0  0  0  0  0  0  0  0  0  0  0  0  0  0  0
 ITRead=  0  0  0
 MicOpt= -1 -1 -1 -1 -1 -1 -1 -1 -1 -1 -1 -1 -1 -1 -1 -1 -1 -1 -1 -1
 MicOpt= -1 -1 -1
 NAtoms=     23 NQM=       23 NQMF=       0 NMMI=      0 NMMIF=      0
                NMic=       0 NMicF=      0.
                    Isotopes and Nuclear Properties:
 (Nuclear quadrupole moments (NQMom) in fm**2, nuclear magnetic moments (NMagM)
  in nuclear magnetons)

  Atom         1           2           3           4           5           6           7           8           9          10
 IAtWgt=          12          12          12          12          12          12          12           1           1           1
 AtmWgt=  12.0000000  12.0000000  12.0000000  12.0000000  12.0000000  12.0000000  12.0000000   1.0078250   1.0078250   1.0078250
 NucSpn=           0           0           0           0           0           0           0           1           1           1
 AtZEff=  -0.0000000  -0.0000000  -0.0000000  -0.0000000  -0.0000000  -0.0000000  -0.0000000  -0.0000000  -0.0000000  -0.0000000
 NQMom=    0.0000000   0.0000000   0.0000000   0.0000000   0.0000000   0.0000000   0.0000000   0.0000000   0.0000000   0.0000000
 NMagM=    0.0000000   0.0000000   0.0000000   0.0000000   0.0000000   0.0000000   0.0000000   2.7928460   2.7928460   2.7928460
 AtZNuc=   6.0000000   6.0000000   6.0000000   6.0000000   6.0000000   6.0000000   6.0000000   1.0000000   1.0000000   1.0000000

  Atom        11          12          13          14          15          16          17          18          19          20
 IAtWgt=           1           1           1           1           1           1           1           1           1           1
 AtmWgt=   1.0078250   1.0078250   1.0078250   1.0078250   1.0078250   1.0078250   1.0078250   1.0078250   1.0078250   1.0078250
 NucSpn=           1           1           1           1           1           1           1           1           1           1
 AtZEff=  -0.0000000  -0.0000000  -0.0000000  -0.0000000  -0.0000000  -0.0000000  -0.0000000  -0.0000000  -0.0000000  -0.0000000
 NQMom=    0.0000000   0.0000000   0.0000000   0.0000000   0.0000000   0.0000000   0.0000000   0.0000000   0.0000000   0.0000000
 NMagM=    2.7928460   2.7928460   2.7928460   2.7928460   2.7928460   2.7928460   2.7928460   2.7928460   2.7928460   2.7928460
 AtZNuc=   1.0000000   1.0000000   1.0000000   1.0000000   1.0000000   1.0000000   1.0000000   1.0000000   1.0000000   1.0000000

  Atom        21          22          23
 IAtWgt=           1           1           1
 AtmWgt=   1.0078250   1.0078250   1.0078250
 NucSpn=           1           1           1
 AtZEff=  -0.0000000  -0.0000000  -0.0000000
 NQMom=    0.0000000   0.0000000   0.0000000
 NMagM=    2.7928460   2.7928460   2.7928460
 AtZNuc=   1.0000000   1.0000000   1.0000000
 Leave Link  101 at Sun Sep 29 12:49:18 2019, MaxMem=   671088640 cpu:               2.0 elap:               1.0
 (Enter /shared/centos7/gaussian/g16/l103.exe)

 GradGradGradGradGradGradGradGradGradGradGradGradGradGradGradGradGradGrad
 Berny optimization.
 Initialization pass.
                           ----------------------------
                           !    Initial Parameters    !
                           ! (Angstroms and Degrees)  !
 --------------------------                            --------------------------
 ! Name  Definition              Value          Derivative Info.                !
 --------------------------------------------------------------------------------
 ! R1    R(1,2)                  1.4906         calculate D2E/DX2 analytically  !
 ! R2    R(1,4)                  1.4917         calculate D2E/DX2 analytically  !
 ! R3    R(1,10)                 1.1107         calculate D2E/DX2 analytically  !
 ! R4    R(1,11)                 1.1093         calculate D2E/DX2 analytically  !
 ! R5    R(2,3)                  1.5083         calculate D2E/DX2 analytically  !
 ! R6    R(2,12)                 1.1012         calculate D2E/DX2 analytically  !
 ! R7    R(2,13)                 1.1105         calculate D2E/DX2 analytically  !
 ! R8    R(3,5)                  1.5105         calculate D2E/DX2 analytically  !
 ! R9    R(3,14)                 1.1032         calculate D2E/DX2 analytically  !
 ! R10   R(3,15)                 1.1096         calculate D2E/DX2 analytically  !
 ! R11   R(4,6)                  1.473          calculate D2E/DX2 analytically  !
 ! R12   R(4,8)                  1.1266         calculate D2E/DX2 analytically  !
 ! R13   R(4,9)                  1.1161         calculate D2E/DX2 analytically  !
 ! R14   R(5,7)                  1.5066         calculate D2E/DX2 analytically  !
 ! R15   R(5,16)                 1.1214         calculate D2E/DX2 analytically  !
 ! R16   R(5,17)                 1.1033         calculate D2E/DX2 analytically  !
 ! R17   R(6,18)                 1.1063         calculate D2E/DX2 analytically  !
 ! R18   R(6,19)                 1.1303         calculate D2E/DX2 analytically  !
 ! R19   R(6,20)                 1.1106         calculate D2E/DX2 analytically  !
 ! R20   R(7,21)                 1.0907         calculate D2E/DX2 analytically  !
 ! R21   R(7,22)                 1.1251         calculate D2E/DX2 analytically  !
 ! R22   R(7,23)                 1.1278         calculate D2E/DX2 analytically  !
 ! A1    A(2,1,4)              113.5842         calculate D2E/DX2 analytically  !
 ! A2    A(2,1,10)             109.1561         calculate D2E/DX2 analytically  !
 ! A3    A(2,1,11)             109.291          calculate D2E/DX2 analytically  !
 ! A4    A(4,1,10)             109.809          calculate D2E/DX2 analytically  !
 ! A5    A(4,1,11)             108.8321         calculate D2E/DX2 analytically  !
 ! A6    A(10,1,11)            105.8801         calculate D2E/DX2 analytically  !
 ! A7    A(1,2,3)              113.3268         calculate D2E/DX2 analytically  !
 ! A8    A(1,2,12)             109.3582         calculate D2E/DX2 analytically  !
 ! A9    A(1,2,13)             109.5196         calculate D2E/DX2 analytically  !
 ! A10   A(3,2,12)             109.4982         calculate D2E/DX2 analytically  !
 ! A11   A(3,2,13)             108.74           calculate D2E/DX2 analytically  !
 ! A12   A(12,2,13)            106.1456         calculate D2E/DX2 analytically  !
 ! A13   A(2,3,5)              113.6777         calculate D2E/DX2 analytically  !
 ! A14   A(2,3,14)             108.764          calculate D2E/DX2 analytically  !
 ! A15   A(2,3,15)             109.4399         calculate D2E/DX2 analytically  !
 ! A16   A(5,3,14)             109.5464         calculate D2E/DX2 analytically  !
 ! A17   A(5,3,15)             108.9188         calculate D2E/DX2 analytically  !
 ! A18   A(14,3,15)            106.2275         calculate D2E/DX2 analytically  !
 ! A19   A(1,4,6)              114.3891         calculate D2E/DX2 analytically  !
 ! A20   A(1,4,8)              109.147          calculate D2E/DX2 analytically  !
 ! A21   A(1,4,9)              108.4518         calculate D2E/DX2 analytically  !
 ! A22   A(6,4,8)              109.3734         calculate D2E/DX2 analytically  !
 ! A23   A(6,4,9)              109.101          calculate D2E/DX2 analytically  !
 ! A24   A(8,4,9)              106.0451         calculate D2E/DX2 analytically  !
 ! A25   A(3,5,7)              113.5105         calculate D2E/DX2 analytically  !
 ! A26   A(3,5,16)             109.2335         calculate D2E/DX2 analytically  !
 ! A27   A(3,5,17)             109.1756         calculate D2E/DX2 analytically  !
 ! A28   A(7,5,16)             108.9125         calculate D2E/DX2 analytically  !
 ! A29   A(7,5,17)             109.4244         calculate D2E/DX2 analytically  !
 ! A30   A(16,5,17)            106.3346         calculate D2E/DX2 analytically  !
 ! A31   A(4,6,18)             111.3497         calculate D2E/DX2 analytically  !
 ! A32   A(4,6,19)             110.8476         calculate D2E/DX2 analytically  !
 ! A33   A(4,6,20)             111.5854         calculate D2E/DX2 analytically  !
 ! A34   A(18,6,19)            107.5864         calculate D2E/DX2 analytically  !
 ! A35   A(18,6,20)            107.7199         calculate D2E/DX2 analytically  !
 ! A36   A(19,6,20)            107.5632         calculate D2E/DX2 analytically  !
 ! A37   A(5,7,21)             110.7229         calculate D2E/DX2 analytically  !
 ! A38   A(5,7,22)             110.9608         calculate D2E/DX2 analytically  !
 ! A39   A(5,7,23)             110.7553         calculate D2E/DX2 analytically  !
 ! A40   A(21,7,22)            108.0758         calculate D2E/DX2 analytically  !
 ! A41   A(21,7,23)            108.4568         calculate D2E/DX2 analytically  !
 ! A42   A(22,7,23)            107.7579         calculate D2E/DX2 analytically  !
 ! D1    D(4,1,2,3)            -58.0366         calculate D2E/DX2 analytically  !
 ! D2    D(4,1,2,12)           179.4991         calculate D2E/DX2 analytically  !
 ! D3    D(4,1,2,13)            63.5696         calculate D2E/DX2 analytically  !
 ! D4    D(10,1,2,3)           179.0686         calculate D2E/DX2 analytically  !
 ! D5    D(10,1,2,12)           56.6043         calculate D2E/DX2 analytically  !
 ! D6    D(10,1,2,13)          -59.3252         calculate D2E/DX2 analytically  !
 ! D7    D(11,1,2,3)            63.6972         calculate D2E/DX2 analytically  !
 ! D8    D(11,1,2,12)          -58.7671         calculate D2E/DX2 analytically  !
 ! D9    D(11,1,2,13)         -174.6966         calculate D2E/DX2 analytically  !
 ! D10   D(2,1,4,6)            -68.8298         calculate D2E/DX2 analytically  !
 ! D11   D(2,1,4,8)            168.2841         calculate D2E/DX2 analytically  !
 ! D12   D(2,1,4,9)             53.1789         calculate D2E/DX2 analytically  !
 ! D13   D(10,1,4,6)            53.7055         calculate D2E/DX2 analytically  !
 ! D14   D(10,1,4,8)           -69.1806         calculate D2E/DX2 analytically  !
 ! D15   D(10,1,4,9)           175.7142         calculate D2E/DX2 analytically  !
 ! D16   D(11,1,4,6)           169.1814         calculate D2E/DX2 analytically  !
 ! D17   D(11,1,4,8)            46.2953         calculate D2E/DX2 analytically  !
 ! D18   D(11,1,4,9)           -68.8099         calculate D2E/DX2 analytically  !
 ! D19   D(1,2,3,5)            163.1343         calculate D2E/DX2 analytically  !
 ! D20   D(1,2,3,14)            40.8039         calculate D2E/DX2 analytically  !
 ! D21   D(1,2,3,15)           -74.8467         calculate D2E/DX2 analytically  !
 ! D22   D(12,2,3,5)           -74.4791         calculate D2E/DX2 analytically  !
 ! D23   D(12,2,3,14)          163.1905         calculate D2E/DX2 analytically  !
 ! D24   D(12,2,3,15)           47.5398         calculate D2E/DX2 analytically  !
 ! D25   D(13,2,3,5)            41.0924         calculate D2E/DX2 analytically  !
 ! D26   D(13,2,3,14)          -81.238          calculate D2E/DX2 analytically  !
 ! D27   D(13,2,3,15)          163.1113         calculate D2E/DX2 analytically  !
 ! D28   D(2,3,5,7)            -57.4831         calculate D2E/DX2 analytically  !
 ! D29   D(2,3,5,16)            64.262          calculate D2E/DX2 analytically  !
 ! D30   D(2,3,5,17)          -179.8445         calculate D2E/DX2 analytically  !
 ! D31   D(14,3,5,7)            64.4143         calculate D2E/DX2 analytically  !
 ! D32   D(14,3,5,16)         -173.8406         calculate D2E/DX2 analytically  !
 ! D33   D(14,3,5,17)          -57.9471         calculate D2E/DX2 analytically  !
 ! D34   D(15,3,5,7)          -179.7902         calculate D2E/DX2 analytically  !
 ! D35   D(15,3,5,16)          -58.0451         calculate D2E/DX2 analytically  !
 ! D36   D(15,3,5,17)           57.8484         calculate D2E/DX2 analytically  !
 ! D37   D(1,4,6,18)            60.4977         calculate D2E/DX2 analytically  !
 ! D38   D(1,4,6,19)          -179.7675         calculate D2E/DX2 analytically  !
 ! D39   D(1,4,6,20)           -59.9055         calculate D2E/DX2 analytically  !
 ! D40   D(8,4,6,18)          -176.7388         calculate D2E/DX2 analytically  !
 ! D41   D(8,4,6,19)           -57.004          calculate D2E/DX2 analytically  !
 ! D42   D(8,4,6,20)            62.858          calculate D2E/DX2 analytically  !
 ! D43   D(9,4,6,18)           -61.1555         calculate D2E/DX2 analytically  !
 ! D44   D(9,4,6,19)            58.5794         calculate D2E/DX2 analytically  !
 ! D45   D(9,4,6,20)           178.4414         calculate D2E/DX2 analytically  !
 ! D46   D(3,5,7,21)            50.4858         calculate D2E/DX2 analytically  !
 ! D47   D(3,5,7,22)           -69.5257         calculate D2E/DX2 analytically  !
 ! D48   D(3,5,7,23)           170.8407         calculate D2E/DX2 analytically  !
 ! D49   D(16,5,7,21)          -71.438          calculate D2E/DX2 analytically  !
 ! D50   D(16,5,7,22)          168.5505         calculate D2E/DX2 analytically  !
 ! D51   D(16,5,7,23)           48.9169         calculate D2E/DX2 analytically  !
 ! D52   D(17,5,7,21)          172.7094         calculate D2E/DX2 analytically  !
 ! D53   D(17,5,7,22)           52.6978         calculate D2E/DX2 analytically  !
 ! D54   D(17,5,7,23)          -66.9358         calculate D2E/DX2 analytically  !
 --------------------------------------------------------------------------------
 Trust Radius=3.00D-01 FncErr=1.00D-07 GrdErr=1.00D-06 EigMax=2.50D+02 EigMin=1.00D-04
 Number of steps in this run=    138 maximum allowed number of steps=    138.
 GradGradGradGradGradGradGradGradGradGradGradGradGradGradGradGradGradGrad

 Leave Link  103 at Sun Sep 29 12:49:19 2019, MaxMem=   671088640 cpu:               1.0 elap:               0.5
 (Enter /shared/centos7/gaussian/g16/l202.exe)
                          Input orientation:                          
 ---------------------------------------------------------------------
 Center     Atomic      Atomic             Coordinates (Angstroms)
 Number     Number       Type             X           Y           Z
 ---------------------------------------------------------------------
      1          6           0        0.896070   -1.338338    0.135140
      2          6           0        0.028919   -0.429331    0.937460
      3          6           0        0.738123    0.183668    2.119088
      4          6           0        2.122476   -0.677018   -0.397413
      5          6           0        0.029424    1.387185    2.694411
      6          6           0        1.866012    0.329326   -1.441962
      7          6           0       -0.189544    2.491307    1.692965
      8          1           0        2.821307   -1.463650   -0.799882
      9          1           0        2.659928   -0.192554    0.452408
     10          1           0        0.302963   -1.762186   -0.702806
     11          1           0        1.198498   -2.203050    0.760803
     12          1           0       -0.856134   -0.983572    1.287008
     13          1           0       -0.354012    0.386532    0.288624
     14          1           0        1.758766    0.468288    1.811840
     15          1           0        0.855646   -0.579538    2.915862
     16          1           0       -0.963389    1.068822    3.107312
     17          1           0        0.610262    1.775976    3.548067
     18          1           0        1.228370    1.149973   -1.062711
     19          1           0        2.833228    0.788098   -1.804670
     20          1           0        1.355658   -0.116195   -2.322042
     21          1           0       -0.648645    2.101953    0.783455
     22          1           0        0.784820    2.978269    1.411291
     23          1           0       -0.862547    3.289672    2.119070
 ---------------------------------------------------------------------
                    Distance matrix (angstroms):
                    1          2          3          4          5
     1  C    0.000000
     2  C    1.490625   0.000000
     3  C    2.505494   1.508304   0.000000
     4  C    1.491652   2.495239   2.998332   0.000000
     5  C    3.837893   2.527173   1.510531   4.266284   0.000000
     6  C    2.491814   3.100342   3.738239   1.472952   4.647763
     7  C    4.274524   3.024671   2.523360   4.444480   1.506627
     8  H    2.143946   3.447550   3.946353   1.126559   5.303956
     9  H    2.127128   2.685804   2.571517   1.116134   3.800224
    10  H    1.110665   2.131215   3.455257   2.140440   4.640522
    11  H    1.109344   2.131948   2.784476   2.126962   4.242094
    12  H    2.126706   1.101220   2.143935   3.435602   2.895770
    13  H    2.135752   1.110520   2.141147   2.781146   2.633655
    14  H    2.611411   2.136032   1.103233   2.514917   2.148006
    15  H    2.882677   2.149445   1.109570   3.548542   2.144688
    16  H    4.252742   2.817338   2.157597   4.985340   1.121392
    17  H    4.629116   3.466498   2.143309   4.885774   1.103295
    18  H    2.781539   2.816659   3.361240   2.140081   3.950912
    19  H    3.469463   4.106770   4.488951   2.152233   5.334975
    20  H    2.782552   3.533079   4.493875   2.146330   5.402208
    21  H    3.826494   2.624920   2.717877   4.098322   2.149982
    22  H    4.502670   3.522448   2.883219   4.292069   2.179121
    23  H    5.333590   4.002735   3.494195   5.565759   2.178551
                    6          7          8          9         10
     6  C    0.000000
     7  C    4.327498   0.000000
     8  H    2.130639   5.560683   0.000000
     9  H    2.119268   4.106286   1.791636   0.000000
    10  H    2.713650   4.906576   2.537834   3.058357   0.000000
    11  H    3.422086   4.983229   2.369800   2.504591   1.771580
    12  H    4.071984   3.561450   4.255485   3.699318   2.430865
    13  H    2.815440   2.535607   3.832840   3.073434   2.455919
    14  H    3.258534   2.811166   3.417963   1.759790   3.663035
    15  H    4.564811   3.466698   4.295606   3.077953   3.846931
    16  H    5.408165   2.150041   6.000292   4.665620   4.912764
    17  H    5.345100   2.143080   5.855644   4.202303   5.539219
    18  H    1.106291   3.376893   3.072060   2.479379   3.076781
    19  H    1.130281   4.926614   2.465788   2.467005   3.757698
    20  H    1.110627   5.030606   2.506140   3.066680   2.537593
    21  H    3.797128   1.090678   5.221211   4.039927   4.248070
    22  H    4.040659   1.125104   5.363507   3.806521   5.212822
    23  H    5.374907   1.127778   6.684694   5.226039   5.902768
                   11         12         13         14         15
    11  H    0.000000
    12  H    2.446534   0.000000
    13  H    3.056006   1.768073   0.000000
    14  H    2.924829   3.036618   2.605898   0.000000
    15  H    2.719856   2.397206   3.049417   1.769867   0.000000
    16  H    4.570012   2.745420   2.963421   3.073926   2.462242
    17  H    4.893620   3.857176   3.672104   2.458373   2.451193
    18  H    3.816917   3.797150   2.216502   3.001509   4.354213
    19  H    4.266258   5.129199   3.834271   3.786277   5.297611
    20  H    3.726069   4.320834   3.160899   4.194413   5.282077
    21  H    4.684602   3.133222   1.809513   3.085785   3.741717
    22  H    5.238352   4.290030   3.045394   2.721951   3.863515
    23  H    6.021859   4.353502   3.469490   3.863403   4.307882
                   16         17         18         19         20
    16  H    0.000000
    17  H    1.780649   0.000000
    18  H    4.711633   4.693955   0.000000
    19  H    6.214554   5.879565   1.804723   0.000000
    20  H    6.021638   6.212416   1.790335   1.807936   0.000000
    21  H    2.562564   3.055190   2.799604   4.532996   4.310629
    22  H    3.094949   2.458006   3.108068   4.397185   4.882555
    23  H    2.432892   2.549994   4.367376   5.942421   6.020286
                   21         22         23
    21  H    0.000000
    22  H    1.793581   0.000000
    23  H    1.800083   1.819819   0.000000
 Stoichiometry    C7H16
 Framework group  C1[X(C7H16)]
 Deg. of freedom    63
 Full point group                 C1      NOp   1
 Largest Abelian subgroup         C1      NOp   1
 Largest concise Abelian subgroup C1      NOp   1
                         Standard orientation:                         
 ---------------------------------------------------------------------
 Center     Atomic      Atomic             Coordinates (Angstroms)
 Number     Number       Type             X           Y           Z
 ---------------------------------------------------------------------
      1          6           0       -1.418150   -1.022561    0.365292
      2          6           0        0.024481   -0.826086    0.684941
      3          6           0        0.909699   -0.808006   -0.536142
      4          6           0       -1.973248    0.015642   -0.550692
      5          6           0        2.278203   -0.220083   -0.284650
      6          6           0       -2.080898    1.358146    0.045700
      7          6           0        2.238461    1.188166    0.249372
      8          1           0       -2.987612   -0.315001   -0.912461
      9          1           0       -1.324849    0.069772   -1.457556
     10          1           0       -2.001517   -1.041556    1.310225
     11          1           0       -1.558227   -2.020734   -0.098036
     12          1           0        0.358378   -1.621658    1.369238
     13          1           0        0.155838    0.129640    1.235022
     14          1           0        0.403486   -0.237164   -1.333018
     15          1           0        1.027574   -1.841571   -0.922140
     16          1           0        2.831116   -0.869446    0.443454
     17          1           0        2.859359   -0.240682   -1.222249
     18          1           0       -1.091246    1.739696    0.360162
     19          1           0       -2.510847    2.094568   -0.696164
     20          1           0       -2.741903    1.356944    0.938204
     21          1           0        1.564400    1.257965    1.103976
     22          1           0        1.879496    1.907218   -0.538009
     23          1           0        3.265271    1.520698    0.576429
 ---------------------------------------------------------------------
 Rotational constants (GHZ):           3.9082211           1.4278744           1.2049572
 Leave Link  202 at Sun Sep 29 12:49:21 2019, MaxMem=   671088640 cpu:               3.7 elap:               1.9
 (Enter /shared/centos7/gaussian/g16/l301.exe)
 Standard basis: CC-pVTZ (5D, 7F)
 Ernie: Thresh=  0.10000D-02 Tol=  0.10000D-05 Strict=F.
 Ernie:  21 primitive shells out of 310 were deleted.
 There are   485 symmetry adapted cartesian basis functions of A   symmetry.
 There are   434 symmetry adapted basis functions of A   symmetry.
   434 basis functions,   636 primitive gaussians,   485 cartesian basis functions
    29 alpha electrons       29 beta electrons
       nuclear repulsion energy       330.3621407497 Hartrees.
 IExCor= 4336 DFT=T Ex+Corr=M062X ExCW=0 ScaHFX=  0.540000
 ScaDFX=  1.000000  1.000000  1.000000  1.000000 ScalE2=  1.000000  1.000000
 IRadAn=      5 IRanWt=     -1 IRanGd=            0 ICorTp=0 IEmpDi=  4
 NAtoms=   23 NActive=   23 NUniq=   23 SFac= 1.00D+00 NAtFMM=   60 NAOKFM=F Big=F
 Integral buffers will be    131072 words long.
 Raffenetti 2 integral format.
 Two-electron integral symmetry is turned on.
 Leave Link  301 at Sun Sep 29 12:49:22 2019, MaxMem=   671088640 cpu:               2.3 elap:               1.2
 (Enter /shared/centos7/gaussian/g16/l302.exe)
 NPDir=0 NMtPBC=     1 NCelOv=     1 NCel=       1 NClECP=     1 NCelD=      1
         NCelK=      1 NCelE2=     1 NClLst=     1 CellRange=     0.0.
 One-electron integrals computed using PRISM.
 One-electron integral symmetry used in STVInt
 NBasis=   434 RedAO= T EigKep=  2.71D-04  NBF=   434
 NBsUse=   434 1.00D-06 EigRej= -1.00D+00 NBFU=   434
 Precomputing XC quadrature grid using
 IXCGrd= 4 IRadAn=           5 IRanWt=          -1 IRanGd=           0 AccXCQ= 0.00D+00.
 Generated NRdTot=       0 NPtTot=           0 NUsed=           0 NTot=          32
 NSgBfM=   485   485   485   485   485 MxSgAt=    23 MxSgA2=    23.
 Leave Link  302 at Sun Sep 29 12:50:42 2019, MaxMem=   671088640 cpu:             161.3 elap:              80.7
 (Enter /shared/centos7/gaussian/g16/l303.exe)
 DipDrv:  MaxL=1.
 Leave Link  303 at Sun Sep 29 12:50:48 2019, MaxMem=   671088640 cpu:              10.1 elap:               5.1
 (Enter /shared/centos7/gaussian/g16/l401.exe)
 ExpMin= 1.03D-01 ExpMax= 8.24D+03 ExpMxC= 2.81D+02 IAcc=3 IRadAn=         5 AccDes= 0.00D+00
 Harris functional with IExCor= 1009 and IRadAn=       5 diagonalized for initial guess.
 HarFok:  IExCor= 1009 AccDes= 0.00D+00 IRadAn=         5 IDoV= 1 UseB2=F ITyADJ=14
 ICtDFT=  3500011 ScaDFX=  1.000000  1.000000  1.000000  1.000000
 FoFCou: FMM=F IPFlag=           0 FMFlag=      100000 FMFlg1=           0
         NFxFlg=           0 DoJE=T BraDBF=F KetDBF=T FulRan=T
         wScrn=  0.000000 ICntrl=       500 IOpCl=  0 I1Cent=   200000004 NGrid=           0
         NMat0=    1 NMatS0=      1 NMatT0=    0 NMatD0=    1 NMtDS0=    0 NMtDT0=    0
 Petite list used in FoFCou.
 Harris En= -276.328948609221    
 JPrj=0 DoOrth=F DoCkMO=F.
 Leave Link  401 at Sun Sep 29 12:51:34 2019, MaxMem=   671088640 cpu:              91.9 elap:              46.0
 (Enter /shared/centos7/gaussian/g16/l502.exe)
 Integral symmetry usage will be decided dynamically.
 Closed shell SCF:
 Using DIIS extrapolation, IDIIS=  1040.
 NGot=   671088640 LenX=   670604095 LenY=   670368385
 Requested convergence on RMS density matrix=1.00D-08 within 900 cycles.
 Requested convergence on MAX density matrix=1.00D-06.
 Requested convergence on             energy=1.00D-06.
 No special actions if energy rises.
 Fock matrices will be formed incrementally for  20 cycles.
 Integral accuracy reduced to 1.0D-05 until final iterations.

 Cycle   1  Pass 0  IDiag  1:
 FoFJK:  IHMeth= 1 ICntrl=       0 DoSepK=F KAlg= 0 I1Cent=           0 FoldK=F
 IRaf= 950000000 NMat=       1 IRICut=       1 DoRegI=T DoRafI=F ISym2E= 0 IDoP0=0 IntGTp=1.
 FoFCou: FMM=F IPFlag=           0 FMFlag=      100000 FMFlg1=           0
         NFxFlg=           0 DoJE=F BraDBF=F KetDBF=F FulRan=T
         wScrn=  0.000000 ICntrl=         0 IOpCl=  0 I1Cent=           0 NGrid=           0
         NMat0=    1 NMatS0=      1 NMatT0=    0 NMatD0=    1 NMtDS0=    0 NMtDT0=    0
 Symmetry not used in FoFCou.
 E= -275.963099677968    
 DIIS: error= 2.41D-02 at cycle   1 NSaved=   1.
 NSaved= 1 IEnMin= 1 EnMin= -275.963099677968     IErMin= 1 ErrMin= 2.41D-02
 ErrMax= 2.41D-02  0.00D+00 EMaxC= 1.00D-01 BMatC= 3.75D-01 BMatP= 3.75D-01
 IDIUse=3 WtCom= 7.59D-01 WtEn= 2.41D-01
 Coeff-Com:  0.100D+01
 Coeff-En:   0.100D+01
 Coeff:      0.100D+01
 Gap=     0.367 Goal=   None    Shift=    0.000
 GapD=    0.367 DampG=1.000 DampE=0.500 DampFc=0.5000 IDamp=-1.
 Damping current iteration by 5.00D-01
 RMSDP=1.89D-03 MaxDP=6.27D-02              OVMax= 1.63D-01

 Cycle   2  Pass 0  IDiag  1:
 RMSU=  9.41D-04    CP:  9.89D-01
 E= -276.140899612864     Delta-E=       -0.177799934896 Rises=F Damp=T
 DIIS: error= 4.23D-03 at cycle   2 NSaved=   2.
 NSaved= 2 IEnMin= 2 EnMin= -276.140899612864     IErMin= 2 ErrMin= 4.23D-03
 ErrMax= 4.23D-03  0.00D+00 EMaxC= 1.00D-01 BMatC= 1.88D-02 BMatP= 3.75D-01
 IDIUse=3 WtCom= 9.58D-01 WtEn= 4.23D-02
 Coeff-Com: -0.462D-01 0.105D+01
 Coeff-En:   0.000D+00 0.100D+01
 Coeff:     -0.442D-01 0.104D+01
 Gap=     0.454 Goal=   None    Shift=    0.000
 RMSDP=5.32D-04 MaxDP=1.79D-02 DE=-1.78D-01 OVMax= 9.12D-02

 Cycle   3  Pass 0  IDiag  1:
 RMSU=  5.23D-04    CP:  9.97D-01  9.07D-01
 E= -276.320871762326     Delta-E=       -0.179972149462 Rises=F Damp=F
 DIIS: error= 2.86D-03 at cycle   3 NSaved=   3.
 NSaved= 3 IEnMin= 3 EnMin= -276.320871762326     IErMin= 3 ErrMin= 2.86D-03
 ErrMax= 2.86D-03  0.00D+00 EMaxC= 1.00D-01 BMatC= 2.94D-03 BMatP= 1.88D-02
 IDIUse=3 WtCom= 9.71D-01 WtEn= 2.86D-02
 Coeff-Com: -0.511D-01 0.251D+00 0.800D+00
 Coeff-En:   0.000D+00 0.000D+00 0.100D+01
 Coeff:     -0.496D-01 0.244D+00 0.806D+00
 Gap=     0.419 Goal=   None    Shift=    0.000
 RMSDP=1.04D-04 MaxDP=2.88D-03 DE=-1.80D-01 OVMax= 1.13D-02

 Cycle   4  Pass 0  IDiag  1:
 RMSU=  8.28D-05    CP:  9.95D-01  9.53D-01  9.13D-01
 E= -276.323444229745     Delta-E=       -0.002572467419 Rises=F Damp=F
 DIIS: error= 7.32D-04 at cycle   4 NSaved=   4.
 NSaved= 4 IEnMin= 4 EnMin= -276.323444229745     IErMin= 4 ErrMin= 7.32D-04
 ErrMax= 7.32D-04  0.00D+00 EMaxC= 1.00D-01 BMatC= 2.69D-04 BMatP= 2.94D-03
 IDIUse=3 WtCom= 9.93D-01 WtEn= 7.32D-03
 Coeff-Com: -0.129D-01 0.347D-01 0.268D+00 0.711D+00
 Coeff-En:   0.000D+00 0.000D+00 0.000D+00 0.100D+01
 Coeff:     -0.128D-01 0.345D-01 0.266D+00 0.713D+00
 Gap=     0.420 Goal=   None    Shift=    0.000
 RMSDP=3.37D-05 MaxDP=9.86D-04 DE=-2.57D-03 OVMax= 3.05D-03

 Cycle   5  Pass 0  IDiag  1:
 RMSU=  1.89D-05    CP:  9.95D-01  9.46D-01  9.50D-01  7.66D-01
 E= -276.323699586009     Delta-E=       -0.000255356264 Rises=F Damp=F
 DIIS: error= 1.35D-04 at cycle   5 NSaved=   5.
 NSaved= 5 IEnMin= 5 EnMin= -276.323699586009     IErMin= 5 ErrMin= 1.35D-04
 ErrMax= 1.35D-04  0.00D+00 EMaxC= 1.00D-01 BMatC= 1.47D-05 BMatP= 2.69D-04
 IDIUse=3 WtCom= 9.99D-01 WtEn= 1.35D-03
 Coeff-Com: -0.146D-02 0.536D-03 0.497D-01 0.241D+00 0.710D+00
 Coeff-En:   0.000D+00 0.000D+00 0.000D+00 0.000D+00 0.100D+01
 Coeff:     -0.146D-02 0.535D-03 0.496D-01 0.241D+00 0.711D+00
 Gap=     0.419 Goal=   None    Shift=    0.000
 RMSDP=6.28D-06 MaxDP=2.65D-04 DE=-2.55D-04 OVMax= 7.18D-04

 Initial convergence to 1.0D-05 achieved.  Increase integral accuracy.
 Cycle   6  Pass 1  IDiag  1:
 E= -276.323662254671     Delta-E=        0.000037331338 Rises=F Damp=F
 DIIS: error= 3.60D-05 at cycle   1 NSaved=   1.
 NSaved= 1 IEnMin= 1 EnMin= -276.323662254671     IErMin= 1 ErrMin= 3.60D-05
 ErrMax= 3.60D-05  0.00D+00 EMaxC= 1.00D-01 BMatC= 1.61D-06 BMatP= 1.61D-06
 IDIUse=1 WtCom= 1.00D+00 WtEn= 0.00D+00
 Coeff-Com:  0.100D+01
 Coeff:      0.100D+01
 Gap=     0.419 Goal=   None    Shift=    0.000
 RMSDP=6.28D-06 MaxDP=2.65D-04 DE= 3.73D-05 OVMax= 3.24D-04

 Cycle   7  Pass 1  IDiag  1:
 RMSU=  7.80D-06    CP:  1.00D+00
 E= -276.323662820095     Delta-E=       -0.000000565424 Rises=F Damp=F
 DIIS: error= 3.12D-05 at cycle   2 NSaved=   2.
 NSaved= 2 IEnMin= 2 EnMin= -276.323662820095     IErMin= 2 ErrMin= 3.12D-05
 ErrMax= 3.12D-05  0.00D+00 EMaxC= 1.00D-01 BMatC= 7.50D-07 BMatP= 1.61D-06
 IDIUse=1 WtCom= 1.00D+00 WtEn= 0.00D+00
 Coeff-Com:  0.388D+00 0.612D+00
 Coeff:      0.388D+00 0.612D+00
 Gap=     0.419 Goal=   None    Shift=    0.000
 RMSDP=1.52D-06 MaxDP=5.91D-05 DE=-5.65D-07 OVMax= 1.81D-04

 Cycle   8  Pass 1  IDiag  1:
 RMSU=  1.49D-06    CP:  1.00D+00  9.60D-01
 E= -276.323663516329     Delta-E=       -0.000000696234 Rises=F Damp=F
 DIIS: error= 8.16D-06 at cycle   3 NSaved=   3.
 NSaved= 3 IEnMin= 3 EnMin= -276.323663516329     IErMin= 3 ErrMin= 8.16D-06
 ErrMax= 8.16D-06  0.00D+00 EMaxC= 1.00D-01 BMatC= 4.12D-08 BMatP= 7.50D-07
 IDIUse=1 WtCom= 1.00D+00 WtEn= 0.00D+00
 Coeff-Com:  0.145D-02 0.180D+00 0.818D+00
 Coeff:      0.145D-02 0.180D+00 0.818D+00
 Gap=     0.419 Goal=   None    Shift=    0.000
 RMSDP=3.86D-07 MaxDP=1.10D-05 DE=-6.96D-07 OVMax= 3.83D-05

 Cycle   9  Pass 1  IDiag  1:
 RMSU=  2.93D-07    CP:  1.00D+00  9.84D-01  8.87D-01
 E= -276.323663555799     Delta-E=       -0.000000039470 Rises=F Damp=F
 DIIS: error= 2.29D-06 at cycle   4 NSaved=   4.
 NSaved= 4 IEnMin= 4 EnMin= -276.323663555799     IErMin= 4 ErrMin= 2.29D-06
 ErrMax= 2.29D-06  0.00D+00 EMaxC= 1.00D-01 BMatC= 2.15D-09 BMatP= 4.12D-08
 IDIUse=1 WtCom= 1.00D+00 WtEn= 0.00D+00
 Coeff-Com: -0.128D-01 0.455D-01 0.300D+00 0.668D+00
 Coeff:     -0.128D-01 0.455D-01 0.300D+00 0.668D+00
 Gap=     0.419 Goal=   None    Shift=    0.000
 RMSDP=9.10D-08 MaxDP=2.56D-06 DE=-3.95D-08 OVMax= 8.19D-06

 Cycle  10  Pass 1  IDiag  1:
 RMSU=  7.97D-08    CP:  1.00D+00  9.86D-01  8.84D-01  8.62D-01
 E= -276.323663557987     Delta-E=       -0.000000002188 Rises=F Damp=F
 DIIS: error= 3.62D-07 at cycle   5 NSaved=   5.
 NSaved= 5 IEnMin= 5 EnMin= -276.323663557987     IErMin= 5 ErrMin= 3.62D-07
 ErrMax= 3.62D-07  0.00D+00 EMaxC= 1.00D-01 BMatC= 5.72D-11 BMatP= 2.15D-09
 IDIUse=1 WtCom= 1.00D+00 WtEn= 0.00D+00
 Coeff-Com: -0.111D-02-0.912D-02-0.343D-01 0.495D-01 0.995D+00
 Coeff:     -0.111D-02-0.912D-02-0.343D-01 0.495D-01 0.995D+00
 Gap=     0.419 Goal=   None    Shift=    0.000
 RMSDP=2.96D-08 MaxDP=7.91D-07 DE=-2.19D-09 OVMax= 2.41D-06

 Cycle  11  Pass 1  IDiag  1:
 RMSU=  1.61D-08    CP:  1.00D+00  9.86D-01  8.84D-01  9.38D-01  1.14D+00
 E= -276.323663558071     Delta-E=       -0.000000000083 Rises=F Damp=F
 DIIS: error= 1.79D-07 at cycle   6 NSaved=   6.
 NSaved= 6 IEnMin= 6 EnMin= -276.323663558071     IErMin= 6 ErrMin= 1.79D-07
 ErrMax= 1.79D-07  0.00D+00 EMaxC= 1.00D-01 BMatC= 1.86D-11 BMatP= 5.72D-11
 IDIUse=1 WtCom= 1.00D+00 WtEn= 0.00D+00
 Coeff-Com:  0.438D-03-0.759D-02-0.381D-01-0.279D-01 0.456D+00 0.617D+00
 Coeff:      0.438D-03-0.759D-02-0.381D-01-0.279D-01 0.456D+00 0.617D+00
 Gap=     0.419 Goal=   None    Shift=    0.000
 RMSDP=6.52D-09 MaxDP=2.61D-07 DE=-8.33D-11 OVMax= 6.86D-07

 SCF Done:  E(RM062X) =  -276.323663558     A.U. after   11 cycles
            NFock= 11  Conv=0.65D-08     -V/T= 2.0067
 KE= 2.744775722632D+02 PE=-1.299112984422D+03 EE= 4.179496078513D+02
 Leave Link  502 at Sun Sep 29 13:07:00 2019, MaxMem=   671088640 cpu:            1853.2 elap:             926.8
 (Enter /shared/centos7/gaussian/g16/l801.exe)
 DoSCS=F DFT=T ScalE2(SS,OS)=  1.000000  1.000000
 Range of M.O.s used for correlation:     1   434
 NBasis=   434 NAE=    29 NBE=    29 NFC=     0 NFV=     0
 NROrb=    434 NOA=    29 NOB=    29 NVA=   405 NVB=   405

 **** Warning!!: The largest alpha MO coefficient is  0.10457153D+02

 Leave Link  801 at Sun Sep 29 13:07:01 2019, MaxMem=   671088640 cpu:               1.6 elap:               0.8
 (Enter /shared/centos7/gaussian/g16/l1101.exe)
 Using compressed storage, NAtomX=    23.
 Will process     24 centers per pass.
 Leave Link 1101 at Sun Sep 29 13:07:36 2019, MaxMem=   671088640 cpu:              69.1 elap:              34.6
 (Enter /shared/centos7/gaussian/g16/l1102.exe)
 Symmetrizing basis deriv contribution to polar:
 IMax=3 JMax=2 DiffMx= 0.00D+00
 Leave Link 1102 at Sun Sep 29 13:07:38 2019, MaxMem=   671088640 cpu:               4.8 elap:               2.4
 (Enter /shared/centos7/gaussian/g16/l1110.exe)
 Forming Gx(P) for the SCF density, NAtomX=    23.
 Integral derivatives from FoFJK, PRISM(SPDF).
 Do as many integral derivatives as possible in FoFJK.
 G2DrvN: MDV=     671086848.
 G2DrvN: will do    24 centers at a time, making    1 passes.
 Calling FoFCou, ICntrl=  3107 FMM=F I1Cent=   0 AccDes= 0.00D+00.
 FoFJK:  IHMeth= 1 ICntrl=    3107 DoSepK=F KAlg= 0 I1Cent=           0 FoldK=F
 IRaf=         0 NMat=       1 IRICut=       1 DoRegI=T DoRafI=F ISym2E= 0 IDoP0=0 IntGTp=1.
 FoFCou: FMM=F IPFlag=           0 FMFlag=      100000 FMFlg1=           0
         NFxFlg=           0 DoJE=F BraDBF=F KetDBF=F FulRan=T
         wScrn=  0.000000 ICntrl=      3107 IOpCl=  0 I1Cent=           0 NGrid=           0
         NMat0=    1 NMatS0=      1 NMatT0=    0 NMatD0=    1 NMtDS0=    0 NMtDT0=    0
 Symmetry not used in FoFCou.
 End of G2Drv F.D. properties file   721 does not exist.
 End of G2Drv F.D. properties file   722 does not exist.
 End of G2Drv F.D. properties file   788 does not exist.
 Leave Link 1110 at Sun Sep 29 13:48:47 2019, MaxMem=   671088640 cpu:            4937.4 elap:            2469.2
 (Enter /shared/centos7/gaussian/g16/l1002.exe)
 Minotr:  Closed shell wavefunction.
          IDoAtm=11111111111111111111111
          Direct CPHF calculation.
          Differentiating once with respect to nuclear coordinates.
          Requested convergence is 1.0D-08 RMS, and 1.0D-07 maximum.
          Secondary convergence is 1.0D-12 RMS, and 1.0D-12 maximum.
          NewPWx=T KeepS1=F KeepF1=F KeepIn=T MapXYZ=F SortEE=F KeepMc=T.
         6904 words used for storage of precomputed grid.
 Two-electron integrals replicated using symmetry.
          MDV=     671088640 using IRadAn=       1.
          Solving linear equations simultaneously, MaxMat=     380.
 FoF2E skips out because all densities are zero.
 CalDSu exits because no D1Ps are significant.
 FoFJK:  IHMeth= 1 ICntrl=       0 DoSepK=F KAlg= 0 I1Cent=           0 FoldK=F
 IRaf= 930000000 NMat=      69 IRICut=     172 DoRegI=T DoRafI=T ISym2E= 2 IDoP0=3 IntGTp=3.
 FoFCou: FMM=F IPFlag=           0 FMFlag=      100000 FMFlg1=           0
         NFxFlg=           0 DoJE=F BraDBF=F KetDBF=F FulRan=T
         wScrn=  0.000000 ICntrl=         0 IOpCl=  0 I1Cent=           0 NGrid=           0
         NMat0=   69 NMatS0=     69 NMatT0=    0 NMatD0=   69 NMtDS0=    0 NMtDT0=    0
 Integrals replicated using symmetry in FoFCou.
 Raff kept on since  89.47% of shell-pairs survive, threshold=   0.20 IRatSp=89.
          There are    72 degrees of freedom in the 1st order CPHF.  IDoFFX=6 NUNeed=     0.
     66 vectors produced by pass  0 Test12= 1.63D-14 1.39D-09 XBig12= 5.44D-02 4.13D-02.
 AX will form    66 AO Fock derivatives at one time.
     66 vectors produced by pass  1 Test12= 1.63D-14 1.39D-09 XBig12= 3.04D-03 8.68D-03.
     66 vectors produced by pass  2 Test12= 1.63D-14 1.39D-09 XBig12= 5.18D-05 1.13D-03.
     66 vectors produced by pass  3 Test12= 1.63D-14 1.39D-09 XBig12= 4.03D-07 7.68D-05.
     66 vectors produced by pass  4 Test12= 1.63D-14 1.39D-09 XBig12= 1.80D-09 4.75D-06.
     66 vectors produced by pass  5 Test12= 1.63D-14 1.39D-09 XBig12= 9.35D-12 3.09D-07.
     24 vectors produced by pass  6 Test12= 1.63D-14 1.39D-09 XBig12= 3.80D-14 1.80D-08.
 InvSVY:  IOpt=1 It=  1 EMax= 2.50D-16
 Solved reduced A of dimension   420 with    72 vectors.
 End of Minotr F.D. properties file   721 does not exist.
 End of Minotr F.D. properties file   722 does not exist.
 End of Minotr F.D. properties file   788 does not exist.
 Leave Link 1002 at Sun Sep 29 14:56:39 2019, MaxMem=   671088640 cpu:            8141.6 elap:            4071.7
 (Enter /shared/centos7/gaussian/g16/l601.exe)
 Copying SCF densities to generalized density rwf, IOpCl= 0 IROHF=0.

 **********************************************************************

            Population analysis using the SCF density.

 **********************************************************************

 Orbital symmetries:
       Occupied  (A) (A) (A) (A) (A) (A) (A) (A) (A) (A) (A) (A)
                 (A) (A) (A) (A) (A) (A) (A) (A) (A) (A) (A) (A)
                 (A) (A) (A) (A) (A)
       Virtual   (A) (A) (A) (A) (A) (A) (A) (A) (A) (A) (A) (A)
                 (A) (A) (A) (A) (A) (A) (A) (A) (A) (A) (A) (A)
                 (A) (A) (A) (A) (A) (A) (A) (A) (A) (A) (A) (A)
                 (A) (A) (A) (A) (A) (A) (A) (A) (A) (A) (A) (A)
                 (A) (A) (A) (A) (A) (A) (A) (A) (A) (A) (A) (A)
                 (A) (A) (A) (A) (A) (A) (A) (A) (A) (A) (A) (A)
                 (A) (A) (A) (A) (A) (A) (A) (A) (A) (A) (A) (A)
                 (A) (A) (A) (A) (A) (A) (A) (A) (A) (A) (A) (A)
                 (A) (A) (A) (A) (A) (A) (A) (A) (A) (A) (A) (A)
                 (A) (A) (A) (A) (A) (A) (A) (A) (A) (A) (A) (A)
                 (A) (A) (A) (A) (A) (A) (A) (A) (A) (A) (A) (A)
                 (A) (A) (A) (A) (A) (A) (A) (A) (A) (A) (A) (A)
                 (A) (A) (A) (A) (A) (A) (A) (A) (A) (A) (A) (A)
                 (A) (A) (A) (A) (A) (A) (A) (A) (A) (A) (A) (A)
                 (A) (A) (A) (A) (A) (A) (A) (A) (A) (A) (A) (A)
                 (A) (A) (A) (A) (A) (A) (A) (A) (A) (A) (A) (A)
                 (A) (A) (A) (A) (A) (A) (A) (A) (A) (A) (A) (A)
                 (A) (A) (A) (A) (A) (A) (A) (A) (A) (A) (A) (A)
                 (A) (A) (A) (A) (A) (A) (A) (A) (A) (A) (A) (A)
                 (A) (A) (A) (A) (A) (A) (A) (A) (A) (A) (A) (A)
                 (A) (A) (A) (A) (A) (A) (A) (A) (A) (A) (A) (A)
                 (A) (A) (A) (A) (A) (A) (A) (A) (A) (A) (A) (A)
                 (A) (A) (A) (A) (A) (A) (A) (A) (A) (A) (A) (A)
                 (A) (A) (A) (A) (A) (A) (A) (A) (A) (A) (A) (A)
                 (A) (A) (A) (A) (A) (A) (A) (A) (A) (A) (A) (A)
                 (A) (A) (A) (A) (A) (A) (A) (A) (A) (A) (A) (A)
                 (A) (A) (A) (A) (A) (A) (A) (A) (A) (A) (A) (A)
                 (A) (A) (A) (A) (A) (A) (A) (A) (A) (A) (A) (A)
                 (A) (A) (A) (A) (A) (A) (A) (A) (A) (A) (A) (A)
                 (A) (A) (A) (A) (A) (A) (A) (A) (A) (A) (A) (A)
                 (A) (A) (A) (A) (A) (A) (A) (A) (A) (A) (A) (A)
                 (A) (A) (A) (A) (A) (A) (A) (A) (A) (A) (A) (A)
                 (A) (A) (A) (A) (A) (A) (A) (A) (A) (A) (A) (A)
                 (A) (A) (A) (A) (A) (A) (A) (A) (A)
 The electronic state is 1-A.
 Alpha  occ. eigenvalues --  -10.52891 -10.52563 -10.52477 -10.52400 -10.52395
 Alpha  occ. eigenvalues --  -10.52322 -10.52188  -0.92534  -0.88259  -0.82411
 Alpha  occ. eigenvalues --   -0.76299  -0.71328  -0.66059  -0.61789  -0.55099
 Alpha  occ. eigenvalues --   -0.53799  -0.51284  -0.50234  -0.47932  -0.46223
 Alpha  occ. eigenvalues --   -0.44495  -0.43094  -0.42422  -0.39705  -0.39152
 Alpha  occ. eigenvalues --   -0.38497  -0.36805  -0.36152  -0.35517
 Alpha virt. eigenvalues --    0.06417   0.08182   0.08426   0.08745   0.11820
 Alpha virt. eigenvalues --    0.12294   0.12607   0.13116   0.14387   0.14595
 Alpha virt. eigenvalues --    0.15699   0.16233   0.17810   0.18419   0.20564
 Alpha virt. eigenvalues --    0.20774   0.22605   0.24279   0.25131   0.26068
 Alpha virt. eigenvalues --    0.26700   0.28327   0.28910   0.29646   0.30834
 Alpha virt. eigenvalues --    0.31763   0.32062   0.34094   0.35539   0.36461
 Alpha virt. eigenvalues --    0.36899   0.38828   0.40632   0.43431   0.44231
 Alpha virt. eigenvalues --    0.44882   0.46315   0.47027   0.47710   0.48057
 Alpha virt. eigenvalues --    0.48609   0.49121   0.50218   0.50925   0.51949
 Alpha virt. eigenvalues --    0.52515   0.53064   0.53404   0.54258   0.54545
 Alpha virt. eigenvalues --    0.54748   0.55353   0.56815   0.56887   0.58353
 Alpha virt. eigenvalues --    0.58756   0.59435   0.61090   0.62354   0.64977
 Alpha virt. eigenvalues --    0.66588   0.68275   0.70679   0.73692   0.74139
 Alpha virt. eigenvalues --    0.77429   0.78768   0.81065   0.81237   0.83562
 Alpha virt. eigenvalues --    0.85273   0.86269   0.86761   0.89708   0.91055
 Alpha virt. eigenvalues --    0.93595   0.94309   0.96760   0.97590   0.99481
 Alpha virt. eigenvalues --    1.00652   1.01655   1.02489   1.03428   1.03805
 Alpha virt. eigenvalues --    1.05503   1.06579   1.08266   1.08734   1.09870
 Alpha virt. eigenvalues --    1.10710   1.12269   1.12518   1.14544   1.15134
 Alpha virt. eigenvalues --    1.16657   1.17270   1.18111   1.19518   1.20474
 Alpha virt. eigenvalues --    1.20629   1.21130   1.22213   1.23706   1.24167
 Alpha virt. eigenvalues --    1.25505   1.26128   1.26790   1.27088   1.28602
 Alpha virt. eigenvalues --    1.29407   1.29461   1.31478   1.32051   1.33583
 Alpha virt. eigenvalues --    1.34950   1.35799   1.36518   1.37874   1.39338
 Alpha virt. eigenvalues --    1.40807   1.42530   1.42786   1.44137   1.44468
 Alpha virt. eigenvalues --    1.44994   1.47042   1.49135   1.50613   1.50985
 Alpha virt. eigenvalues --    1.51246   1.51985   1.52933   1.53762   1.54899
 Alpha virt. eigenvalues --    1.55073   1.58990   1.60421   1.63272   1.63798
 Alpha virt. eigenvalues --    1.66646   1.67333   1.73182   1.74813   1.79063
 Alpha virt. eigenvalues --    1.80053   1.86725   1.88988   1.92131   2.22089
 Alpha virt. eigenvalues --    2.28626   2.29319   2.32205   2.34300   2.36105
 Alpha virt. eigenvalues --    2.37451   2.40758   2.41863   2.44674   2.45864
 Alpha virt. eigenvalues --    2.46882   2.48199   2.49855   2.51524   2.52391
 Alpha virt. eigenvalues --    2.54347   2.55697   2.57911   2.58855   2.59289
 Alpha virt. eigenvalues --    2.61398   2.62746   2.63041   2.64397   2.65991
 Alpha virt. eigenvalues --    2.66944   2.68680   2.69359   2.71039   2.72397
 Alpha virt. eigenvalues --    2.74054   2.74508   2.75615   2.77251   2.77695
 Alpha virt. eigenvalues --    2.79014   2.80568   2.80825   2.82908   2.84408
 Alpha virt. eigenvalues --    2.86056   2.87533   2.88603   2.90471   2.91918
 Alpha virt. eigenvalues --    2.93260   2.95243   2.97181   2.97951   2.99234
 Alpha virt. eigenvalues --    3.00447   3.02170   3.03840   3.04222   3.04763
 Alpha virt. eigenvalues --    3.05555   3.06507   3.07404   3.08461   3.09641
 Alpha virt. eigenvalues --    3.11076   3.11548   3.12039   3.12580   3.13734
 Alpha virt. eigenvalues --    3.14168   3.15390   3.15994   3.16514   3.17097
 Alpha virt. eigenvalues --    3.17903   3.20457   3.21352   3.21711   3.22068
 Alpha virt. eigenvalues --    3.25315   3.25832   3.27099   3.29972   3.31458
 Alpha virt. eigenvalues --    3.31774   3.32859   3.34755   3.36030   3.37440
 Alpha virt. eigenvalues --    3.38283   3.39401   3.40099   3.40678   3.42322
 Alpha virt. eigenvalues --    3.42973   3.44241   3.45028   3.47143   3.47880
 Alpha virt. eigenvalues --    3.48590   3.49352   3.50226   3.51930   3.52531
 Alpha virt. eigenvalues --    3.54593   3.57257   3.58188   3.59860   3.61986
 Alpha virt. eigenvalues --    3.63716   3.64675   3.67762   3.68216   3.68764
 Alpha virt. eigenvalues --    3.70406   3.71372   3.71930   3.73497   3.74997
 Alpha virt. eigenvalues --    3.75750   3.77290   3.77831   3.78662   3.79883
 Alpha virt. eigenvalues --    3.80240   3.81724   3.82624   3.83937   3.84930
 Alpha virt. eigenvalues --    3.85585   3.86439   3.87061   3.87879   3.88522
 Alpha virt. eigenvalues --    3.90937   3.92001   3.92429   3.94123   3.95363
 Alpha virt. eigenvalues --    3.98267   3.98655   3.99082   4.00080   4.01089
 Alpha virt. eigenvalues --    4.02136   4.02506   4.03848   4.04238   4.05251
 Alpha virt. eigenvalues --    4.06696   4.08582   4.09391   4.10607   4.11472
 Alpha virt. eigenvalues --    4.12846   4.13516   4.14847   4.16374   4.17524
 Alpha virt. eigenvalues --    4.18043   4.19427   4.20778   4.22842   4.23733
 Alpha virt. eigenvalues --    4.25145   4.26160   4.27296   4.28009   4.29804
 Alpha virt. eigenvalues --    4.31474   4.32913   4.34778   4.36367   4.39016
 Alpha virt. eigenvalues --    4.40462   4.40964   4.44282   4.44965   4.46436
 Alpha virt. eigenvalues --    4.49072   4.50945   4.54114   4.55379   4.58596
 Alpha virt. eigenvalues --    4.60514   4.61742   4.63788   4.66129   4.66918
 Alpha virt. eigenvalues --    4.68587   4.71872   4.72825   4.74107   4.75574
 Alpha virt. eigenvalues --    4.76456   4.77533   4.78054   4.79118   4.80541
 Alpha virt. eigenvalues --    4.81111   4.82787   4.84251   4.89044   4.90798
 Alpha virt. eigenvalues --    4.91414   4.94721   4.96140   4.97433   4.98340
 Alpha virt. eigenvalues --    5.01598   5.04942   5.07140   5.07968   5.10670
 Alpha virt. eigenvalues --    5.11698   5.13369   5.15881   5.18698   5.19827
 Alpha virt. eigenvalues --    5.22238   5.23195   5.24870   5.26204   5.28015
 Alpha virt. eigenvalues --    5.28328   5.29658   5.32134   5.33324   5.34509
 Alpha virt. eigenvalues --    5.37462   5.39161   5.41024   5.42270   5.44944
 Alpha virt. eigenvalues --    5.46416   5.47269   5.49022   5.56062   5.57620
 Alpha virt. eigenvalues --    5.59600   5.64415   5.66918   5.70086   5.79723
 Alpha virt. eigenvalues --    5.81677   5.83161   5.86964   5.92070   5.93016
 Alpha virt. eigenvalues --    5.98092   6.01658   6.03736  12.20076  12.34088
 Alpha virt. eigenvalues --   12.77055  12.97823  13.23488  13.52203  13.60784
          Condensed to atoms (all electrons):
               1          2          3          4          5          6
     1  C    5.070031   0.311184  -0.051821   0.317480   0.005177  -0.065402
     2  C    0.311184   5.163503   0.294311  -0.053922  -0.046901   0.008317
     3  C   -0.051821   0.294311   5.124640  -0.009676   0.329024  -0.001762
     4  C    0.317480  -0.053922  -0.009676   5.068164   0.001143   0.309684
     5  C    0.005177  -0.046901   0.329024   0.001143   5.015623   0.000037
     6  C   -0.065402   0.008317  -0.001762   0.309684   0.000037   4.982167
     7  C    0.000772  -0.012392  -0.053516  -0.000689   0.308561  -0.000252
     8  H   -0.046332   0.009743   0.000394   0.413497  -0.000040  -0.041216
     9  H   -0.039612  -0.010980  -0.006481   0.413508   0.000835  -0.048107
    10  H    0.418846  -0.053416   0.009739  -0.042416  -0.000441  -0.006446
    11  H    0.418546  -0.044741  -0.005143  -0.051366   0.000213   0.009385
    12  H   -0.034420   0.408088  -0.039075   0.008290  -0.002103  -0.000091
    13  H   -0.042328   0.423622  -0.058629  -0.008172  -0.002268  -0.000183
    14  H   -0.003665  -0.054933   0.420310  -0.005571  -0.043487   0.000577
    15  H   -0.000197  -0.042898   0.405902  -0.000474  -0.033475   0.000137
    16  H    0.000226  -0.005739  -0.043102  -0.000095   0.406087  -0.000003
    17  H   -0.000483   0.009449  -0.045608   0.000090   0.415914  -0.000020
    18  H   -0.009292   0.006228   0.001066  -0.044053  -0.000788   0.402307
    19  H    0.009320  -0.000574  -0.000071  -0.041164   0.000002   0.405768
    20  H   -0.000324  -0.002568   0.000185  -0.048854   0.000005   0.405687
    21  H    0.000276  -0.002716  -0.007803   0.000279  -0.041590  -0.000429
    22  H    0.000084  -0.001170   0.001981  -0.000101  -0.049826  -0.000190
    23  H   -0.000013   0.000387   0.007610  -0.000002  -0.037022   0.000026
               7          8          9         10         11         12
     1  C    0.000772  -0.046332  -0.039612   0.418846   0.418546  -0.034420
     2  C   -0.012392   0.009743  -0.010980  -0.053416  -0.044741   0.408088
     3  C   -0.053516   0.000394  -0.006481   0.009739  -0.005143  -0.039075
     4  C   -0.000689   0.413497   0.413508  -0.042416  -0.051366   0.008290
     5  C    0.308561  -0.000040   0.000835  -0.000441   0.000213  -0.002103
     6  C   -0.000252  -0.041216  -0.048107  -0.006446   0.009385  -0.000091
     7  C    5.000745   0.000009   0.000134   0.000051  -0.000090   0.000794
     8  H    0.000009   0.599741  -0.035521  -0.004026  -0.010327  -0.000232
     9  H    0.000134  -0.035521   0.606437   0.008067  -0.003105  -0.000528
    10  H    0.000051  -0.004026   0.008067   0.575172  -0.027398  -0.007006
    11  H   -0.000090  -0.010327  -0.003105  -0.027398   0.579719  -0.007246
    12  H    0.000794  -0.000232  -0.000528  -0.007006  -0.007246   0.559699
    13  H   -0.006792  -0.000369   0.000977  -0.006405   0.008983  -0.034470
    14  H   -0.004105   0.000825  -0.012435  -0.000429   0.000061   0.007943
    15  H    0.007807  -0.000118   0.001429  -0.000108   0.003230  -0.010333
    16  H   -0.044257   0.000004  -0.000149  -0.000033   0.000009   0.003002
    17  H   -0.040609  -0.000006   0.000210   0.000031  -0.000021  -0.000094
    18  H    0.000587   0.009036  -0.008614   0.000152  -0.000562   0.000494
    19  H    0.000007  -0.007813  -0.005750  -0.000054  -0.000447   0.000028
    20  H   -0.000002  -0.007249   0.009482   0.004501   0.000179  -0.000221
    21  H    0.407400  -0.000010   0.000160   0.000135  -0.000105   0.001413
    22  H    0.403108  -0.000001  -0.000062  -0.000001   0.000011   0.000019
    23  H    0.404354   0.000000  -0.000018  -0.000004   0.000004  -0.000101
              13         14         15         16         17         18
     1  C   -0.042328  -0.003665  -0.000197   0.000226  -0.000483  -0.009292
     2  C    0.423622  -0.054933  -0.042898  -0.005739   0.009449   0.006228
     3  C   -0.058629   0.420310   0.405902  -0.043102  -0.045608   0.001066
     4  C   -0.008172  -0.005571  -0.000474  -0.000095   0.000090  -0.044053
     5  C   -0.002268  -0.043487  -0.033475   0.406087   0.415914  -0.000788
     6  C   -0.000183   0.000577   0.000137  -0.000003  -0.000020   0.402307
     7  C   -0.006792  -0.004105   0.007807  -0.044257  -0.040609   0.000587
     8  H   -0.000369   0.000825  -0.000118   0.000004  -0.000006   0.009036
     9  H    0.000977  -0.012435   0.001429  -0.000149   0.000210  -0.008614
    10  H   -0.006405  -0.000429  -0.000108  -0.000033   0.000031   0.000152
    11  H    0.008983   0.000061   0.003230   0.000009  -0.000021  -0.000562
    12  H   -0.034470   0.007943  -0.010333   0.003002  -0.000094   0.000494
    13  H    0.592510  -0.001782   0.008337  -0.000511  -0.000113  -0.007537
    14  H   -0.001782   0.579564  -0.031775   0.009199  -0.007646   0.001303
    15  H    0.008337  -0.031775   0.570041  -0.006144  -0.006311  -0.000091
    16  H   -0.000511   0.009199  -0.006144   0.604194  -0.033880   0.000051
    17  H   -0.000113  -0.007646  -0.006311  -0.033880   0.586899   0.000002
    18  H   -0.007537   0.001303  -0.000091   0.000051   0.000002   0.605061
    19  H    0.000086   0.000110   0.000001   0.000001  -0.000000  -0.031393
    20  H    0.000967  -0.000248   0.000008  -0.000003   0.000001  -0.039695
    21  H   -0.009254  -0.000291  -0.000413  -0.003746   0.007450   0.000156
    22  H    0.000466   0.003029   0.000058   0.008437  -0.008715  -0.000121
    23  H    0.000348  -0.000028  -0.000369  -0.007975  -0.003573   0.000071
              19         20         21         22         23
     1  C    0.009320  -0.000324   0.000276   0.000084  -0.000013
     2  C   -0.000574  -0.002568  -0.002716  -0.001170   0.000387
     3  C   -0.000071   0.000185  -0.007803   0.001981   0.007610
     4  C   -0.041164  -0.048854   0.000279  -0.000101  -0.000002
     5  C    0.000002   0.000005  -0.041590  -0.049826  -0.037022
     6  C    0.405768   0.405687  -0.000429  -0.000190   0.000026
     7  C    0.000007  -0.000002   0.407400   0.403108   0.404354
     8  H   -0.007813  -0.007249  -0.000010  -0.000001   0.000000
     9  H   -0.005750   0.009482   0.000160  -0.000062  -0.000018
    10  H   -0.000054   0.004501   0.000135  -0.000001  -0.000004
    11  H   -0.000447   0.000179  -0.000105   0.000011   0.000004
    12  H    0.000028  -0.000221   0.001413   0.000019  -0.000101
    13  H    0.000086   0.000967  -0.009254   0.000466   0.000348
    14  H    0.000110  -0.000248  -0.000291   0.003029  -0.000028
    15  H    0.000001   0.000008  -0.000413   0.000058  -0.000369
    16  H    0.000001  -0.000003  -0.003746   0.008437  -0.007975
    17  H   -0.000000   0.000001   0.007450  -0.008715  -0.003573
    18  H   -0.031393  -0.039695   0.000156  -0.000121   0.000071
    19  H    0.591945  -0.028867  -0.000008   0.000046  -0.000002
    20  H   -0.028867   0.593098   0.000048   0.000001  -0.000001
    21  H   -0.000008   0.000048   0.595249  -0.042498  -0.029877
    22  H    0.000046   0.000001  -0.042498   0.597158  -0.025241
    23  H   -0.000002  -0.000001  -0.029877  -0.025241   0.576368
 Mulliken charges:
               1
     1  C   -0.258053
     2  C   -0.301882
     3  C   -0.272476
     4  C   -0.225581
     5  C   -0.224681
     6  C   -0.359989
     7  C   -0.371625
     8  H    0.120008
     9  H    0.130124
    10  H    0.131490
    11  H    0.130213
    12  H    0.146152
    13  H    0.142517
    14  H    0.143475
    15  H    0.135756
    16  H    0.114427
    17  H    0.127031
    18  H    0.115631
    19  H    0.108830
    20  H    0.113869
    21  H    0.126174
    22  H    0.113529
    23  H    0.115058
 Sum of Mulliken charges =  -0.00000
 Mulliken charges with hydrogens summed into heavy atoms:
               1
     1  C    0.003650
     2  C   -0.013213
     3  C    0.006756
     4  C    0.024551
     5  C    0.016777
     6  C   -0.021658
     7  C   -0.016864
 APT charges:
               1
     1  C   -0.880632
     2  C   -0.573071
     3  C   -0.575866
     4  C   -0.628496
     5  C   -0.911392
     6  C   -1.112976
     7  C   -1.041613
     8  H    0.515833
     9  H    0.194025
    10  H    0.409688
    11  H    0.399369
    12  H    0.419173
    13  H    0.267401
    14  H    0.246005
    15  H    0.415389
    16  H    0.408380
    17  H    0.458836
    18  H    0.121802
    19  H    0.472319
    20  H    0.419723
    21  H    0.133138
    22  H    0.252729
    23  H    0.590237
 Sum of APT charges =  -0.00000
 APT charges with hydrogens summed into heavy atoms:
               1
     1  C   -0.071575
     2  C    0.113503
     3  C    0.085528
     4  C    0.081362
     5  C   -0.044176
     6  C   -0.099132
     7  C   -0.065509
 Electronic spatial extent (au):  <R**2>=           1112.4228
 Charge=             -0.0000 electrons
 Dipole moment (field-independent basis, Debye):
    X=              0.0300    Y=             -0.1440    Z=             -0.0572  Tot=              0.1578
 Quadrupole moment (field-independent basis, Debye-Ang):
   XX=            -49.1622   YY=            -49.6029   ZZ=            -48.8934
   XY=             -0.1057   XZ=             -0.1091   YZ=             -0.3751
 Traceless Quadrupole moment (field-independent basis, Debye-Ang):
   XX=              0.0573   YY=             -0.3834   ZZ=              0.3261
   XY=             -0.1057   XZ=             -0.1091   YZ=             -0.3751
 Octapole moment (field-independent basis, Debye-Ang**2):
  XXX=             -0.2588  YYY=             -4.2046  ZZZ=             -0.2818  XYY=              0.4138
  XXY=             -0.3121  XXZ=              0.4835  XZZ=              0.0056  YZZ=              0.3434
  YYZ=             -1.0287  XYZ=              0.0236
 Hexadecapole moment (field-independent basis, Debye-Ang**3):
 XXXX=          -1030.0007 YYYY=           -377.2436 ZZZZ=           -172.7407 XXXY=              3.1248
 XXXZ=              1.6450 YYYX=             -2.2484 YYYZ=             -3.0614 ZZZX=             -4.0497
 ZZZY=             -2.0002 XXYY=           -238.8394 XXZZ=           -198.6595 YYZZ=            -89.8395
 XXYZ=             -0.9418 YYXZ=              2.5599 ZZXY=             -1.4318
 N-N= 3.303621407497D+02 E-N=-1.299112924729D+03  KE= 2.744775722632D+02
  Exact polarizability:   0.000   0.000   0.000   0.000   0.000   0.000
 Approx polarizability: 100.447  -0.071  98.670   0.387  -0.505  98.794
 No NMR shielding tensors so no spin-rotation constants.
 Leave Link  601 at Sun Sep 29 14:57:11 2019, MaxMem=   671088640 cpu:              62.7 elap:              31.4
 (Enter /shared/centos7/gaussian/g16/l701.exe)
 SCFChk:  SCF convergence  6.52D-09 required  1.00D-08
 ... and contract with generalized density number  0.
 Compute integral second derivatives.
 Entering OneElI...
 Calculate overlap and kinetic energy integrals
    NBasis = 485  MinDer = 2  MaxDer = 2
 Requested accuracy = 0.1000D-12
 PrmmSu-InSpLW:  IPartL=    0 NPrtUS=   20 NPrtUL=    1 DoSpLW=F IThBeg=    0 IThEnd=   19 NThAct=   20.
 PrsmSu:  NPrtUS=  20 ThrOK=T IAlg=1 NPAlg=1 LenDen=           0 ISkipM=0 DoSpLW=F IThBeg=    0 IThEnd=   19.
 Prism:   IPart=     0 DynPar=F LinDyn=F Incr=           6.
 PRISM was handed    33198779 working-precision words and 13716 shell-pairs
 PRISM was handed    33198779 working-precision words and 13716 shell-pairs
 PRISM was handed    33198779 working-precision words and 13716 shell-pairs
 PRISM was handed    33198779 working-precision words and 13716 shell-pairs
 PRISM was handed    33198779 working-precision words and 13716 shell-pairs
 PRISM was handed    33198779 working-precision words and 13716 shell-pairs
 PRISM was handed    33198779 working-precision words and 13716 shell-pairs
 IPart=  2 NShTot=         718 NBatch=          78 AvBLen=         9.2
 PRISM was handed    33198779 working-precision words and 13716 shell-pairs
 PRISM was handed    33198779 working-precision words and 13716 shell-pairs
 IPart=  0 NShTot=         723 NBatch=          80 AvBLen=         9.0
 PRISM was handed    33198779 working-precision words and 13716 shell-pairs
 PRISM was handed    33198779 working-precision words and 13716 shell-pairs
 IPart=  3 NShTot=         717 NBatch=          78 AvBLen=         9.2
 PRISM was handed    33198779 working-precision words and 13716 shell-pairs
 PRISM was handed    33198779 working-precision words and 13716 shell-pairs
 IPart=  4 NShTot=         711 NBatch=          74 AvBLen=         9.6
 PRISM was handed    33198779 working-precision words and 13716 shell-pairs
 IPart= 11 NShTot=         674 NBatch=          56 AvBLen=        12.0
 PRISM was handed    33198779 working-precision words and 13716 shell-pairs
 PRISM was handed    33198779 working-precision words and 13716 shell-pairs
 PRISM was handed    33198779 working-precision words and 13716 shell-pairs
 IPart= 17 NShTot=         661 NBatch=          50 AvBLen=        13.2
 PRISM was handed    33198779 working-precision words and 13716 shell-pairs
 IPart= 12 NShTot=         671 NBatch=          54 AvBLen=        12.4
 PRISM was handed    33198779 working-precision words and 13716 shell-pairs
 IPart=  9 NShTot=         679 NBatch=          57 AvBLen=        11.9
 PRISM was handed    33198779 working-precision words and 13716 shell-pairs
 IPart=  5 NShTot=         706 NBatch=          71 AvBLen=         9.9
 IPart= 18 NShTot=         659 NBatch=          49 AvBLen=        13.4
 IPart=  7 NShTot=         688 NBatch=          59 AvBLen=        11.7
 IPart= 15 NShTot=         669 NBatch=          53 AvBLen=        12.6
 IPart=  6 NShTot=         698 NBatch=          67 AvBLen=        10.4
 IPart=  1 NShTot=         723 NBatch=          80 AvBLen=         9.0
 IPart=  8 NShTot=         685 NBatch=          57 AvBLen=        12.0
 IPart= 14 NShTot=         669 NBatch=          53 AvBLen=        12.6
 IPart= 19 NShTot=         658 NBatch=          48 AvBLen=        13.7
 IPart= 16 NShTot=         662 NBatch=          50 AvBLen=        13.2
 IPart= 10 NShTot=         676 NBatch=          56 AvBLen=        12.1
 IPart= 13 NShTot=         669 NBatch=          53 AvBLen=        12.6
 PrSmSu:  NxtVal=            121.
 Entering OneElI...
 Calculate potential energy integrals
    NBasis = 485  MinDer = 2  MaxDer = 2
 Requested accuracy = 0.1000D-12
 PrmmSu-InSpLW:  IPartL=    0 NPrtUS=   20 NPrtUL=    1 DoSpLW=F IThBeg=    0 IThEnd=   19 NThAct=   20.
 PrsmSu:  NPrtUS=  20 ThrOK=T IAlg=1 NPAlg=1 LenDen=           0 ISkipM=0 DoSpLW=F IThBeg=    0 IThEnd=   19.
 Prism:   IPart=     0 DynPar=F LinDyn=F Incr=         142.
 PRISM was handed    33261748 working-precision words and 12411 shell-pairs
 PRISM was handed    33261748 working-precision words and 12411 shell-pairs
 PRISM was handed    33261748 working-precision words and 12411 shell-pairs
 PRISM was handed    33261748 working-precision words and 12411 shell-pairs
 PRISM was handed    33261748 working-precision words and 12411 shell-pairs
 PRISM was handed    33261748 working-precision words and 12411 shell-pairs
 PRISM was handed    33261748 working-precision words and 12411 shell-pairs
 PRISM was handed    33261748 working-precision words and 12411 shell-pairs
 PRISM was handed    33261748 working-precision words and 12411 shell-pairs
 PRISM was handed    33261748 working-precision words and 12411 shell-pairs
 PRISM was handed    33261748 working-precision words and 12411 shell-pairs
 PRISM was handed    33261748 working-precision words and 12411 shell-pairs
 PRISM was handed    33261748 working-precision words and 12411 shell-pairs
 PRISM was handed    33261748 working-precision words and 12411 shell-pairs
 PRISM was handed    33261748 working-precision words and 12411 shell-pairs
 PRISM was handed    33261748 working-precision words and 12411 shell-pairs
 PRISM was handed    33261748 working-precision words and 12411 shell-pairs
 PRISM was handed    33261748 working-precision words and 12411 shell-pairs
 PRISM was handed    33261748 working-precision words and 12411 shell-pairs
 PRISM was handed    33261748 working-precision words and 12411 shell-pairs
 IPart= 16 NShTot=       13754 NBatch=         599 AvBLen=        23.0
 IPart= 12 NShTot=       14007 NBatch=         610 AvBLen=        23.0
 IPart= 18 NShTot=       13731 NBatch=         598 AvBLen=        23.0
 IPart=  1 NShTot=       14904 NBatch=         650 AvBLen=        22.9
 IPart=  2 NShTot=       14858 NBatch=         648 AvBLen=        22.9
 IPart= 15 NShTot=       13800 NBatch=         601 AvBLen=        23.0
 IPart=  7 NShTot=       14398 NBatch=         628 AvBLen=        22.9
 IPart=  6 NShTot=       14628 NBatch=         638 AvBLen=        22.9
 IPart= 17 NShTot=       13731 NBatch=         598 AvBLen=        23.0
 IPart=  8 NShTot=       14237 NBatch=         620 AvBLen=        23.0
 IPart= 10 NShTot=       14145 NBatch=         616 AvBLen=        23.0
 IPart= 19 NShTot=       13708 NBatch=         597 AvBLen=        23.0
 IPart=  9 NShTot=       14191 NBatch=         618 AvBLen=        23.0
 IPart= 14 NShTot=       13892 NBatch=         605 AvBLen=        23.0
 IPart= 11 NShTot=       14053 NBatch=         612 AvBLen=        23.0
 IPart= 13 NShTot=       14007 NBatch=         610 AvBLen=        23.0
 IPart=  0 NShTot=       15019 NBatch=         655 AvBLen=        22.9
 IPart=  3 NShTot=       14835 NBatch=         647 AvBLen=        22.9
 IPart=  4 NShTot=       14789 NBatch=         645 AvBLen=        22.9
 IPart=  5 NShTot=       14766 NBatch=         644 AvBLen=        22.9
 PrSmSu:  NxtVal=           2841.
 Polarizability after L701:
                1             2             3 
      1  0.000000D+00
      2  0.000000D+00  0.000000D+00
      3  0.000000D+00  0.000000D+00  0.000000D+00
 Dipole Derivatives after L701:
                 1             2             3             4             5 
      1  -0.825591D+00 -0.855888D+00  0.605196D+00 -0.107601D+00  0.150103D+00
      2  -0.426428D+00 -0.113485D+01  0.395706D-01  0.330529D+00 -0.783800D+00
      3   0.422435D+00 -0.183601D-01 -0.681451D+00 -0.311996D+00 -0.726504D-01
                 6             7             8             9            10 
      1  -0.201052D+00 -0.540293D-02  0.353226D+00  0.364808D+00 -0.108660D+01
      2   0.468891D+00  0.560859D-01 -0.970477D+00 -0.387753D+00 -0.177169D+00
      3  -0.827811D+00 -0.226685D+00 -0.449279D-01 -0.751719D+00 -0.211820D-01
                11            12            13            14            15 
      1  -0.399020D+00 -0.114703D+01 -0.169169D+01  0.947446D+00  0.292812D+00
      2   0.483715D-01  0.163967D-01  0.261906D+00 -0.267246D+00  0.212993D+00
      3  -0.528217D-01 -0.847262D+00  0.246859D+00  0.144133D+00 -0.775239D+00
                16            17            18            19            20 
      1  -0.112400D+01  0.115547D+01  0.499303D+00 -0.937273D+00 -0.129300D+01
      2   0.481341D-01 -0.133168D+01 -0.133563D+00 -0.248723D-01 -0.120235D+01
      3  -0.601269D-02  0.170825D+00 -0.883245D+00 -0.196028D-01  0.264117D-01
                21            22            23            24            25 
      1  -0.425435D+00  0.112721D+01  0.298596D+00  0.344773D+00 -0.137858D+00
      2  -0.485114D-01  0.101424D+00  0.198366D+00  0.342824D-01  0.993280D-02
      3  -0.985212D+00  0.296968D+00  0.891476D-01  0.221920D+00 -0.395382D+00
                26            27            28            29            30 
      1  -0.521544D-01  0.348536D+00  0.526630D+00  0.742696D-02 -0.624786D+00
      2   0.159925D+00 -0.158132D-01  0.183961D+00  0.124150D+00 -0.317777D+00
      3  -0.420643D-01  0.560007D+00 -0.247326D+00 -0.751653D-02  0.578284D+00
                31            32            33            34            35 
      1   0.220819D+00  0.489669D+00  0.261089D+00  0.191692D+00 -0.116409D+00
      2   0.897314D-01  0.817577D+00  0.322859D+00 -0.173855D+00  0.614182D+00
      3   0.317830D-01  0.480347D-01  0.159710D+00  0.125623D+00 -0.389578D+00
                36            37            38            39            40 
      1   0.720876D-01  0.187086D+00  0.608131D-01  0.206067D-01  0.110653D+00
      2  -0.360480D+00  0.162524D-01  0.265045D+00  0.262604D-01  0.242477D-01
      3   0.451643D+00  0.690308D-01  0.427776D+00  0.350072D+00  0.274482D+00
                41            42            43            44            45 
      1   0.478852D-01 -0.106302D+00  0.193930D+00 -0.351554D+00 -0.126203D+00
      2   0.116271D+00  0.335879D-01 -0.107210D+00  0.807709D+00  0.207853D+00
      3  -0.269362D+00  0.511092D+00 -0.671962D-01  0.319358D+00  0.244527D+00
                46            47            48            49            50 
      1   0.645939D+00 -0.551944D+00  0.667061D+00  0.675275D+00  0.163724D-01
      2  -0.155055D+00  0.326141D+00 -0.211155D+00 -0.331723D-01  0.146748D+00
      3   0.107763D+00 -0.100456D+00  0.253061D+00 -0.243629D+00 -0.186561D-02
                51            52            53            54            55 
      1  -0.878528D+00 -0.102398D+00 -0.107132D+00 -0.106391D+00  0.462293D+00
      2   0.729618D-01  0.535406D+00  0.311271D+00  0.202815D+00 -0.309579D+00
      3   0.554486D+00  0.128676D+00  0.454423D-01  0.156534D+00  0.124463D+00
                56            57            58            59            60 
      1  -0.603867D+00  0.653467D+00  0.714827D+00  0.651846D-04 -0.824355D+00
      2   0.626941D+00 -0.544521D+00 -0.259571D+00  0.125509D+00  0.378469D+00
      3  -0.184123D+00  0.327721D+00 -0.244986D+00  0.261139D-02  0.418834D+00
                61            62            63            64            65 
      1  -0.240152D+00  0.682149D-01  0.338203D+00 -0.128477D+00  0.410360D+00
      2  -0.296132D+00  0.162839D+00  0.299605D+00 -0.245400D+00  0.568815D+00
      3  -0.339626D+00  0.163630D-02  0.476727D+00  0.766006D-01 -0.155775D+00
                66            67            68            69 
      1  -0.428441D+00  0.133069D+01  0.325323D+00  0.400576D+00
      2  -0.485221D+00  0.550833D+00  0.270551D+00  0.188251D+00
      3   0.317848D+00  0.218939D+00  0.641254D-01  0.169473D+00
 Hessian after L701:
                1             2             3             4             5 
      1  0.152717D+02
      2  0.455566D+00  0.166221D+02
      3 -0.302063D+00  0.763533D+00  0.175045D+02
      4 -0.252027D+01  0.376691D+00  0.892378D+00  0.151238D+02
      5  0.339005D+00 -0.627689D+01  0.913231D-01  0.502735D-01  0.176191D+02
      6  0.880956D+00  0.101614D+00 -0.614868D+01  0.323455D+00  0.117350D+00
      7  0.324245D+00 -0.475802D-01 -0.253956D+00 -0.445082D+01  0.114993D+00
      8  0.543923D-01 -0.121060D+00 -0.177886D-01  0.454937D-01 -0.611077D+01
      9 -0.196327D+00  0.613472D-02  0.275104D-01 -0.212194D+01 -0.193010D+00
     10 -0.565560D+01 -0.117689D+01  0.103732D+01  0.319069D+00 -0.194252D+00
     11 -0.114605D+01 -0.431176D+01 -0.170397D+01 -0.166583D+00  0.132449D-01
     12  0.983403D+00 -0.168311D+01 -0.475275D+01  0.195806D+00 -0.113118D+00
     13  0.218132D+00  0.642854D-01 -0.515774D-01  0.288452D+00  0.925551D-01
     14  0.867891D-01 -0.113397D+00 -0.108731D-01  0.155676D+00 -0.105275D+00
     15 -0.545503D-01 -0.107216D-01 -0.118456D+00 -0.277327D+00 -0.570499D-01
     16 -0.787933D-02 -0.109384D+00  0.198506D-02  0.384829D-01 -0.337811D+00
     17 -0.176882D+00  0.290490D+00  0.191020D-01 -0.245947D+00  0.661788D-01
     18  0.425536D-01 -0.569796D-01 -0.545188D-01  0.105243D+00 -0.128182D+00
     19  0.808602D-01  0.891089D-01  0.404907D-02  0.508477D-01  0.243494D+00
     20  0.808840D-01 -0.274608D-01 -0.426874D-02  0.155559D+00  0.735847D-02
     21 -0.734476D-02 -0.570370D-02 -0.857813D-01 -0.728372D-01 -0.668664D-01
     22  0.393281D-01  0.907340D-01 -0.817173D-01  0.138968D+00 -0.388104D-01
     23  0.861542D-01  0.798099D-01  0.528687D-01 -0.193376D-01 -0.524664D-01
     24 -0.789772D-01  0.565821D-01  0.203483D-01  0.100606D+00 -0.189096D-01
     25  0.114616D+00  0.961622D-02 -0.588905D-01  0.729955D-02  0.135049D-01
     26 -0.298241D-01  0.161062D-02  0.102052D+00  0.195061D-02  0.687240D-03
     27  0.143127D-01  0.114864D+00  0.224363D-03  0.412409D-02  0.292872D-02
     28 -0.353453D+01  0.725917D-01 -0.123185D+01 -0.143808D+00 -0.329076D-01
     29  0.127437D+00 -0.431370D+01 -0.160636D+00 -0.584756D-01  0.125350D+00
     30 -0.121381D+01 -0.801192D-01 -0.250288D+01  0.506107D-01  0.131214D-01
     31 -0.431402D+01  0.412242D+00  0.160273D+00 -0.596214D-01 -0.890977D-01
     32  0.319315D+00 -0.213497D+01  0.946847D+00 -0.821293D-01  0.132260D+00
     33  0.114331D+00  0.887086D+00 -0.394870D+01 -0.738196D-01 -0.956222D-02
     34 -0.473066D-01  0.939010D-02 -0.475986D-01 -0.424062D+01 -0.515530D+00
     35  0.241836D-02  0.111108D+00 -0.331036D-01 -0.552832D+00 -0.320904D+01
     36 -0.491017D-01 -0.309124D-01  0.640364D-01  0.536668D+00 -0.112359D+01
     37 -0.628881D-01 -0.130135D+00 -0.568790D-01 -0.483189D+01  0.328672D+00
     38 -0.846714D-01  0.997831D-01  0.107051D-01  0.333292D+00 -0.267024D+01
     39 -0.784729D-01 -0.334724D-01  0.999800D-01  0.258717D+00  0.146189D+01
     40  0.205887D-01 -0.184227D-03  0.102610D-02  0.174456D+00 -0.527064D-01
     41  0.234324D-01 -0.231650D-01 -0.114721D-01 -0.268550D-01  0.172859D+00
     42 -0.357186D-01  0.743780D-02 -0.180416D-01  0.781058D-01  0.592856D-01
     43  0.281589D-01 -0.295169D-01 -0.302049D-01  0.483776D-01  0.405361D-01
     44 -0.413794D-01  0.206448D-03  0.221320D-01  0.215714D-01  0.152580D+00
     45 -0.315909D-01  0.186549D-01 -0.129870D-01  0.912348D-01 -0.496184D-01
     46  0.305317D-01 -0.551256D-02  0.416780D-02  0.204028D-01  0.605009D-02
     47 -0.681964D-02 -0.777557D-02 -0.198593D-02 -0.169225D-01 -0.142531D-01
     48  0.101497D-01 -0.423911D-02 -0.944058D-02  0.483752D-02 -0.577739D-03
     49  0.535270D-02 -0.279306D-02 -0.260602D-02  0.112625D+00  0.392363D-01
     50  0.133997D-02 -0.644832D-02  0.662549D-04  0.275972D-01 -0.460015D-01
[...]
     63  0.171946D-02  0.722196D-02  0.305743D-02  0.101774D-02 -0.459076D-02
     64  0.155678D-02  0.176173D-02  0.219928D-03  0.726066D-03 -0.534274D-03
     65 -0.373793D-04  0.504718D-02  0.338724D-02  0.707989D-03 -0.370810D-02
     66 -0.149953D-03 -0.410950D-02 -0.285811D-02 -0.120463D-02  0.253023D-02
     67  0.394776D-03  0.516002D-02  0.388534D-02  0.122177D-02 -0.395110D-02
     68 -0.646569D-03  0.155046D-02  0.150321D-02 -0.512176D-04 -0.132579D-02
     69  0.195094D-03  0.124929D-02  0.594667D-03  0.112202D-03 -0.126899D-02
               31            32            33            34            35 
     31  0.417096D+01
     32 -0.534453D+00  0.183092D+01
     33 -0.531468D-01 -0.960785D+00  0.393011D+01
     34 -0.295103D-01 -0.104025D-01 -0.341697D-01  0.411588D+01
     35 -0.908843D-02  0.147120D-01 -0.869725D-02  0.544696D+00  0.304542D+01
     36 -0.389680D-01 -0.505766D-02 -0.583423D-02 -0.614627D+00  0.136504D+01
     37  0.118929D-01  0.698077D-01  0.374078D-01  0.138662D+00  0.484218D-01
     38  0.671894D-01  0.629937D-01  0.531919D-01  0.400258D-01 -0.256870D+00
     39  0.445928D-01  0.630232D-01  0.265185D-02  0.450352D-02  0.266656D-01
     40 -0.188880D-02  0.118849D-02 -0.141669D-02 -0.338155D-01 -0.293265D-02
     41  0.662599D-02  0.745089D-02 -0.121499D-02 -0.214248D-02  0.834700D-02
     42 -0.588086D-02 -0.113266D-01 -0.319252D-02  0.553509D-02 -0.769165D-01
     43  0.330916D-01  0.128140D-01 -0.113522D-01  0.216542D-01  0.169042D-02
     44 -0.612366D-02 -0.211336D-01 -0.792586D-03  0.650888D-02  0.279004D-01
     45 -0.176404D-01 -0.573498D-02 -0.103356D-01  0.334292D-01 -0.846788D-02
     46  0.382296D-02  0.519258D-02  0.228952D-02  0.260554D-01  0.225268D-01
     47 -0.669588D-03 -0.284199D-02 -0.790775D-03  0.742523D-02 -0.131723D-01
     48  0.214887D-02  0.305305D-02  0.155636D-03 -0.103845D-01 -0.171409D-02
     49  0.241601D-02  0.448138D-02  0.752982D-03 -0.342215D-03  0.459526D-02
     50  0.866300D-03  0.300574D-04  0.848470D-04  0.863571D-03 -0.154016D-03
     51 -0.232448D-02 -0.404416D-02 -0.176689D-02 -0.162502D-02 -0.631808D-02
     52  0.942452D-03  0.586668D-02  0.222658D-02 -0.272141D-02 -0.241423D-03
     53  0.164371D-03 -0.100747D-02  0.124398D-02 -0.727895D-02  0.137030D-01
     54  0.380038D-03  0.206932D-02  0.434423D-03  0.117171D-02 -0.205046D-02
     55 -0.517217D-03 -0.108571D-02 -0.115370D-02  0.112416D-02 -0.321511D-02
     56  0.247430D-02 -0.162148D-02  0.369698D-02 -0.269200D-02  0.430543D-02
     57 -0.200716D-03 -0.396752D-02 -0.844412D-03  0.216557D-02 -0.384376D-02
     58 -0.137395D-02 -0.832121D-02 -0.331927D-02  0.992190D-03 -0.349219D-02
     59 -0.277263D-02  0.872416D-02  0.391983D-02 -0.150746D-03  0.309672D-03
     60 -0.138222D-02  0.955494D-02  0.116659D-02 -0.200406D-02  0.335994D-02
     61 -0.207781D-02 -0.253836D-02 -0.112435D-02 -0.363099D-02  0.623711D-02
     62  0.607674D-03  0.936084D-03  0.769203D-03  0.107558D-01  0.242954D-01
     63  0.191019D-02  0.441981D-02  0.120191D-02 -0.212211D-03  0.537205D-02
     64 -0.441769D-04  0.867721D-03 -0.158374D-03 -0.100124D-02  0.198423D-03
     65  0.253315D-02  0.485063D-02  0.115126D-02  0.598011D-03  0.648913D-02
     66 -0.108485D-02 -0.324365D-02 -0.158304D-02 -0.117493D-03 -0.574173D-02
     67  0.197090D-02  0.508683D-02  0.190825D-02 -0.195482D-03  0.656395D-02
     68  0.130630D-02  0.178929D-02  0.815100D-03  0.545675D-03  0.259435D-02
     69  0.842613D-03  0.143161D-02  0.356749D-04 -0.668739D-04  0.108043D-02
               36            37            38            39            40 
     36  0.319820D+01
     37  0.260622D-02  0.460071D+01
     38  0.380005D-01 -0.327311D+00  0.270336D+01
     39  0.155289D+00 -0.298366D+00 -0.143934D+01  0.371556D+01
     40  0.563015D-02  0.389768D-02  0.441146D-02  0.516350D-02  0.407796D+01
     41 -0.650646D-01 -0.752746D-03 -0.229623D-03 -0.553090D-02  0.584717D+00
     42  0.985376D-01  0.193334D-02  0.819858D-02 -0.269876D-02 -0.106048D+01
     43  0.355656D-01 -0.230943D-01 -0.333151D-01 -0.328375D-01  0.833619D-01
     44 -0.114441D-01 -0.300713D-01  0.498475D-01  0.864282D-01  0.116486D+00
     45 -0.806975D-01 -0.262741D-01  0.770450D-01  0.492073D-01 -0.230248D-01
     46 -0.233084D-01 -0.959991D-03 -0.892107D-02 -0.383742D-02  0.687276D-01
     47 -0.143840D-02 -0.139701D-02  0.466656D-02  0.326490D-02 -0.364282D-01
     48 -0.102885D-01  0.149704D-02 -0.324688D-02 -0.373760D-02  0.749379D-01
     49 -0.523662D-02  0.764683D-03 -0.516090D-02 -0.603300D-02 -0.507521D-01
     50 -0.191801D-02 -0.556564D-03 -0.132131D-02  0.710390D-03  0.310761D-03
     51  0.559256D-02 -0.275088D-02  0.670246D-02  0.506633D-02 -0.524376D-02
     52 -0.563593D-03 -0.964058D-02  0.331482D-01 -0.211555D-01 -0.159746D-02
     53 -0.688479D-02  0.314684D-01 -0.306205D-01  0.200039D-01 -0.667437D-02
     54 -0.297982D-02 -0.146520D-01  0.196432D-01  0.708544D-02 -0.539849D-02
     55  0.250065D-02  0.308566D-02  0.101189D-02  0.582965D-02  0.963210D-03
     56 -0.343867D-02 -0.480700D-02 -0.347176D-02 -0.543879D-02 -0.247728D-02
     57  0.201039D-02  0.474037D-02  0.197453D-02  0.321447D-02 -0.973969D-03
     58  0.231476D-02  0.192102D-01 -0.207787D-02  0.675211D-02 -0.291731D-02
     59 -0.835614D-03 -0.103324D-01 -0.418381D-02 -0.244051D-02  0.918497D-03
     60 -0.273095D-02 -0.245256D-02 -0.364789D-02 -0.855071D-02  0.190582D-02
     61  0.321685D-03 -0.184699D-01 -0.258668D-01  0.604400D-02 -0.437928D-02
     62 -0.661351D-02 -0.227059D-01 -0.136628D-01  0.258705D-02  0.218172D-02
     63 -0.104000D-01  0.585979D-02  0.267705D-03  0.743931D-02  0.686659D-02
     64  0.127556D-04 -0.221464D-03  0.386724D-02 -0.579873D-02 -0.756476D-03
     65 -0.541177D-02  0.601003D-02 -0.444747D-02 -0.116627D-01  0.261308D-01
     66  0.246762D-02 -0.555143D-02 -0.226933D-03  0.630399D-02  0.201466D-02
     67 -0.392672D-02  0.943136D-02 -0.282820D-02 -0.762383D-02  0.778748D-02
     68 -0.195092D-02  0.585659D-02 -0.376654D-02 -0.277799D-02  0.431841D-02
     69 -0.160257D-02 -0.162615D-02 -0.102978D-02 -0.346240D-02  0.531368D-02
               41            42            43            44            45 
     41  0.403906D+01
     42  0.100599D+01  0.283291D+01
     43  0.133009D+00 -0.298714D-01  0.419776D+01
     44 -0.183945D+00  0.895859D-01  0.293946D+00  0.191947D+01
     45  0.830041D-01  0.124316D+00  0.791675D-01 -0.108181D+01  0.395859D+01
     46 -0.328198D-01  0.869180D-01 -0.172083D-01 -0.154893D-01 -0.236112D-01
     47 -0.227966D-01 -0.282949D-01 -0.163242D-01  0.265814D-02 -0.150938D-01
     48 -0.230300D-01  0.309659D-01 -0.224095D-01 -0.813666D-02 -0.354930D-03
     49 -0.398526D-02 -0.274201D-02 -0.195071D-01 -0.269276D-01  0.432046D-02
     50  0.202393D-01 -0.963896D-03 -0.279317D-01 -0.903036D-02  0.416415D-02
     51  0.289973D-02  0.163912D-01  0.530870D-02 -0.127196D-02  0.133093D-01
     52 -0.705932D-02 -0.284275D-02 -0.199057D-02  0.349501D-02  0.129479D-02
     53  0.188560D-02  0.161645D-01 -0.179841D-02  0.394671D-02  0.175618D-02
     54  0.806944D-02  0.585707D-02 -0.104628D-02  0.311083D-02 -0.196728D-03
     55 -0.268396D-02 -0.482623D-02  0.100007D-02 -0.381453D-02 -0.713585D-03
     56 -0.479177D-03  0.531670D-02 -0.244136D-02  0.457902D-02  0.116920D-02
     57  0.863194D-03 -0.462244D-02  0.995237D-03 -0.290407D-02 -0.138796D-02
     58  0.196255D-02 -0.391522D-02  0.164938D-02 -0.447129D-02 -0.203499D-02
     59 -0.164047D-02  0.833825D-03 -0.135176D-02  0.131176D-02  0.881360D-03
     60 -0.219701D-02  0.381697D-02 -0.206709D-02  0.431543D-02  0.100006D-02
     61  0.641338D-03 -0.356795D-02 -0.677288D-03 -0.521896D-02 -0.244274D-02
     62 -0.267556D-02  0.382202D-02 -0.209279D-03  0.104106D-02  0.728700D-03
     63 -0.569268D-03  0.101780D-01 -0.739827D-03  0.587032D-02  0.174511D-02
     64  0.159177D-01  0.876656D-02 -0.186093D-02 -0.389355D-03 -0.275235D-03
     65  0.116204D-01  0.210647D-01  0.118392D-02  0.129762D-01  0.245342D-02
     66  0.659893D-02 -0.134507D-01  0.267029D-03 -0.391750D-02 -0.297677D-02
     67 -0.668956D-04  0.925621D-02 -0.117774D-02  0.463457D-02  0.160913D-02
     68 -0.152225D-02  0.382376D-02 -0.356858D-02 -0.777234D-03 -0.457916D-03
     69  0.365241D-03  0.276963D-02 -0.147047D-02  0.852999D-03  0.106969D-03
               46            47            48            49            50 
     46  0.304295D+01
     47  0.954356D+00  0.318344D+01
     48 -0.862468D+00  0.981077D+00  0.307431D+01
     49  0.136788D+00 -0.128865D-01  0.616296D-02  0.310698D+01
     50 -0.733874D-02  0.801232D-01  0.120480D+00  0.983154D-01  0.412320D+01
     51 -0.905717D-02  0.121665D+00 -0.196526D+00  0.132248D+01 -0.913668D-01
     52 -0.516494D-03 -0.870775D-05 -0.106381D-02 -0.116471D-02 -0.404360D-03
     53 -0.396489D-02  0.186737D-02 -0.157086D-02 -0.287363D-02 -0.182677D-03
     54 -0.118567D-02  0.105922D-02 -0.196273D-02 -0.261156D-02  0.754544D-03
     55  0.214882D-02 -0.203117D-02  0.168025D-02  0.260113D-02 -0.815104D-03
     56 -0.258789D-02  0.163458D-02 -0.184586D-02 -0.270983D-02  0.991635D-04
     57  0.210750D-02 -0.177100D-02  0.116659D-02  0.174568D-02 -0.299253D-03
     58  0.299065D-02 -0.234727D-02  0.161844D-02  0.274283D-02 -0.451930D-03
     59 -0.804331D-03  0.971166D-04 -0.295544D-03 -0.622704D-03 -0.350785D-03
     60 -0.228426D-02  0.178068D-02 -0.192064D-02 -0.268732D-02  0.339925D-03
     61  0.581301D-02  0.395602D-02  0.627053D-02  0.233993D-02 -0.257884D-01
     62  0.120835D-01 -0.106824D-01 -0.740864D-02 -0.330471D-01 -0.122141D-02
     63 -0.876395D-03 -0.179929D-02  0.282316D-02 -0.521002D-01  0.452838D-01
     64 -0.119345D-01 -0.379281D-01  0.161547D-01  0.109843D-01  0.223409D-01
     65 -0.527893D-01  0.900336D-01 -0.522189D-01  0.271590D-01 -0.372335D-01
     66  0.202855D-01 -0.504670D-01 -0.775336D-02  0.121020D-01 -0.188567D-01
     67  0.132510D-01 -0.915777D-02 -0.504464D-02  0.178176D-02 -0.118104D-02
     68 -0.110908D-01 -0.462781D-01 -0.668058D-02 -0.308314D-02 -0.611538D-02
     69 -0.566355D-03 -0.344049D-02  0.161321D-01 -0.431162D-02 -0.102578D-01
               51            52            53            54            55 
     51  0.235103D+01
     52  0.121247D-02  0.235142D+01
     53  0.241898D-02 -0.847832D+00  0.358746D+01
     54  0.127373D-02 -0.683349D+00 -0.303273D+00  0.394850D+01
     55 -0.222896D-02 -0.890223D-01  0.544200D-01 -0.162234D+00  0.324397D+01
     56  0.229883D-02  0.565090D-01  0.109355D+00  0.331880D-01  0.712047D+00
     57 -0.227187D-02 -0.136269D+00  0.254946D-01 -0.470656D-02 -0.555772D+00
     58 -0.297768D-02 -0.226634D+00 -0.109969D+00  0.146043D+00  0.997497D-01
     59  0.482273D-03 -0.673755D-01  0.129141D+00  0.335188D-01 -0.267363D-01
     60  0.232805D-02  0.131024D+00  0.452975D-01  0.117494D+00  0.335633D-01
     61 -0.480420D-01  0.286890D-02 -0.111665D-02  0.196284D-02 -0.190743D-03
     62  0.512455D-01 -0.106622D-02 -0.445311D-02 -0.380728D-03 -0.578562D-03
     63  0.609474D-01  0.176200D-02 -0.330152D-02 -0.511696D-02  0.445193D-02
     64  0.463709D-02 -0.366966D-04 -0.254019D-03 -0.239609D-02  0.318923D-02
     65 -0.170114D-01 -0.253807D-03 -0.431274D-02 -0.244310D-02  0.246038D-02
     66  0.122363D-01 -0.338318D-03  0.121654D-02 -0.313138D-04 -0.252264D-02
     67  0.517395D-02  0.430384D-03 -0.243638D-02 -0.169857D-02  0.374557D-02
     68 -0.832342D-02 -0.535290D-03 -0.183331D-02 -0.207236D-03  0.425948D-03
     69 -0.158160D-02 -0.332663D-03 -0.449074D-03 -0.207210D-02  0.132550D-02
               56            57            58            59            60 
     56  0.243590D+01
     57  0.109008D+01  0.281546D+01
     58 -0.254923D-01  0.281485D-01  0.294354D+01
     59  0.498874D-01  0.100299D+00  0.263975D+00  0.378247D+01
     60  0.108719D+00 -0.141515D+00  0.114096D+01 -0.161809D+00  0.225221D+01
     61  0.518662D-03 -0.231299D-03  0.146181D-02 -0.480765D-04  0.671110D-03
     62 -0.960704D-03 -0.424045D-03  0.136934D-03 -0.152507D-02 -0.193561D-03
     63 -0.317066D-02  0.279784D-02  0.391953D-02 -0.194602D-03 -0.382552D-02
     64 -0.927957D-03  0.846148D-03  0.133907D-02  0.193244D-03 -0.972508D-03
     65 -0.324572D-02  0.182915D-02  0.307992D-02 -0.892424D-03 -0.256054D-02
     66  0.178991D-02 -0.329054D-02 -0.394887D-02 -0.224236D-03  0.212234D-02
     67 -0.300899D-02  0.348007D-02  0.447867D-02 -0.927592D-04 -0.338742D-02
     68 -0.982965D-03  0.502342D-03  0.942691D-03 -0.513238D-03 -0.667975D-03
     69 -0.933987D-03  0.541878D-03  0.745065D-03 -0.298224D-04 -0.121153D-02
               61            62            63            64            65 
     61  0.323817D+01
     62  0.236991D+00  0.416940D+01
     63  0.109716D+01 -0.448264D+00  0.275633D+01
     64  0.170012D+00 -0.462393D-01  0.994656D-01  0.342240D+01
     65 -0.370307D-01  0.110762D+00  0.197911D+00  0.425922D+00  0.251821D+01
     66  0.574458D-01  0.156398D+00 -0.272435D+00 -0.504886D+00  0.115145D+01
     67 -0.163204D+00 -0.322341D-01  0.808206D-01 -0.516542D-01  0.450158D-01
     68 -0.450025D-01  0.904729D-01  0.216941D-01  0.501837D-01  0.745670D-01
     69  0.926435D-01  0.183144D-01  0.889148D-01 -0.117024D+00  0.251208D-01
               66            67            68            69 
     66  0.293577D+01
     67 -0.105257D+00  0.163044D+01
     68  0.257110D-01 -0.817703D+00  0.334175D+01
     69 -0.141558D-01 -0.699270D+00 -0.262828D+00  0.336586D+01
 Leave Link  701 at Sun Sep 29 14:57:37 2019, MaxMem=   671088640 cpu:              51.9 elap:              26.0
 (Enter /shared/centos7/gaussian/g16/l702.exe)
 L702 exits ... SP integral derivatives will be done elsewhere.
 Leave Link  702 at Sun Sep 29 14:57:38 2019, MaxMem=   671088640 cpu:               2.1 elap:               1.0
 (Enter /shared/centos7/gaussian/g16/l703.exe)
 Integral derivatives from FoFJK, PRISM(SPDF).
 Compute integral second derivatives, UseDBF=F ICtDFT=           0.
 ICntrl=    100147.
 Calling FoFJK, ICntrl=    100147 FMM=F ISym2X=0 I1Cent= 0 IOpClX= 0 NMat=1 NMatS=1 NMatT=0.
 FoFJK:  IHMeth= 1 ICntrl=  100147 DoSepK=F KAlg= 0 I1Cent=           0 FoldK=F
 IRaf=         0 NMat=       1 IRICut=       1 DoRegI=T DoRafI=F ISym2E= 0 IDoP0=0 IntGTp=1.
 FoFCou: FMM=F IPFlag=           0 FMFlag=      100000 FMFlg1=         800
         NFxFlg=           0 DoJE=F BraDBF=F KetDBF=F FulRan=T
         wScrn=  0.000000 ICntrl=    100147 IOpCl=  0 I1Cent=           0 NGrid=           0
         NMat0=    1 NMatS0=      1 NMatT0=    0 NMatD0=    1 NMtDS0=    0 NMtDT0=    0
 Symmetry not used in FoFCou.
 FoFCou:  KetSym=F NOpSet=  1 NOpAb=1 NOp=  1.
 FoFCou:  CnvScl= 1.00D+00 Thresh= 1.00D-08 IAcrcy=      12.
 PrismS was handed   669987485 working-precision words and 13014 shell-pairs
 FoFCou: LinMIO=F DoNuc=F BraDBF=F KetDBF=F HaveP=T PDBF=F HaveZ=T HaveW=F
         NIJTC =      10 NIJTAt=       0 NIJTCD=       0 NIJTT =      10
         IJTBeg=       1 IJTEnd=      10 KLTBeg=       1 KLTEnd=      10
         IPTBeg=       1 IPTEnd=      10 IPTBCv=       1 IPTECv=      10
         IZTBeg=       1 IZTEnd=      10 IZTBCv=       1 IZTECv=      10
         IWTBeg=      11 IWTEnd=      10 IWTBCv=      11 IWTECv=      10
         INTBeg=       1 INTEnd=       0 IFTBCv=       1 IFTECv=      10
 NCel replicated for PrismC:     1
 CoulSu-InSpLW:  IPartL=    0 NPrtUS=   20 NPrtUL=    1 DoSpLW=F IThBeg=    0 IThEnd=   19 NThAct=   20.
 CoulSu:  IncDef=  1024 NBBP=       84688605 NTPThr=   100 NPartT=   20 Incr=        1024 LDynOK=F GPUOK=T.
 CoulSu:  NPrtUS=  20 ThrOK=T IAlg=1 NPAlg=1 LenDen=           0 LWGrdD=           0 DoCopy=F ISkipM=0
          DoSpLW=F IThBeg=    0 IThEnd=   19.
 Enter PrismC:  IPart=  0 JobTyp=22 DoJE=F Cont=F.
 PrismC:  IPart=     0 DynPar=T LinDyn=F Incr=        1024 UseFst=F UseS4=T ISplat=2.
 PrismC was handed    33262596 working-precision words and 13014 shell-pairs
 Enter PrismC:  IPart=  1 JobTyp=22 DoJE=F Cont=F.
 PrismC:  IPart=     1 DynPar=T LinDyn=F Incr=        1024 UseFst=F UseS4=T ISplat=2.
 PrismC was handed    33262596 working-precision words and 13014 shell-pairs
 Enter PrismC:  IPart=  4 JobTyp=22 DoJE=F Cont=F.
 PrismC:  IPart=     4 DynPar=T LinDyn=F Incr=        1024 UseFst=F UseS4=T ISplat=2.
 PrismC was handed    33262596 working-precision words and 13014 shell-pairs
 Enter PrismC:  IPart= 14 JobTyp=22 DoJE=F Cont=F.
 Enter PrismC:  IPart=  2 JobTyp=22 DoJE=F Cont=F.
 PrismC:  IPart=     2 DynPar=T LinDyn=F Incr=        1024 UseFst=F UseS4=T ISplat=2.
 PrismC was handed    33262596 working-precision words and 13014 shell-pairs
 PrismC:  IPart=    14 DynPar=T LinDyn=F Incr=        1024 UseFst=F UseS4=T ISplat=2.
 PrismC was handed    33262596 working-precision words and 13014 shell-pairs
 Enter PrismC:  IPart= 10 JobTyp=22 DoJE=F Cont=F.
 PrismC:  IPart=    10 DynPar=T LinDyn=F Incr=        1024 UseFst=F UseS4=T ISplat=2.
 PrismC was handed    33262596 working-precision words and 13014 shell-pairs
 Enter PrismC:  IPart=  3 JobTyp=22 DoJE=F Cont=F.
 PrismC:  IPart=     3 DynPar=T LinDyn=F Incr=        1024 UseFst=F UseS4=T ISplat=2.
 PrismC was handed    33262596 working-precision words and 13014 shell-pairs
 Enter PrismC:  IPart= 17 JobTyp=22 DoJE=F Cont=F.
 Enter PrismC:  IPart= 12 JobTyp=22 DoJE=F Cont=F.
 Enter PrismC:  IPart= 16 JobTyp=22 DoJE=F Cont=F.
 PrismC:  IPart=    12 DynPar=T LinDyn=F Incr=        1024 UseFst=F UseS4=T ISplat=2.
 PrismC:  IPart=    16 DynPar=T LinDyn=F Incr=        1024 UseFst=F UseS4=T ISplat=2.
 PrismC was handed    33262596 working-precision words and 13014 shell-pairs
 PrismC was handed    33262596 working-precision words and 13014 shell-pairs
 PrismC:  IPart=    17 DynPar=T LinDyn=F Incr=        1024 UseFst=F UseS4=T ISplat=2.
 PrismC was handed    33262596 working-precision words and 13014 shell-pairs
 Enter PrismC:  IPart= 18 JobTyp=22 DoJE=F Cont=F.
 PrismC:  IPart=    18 DynPar=T LinDyn=F Incr=        1024 UseFst=F UseS4=T ISplat=2.
 PrismC was handed    33262596 working-precision words and 13014 shell-pairs
 Enter PrismC:  IPart=  8 JobTyp=22 DoJE=F Cont=F.
 PrismC:  IPart=     8 DynPar=T LinDyn=F Incr=        1024 UseFst=F UseS4=T ISplat=2.
 PrismC was handed    33262596 working-precision words and 13014 shell-pairs
 Enter PrismC:  IPart=  9 JobTyp=22 DoJE=F Cont=F.
 PrismC:  IPart=     9 DynPar=T LinDyn=F Incr=        1024 UseFst=F UseS4=T ISplat=2.
 PrismC was handed    33262596 working-precision words and 13014 shell-pairs
 Enter PrismC:  IPart= 11 JobTyp=22 DoJE=F Cont=F.
 PrismC:  IPart=    11 DynPar=T LinDyn=F Incr=        1024 UseFst=F UseS4=T ISplat=2.
 PrismC was handed    33262596 working-precision words and 13014 shell-pairs
 Enter PrismC:  IPart=  5 JobTyp=22 DoJE=F Cont=F.
 PrismC:  IPart=     5 DynPar=T LinDyn=F Incr=        1024 UseFst=F UseS4=T ISplat=2.
 PrismC was handed    33262596 working-precision words and 13014 shell-pairs
 Enter PrismC:  IPart=  6 JobTyp=22 DoJE=F Cont=F.
 PrismC:  IPart=     6 DynPar=T LinDyn=F Incr=        1024 UseFst=F UseS4=T ISplat=2.
 PrismC was handed    33262596 working-precision words and 13014 shell-pairs
 Enter PrismC:  IPart= 13 JobTyp=22 DoJE=F Cont=F.
 PrismC:  IPart=    13 DynPar=T LinDyn=F Incr=        1024 UseFst=F UseS4=T ISplat=2.
 PrismC was handed    33262596 working-precision words and 13014 shell-pairs
 Enter PrismC:  IPart=  7 JobTyp=22 DoJE=F Cont=F.
 PrismC:  IPart=     7 DynPar=T LinDyn=F Incr=        1024 UseFst=F UseS4=T ISplat=2.
 PrismC was handed    33262596 working-precision words and 13014 shell-pairs
 Enter PrismC:  IPart= 15 JobTyp=22 DoJE=F Cont=F.
 PrismC:  IPart=    15 DynPar=T LinDyn=F Incr=        1024 UseFst=F UseS4=T ISplat=2.
 PrismC was handed    33262596 working-precision words and 13014 shell-pairs
 Enter PrismC:  IPart= 19 JobTyp=22 DoJE=F Cont=F.
 PrismC:  IPart=    19 DynPar=T LinDyn=F Incr=        1024 UseFst=F UseS4=T ISplat=2.
 PrismC was handed    33262596 working-precision words and 13014 shell-pairs
