 Entering Gaussian System, Link 0=g16
 Input=verytight/species/CCCCCCC/conformers/CCCCCCC_422.com
 Output=verytight/species/CCCCCCC/conformers/CCCCCCC_422.log
 Initial command:
 /shared/centos7/gaussian/g16/l1.exe "/scratch/harms.n/gauss_scrdir/Gau-45986.inp" -scrdir="/scratch/harms.n/gauss_scrdir/"
 Entering Link 1 = /shared/centos7/gaussian/g16/l1.exe PID=     45987.
  
 Copyright (c) 1988,1990,1992,1993,1995,1998,2003,2009,2016,
            Gaussian, Inc.  All Rights Reserved.
  
 This is part of the Gaussian(R) 16 program.  It is based on
 the Gaussian(R) 09 system (copyright 2009, Gaussian, Inc.),
 the Gaussian(R) 03 system (copyright 2003, Gaussian, Inc.),
 the Gaussian(R) 98 system (copyright 1998, Gaussian, Inc.),
 the Gaussian(R) 94 system (copyright 1995, Gaussian, Inc.),
 the Gaussian 92(TM) system (copyright 1992, Gaussian, Inc.),
 the Gaussian 90(TM) system (copyright 1990, Gaussian, Inc.),
 the Gaussian 88(TM) system (copyright 1988, Gaussian, Inc.),
 the Gaussian 86(TM) system (copyright 1986, Carnegie Mellon
 University), and the Gaussian 82(TM) system (copyright 1983,
 Carnegie Mellon University). Gaussian is a federally registered
 trademark of Gaussian, Inc.
  
 This software contains proprietary and confidential information,
 including trade secrets, belonging to Gaussian, Inc.
  
 This software is provided under written license and may be
 used, copied, transmitted, or stored only in accord with that
 written license.
  
 The following legend is applicable only to US Government
 contracts under FAR:
  
                    RESTRICTED RIGHTS LEGEND
  
 Use, reproduction and disclosure by the US Government is
 subject to restrictions as set forth in subparagraphs (a)
 and (c) of the Commercial Computer Software - Restricted
 Rights clause in FAR 52.227-19.
  
 Gaussian, Inc.
 340 Quinnipiac St., Bldg. 40, Wallingford CT 06492
  
  
 ---------------------------------------------------------------
 Warning -- This program may not be used in any manner that
 competes with the business of Gaussian, Inc. or will provide
 assistance to any competitor of Gaussian, Inc.  The licensee
 of this program is prohibited from giving any competitor of
 Gaussian, Inc. access to this program.  By using this program,
 the user acknowledges that Gaussian, Inc. is engaged in the
 business of creating and licensing software in the field of
 computational chemistry and represents and warrants to the
 licensee that it is not a competitor of Gaussian, Inc. and that
 it will not use this program in any manner prohibited above.
 ---------------------------------------------------------------
  

 Cite this work as:
 Gaussian 16, Revision A.03,
 M. J. Frisch, G. W. Trucks, H. B. Schlegel, G. E. Scuseria, 
 M. A. Robb, J. R. Cheeseman, G. Scalmani, V. Barone, 
 G. A. Petersson, H. Nakatsuji, X. Li, M. Caricato, A. V. Marenich, 
 J. Bloino, B. G. Janesko, R. Gomperts, B. Mennucci, H. P. Hratchian, 
 J. V. Ortiz, A. F. Izmaylov, J. L. Sonnenberg, D. Williams-Young, 
 F. Ding, F. Lipparini, F. Egidi, J. Goings, B. Peng, A. Petrone, 
 T. Henderson, D. Ranasinghe, V. G. Zakrzewski, J. Gao, N. Rega, 
 G. Zheng, W. Liang, M. Hada, M. Ehara, K. Toyota, R. Fukuda, 
 J. Hasegawa, M. Ishida, T. Nakajima, Y. Honda, O. Kitao, H. Nakai, 
 T. Vreven, K. Throssell, J. A. Montgomery, Jr., J. E. Peralta, 
 F. Ogliaro, M. J. Bearpark, J. J. Heyd, E. N. Brothers, K. N. Kudin, 
 V. N. Staroverov, T. A. Keith, R. Kobayashi, J. Normand, 
 K. Raghavachari, A. P. Rendell, J. C. Burant, S. S. Iyengar, 
 J. Tomasi, M. Cossi, J. M. Millam, M. Klene, C. Adamo, R. Cammi, 
 J. W. Ochterski, R. L. Martin, K. Morokuma, O. Farkas, 
 J. B. Foresman, and D. J. Fox, Gaussian, Inc., Wallingford CT, 2016.
 
 ******************************************
 Gaussian 16:  EM64L-G16RevA.03 25-Dec-2016
                29-Sep-2019 
 ******************************************
 %nprocshared=20
 Will use up to   20 processors via shared memory.
 %mem=5GB
 ----------------------------------------------------------------------
 #p m062x/cc-pVTZ opt=(calcfc,maxcycles=900,Tight) freq IOP(7/33=1,2/16
 =3) scf=(maxcycle=900)
 ----------------------------------------------------------------------
 1/6=900,7=10,10=4,18=20,19=15,26=3,38=1/1,3;
 2/9=110,12=2,16=3,17=6,18=5,40=1/2;
 3/5=16,6=1,11=2,25=1,30=1,71=2,74=-55,140=1/1,2,3;
 4//1;
 5/5=2,7=900,38=5/2;
 8/6=4,10=90,11=11/1;
 11/6=1,8=1,9=11,15=111,16=1/1,2,10;
 10/6=1,13=1/2;
 6/7=2,8=2,9=2,10=2,28=1/1;
 7/10=1,18=20,25=1,33=1/1,2,3,16;
 1/6=900,7=10,10=4,18=20,19=15,26=3/3(2);
 2/9=110,16=3/2;
 99//99;
 2/9=110,16=3/2;
 3/5=16,6=1,11=2,25=1,30=1,71=1,74=-55/1,2,3;
 4/5=5,16=3,69=1/1;
 5/5=2,7=900,38=5/2;
 7/33=1/1,2,3,16;
 1/6=900,7=10,18=20,19=15,26=3/3(-5);
 2/9=110,16=3/2;
 6/7=2,8=2,9=2,10=2,19=2,28=1/1;
 99/9=1/99;
 Leave Link    1 at Sun Sep 29 10:57:17 2019, MaxMem=   671088640 cpu:               4.1 elap:               2.1
 (Enter /shared/centos7/gaussian/g16/l101.exe)
 ------------------------------
 Gaussian input prepared by ASE
 ------------------------------
 Symbolic Z-matrix:
 Charge =  0 Multiplicity = 1
 C                     1.10012  -1.21927   0.28578 
 C                    -0.02206  -0.43804   0.87938 
 C                     0.36026   0.9063    1.44645 
 C                     1.85379  -0.50228  -0.7833 
 C                    -0.21314   2.08443   0.69483 
 C                     2.8054   -1.34581  -1.52658 
 C                     0.33323   2.26168  -0.698 
 H                     2.40913   0.3611   -0.31928 
 H                     1.13237  -0.03496  -1.49529 
 H                     0.68937  -2.16716  -0.1221 
 H                     1.80539  -1.51885   1.08796 
 H                    -0.48105  -1.04569   1.67485 
 H                    -0.81453  -0.30778   0.11239 
 H                     1.45835   1.00305   1.49052 
 H                     0.00871   0.96836   2.49702 
 H                    -1.3278    1.97555   0.63823 
 H                    -0.02366   3.00488   1.27287 
 H                     3.56498  -1.79016  -0.85615 
 H                     2.27745  -2.1959   -2.05208 
 H                     3.33932  -0.75477  -2.30058 
 H                     0.27309   1.3365   -1.27246 
 H                     1.41309   2.57586  -0.66538 
 H                    -0.2389    3.06269  -1.24838 
 
 ITRead=  0  0  0  0  0  0  0  0  0  0  0  0  0  0  0  0  0  0  0  0
 ITRead=  0  0  0
 MicOpt= -1 -1 -1 -1 -1 -1 -1 -1 -1 -1 -1 -1 -1 -1 -1 -1 -1 -1 -1 -1
 MicOpt= -1 -1 -1
 NAtoms=     23 NQM=       23 NQMF=       0 NMMI=      0 NMMIF=      0
                NMic=       0 NMicF=      0.
                    Isotopes and Nuclear Properties:
 (Nuclear quadrupole moments (NQMom) in fm**2, nuclear magnetic moments (NMagM)
  in nuclear magnetons)

  Atom         1           2           3           4           5           6           7           8           9          10
 IAtWgt=          12          12          12          12          12          12          12           1           1           1
 AtmWgt=  12.0000000  12.0000000  12.0000000  12.0000000  12.0000000  12.0000000  12.0000000   1.0078250   1.0078250   1.0078250
 NucSpn=           0           0           0           0           0           0           0           1           1           1
 AtZEff=  -0.0000000  -0.0000000  -0.0000000  -0.0000000  -0.0000000  -0.0000000  -0.0000000  -0.0000000  -0.0000000  -0.0000000
 NQMom=    0.0000000   0.0000000   0.0000000   0.0000000   0.0000000   0.0000000   0.0000000   0.0000000   0.0000000   0.0000000
 NMagM=    0.0000000   0.0000000   0.0000000   0.0000000   0.0000000   0.0000000   0.0000000   2.7928460   2.7928460   2.7928460
 AtZNuc=   6.0000000   6.0000000   6.0000000   6.0000000   6.0000000   6.0000000   6.0000000   1.0000000   1.0000000   1.0000000

  Atom        11          12          13          14          15          16          17          18          19          20
 IAtWgt=           1           1           1           1           1           1           1           1           1           1
 AtmWgt=   1.0078250   1.0078250   1.0078250   1.0078250   1.0078250   1.0078250   1.0078250   1.0078250   1.0078250   1.0078250
 NucSpn=           1           1           1           1           1           1           1           1           1           1
 AtZEff=  -0.0000000  -0.0000000  -0.0000000  -0.0000000  -0.0000000  -0.0000000  -0.0000000  -0.0000000  -0.0000000  -0.0000000
 NQMom=    0.0000000   0.0000000   0.0000000   0.0000000   0.0000000   0.0000000   0.0000000   0.0000000   0.0000000   0.0000000
 NMagM=    2.7928460   2.7928460   2.7928460   2.7928460   2.7928460   2.7928460   2.7928460   2.7928460   2.7928460   2.7928460
 AtZNuc=   1.0000000   1.0000000   1.0000000   1.0000000   1.0000000   1.0000000   1.0000000   1.0000000   1.0000000   1.0000000

  Atom        21          22          23
 IAtWgt=           1           1           1
 AtmWgt=   1.0078250   1.0078250   1.0078250
 NucSpn=           1           1           1
 AtZEff=  -0.0000000  -0.0000000  -0.0000000
 NQMom=    0.0000000   0.0000000   0.0000000
 NMagM=    2.7928460   2.7928460   2.7928460
 AtZNuc=   1.0000000   1.0000000   1.0000000
 Leave Link  101 at Sun Sep 29 10:57:18 2019, MaxMem=   671088640 cpu:               2.9 elap:               1.5
 (Enter /shared/centos7/gaussian/g16/l103.exe)

 GradGradGradGradGradGradGradGradGradGradGradGradGradGradGradGradGradGrad
 Berny optimization.
 Initialization pass.
                           ----------------------------
                           !    Initial Parameters    !
                           ! (Angstroms and Degrees)  !
 --------------------------                            --------------------------
 ! Name  Definition              Value          Derivative Info.                !
 --------------------------------------------------------------------------------
 ! R1    R(1,2)                  1.4906         calculate D2E/DX2 analytically  !
 ! R2    R(1,4)                  1.4917         calculate D2E/DX2 analytically  !
 ! R3    R(1,10)                 1.1107         calculate D2E/DX2 analytically  !
 ! R4    R(1,11)                 1.1093         calculate D2E/DX2 analytically  !
 ! R5    R(2,3)                  1.5083         calculate D2E/DX2 analytically  !
 ! R6    R(2,12)                 1.1012         calculate D2E/DX2 analytically  !
 ! R7    R(2,13)                 1.1105         calculate D2E/DX2 analytically  !
 ! R8    R(3,5)                  1.5105         calculate D2E/DX2 analytically  !
 ! R9    R(3,14)                 1.1032         calculate D2E/DX2 analytically  !
 ! R10   R(3,15)                 1.1096         calculate D2E/DX2 analytically  !
 ! R11   R(4,6)                  1.473          calculate D2E/DX2 analytically  !
 ! R12   R(4,8)                  1.1266         calculate D2E/DX2 analytically  !
 ! R13   R(4,9)                  1.1161         calculate D2E/DX2 analytically  !
 ! R14   R(5,7)                  1.5066         calculate D2E/DX2 analytically  !
 ! R15   R(5,16)                 1.1214         calculate D2E/DX2 analytically  !
 ! R16   R(5,17)                 1.1033         calculate D2E/DX2 analytically  !
 ! R17   R(6,18)                 1.1063         calculate D2E/DX2 analytically  !
 ! R18   R(6,19)                 1.1303         calculate D2E/DX2 analytically  !
 ! R19   R(6,20)                 1.1106         calculate D2E/DX2 analytically  !
 ! R20   R(7,21)                 1.0907         calculate D2E/DX2 analytically  !
 ! R21   R(7,22)                 1.1251         calculate D2E/DX2 analytically  !
 ! R22   R(7,23)                 1.1278         calculate D2E/DX2 analytically  !
 ! A1    A(2,1,4)              114.4474         calculate D2E/DX2 analytically  !
 ! A2    A(2,1,10)             108.3674         calculate D2E/DX2 analytically  !
 ! A3    A(2,1,11)             109.4015         calculate D2E/DX2 analytically  !
 ! A4    A(4,1,10)             109.5043         calculate D2E/DX2 analytically  !
 ! A5    A(4,1,11)             109.0776         calculate D2E/DX2 analytically  !
 ! A6    A(10,1,11)            105.6766         calculate D2E/DX2 analytically  !
 ! A7    A(1,2,3)              115.215          calculate D2E/DX2 analytically  !
 ! A8    A(1,2,12)             108.1945         calculate D2E/DX2 analytically  !
 ! A9    A(1,2,13)             108.8849         calculate D2E/DX2 analytically  !
 ! A10   A(3,2,12)             109.0187         calculate D2E/DX2 analytically  !
 ! A11   A(3,2,13)             109.6331         calculate D2E/DX2 analytically  !
 ! A12   A(12,2,13)            105.4376         calculate D2E/DX2 analytically  !
 ! A13   A(2,3,5)              114.3222         calculate D2E/DX2 analytically  !
 ! A14   A(2,3,14)             110.2112         calculate D2E/DX2 analytically  !
 ! A15   A(2,3,15)             108.9971         calculate D2E/DX2 analytically  !
 ! A16   A(5,3,14)             109.2267         calculate D2E/DX2 analytically  !
 ! A17   A(5,3,15)             107.8927         calculate D2E/DX2 analytically  !
 ! A18   A(14,3,15)            105.8205         calculate D2E/DX2 analytically  !
 ! A19   A(1,4,6)              114.3818         calculate D2E/DX2 analytically  !
 ! A20   A(1,4,8)              108.7986         calculate D2E/DX2 analytically  !
 ! A21   A(1,4,9)              109.3824         calculate D2E/DX2 analytically  !
 ! A22   A(6,4,8)              109.1635         calculate D2E/DX2 analytically  !
 ! A23   A(6,4,9)              109.6007         calculate D2E/DX2 analytically  !
 ! A24   A(8,4,9)              105.0993         calculate D2E/DX2 analytically  !
 ! A25   A(3,5,7)              114.4626         calculate D2E/DX2 analytically  !
 ! A26   A(3,5,16)             109.0691         calculate D2E/DX2 analytically  !
 ! A27   A(3,5,17)             108.9537         calculate D2E/DX2 analytically  !
 ! A28   A(7,5,16)             108.9792         calculate D2E/DX2 analytically  !
 ! A29   A(7,5,17)             108.9002         calculate D2E/DX2 analytically  !
 ! A30   A(16,5,17)            106.1501         calculate D2E/DX2 analytically  !
 ! A31   A(4,6,18)             111.58           calculate D2E/DX2 analytically  !
 ! A32   A(4,6,19)             111.319          calculate D2E/DX2 analytically  !
 ! A33   A(4,6,20)             110.9463         calculate D2E/DX2 analytically  !
 ! A34   A(18,6,19)            107.4805         calculate D2E/DX2 analytically  !
 ! A35   A(18,6,20)            107.8189         calculate D2E/DX2 analytically  !
 ! A36   A(19,6,20)            107.5046         calculate D2E/DX2 analytically  !
 ! A37   A(5,7,21)             111.5385         calculate D2E/DX2 analytically  !
 ! A38   A(5,7,22)             110.7387         calculate D2E/DX2 analytically  !
 ! A39   A(5,7,23)             110.5331         calculate D2E/DX2 analytically  !
 ! A40   A(21,7,22)            107.7626         calculate D2E/DX2 analytically  !
 ! A41   A(21,7,23)            108.51           calculate D2E/DX2 analytically  !
 ! A42   A(22,7,23)            107.6209         calculate D2E/DX2 analytically  !
 ! D1    D(4,1,2,3)            -55.7657         calculate D2E/DX2 analytically  !
 ! D2    D(4,1,2,12)          -178.0366         calculate D2E/DX2 analytically  !
 ! D3    D(4,1,2,13)            67.8481         calculate D2E/DX2 analytically  !
 ! D4    D(10,1,2,3)          -178.272          calculate D2E/DX2 analytically  !
 ! D5    D(10,1,2,12)           59.4571         calculate D2E/DX2 analytically  !
 ! D6    D(10,1,2,13)          -54.6581         calculate D2E/DX2 analytically  !
 ! D7    D(11,1,2,3)            66.97           calculate D2E/DX2 analytically  !
 ! D8    D(11,1,2,12)          -55.3009         calculate D2E/DX2 analytically  !
 ! D9    D(11,1,2,13)         -169.4161         calculate D2E/DX2 analytically  !
 ! D10   D(2,1,4,6)           -170.0225         calculate D2E/DX2 analytically  !
 ! D11   D(2,1,4,8)             67.6337         calculate D2E/DX2 analytically  !
 ! D12   D(2,1,4,9)            -46.6629         calculate D2E/DX2 analytically  !
 ! D13   D(10,1,4,6)           -48.1356         calculate D2E/DX2 analytically  !
 ! D14   D(10,1,4,8)          -170.4795         calculate D2E/DX2 analytically  !
 ! D15   D(10,1,4,9)            75.2239         calculate D2E/DX2 analytically  !
 ! D16   D(11,1,4,6)            67.0666         calculate D2E/DX2 analytically  !
 ! D17   D(11,1,4,8)           -55.2773         calculate D2E/DX2 analytically  !
 ! D18   D(11,1,4,9)          -169.5738         calculate D2E/DX2 analytically  !
 ! D19   D(1,2,3,5)            112.9097         calculate D2E/DX2 analytically  !
 ! D20   D(1,2,3,14)           -10.5597         calculate D2E/DX2 analytically  !
 ! D21   D(1,2,3,15)          -126.2807         calculate D2E/DX2 analytically  !
 ! D22   D(12,2,3,5)          -125.2626         calculate D2E/DX2 analytically  !
 ! D23   D(12,2,3,14)          111.268          calculate D2E/DX2 analytically  !
 ! D24   D(12,2,3,15)           -4.453          calculate D2E/DX2 analytically  !
 ! D25   D(13,2,3,5)           -10.3079         calculate D2E/DX2 analytically  !
 ! D26   D(13,2,3,14)         -133.7773         calculate D2E/DX2 analytically  !
 ! D27   D(13,2,3,15)          110.5017         calculate D2E/DX2 analytically  !
 ! D28   D(2,3,5,7)            -67.2057         calculate D2E/DX2 analytically  !
 ! D29   D(2,3,5,16)            55.1589         calculate D2E/DX2 analytically  !
 ! D30   D(2,3,5,17)           170.6195         calculate D2E/DX2 analytically  !
 ! D31   D(14,3,5,7)            56.7921         calculate D2E/DX2 analytically  !
 ! D32   D(14,3,5,16)          179.1567         calculate D2E/DX2 analytically  !
 ! D33   D(14,3,5,17)          -65.3827         calculate D2E/DX2 analytically  !
 ! D34   D(15,3,5,7)           171.3744         calculate D2E/DX2 analytically  !
 ! D35   D(15,3,5,16)          -66.2609         calculate D2E/DX2 analytically  !
 ! D36   D(15,3,5,17)           49.1997         calculate D2E/DX2 analytically  !
 ! D37   D(1,4,6,18)           -59.3071         calculate D2E/DX2 analytically  !
 ! D38   D(1,4,6,19)            60.7664         calculate D2E/DX2 analytically  !
 ! D39   D(1,4,6,20)          -179.5564         calculate D2E/DX2 analytically  !
 ! D40   D(8,4,6,18)            62.8378         calculate D2E/DX2 analytically  !
 ! D41   D(8,4,6,19)          -177.0887         calculate D2E/DX2 analytically  !
 ! D42   D(8,4,6,20)           -57.4115         calculate D2E/DX2 analytically  !
 ! D43   D(9,4,6,18)           177.4509         calculate D2E/DX2 analytically  !
 ! D44   D(9,4,6,19)           -62.4755         calculate D2E/DX2 analytically  !
 ! D45   D(9,4,6,20)            57.2016         calculate D2E/DX2 analytically  !
 ! D46   D(3,5,7,21)            51.1924         calculate D2E/DX2 analytically  !
 ! D47   D(3,5,7,22)           -68.8171         calculate D2E/DX2 analytically  !
 ! D48   D(3,5,7,23)           172.0086         calculate D2E/DX2 analytically  !
 ! D49   D(16,5,7,21)          -71.221          calculate D2E/DX2 analytically  !
 ! D50   D(16,5,7,22)          168.7694         calculate D2E/DX2 analytically  !
 ! D51   D(16,5,7,23)           49.5951         calculate D2E/DX2 analytically  !
 ! D52   D(17,5,7,21)          173.3964         calculate D2E/DX2 analytically  !
 ! D53   D(17,5,7,22)           53.3868         calculate D2E/DX2 analytically  !
 ! D54   D(17,5,7,23)          -65.7875         calculate D2E/DX2 analytically  !
 --------------------------------------------------------------------------------
 Trust Radius=3.00D-01 FncErr=1.00D-07 GrdErr=1.00D-06 EigMax=2.50D+02 EigMin=1.00D-04
 Number of steps in this run=    138 maximum allowed number of steps=    138.
 GradGradGradGradGradGradGradGradGradGradGradGradGradGradGradGradGradGrad

 Leave Link  103 at Sun Sep 29 10:57:19 2019, MaxMem=   671088640 cpu:               1.8 elap:               0.9
 (Enter /shared/centos7/gaussian/g16/l202.exe)
                          Input orientation:                          
 ---------------------------------------------------------------------
 Center     Atomic      Atomic             Coordinates (Angstroms)
 Number     Number       Type             X           Y           Z
 ---------------------------------------------------------------------
      1          6           0        1.100125   -1.219271    0.285783
      2          6           0       -0.022057   -0.438042    0.879377
      3          6           0        0.360256    0.906298    1.446446
      4          6           0        1.853788   -0.502276   -0.783298
      5          6           0       -0.213140    2.084429    0.694831
      6          6           0        2.805400   -1.345814   -1.526578
      7          6           0        0.333231    2.261677   -0.698003
      8          1           0        2.409132    0.361100   -0.319283
      9          1           0        1.132368   -0.034962   -1.495285
     10          1           0        0.689370   -2.167159   -0.122097
     11          1           0        1.805394   -1.518846    1.087965
     12          1           0       -0.481049   -1.045688    1.674851
     13          1           0       -0.814535   -0.307782    0.112391
     14          1           0        1.458354    1.003055    1.490520
     15          1           0        0.008712    0.968358    2.497022
     16          1           0       -1.327797    1.975548    0.638226
     17          1           0       -0.023664    3.004881    1.272869
     18          1           0        3.564981   -1.790161   -0.856151
     19          1           0        2.277449   -2.195901   -2.052084
     20          1           0        3.339322   -0.754771   -2.300585
     21          1           0        0.273086    1.336497   -1.272462
     22          1           0        1.413085    2.575860   -0.665381
     23          1           0       -0.238902    3.062694   -1.248385
 ---------------------------------------------------------------------
                    Distance matrix (angstroms):
                    1          2          3          4          5
     1  C    0.000000
     2  C    1.490625   0.000000
     3  C    2.532309   1.508304   0.000000
     4  C    1.491652   2.507471   3.030921   0.000000
     5  C    3.578606   2.536421   1.510531   3.626031   0.000000
     6  C    2.491713   3.821935   4.459777   1.472952   5.080631
     7  C    3.697697   3.146878   2.537016   3.155758   1.506627
     8  H    2.139434   2.825968   2.759154   1.126559   3.297666
     9  H    2.139120   2.670991   3.183695   1.116134   3.331489
    10  H    1.110665   2.121066   3.466234   2.136560   4.422431
    11  H    1.109344   2.133359   2.845743   2.130113   4.148810
    12  H    2.111811   1.101220   2.137805   3.433548   3.290874
    13  H    2.127628   1.110520   2.152632   2.821353   2.534479
    14  H    2.553126   2.154501   1.103233   2.755474   2.143918
    15  H    3.296435   2.143755   1.109570   4.040740   2.131367
    16  H    4.028137   2.754729   2.155468   4.275842   1.121392
    17  H    4.481150   3.465337   2.140462   4.478035   1.103295
    18  H    2.775868   4.207983   4.779446   2.142927   5.629581
    19  H    2.793837   4.119619   5.053611   2.158164   5.663021
    20  H    3.452401   4.638033   5.066974   2.138393   5.445508
    21  H    3.105491   2.804730   2.754112   2.473659   2.160106
    22  H    3.925007   3.678249   2.890623   3.111759   2.176301
    23  H    4.741507   4.102383   3.503020   4.159888   2.175719
                    6          7          8          9         10
     6  C    0.000000
     7  C    4.451084   0.000000
     8  H    2.127944   2.839892   0.000000
     9  H    2.125641   2.559068   1.780442   0.000000
    10  H    2.669224   4.480300   3.064075   2.574520   0.000000
    11  H    2.804601   4.432753   2.424673   3.054187   1.769200
    12  H    4.597822   4.151163   3.782693   3.697897   2.420041
    13  H    4.107026   2.928519   3.320508   2.539583   2.402914
    14  H    4.053961   2.763994   2.142771   3.177858   3.638973
    15  H    5.419061   3.462106   3.749981   4.267057   4.141805
    16  H    5.727228   2.150905   4.181854   3.827066   4.670018
    17  H    5.896529   2.136367   3.929761   4.270800   5.404104
    18  H    1.106291   5.185229   2.500427   3.067054   2.991672
    19  H    1.130281   5.048120   3.091633   2.508165   2.499534
    20  H    1.110627   4.550144   2.456823   2.457088   3.709838
    21  H    3.697565   1.090678   2.534293   1.633682   3.711096
    22  H    4.249674   1.125104   2.452969   2.753895   4.828576
    23  H    5.364710   1.127778   3.895372   3.396588   5.429693
                   11         12         13         14         15
    11  H    0.000000
    12  H    2.407515   0.000000
    13  H    3.046711   1.759829   0.000000
    14  H    2.577299   2.827120   2.963706   0.000000
    15  H    3.376343   2.229846   2.827142   1.765139   0.000000
    16  H    4.714863   3.304458   2.398652   3.071610   2.501162
    17  H    4.883006   4.096084   3.598044   2.500212   2.376347
    18  H    2.636161   4.830172   4.723947   4.212694   5.612508
    19  H    3.246713   4.777273   4.220227   4.842962   5.987827
    20  H    3.797238   5.521228   4.824602   4.582627   6.089267
    21  H    4.009060   3.863959   2.409230   3.024915   3.796634
    22  H    4.471548   4.709569   3.725937   2.669021   3.815379
    23  H    5.534273   5.048044   3.680104   3.824185   4.298328
                   16         17         18         19         20
    16  H    0.000000
    17  H    1.778500   0.000000
    18  H    6.352401   6.356377   0.000000
    19  H    6.134864   6.587759   1.803502   0.000000
    20  H    6.154125   6.181766   1.791464   1.807259   0.000000
    21  H    2.573313   3.057822   4.559153   4.135592   3.851265
    22  H    3.093897   2.450534   4.871261   5.043786   4.180596
    23  H    2.434518   2.531084   6.178476   5.884792   5.337027
                   21         22         23
    21  H    0.000000
    22  H    1.790019   0.000000
    23  H    1.800685   1.818231   0.000000
 Stoichiometry    C7H16
 Framework group  C1[X(C7H16)]
 Deg. of freedom    63
 Full point group                 C1      NOp   1
 Largest Abelian subgroup         C1      NOp   1
 Largest concise Abelian subgroup C1      NOp   1
                         Standard orientation:                         
 ---------------------------------------------------------------------
 Center     Atomic      Atomic             Coordinates (Angstroms)
 Number     Number       Type             X           Y           Z
 ---------------------------------------------------------------------
      1          6           0        1.084294   -1.050182   -0.136916
      2          6           0       -0.345171   -1.343949   -0.440718
      3          6           0       -1.336370   -0.829986    0.573357
      4          6           0        1.388121    0.396351    0.063727
      5          6           0       -2.235727    0.270566    0.061845
      6          6           0        2.825196    0.711879    0.133327
      7          6           0       -1.527284    1.565542   -0.239935
      8          1           0        0.886744    0.744682    1.010523
      9          1           0        0.913263    0.991279   -0.752560
     10          1           0        1.707240   -1.448459   -0.965704
     11          1           0        1.392299   -1.614197    0.767332
     12          1           0       -0.459764   -2.435264   -0.533376
     13          1           0       -0.590994   -0.934714   -1.443391
     14          1           0       -0.809765   -0.478395    1.476792
     15          1           0       -1.980725   -1.669675    0.906335
     16          1           0       -2.757893   -0.084082   -0.865025
     17          1           0       -3.027460    0.461366    0.806167
     18          1           0        3.320432    0.172822    0.962808
     19          1           0        3.355664    0.425013   -0.822627
     20          1           0        2.985718    1.799473    0.291007
     21          1           0       -0.661060    1.407525   -0.883569
     22          1           0       -1.166334    2.052491    0.707934
     23          1           0       -2.225722    2.288811   -0.750769
 ---------------------------------------------------------------------
 Rotational constants (GHZ):           3.7764117           1.5235674           1.1933289
 Leave Link  202 at Sun Sep 29 10:57:21 2019, MaxMem=   671088640 cpu:               3.8 elap:               1.9
 (Enter /shared/centos7/gaussian/g16/l301.exe)
 Standard basis: CC-pVTZ (5D, 7F)
 Ernie: Thresh=  0.10000D-02 Tol=  0.10000D-05 Strict=F.
 Ernie:  21 primitive shells out of 310 were deleted.
 There are   485 symmetry adapted cartesian basis functions of A   symmetry.
 There are   434 symmetry adapted basis functions of A   symmetry.
   434 basis functions,   636 primitive gaussians,   485 cartesian basis functions
    29 alpha electrons       29 beta electrons
       nuclear repulsion energy       331.6371174622 Hartrees.
 IExCor= 4336 DFT=T Ex+Corr=M062X ExCW=0 ScaHFX=  0.540000
 ScaDFX=  1.000000  1.000000  1.000000  1.000000 ScalE2=  1.000000  1.000000
 IRadAn=      5 IRanWt=     -1 IRanGd=            0 ICorTp=0 IEmpDi=  4
 NAtoms=   23 NActive=   23 NUniq=   23 SFac= 1.00D+00 NAtFMM=   60 NAOKFM=F Big=F
 Integral buffers will be    131072 words long.
 Raffenetti 2 integral format.
 Two-electron integral symmetry is turned on.
 Leave Link  301 at Sun Sep 29 10:57:22 2019, MaxMem=   671088640 cpu:               1.7 elap:               0.9
 (Enter /shared/centos7/gaussian/g16/l302.exe)
 NPDir=0 NMtPBC=     1 NCelOv=     1 NCel=       1 NClECP=     1 NCelD=      1
         NCelK=      1 NCelE2=     1 NClLst=     1 CellRange=     0.0.
 One-electron integrals computed using PRISM.
 One-electron integral symmetry used in STVInt
 NBasis=   434 RedAO= T EigKep=  2.60D-04  NBF=   434
 NBsUse=   434 1.00D-06 EigRej= -1.00D+00 NBFU=   434
 Precomputing XC quadrature grid using
 IXCGrd= 4 IRadAn=           5 IRanWt=          -1 IRanGd=           0 AccXCQ= 0.00D+00.
 Generated NRdTot=       0 NPtTot=           0 NUsed=           0 NTot=          32
 NSgBfM=   485   485   485   485   485 MxSgAt=    23 MxSgA2=    23.
 Leave Link  302 at Sun Sep 29 10:58:52 2019, MaxMem=   671088640 cpu:             179.6 elap:              89.8
 (Enter /shared/centos7/gaussian/g16/l303.exe)
 DipDrv:  MaxL=1.
 Leave Link  303 at Sun Sep 29 10:58:56 2019, MaxMem=   671088640 cpu:               9.1 elap:               4.6
 (Enter /shared/centos7/gaussian/g16/l401.exe)
 ExpMin= 1.03D-01 ExpMax= 8.24D+03 ExpMxC= 2.81D+02 IAcc=3 IRadAn=         5 AccDes= 0.00D+00
 Harris functional with IExCor= 1009 and IRadAn=       5 diagonalized for initial guess.
 HarFok:  IExCor= 1009 AccDes= 0.00D+00 IRadAn=         5 IDoV= 1 UseB2=F ITyADJ=14
 ICtDFT=  3500011 ScaDFX=  1.000000  1.000000  1.000000  1.000000
 FoFCou: FMM=F IPFlag=           0 FMFlag=      100000 FMFlg1=           0
         NFxFlg=           0 DoJE=T BraDBF=F KetDBF=T FulRan=T
         wScrn=  0.000000 ICntrl=       500 IOpCl=  0 I1Cent=   200000004 NGrid=           0
         NMat0=    1 NMatS0=      1 NMatT0=    0 NMatD0=    1 NMtDS0=    0 NMtDT0=    0
 Petite list used in FoFCou.
 Harris En= -276.323289100014    
 JPrj=0 DoOrth=F DoCkMO=F.
 Leave Link  401 at Sun Sep 29 10:59:48 2019, MaxMem=   671088640 cpu:             102.9 elap:              51.5
 (Enter /shared/centos7/gaussian/g16/l502.exe)
 Integral symmetry usage will be decided dynamically.
 Closed shell SCF:
 Using DIIS extrapolation, IDIIS=  1040.
 NGot=   671088640 LenX=   670604095 LenY=   670368385
 Requested convergence on RMS density matrix=1.00D-08 within 900 cycles.
 Requested convergence on MAX density matrix=1.00D-06.
 Requested convergence on             energy=1.00D-06.
 No special actions if energy rises.
 Fock matrices will be formed incrementally for  20 cycles.
 Integral accuracy reduced to 1.0D-05 until final iterations.

 Cycle   1  Pass 0  IDiag  1:
 FoFJK:  IHMeth= 1 ICntrl=       0 DoSepK=F KAlg= 0 I1Cent=           0 FoldK=F
 IRaf= 950000000 NMat=       1 IRICut=       1 DoRegI=T DoRafI=F ISym2E= 0 IDoP0=0 IntGTp=1.
 FoFCou: FMM=F IPFlag=           0 FMFlag=      100000 FMFlg1=           0
         NFxFlg=           0 DoJE=F BraDBF=F KetDBF=F FulRan=T
         wScrn=  0.000000 ICntrl=         0 IOpCl=  0 I1Cent=           0 NGrid=           0
         NMat0=    1 NMatS0=      1 NMatT0=    0 NMatD0=    1 NMtDS0=    0 NMtDT0=    0
 Symmetry not used in FoFCou.
 E= -275.960558155878    
 DIIS: error= 2.66D-02 at cycle   1 NSaved=   1.
 NSaved= 1 IEnMin= 1 EnMin= -275.960558155878     IErMin= 1 ErrMin= 2.66D-02
 ErrMax= 2.66D-02  0.00D+00 EMaxC= 1.00D-01 BMatC= 3.73D-01 BMatP= 3.73D-01
 IDIUse=3 WtCom= 7.34D-01 WtEn= 2.66D-01
 Coeff-Com:  0.100D+01
 Coeff-En:   0.100D+01
 Coeff:      0.100D+01
 Gap=     0.369 Goal=   None    Shift=    0.000
 GapD=    0.369 DampG=1.000 DampE=0.500 DampFc=0.5000 IDamp=-1.
 Damping current iteration by 5.00D-01
 RMSDP=1.91D-03 MaxDP=7.26D-02              OVMax= 1.64D-01

 Cycle   2  Pass 0  IDiag  1:
 RMSU=  9.51D-04    CP:  9.90D-01
 E= -276.138375401756     Delta-E=       -0.177817245878 Rises=F Damp=T
 DIIS: error= 3.89D-03 at cycle   2 NSaved=   2.
 NSaved= 2 IEnMin= 2 EnMin= -276.138375401756     IErMin= 2 ErrMin= 3.89D-03
 ErrMax= 3.89D-03  0.00D+00 EMaxC= 1.00D-01 BMatC= 1.87D-02 BMatP= 3.73D-01
 IDIUse=3 WtCom= 9.61D-01 WtEn= 3.89D-02
 Coeff-Com: -0.516D-01 0.105D+01
 Coeff-En:   0.000D+00 0.100D+01
 Coeff:     -0.496D-01 0.105D+01
 Gap=     0.459 Goal=   None    Shift=    0.000
 RMSDP=5.78D-04 MaxDP=2.25D-02 DE=-1.78D-01 OVMax= 9.12D-02

 Cycle   3  Pass 0  IDiag  1:
 RMSU=  5.71D-04    CP:  9.98D-01  9.20D-01
 E= -276.316462817132     Delta-E=       -0.178087415376 Rises=F Damp=F
 DIIS: error= 2.45D-03 at cycle   3 NSaved=   3.
 NSaved= 3 IEnMin= 3 EnMin= -276.316462817132     IErMin= 3 ErrMin= 2.45D-03
 ErrMax= 2.45D-03  0.00D+00 EMaxC= 1.00D-01 BMatC= 3.04D-03 BMatP= 1.87D-02
 IDIUse=3 WtCom= 9.75D-01 WtEn= 2.45D-02
 Coeff-Com: -0.516D-01 0.258D+00 0.794D+00
 Coeff-En:   0.000D+00 0.000D+00 0.100D+01
 Coeff:     -0.504D-01 0.251D+00 0.799D+00
 Gap=     0.422 Goal=   None    Shift=    0.000
 RMSDP=1.22D-04 MaxDP=3.95D-03 DE=-1.78D-01 OVMax= 1.29D-02

 Cycle   4  Pass 0  IDiag  1:
 RMSU=  9.31D-05    CP:  9.97D-01  9.65D-01  8.86D-01
 E= -276.319060985678     Delta-E=       -0.002598168546 Rises=F Damp=F
 DIIS: error= 6.78D-04 at cycle   4 NSaved=   4.
 NSaved= 4 IEnMin= 4 EnMin= -276.319060985678     IErMin= 4 ErrMin= 6.78D-04
 ErrMax= 6.78D-04  0.00D+00 EMaxC= 1.00D-01 BMatC= 3.64D-04 BMatP= 3.04D-03
 IDIUse=3 WtCom= 9.93D-01 WtEn= 6.78D-03
 Coeff-Com: -0.147D-01 0.413D-01 0.293D+00 0.680D+00
 Coeff-En:   0.000D+00 0.000D+00 0.000D+00 0.100D+01
 Coeff:     -0.146D-01 0.411D-01 0.291D+00 0.682D+00
 Gap=     0.423 Goal=   None    Shift=    0.000
 RMSDP=3.64D-05 MaxDP=1.77D-03 DE=-2.60D-03 OVMax= 3.64D-03

 Cycle   5  Pass 0  IDiag  1:
 RMSU=  1.89D-05    CP:  9.97D-01  9.59D-01  9.27D-01  7.89D-01
 E= -276.319394732503     Delta-E=       -0.000333746825 Rises=F Damp=F
 DIIS: error= 1.63D-04 at cycle   5 NSaved=   5.
 NSaved= 5 IEnMin= 5 EnMin= -276.319394732503     IErMin= 5 ErrMin= 1.63D-04
 ErrMax= 1.63D-04  0.00D+00 EMaxC= 1.00D-01 BMatC= 1.81D-05 BMatP= 3.64D-04
 IDIUse=3 WtCom= 9.98D-01 WtEn= 1.63D-03
 Coeff-Com: -0.177D-02 0.113D-02 0.560D-01 0.235D+00 0.709D+00
 Coeff-En:   0.000D+00 0.000D+00 0.000D+00 0.000D+00 0.100D+01
 Coeff:     -0.177D-02 0.113D-02 0.559D-01 0.235D+00 0.710D+00
 Gap=     0.423 Goal=   None    Shift=    0.000
 RMSDP=6.72D-06 MaxDP=4.57D-04 DE=-3.34D-04 OVMax= 8.47D-04

 Initial convergence to 1.0D-05 achieved.  Increase integral accuracy.
 Cycle   6  Pass 1  IDiag  1:
 E= -276.319353974651     Delta-E=        0.000040757852 Rises=F Damp=F
 DIIS: error= 3.99D-05 at cycle   1 NSaved=   1.
 NSaved= 1 IEnMin= 1 EnMin= -276.319353974651     IErMin= 1 ErrMin= 3.99D-05
 ErrMax= 3.99D-05  0.00D+00 EMaxC= 1.00D-01 BMatC= 1.74D-06 BMatP= 1.74D-06
 IDIUse=1 WtCom= 1.00D+00 WtEn= 0.00D+00
 Coeff-Com:  0.100D+01
 Coeff:      0.100D+01
 Gap=     0.423 Goal=   None    Shift=    0.000
 RMSDP=6.72D-06 MaxDP=4.57D-04 DE= 4.08D-05 OVMax= 2.81D-04

 Cycle   7  Pass 1  IDiag  1:
 RMSU=  1.01D-05    CP:  1.00D+00
 E= -276.319354797290     Delta-E=       -0.000000822639 Rises=F Damp=F
 DIIS: error= 2.12D-05 at cycle   2 NSaved=   2.
 NSaved= 2 IEnMin= 2 EnMin= -276.319354797290     IErMin= 2 ErrMin= 2.12D-05
 ErrMax= 2.12D-05  0.00D+00 EMaxC= 1.00D-01 BMatC= 4.02D-07 BMatP= 1.74D-06
 IDIUse=1 WtCom= 1.00D+00 WtEn= 0.00D+00
 Coeff-Com:  0.274D+00 0.726D+00
 Coeff:      0.274D+00 0.726D+00
 Gap=     0.423 Goal=   None    Shift=    0.000
 RMSDP=1.35D-06 MaxDP=6.54D-05 DE=-8.23D-07 OVMax= 1.47D-04

 Cycle   8  Pass 1  IDiag  1:
 RMSU=  1.34D-06    CP:  1.00D+00  9.92D-01
 E= -276.319355124882     Delta-E=       -0.000000327592 Rises=F Damp=F
 DIIS: error= 9.01D-06 at cycle   3 NSaved=   3.
 NSaved= 3 IEnMin= 3 EnMin= -276.319355124882     IErMin= 3 ErrMin= 9.01D-06
 ErrMax= 9.01D-06  0.00D+00 EMaxC= 1.00D-01 BMatC= 7.36D-08 BMatP= 4.02D-07
 IDIUse=1 WtCom= 1.00D+00 WtEn= 0.00D+00
 Coeff-Com: -0.813D-03 0.291D+00 0.709D+00
 Coeff:     -0.813D-03 0.291D+00 0.709D+00
 Gap=     0.423 Goal=   None    Shift=    0.000
 RMSDP=4.60D-07 MaxDP=1.94D-05 DE=-3.28D-07 OVMax= 4.63D-05

 Cycle   9  Pass 1  IDiag  1:
 RMSU=  3.55D-07    CP:  1.00D+00  1.01D+00  8.17D-01
 E= -276.319355195027     Delta-E=       -0.000000070144 Rises=F Damp=F
 DIIS: error= 2.18D-06 at cycle   4 NSaved=   4.
 NSaved= 4 IEnMin= 4 EnMin= -276.319355195027     IErMin= 4 ErrMin= 2.18D-06
 ErrMax= 2.18D-06  0.00D+00 EMaxC= 1.00D-01 BMatC= 2.35D-09 BMatP= 7.36D-08
 IDIUse=1 WtCom= 1.00D+00 WtEn= 0.00D+00
 Coeff-Com: -0.105D-01 0.790D-01 0.255D+00 0.677D+00
 Coeff:     -0.105D-01 0.790D-01 0.255D+00 0.677D+00
 Gap=     0.423 Goal=   None    Shift=    0.000
 RMSDP=9.66D-08 MaxDP=3.66D-06 DE=-7.01D-08 OVMax= 1.04D-05

 Cycle  10  Pass 1  IDiag  1:
 RMSU=  8.33D-08    CP:  1.00D+00  1.01D+00  8.14D-01  8.78D-01
 E= -276.319355197380     Delta-E=       -0.000000002354 Rises=F Damp=F
 DIIS: error= 3.70D-07 at cycle   5 NSaved=   5.
 NSaved= 5 IEnMin= 5 EnMin= -276.319355197380     IErMin= 5 ErrMin= 3.70D-07
 ErrMax= 3.70D-07  0.00D+00 EMaxC= 1.00D-01 BMatC= 5.81D-11 BMatP= 2.35D-09
 IDIUse=1 WtCom= 1.00D+00 WtEn= 0.00D+00
 Coeff-Com: -0.546D-03-0.160D-01-0.352D-01 0.374D-01 0.101D+01
 Coeff:     -0.546D-03-0.160D-01-0.352D-01 0.374D-01 0.101D+01
 Gap=     0.423 Goal=   None    Shift=    0.000
 RMSDP=3.47D-08 MaxDP=1.24D-06 DE=-2.35D-09 OVMax= 2.54D-06

 Cycle  11  Pass 1  IDiag  1:
 RMSU=  1.74D-08    CP:  1.00D+00  1.01D+00  8.19D-01  9.52D-01  1.15D+00
 E= -276.319355197441     Delta-E=       -0.000000000061 Rises=F Damp=F
 DIIS: error= 1.44D-07 at cycle   6 NSaved=   6.
 NSaved= 6 IEnMin= 6 EnMin= -276.319355197441     IErMin= 6 ErrMin= 1.44D-07
 ErrMax= 1.44D-07  0.00D+00 EMaxC= 1.00D-01 BMatC= 1.69D-11 BMatP= 5.81D-11
 IDIUse=1 WtCom= 1.00D+00 WtEn= 0.00D+00
 Coeff-Com:  0.366D-03-0.119D-01-0.311D-01-0.242D-01 0.452D+00 0.615D+00
 Coeff:      0.366D-03-0.119D-01-0.311D-01-0.242D-01 0.452D+00 0.615D+00
 Gap=     0.423 Goal=   None    Shift=    0.000
 RMSDP=6.58D-09 MaxDP=2.96D-07 DE=-6.07D-11 OVMax= 6.87D-07

 SCF Done:  E(RM062X) =  -276.319355197     A.U. after   11 cycles
            NFock= 11  Conv=0.66D-08     -V/T= 2.0066
 KE= 2.745014543744D+02 PE=-1.301695508828D+03 EE= 4.192375817936D+02
 Leave Link  502 at Sun Sep 29 11:17:45 2019, MaxMem=   671088640 cpu:            2153.3 elap:            1076.8
 (Enter /shared/centos7/gaussian/g16/l801.exe)
 DoSCS=F DFT=T ScalE2(SS,OS)=  1.000000  1.000000
 Range of M.O.s used for correlation:     1   434
 NBasis=   434 NAE=    29 NBE=    29 NFC=     0 NFV=     0
 NROrb=    434 NOA=    29 NOB=    29 NVA=   405 NVB=   405

 **** Warning!!: The largest alpha MO coefficient is  0.11332198D+02

 Leave Link  801 at Sun Sep 29 11:17:46 2019, MaxMem=   671088640 cpu:               1.6 elap:               0.8
 (Enter /shared/centos7/gaussian/g16/l1101.exe)
 Using compressed storage, NAtomX=    23.
 Will process     24 centers per pass.
 Leave Link 1101 at Sun Sep 29 11:18:24 2019, MaxMem=   671088640 cpu:              77.0 elap:              38.5
 (Enter /shared/centos7/gaussian/g16/l1102.exe)
 Symmetrizing basis deriv contribution to polar:
 IMax=3 JMax=2 DiffMx= 0.00D+00
 Leave Link 1102 at Sun Sep 29 11:18:27 2019, MaxMem=   671088640 cpu:               5.5 elap:               2.8
 (Enter /shared/centos7/gaussian/g16/l1110.exe)
 Forming Gx(P) for the SCF density, NAtomX=    23.
 Integral derivatives from FoFJK, PRISM(SPDF).
 Do as many integral derivatives as possible in FoFJK.
 G2DrvN: MDV=     671086848.
 G2DrvN: will do    24 centers at a time, making    1 passes.
 Calling FoFCou, ICntrl=  3107 FMM=F I1Cent=   0 AccDes= 0.00D+00.
 FoFJK:  IHMeth= 1 ICntrl=    3107 DoSepK=F KAlg= 0 I1Cent=           0 FoldK=F
 IRaf=         0 NMat=       1 IRICut=       1 DoRegI=T DoRafI=F ISym2E= 0 IDoP0=0 IntGTp=1.
 FoFCou: FMM=F IPFlag=           0 FMFlag=      100000 FMFlg1=           0
         NFxFlg=           0 DoJE=F BraDBF=F KetDBF=F FulRan=T
         wScrn=  0.000000 ICntrl=      3107 IOpCl=  0 I1Cent=           0 NGrid=           0
         NMat0=    1 NMatS0=      1 NMatT0=    0 NMatD0=    1 NMtDS0=    0 NMtDT0=    0
 Symmetry not used in FoFCou.
 End of G2Drv F.D. properties file   721 does not exist.
 End of G2Drv F.D. properties file   722 does not exist.
 End of G2Drv F.D. properties file   788 does not exist.
 Leave Link 1110 at Sun Sep 29 12:04:18 2019, MaxMem=   671088640 cpu:            5501.3 elap:            2751.4
 (Enter /shared/centos7/gaussian/g16/l1002.exe)
 Minotr:  Closed shell wavefunction.
          IDoAtm=11111111111111111111111
          Direct CPHF calculation.
          Differentiating once with respect to nuclear coordinates.
          Requested convergence is 1.0D-08 RMS, and 1.0D-07 maximum.
          Secondary convergence is 1.0D-12 RMS, and 1.0D-12 maximum.
          NewPWx=T KeepS1=F KeepF1=F KeepIn=T MapXYZ=F SortEE=F KeepMc=T.
         6918 words used for storage of precomputed grid.
 Two-electron integrals replicated using symmetry.
          MDV=     671088640 using IRadAn=       1.
          Solving linear equations simultaneously, MaxMat=     380.
 FoF2E skips out because all densities are zero.
 CalDSu exits because no D1Ps are significant.
 FoFJK:  IHMeth= 1 ICntrl=       0 DoSepK=F KAlg= 0 I1Cent=           0 FoldK=F
 IRaf= 930000000 NMat=      69 IRICut=     172 DoRegI=T DoRafI=T ISym2E= 2 IDoP0=3 IntGTp=3.
 FoFCou: FMM=F IPFlag=           0 FMFlag=      100000 FMFlg1=           0
         NFxFlg=           0 DoJE=F BraDBF=F KetDBF=F FulRan=T
         wScrn=  0.000000 ICntrl=         0 IOpCl=  0 I1Cent=           0 NGrid=           0
         NMat0=   69 NMatS0=     69 NMatT0=    0 NMatD0=   69 NMtDS0=    0 NMtDT0=    0
 Integrals replicated using symmetry in FoFCou.
 Raff kept on since  89.53% of shell-pairs survive, threshold=   0.20 IRatSp=90.
          There are    72 degrees of freedom in the 1st order CPHF.  IDoFFX=6 NUNeed=     0.
     66 vectors produced by pass  0 Test12= 1.63D-14 1.39D-09 XBig12= 5.58D-02 3.72D-02.
 AX will form    66 AO Fock derivatives at one time.
     66 vectors produced by pass  1 Test12= 1.63D-14 1.39D-09 XBig12= 3.24D-03 6.02D-03.
     66 vectors produced by pass  2 Test12= 1.63D-14 1.39D-09 XBig12= 5.35D-05 8.54D-04.
     66 vectors produced by pass  3 Test12= 1.63D-14 1.39D-09 XBig12= 4.16D-07 8.10D-05.
     66 vectors produced by pass  4 Test12= 1.63D-14 1.39D-09 XBig12= 1.90D-09 4.18D-06.
     66 vectors produced by pass  5 Test12= 1.63D-14 1.39D-09 XBig12= 8.68D-12 3.53D-07.
     23 vectors produced by pass  6 Test12= 1.63D-14 1.39D-09 XBig12= 3.17D-14 1.49D-08.
 InvSVY:  IOpt=1 It=  1 EMax= 3.05D-16
 Solved reduced A of dimension   419 with    72 vectors.
 End of Minotr F.D. properties file   721 does not exist.
 End of Minotr F.D. properties file   722 does not exist.
 End of Minotr F.D. properties file   788 does not exist.
 Leave Link 1002 at Sun Sep 29 13:18:00 2019, MaxMem=   671088640 cpu:            8843.2 elap:            4422.1
 (Enter /shared/centos7/gaussian/g16/l601.exe)
 Copying SCF densities to generalized density rwf, IOpCl= 0 IROHF=0.

 **********************************************************************

            Population analysis using the SCF density.

 **********************************************************************

 Orbital symmetries:
       Occupied  (A) (A) (A) (A) (A) (A) (A) (A) (A) (A) (A) (A)
                 (A) (A) (A) (A) (A) (A) (A) (A) (A) (A) (A) (A)
                 (A) (A) (A) (A) (A)
       Virtual   (A) (A) (A) (A) (A) (A) (A) (A) (A) (A) (A) (A)
                 (A) (A) (A) (A) (A) (A) (A) (A) (A) (A) (A) (A)
                 (A) (A) (A) (A) (A) (A) (A) (A) (A) (A) (A) (A)
                 (A) (A) (A) (A) (A) (A) (A) (A) (A) (A) (A) (A)
                 (A) (A) (A) (A) (A) (A) (A) (A) (A) (A) (A) (A)
                 (A) (A) (A) (A) (A) (A) (A) (A) (A) (A) (A) (A)
                 (A) (A) (A) (A) (A) (A) (A) (A) (A) (A) (A) (A)
                 (A) (A) (A) (A) (A) (A) (A) (A) (A) (A) (A) (A)
                 (A) (A) (A) (A) (A) (A) (A) (A) (A) (A) (A) (A)
                 (A) (A) (A) (A) (A) (A) (A) (A) (A) (A) (A) (A)
                 (A) (A) (A) (A) (A) (A) (A) (A) (A) (A) (A) (A)
                 (A) (A) (A) (A) (A) (A) (A) (A) (A) (A) (A) (A)
                 (A) (A) (A) (A) (A) (A) (A) (A) (A) (A) (A) (A)
                 (A) (A) (A) (A) (A) (A) (A) (A) (A) (A) (A) (A)
                 (A) (A) (A) (A) (A) (A) (A) (A) (A) (A) (A) (A)
                 (A) (A) (A) (A) (A) (A) (A) (A) (A) (A) (A) (A)
                 (A) (A) (A) (A) (A) (A) (A) (A) (A) (A) (A) (A)
                 (A) (A) (A) (A) (A) (A) (A) (A) (A) (A) (A) (A)
                 (A) (A) (A) (A) (A) (A) (A) (A) (A) (A) (A) (A)
                 (A) (A) (A) (A) (A) (A) (A) (A) (A) (A) (A) (A)
                 (A) (A) (A) (A) (A) (A) (A) (A) (A) (A) (A) (A)
                 (A) (A) (A) (A) (A) (A) (A) (A) (A) (A) (A) (A)
                 (A) (A) (A) (A) (A) (A) (A) (A) (A) (A) (A) (A)
                 (A) (A) (A) (A) (A) (A) (A) (A) (A) (A) (A) (A)
                 (A) (A) (A) (A) (A) (A) (A) (A) (A) (A) (A) (A)
                 (A) (A) (A) (A) (A) (A) (A) (A) (A) (A) (A) (A)
                 (A) (A) (A) (A) (A) (A) (A) (A) (A) (A) (A) (A)
                 (A) (A) (A) (A) (A) (A) (A) (A) (A) (A) (A) (A)
                 (A) (A) (A) (A) (A) (A) (A) (A) (A) (A) (A) (A)
                 (A) (A) (A) (A) (A) (A) (A) (A) (A) (A) (A) (A)
                 (A) (A) (A) (A) (A) (A) (A) (A) (A) (A) (A) (A)
                 (A) (A) (A) (A) (A) (A) (A) (A) (A) (A) (A) (A)
                 (A) (A) (A) (A) (A) (A) (A) (A) (A) (A) (A) (A)
                 (A) (A) (A) (A) (A) (A) (A) (A) (A)
 The electronic state is 1-A.
 Alpha  occ. eigenvalues --  -10.52824 -10.52460 -10.52417 -10.52382 -10.52367
 Alpha  occ. eigenvalues --  -10.52314 -10.52268  -0.92398  -0.87980  -0.83026
 Alpha  occ. eigenvalues --   -0.76504  -0.69844  -0.66829  -0.62761  -0.54216
 Alpha  occ. eigenvalues --   -0.53120  -0.52184  -0.49349  -0.48408  -0.46521
 Alpha  occ. eigenvalues --   -0.44747  -0.43946  -0.40849  -0.39824  -0.39254
 Alpha  occ. eigenvalues --   -0.37707  -0.37415  -0.35884  -0.35533
 Alpha virt. eigenvalues --    0.06757   0.07742   0.08390   0.08797   0.11235
 Alpha virt. eigenvalues --    0.12379   0.12836   0.13043   0.14216   0.15200
 Alpha virt. eigenvalues --    0.16319   0.16828   0.17431   0.17842   0.18683
 Alpha virt. eigenvalues --    0.21186   0.22432   0.23754   0.24937   0.26541
 Alpha virt. eigenvalues --    0.28044   0.28732   0.29962   0.30643   0.30894
 Alpha virt. eigenvalues --    0.32037   0.33350   0.34511   0.34813   0.36722
 Alpha virt. eigenvalues --    0.38589   0.39876   0.42026   0.42784   0.43414
 Alpha virt. eigenvalues --    0.44707   0.45920   0.46876   0.47401   0.48601
 Alpha virt. eigenvalues --    0.49210   0.49422   0.50266   0.51019   0.51280
 Alpha virt. eigenvalues --    0.51793   0.52846   0.53016   0.53655   0.54339
 Alpha virt. eigenvalues --    0.54824   0.56253   0.56451   0.57026   0.57950
 Alpha virt. eigenvalues --    0.59865   0.60604   0.60906   0.61833   0.66328
 Alpha virt. eigenvalues --    0.67250   0.69249   0.71930   0.74286   0.75543
 Alpha virt. eigenvalues --    0.76836   0.78561   0.79866   0.82380   0.84803
 Alpha virt. eigenvalues --    0.85517   0.87559   0.89703   0.90554   0.92954
 Alpha virt. eigenvalues --    0.94948   0.97010   0.98086   0.98483   0.99896
 Alpha virt. eigenvalues --    1.01268   1.01514   1.02985   1.03992   1.04683
 Alpha virt. eigenvalues --    1.06204   1.06828   1.07782   1.08736   1.10135
 Alpha virt. eigenvalues --    1.11241   1.12030   1.13843   1.14072   1.15025
 Alpha virt. eigenvalues --    1.15848   1.17203   1.18350   1.18720   1.19257
 Alpha virt. eigenvalues --    1.21579   1.21864   1.22581   1.24675   1.25459
 Alpha virt. eigenvalues --    1.25887   1.26282   1.26913   1.28048   1.28550
 Alpha virt. eigenvalues --    1.30346   1.31056   1.32160   1.32614   1.33425
 Alpha virt. eigenvalues --    1.34937   1.35341   1.36674   1.38896   1.39272
 Alpha virt. eigenvalues --    1.40265   1.40757   1.41556   1.43918   1.43962
 Alpha virt. eigenvalues --    1.47523   1.48247   1.49385   1.50504   1.50795
 Alpha virt. eigenvalues --    1.52855   1.53663   1.53962   1.55571   1.57069
 Alpha virt. eigenvalues --    1.58403   1.60635   1.61671   1.64411   1.65561
 Alpha virt. eigenvalues --    1.68126   1.69111   1.71307   1.74912   1.76624
 Alpha virt. eigenvalues --    1.78665   1.82167   1.82863   1.95352   2.24629
 Alpha virt. eigenvalues --    2.30285   2.31222   2.32639   2.33951   2.34548
 Alpha virt. eigenvalues --    2.37277   2.38841   2.40934   2.42118   2.42648
 Alpha virt. eigenvalues --    2.47513   2.47902   2.48800   2.53494   2.54890
 Alpha virt. eigenvalues --    2.55127   2.56851   2.60000   2.60270   2.61403
 Alpha virt. eigenvalues --    2.62952   2.63934   2.65240   2.66371   2.67638
 Alpha virt. eigenvalues --    2.67855   2.69890   2.70679   2.72321   2.73962
 Alpha virt. eigenvalues --    2.76518   2.77147   2.77331   2.77934   2.80538
 Alpha virt. eigenvalues --    2.81691   2.82698   2.82982   2.84516   2.84661
 Alpha virt. eigenvalues --    2.85851   2.88224   2.89898   2.91015   2.92968
 Alpha virt. eigenvalues --    2.94749   2.95250   2.96791   2.97650   2.97901
 Alpha virt. eigenvalues --    2.99519   3.01920   3.02997   3.04715   3.05116
 Alpha virt. eigenvalues --    3.06346   3.07426   3.07734   3.09324   3.09393
 Alpha virt. eigenvalues --    3.10150   3.10619   3.12864   3.13180   3.14523
 Alpha virt. eigenvalues --    3.15464   3.16039   3.16465   3.18132   3.18453
 Alpha virt. eigenvalues --    3.20232   3.21403   3.22108   3.23130   3.24799
 Alpha virt. eigenvalues --    3.25488   3.26052   3.26223   3.27421   3.29502
 Alpha virt. eigenvalues --    3.31839   3.32484   3.33375   3.33905   3.35101
 Alpha virt. eigenvalues --    3.36589   3.38416   3.39798   3.41202   3.41892
 Alpha virt. eigenvalues --    3.44053   3.46135   3.46596   3.48114   3.49110
 Alpha virt. eigenvalues --    3.50190   3.50737   3.52132   3.52828   3.53246
 Alpha virt. eigenvalues --    3.54499   3.56298   3.57016   3.59331   3.61376
 Alpha virt. eigenvalues --    3.62528   3.63728   3.64511   3.66043   3.67569
 Alpha virt. eigenvalues --    3.68603   3.70054   3.71703   3.72138   3.73945
 Alpha virt. eigenvalues --    3.76489   3.77069   3.78813   3.79918   3.81159
 Alpha virt. eigenvalues --    3.82026   3.83153   3.83877   3.84963   3.86393
 Alpha virt. eigenvalues --    3.87032   3.87045   3.88059   3.88627   3.89765
 Alpha virt. eigenvalues --    3.91105   3.91998   3.94103   3.94994   3.95724
 Alpha virt. eigenvalues --    3.97706   3.99002   3.99412   4.00711   4.01810
 Alpha virt. eigenvalues --    4.03166   4.03241   4.04202   4.05270   4.05872
 Alpha virt. eigenvalues --    4.06293   4.07789   4.09096   4.11445   4.11597
 Alpha virt. eigenvalues --    4.13306   4.14075   4.14657   4.17641   4.18523
 Alpha virt. eigenvalues --    4.19718   4.20812   4.21661   4.23137   4.23750
 Alpha virt. eigenvalues --    4.25388   4.26635   4.28672   4.29226   4.30429
 Alpha virt. eigenvalues --    4.31188   4.32397   4.35511   4.37084   4.38598
 Alpha virt. eigenvalues --    4.39215   4.40765   4.41823   4.43557   4.45045
 Alpha virt. eigenvalues --    4.49697   4.51723   4.53346   4.55406   4.58173
 Alpha virt. eigenvalues --    4.59764   4.61640   4.62780   4.66114   4.66454
 Alpha virt. eigenvalues --    4.67368   4.69352   4.73533   4.75768   4.76529
 Alpha virt. eigenvalues --    4.78185   4.78833   4.81033   4.81257   4.83250
 Alpha virt. eigenvalues --    4.85193   4.86116   4.87723   4.89189   4.90270
 Alpha virt. eigenvalues --    4.91110   4.93153   4.93757   4.96076   4.98306
 Alpha virt. eigenvalues --    4.99629   5.03291   5.05367   5.08902   5.09729
 Alpha virt. eigenvalues --    5.11187   5.14853   5.15686   5.16990   5.20138
 Alpha virt. eigenvalues --    5.22505   5.24164   5.24566   5.26765   5.27907
 Alpha virt. eigenvalues --    5.28728   5.30624   5.32347   5.33610   5.36285
 Alpha virt. eigenvalues --    5.37411   5.39463   5.41037   5.42722   5.45927
 Alpha virt. eigenvalues --    5.48542   5.49708   5.51776   5.52981   5.57249
 Alpha virt. eigenvalues --    5.60879   5.62269   5.64182   5.75982   5.81772
 Alpha virt. eigenvalues --    5.82988   5.83853   5.88261   5.93289   5.94814
 Alpha virt. eigenvalues --    5.99455   6.02837   6.05120  11.93004  12.30701
 Alpha virt. eigenvalues --   12.65592  13.16760  13.40449  13.46188  13.67150
          Condensed to atoms (all electrons):
               1          2          3          4          5          6
     1  C    5.083534   0.299468  -0.042933   0.297276   0.005650  -0.060024
     2  C    0.299468   5.146577   0.269743  -0.044206  -0.042491   0.007416
     3  C   -0.042933   0.269743   5.158323  -0.002706   0.309221  -0.000032
     4  C    0.297276  -0.044206  -0.002706   5.145374  -0.000053   0.311761
     5  C    0.005650  -0.042491   0.309221  -0.000053   5.013614  -0.000043
     6  C   -0.060024   0.007416  -0.000032   0.311761  -0.000043   4.954710
     7  C   -0.002010  -0.000795  -0.050034  -0.011505   0.306924   0.001264
     8  H   -0.043678  -0.011408   0.005796   0.402030  -0.003716  -0.030645
     9  H   -0.057332   0.004132  -0.003781   0.413785   0.001430  -0.039707
    10  H    0.419631  -0.048933   0.010647  -0.048683  -0.000932  -0.003657
    11  H    0.405443  -0.032088  -0.008531  -0.048249   0.000424  -0.003954
    12  H   -0.042139   0.413608  -0.041616   0.009373   0.005591  -0.000463
    13  H   -0.042663   0.412543  -0.066783  -0.007232  -0.001002   0.000272
    14  H    0.004396  -0.063083   0.408658  -0.009263  -0.041404   0.000295
    15  H    0.005580  -0.042414   0.411276  -0.000114  -0.040930   0.000007
    16  H    0.001317  -0.011714  -0.041473  -0.000243   0.410238   0.000004
    17  H   -0.000879   0.010200  -0.048560   0.000016   0.419620   0.000006
    18  H   -0.005150   0.000390  -0.000068  -0.050235   0.000007   0.410006
    19  H   -0.007698  -0.000231  -0.000016  -0.052698  -0.000011   0.413735
    20  H    0.009946  -0.000635   0.000093  -0.045549  -0.000011   0.409398
    21  H   -0.004634   0.012093  -0.012131  -0.011783  -0.038922   0.002357
    22  H    0.001217  -0.002227   0.000592  -0.002789  -0.049472   0.000161
    23  H   -0.000064  -0.000444   0.008418   0.000810  -0.037534  -0.000058
               7          8          9         10         11         12
     1  C   -0.002010  -0.043678  -0.057332   0.419631   0.405443  -0.042139
     2  C   -0.000795  -0.011408   0.004132  -0.048933  -0.032088   0.413608
     3  C   -0.050034   0.005796  -0.003781   0.010647  -0.008531  -0.041616
     4  C   -0.011505   0.402030   0.413785  -0.048683  -0.048249   0.009373
     5  C    0.306924  -0.003716   0.001430  -0.000932   0.000424   0.005591
     6  C    0.001264  -0.030645  -0.039707  -0.003657  -0.003954  -0.000463
     7  C    5.035121   0.001039  -0.019209   0.000222  -0.000224  -0.000224
     8  H    0.001039   0.601694  -0.039935   0.008289  -0.008689  -0.000616
     9  H   -0.019209  -0.039935   0.613862  -0.004358   0.009117   0.000335
    10  H    0.000222   0.008289  -0.004358   0.588594  -0.035124  -0.006823
    11  H   -0.000224  -0.008689   0.009117  -0.035124   0.584403  -0.008330
    12  H   -0.000224  -0.000616   0.000335  -0.006823  -0.008330   0.584544
    13  H   -0.003854   0.000624   0.002204  -0.007853   0.008548  -0.032409
    14  H   -0.004769  -0.003096   0.001305   0.000058   0.002387   0.004863
    15  H    0.008520   0.000576  -0.000200  -0.000375   0.000457  -0.018327
    16  H   -0.045912  -0.000110   0.000189  -0.000040  -0.000007   0.000743
    17  H   -0.042758   0.000180  -0.000162   0.000039  -0.000012  -0.000390
    18  H   -0.000084  -0.008012   0.009934  -0.000636   0.003442   0.000024
    19  H    0.000025   0.009176  -0.008178   0.004751  -0.000149  -0.000068
    20  H    0.000083  -0.006771  -0.007482   0.000078  -0.000302   0.000029
    21  H    0.402743  -0.003926  -0.014289   0.000269  -0.000248   0.000156
    22  H    0.405116  -0.001377  -0.000697  -0.000038   0.000032  -0.000067
    23  H    0.406382   0.000184   0.001635   0.000003   0.000008   0.000033
              13         14         15         16         17         18
     1  C   -0.042663   0.004396   0.005580   0.001317  -0.000879  -0.005150
     2  C    0.412543  -0.063083  -0.042414  -0.011714   0.010200   0.000390
     3  C   -0.066783   0.408658   0.411276  -0.041473  -0.048560  -0.000068
     4  C   -0.007232  -0.009263  -0.000114  -0.000243   0.000016  -0.050235
     5  C   -0.001002  -0.041404  -0.040930   0.410238   0.419620   0.000007
     6  C    0.000272   0.000295   0.000007   0.000004   0.000006   0.410006
     7  C   -0.003854  -0.004769   0.008520  -0.045912  -0.042758  -0.000084
     8  H    0.000624  -0.003096   0.000576  -0.000110   0.000180  -0.008012
     9  H    0.002204   0.001305  -0.000200   0.000189  -0.000162   0.009934
    10  H   -0.007853   0.000058  -0.000375  -0.000040   0.000039  -0.000636
    11  H    0.008548   0.002387   0.000457  -0.000007  -0.000012   0.003442
    12  H   -0.032409   0.004863  -0.018327   0.000743  -0.000390   0.000024
    13  H    0.591490   0.007091   0.005272   0.002382   0.000404  -0.000015
    14  H    0.007091   0.576707  -0.031209   0.008182  -0.004245   0.000069
    15  H    0.005272  -0.031209   0.587250  -0.005185  -0.008559  -0.000006
    16  H    0.002382   0.008182  -0.005185   0.605817  -0.035137   0.000001
    17  H    0.000404  -0.004245  -0.008559  -0.035137   0.590156  -0.000002
    18  H   -0.000015   0.000069  -0.000006   0.000001  -0.000002   0.599503
    19  H    0.000037  -0.000071   0.000005  -0.000003   0.000001  -0.037407
    20  H   -0.000002   0.000088  -0.000003   0.000001   0.000001  -0.031762
    21  H   -0.000260   0.000434  -0.000215  -0.004152   0.008160  -0.000202
    22  H    0.000466   0.002876  -0.000008   0.008421  -0.008710   0.000023
    23  H   -0.000236   0.000060  -0.000485  -0.007449  -0.004648   0.000003
              19         20         21         22         23
     1  C   -0.007698   0.009946  -0.004634   0.001217  -0.000064
     2  C   -0.000231  -0.000635   0.012093  -0.002227  -0.000444
     3  C   -0.000016   0.000093  -0.012131   0.000592   0.008418
     4  C   -0.052698  -0.045549  -0.011783  -0.002789   0.000810
     5  C   -0.000011  -0.000011  -0.038922  -0.049472  -0.037534
     6  C    0.413735   0.409398   0.002357   0.000161  -0.000058
     7  C    0.000025   0.000083   0.402743   0.405116   0.406382
     8  H    0.009176  -0.006771  -0.003926  -0.001377   0.000184
     9  H   -0.008178  -0.007482  -0.014289  -0.000697   0.001635
    10  H    0.004751   0.000078   0.000269  -0.000038   0.000003
    11  H   -0.000149  -0.000302  -0.000248   0.000032   0.000008
    12  H   -0.000068   0.000029   0.000156  -0.000067   0.000033
    13  H    0.000037  -0.000002  -0.000260   0.000466  -0.000236
    14  H   -0.000071   0.000088   0.000434   0.002876   0.000060
    15  H    0.000005  -0.000003  -0.000215  -0.000008  -0.000485
    16  H   -0.000003   0.000001  -0.004152   0.008421  -0.007449
    17  H    0.000001   0.000001   0.008160  -0.008710  -0.004648
    18  H   -0.037407  -0.031762  -0.000202   0.000023   0.000003
    19  H    0.610883  -0.031858   0.000039  -0.000033   0.000002
    20  H   -0.031858   0.592761   0.000302   0.000068  -0.000011
    21  H    0.000039   0.000302   0.604783  -0.040426  -0.033423
    22  H   -0.000033   0.000068  -0.040426   0.593026  -0.024009
    23  H    0.000002  -0.000011  -0.033423  -0.024009   0.576994
 Mulliken charges:
               1
     1  C   -0.224255
     2  C   -0.275502
     3  C   -0.264103
     4  C   -0.245118
     5  C   -0.216199
     6  C   -0.372809
     7  C   -0.386065
     8  H    0.132391
     9  H    0.137401
    10  H    0.124872
    11  H    0.131643
    12  H    0.132173
    13  H    0.130974
    14  H    0.139670
    15  H    0.129087
    16  H    0.114126
    17  H    0.125278
    18  H    0.110177
    19  H    0.099766
    20  H    0.111538
    21  H    0.133274
    22  H    0.117854
    23  H    0.113827
 Sum of Mulliken charges =  -0.00000
 Mulliken charges with hydrogens summed into heavy atoms:
               1
     1  C    0.032261
     2  C   -0.012355
     3  C    0.004654
     4  C    0.024674
     5  C    0.023205
     6  C   -0.051328
     7  C   -0.021110
 APT charges:
               1
     1  C   -0.784767
     2  C   -0.715586
     3  C   -0.641637
     4  C   -0.197740
     5  C   -0.938592
     6  C   -1.465708
     7  C   -0.949985
     8  H    0.250725
     9  H    0.252369
    10  H    0.405972
    11  H    0.368196
    12  H    0.455966
    13  H    0.271220
    14  H    0.227286
    15  H    0.475321
    16  H    0.389500
    17  H    0.488870
    18  H    0.390868
    19  H    0.384471
    20  H    0.406566
    21  H    0.126992
    22  H    0.264881
    23  H    0.534814
 Sum of APT charges =  -0.00000
 APT charges with hydrogens summed into heavy atoms:
               1
     1  C   -0.010599
     2  C    0.011600
     3  C    0.060970
     4  C    0.305354
     5  C   -0.060222
     6  C   -0.283803
     7  C   -0.023299
 Electronic spatial extent (au):  <R**2>=           1100.3175
 Charge=              0.0000 electrons
 Dipole moment (field-independent basis, Debye):
    X=             -0.0836    Y=             -0.0974    Z=              0.0338  Tot=              0.1327
 Quadrupole moment (field-independent basis, Debye-Ang):
   XX=            -50.2124   YY=            -49.2923   ZZ=            -48.5415
   XY=              0.0996   XZ=             -0.0708   YZ=              0.0493
 Traceless Quadrupole moment (field-independent basis, Debye-Ang):
   XX=             -0.8637   YY=              0.0564   ZZ=              0.8073
   XY=              0.0996   XZ=             -0.0708   YZ=              0.0493
 Octapole moment (field-independent basis, Debye-Ang**2):
  XXX=             -4.6754  YYY=             -2.4274  ZZZ=              0.0531  XYY=             -0.5008
  XXY=             -0.7938  XXZ=             -0.2166  XZZ=              0.6142  YZZ=              0.3334
  YYZ=              0.6449  XYZ=              0.1255
 Hexadecapole moment (field-independent basis, Debye-Ang**3):
 XXXX=          -1035.9921 YYYY=           -415.0593 ZZZZ=           -138.0847 XXXY=             -4.4612
 XXXZ=             -1.9765 YYYX=              6.0361 YYYZ=              0.0035 ZZZX=             -0.4093
 ZZZY=              0.9205 XXYY=           -237.5364 XXZZ=           -186.9109 YYZZ=            -93.0112
 XXYZ=             -1.2694 YYXZ=              0.7411 ZZXY=             -2.5545
 N-N= 3.316371174622D+02 E-N=-1.301695437995D+03  KE= 2.745014543744D+02
  Exact polarizability:   0.000   0.000   0.000   0.000   0.000   0.000
 Approx polarizability:  99.304  -1.153  98.580   0.513   0.017  99.988
 No NMR shielding tensors so no spin-rotation constants.
 Leave Link  601 at Sun Sep 29 13:18:29 2019, MaxMem=   671088640 cpu:              57.8 elap:              28.9
 (Enter /shared/centos7/gaussian/g16/l701.exe)
 SCFChk:  SCF convergence  6.58D-09 required  1.00D-08
 ... and contract with generalized density number  0.
 Compute integral second derivatives.
 Entering OneElI...
 Calculate overlap and kinetic energy integrals
    NBasis = 485  MinDer = 2  MaxDer = 2
 Requested accuracy = 0.1000D-12
 PrmmSu-InSpLW:  IPartL=    0 NPrtUS=   20 NPrtUL=    1 DoSpLW=F IThBeg=    0 IThEnd=   19 NThAct=   20.
 PrsmSu:  NPrtUS=  20 ThrOK=T IAlg=1 NPAlg=1 LenDen=           0 ISkipM=0 DoSpLW=F IThBeg=    0 IThEnd=   19.
 Prism:   IPart=     0 DynPar=F LinDyn=F Incr=           6.
 PRISM was handed    33198935 working-precision words and 13704 shell-pairs
 PRISM was handed    33198935 working-precision words and 13704 shell-pairs
 PRISM was handed    33198935 working-precision words and 13704 shell-pairs
 PRISM was handed    33198935 working-precision words and 13704 shell-pairs
 PRISM was handed    33198935 working-precision words and 13704 shell-pairs
 PRISM was handed    33198935 working-precision words and 13704 shell-pairs
 PRISM was handed    33198935 working-precision words and 13704 shell-pairs
 PRISM was handed    33198935 working-precision words and 13704 shell-pairs
 PRISM was handed    33198935 working-precision words and 13704 shell-pairs
 PRISM was handed    33198935 working-precision words and 13704 shell-pairs
 PRISM was handed    33198935 working-precision words and 13704 shell-pairs
 IPart=  0 NShTot=         719 NBatch=          80 AvBLen=         9.0
 PRISM was handed    33198935 working-precision words and 13704 shell-pairs
 PRISM was handed    33198935 working-precision words and 13704 shell-pairs
 PRISM was handed    33198935 working-precision words and 13704 shell-pairs
 PRISM was handed    33198935 working-precision words and 13704 shell-pairs
 PRISM was handed    33198935 working-precision words and 13704 shell-pairs
 IPart=  9 NShTot=         681 NBatch=          59 AvBLen=        11.5
 IPart=  4 NShTot=         708 NBatch=          73 AvBLen=         9.7
 PRISM was handed    33198935 working-precision words and 13704 shell-pairs
 IPart= 14 NShTot=         666 NBatch=          52 AvBLen=        12.8
 PRISM was handed    33198935 working-precision words and 13704 shell-pairs
 IPart=  6 NShTot=         700 NBatch=          67 AvBLen=        10.4
 PRISM was handed    33198935 working-precision words and 13704 shell-pairs
 PRISM was handed    33198935 working-precision words and 13704 shell-pairs
 IPart= 17 NShTot=         662 NBatch=          50 AvBLen=        13.2
 IPart=  3 NShTot=         711 NBatch=          75 AvBLen=         9.5
 IPart=  8 NShTot=         689 NBatch=          60 AvBLen=        11.5
 IPart= 11 NShTot=         676 NBatch=          57 AvBLen=        11.9
 IPart= 12 NShTot=         673 NBatch=          54 AvBLen=        12.5
 IPart=  5 NShTot=         705 NBatch=          71 AvBLen=         9.9
 IPart= 18 NShTot=         657 NBatch=          47 AvBLen=        14.0
 IPart= 19 NShTot=         656 NBatch=          47 AvBLen=        14.0
 IPart= 15 NShTot=         665 NBatch=          52 AvBLen=        12.8
 IPart=  1 NShTot=         719 NBatch=          80 AvBLen=         9.0
 IPart= 10 NShTot=         678 NBatch=          58 AvBLen=        11.7
 IPart= 13 NShTot=         671 NBatch=          53 AvBLen=        12.7
 IPart= 16 NShTot=         663 NBatch=          50 AvBLen=        13.3
 IPart=  2 NShTot=         714 NBatch=          77 AvBLen=         9.3
 IPart=  7 NShTot=         691 NBatch=          61 AvBLen=        11.3
 PrSmSu:  NxtVal=            121.
 Entering OneElI...
 Calculate potential energy integrals
    NBasis = 485  MinDer = 2  MaxDer = 2
 Requested accuracy = 0.1000D-12
 PrmmSu-InSpLW:  IPartL=    0 NPrtUS=   20 NPrtUL=    1 DoSpLW=F IThBeg=    0 IThEnd=   19 NThAct=   20.
 PrsmSu:  NPrtUS=  20 ThrOK=T IAlg=1 NPAlg=1 LenDen=           0 ISkipM=0 DoSpLW=F IThBeg=    0 IThEnd=   19.
 Prism:   IPart=     0 DynPar=F LinDyn=F Incr=         143.
 PRISM was handed    33260784 working-precision words and 12440 shell-pairs
 PRISM was handed    33260784 working-precision words and 12440 shell-pairs
 PRISM was handed    33260784 working-precision words and 12440 shell-pairs
 PRISM was handed    33260784 working-precision words and 12440 shell-pairs
 PRISM was handed    33260784 working-precision words and 12440 shell-pairs
 PRISM was handed    33260784 working-precision words and 12440 shell-pairs
 PRISM was handed    33260784 working-precision words and 12440 shell-pairs
 PRISM was handed    33260784 working-precision words and 12440 shell-pairs
 PRISM was handed    33260784 working-precision words and 12440 shell-pairs
 PRISM was handed    33260784 working-precision words and 12440 shell-pairs
 PRISM was handed    33260784 working-precision words and 12440 shell-pairs
 PRISM was handed    33260784 working-precision words and 12440 shell-pairs
 PRISM was handed    33260784 working-precision words and 12440 shell-pairs
 PRISM was handed    33260784 working-precision words and 12440 shell-pairs
 PRISM was handed    33260784 working-precision words and 12440 shell-pairs
 PRISM was handed    33260784 working-precision words and 12440 shell-pairs
 PRISM was handed    33260784 working-precision words and 12440 shell-pairs
 PRISM was handed    33260784 working-precision words and 12440 shell-pairs
 PRISM was handed    33260784 working-precision words and 12440 shell-pairs
 PRISM was handed    33260784 working-precision words and 12440 shell-pairs
 IPart= 17 NShTot=       13823 NBatch=         602 AvBLen=        23.0
 IPart=  0 NShTot=       15065 NBatch=         657 AvBLen=        22.9
 IPart=  4 NShTot=       14835 NBatch=         647 AvBLen=        22.9
 IPart=  9 NShTot=       14237 NBatch=         620 AvBLen=        23.0
 IPart= 11 NShTot=       14168 NBatch=         617 AvBLen=        23.0
 IPart= 12 NShTot=       14053 NBatch=         612 AvBLen=        23.0
 IPart= 13 NShTot=       13984 NBatch=         609 AvBLen=        23.0
 IPart= 16 NShTot=       13846 NBatch=         603 AvBLen=        23.0
 IPart=  8 NShTot=       14283 NBatch=         622 AvBLen=        23.0
 IPart=  7 NShTot=       14329 NBatch=         624 AvBLen=        23.0
 IPart=  5 NShTot=       14766 NBatch=         644 AvBLen=        22.9
 IPart= 18 NShTot=       13777 NBatch=         600 AvBLen=        23.0
 IPart= 19 NShTot=       13731 NBatch=         598 AvBLen=        23.0
 IPart= 10 NShTot=       14191 NBatch=         618 AvBLen=        23.0
 IPart= 14 NShTot=       13938 NBatch=         607 AvBLen=        23.0
 IPart=  1 NShTot=       14927 NBatch=         651 AvBLen=        22.9
 IPart= 15 NShTot=       13869 NBatch=         604 AvBLen=        23.0
 IPart=  3 NShTot=       14858 NBatch=         648 AvBLen=        22.9
 IPart=  2 NShTot=       14904 NBatch=         650 AvBLen=        22.9
 IPart=  6 NShTot=       14536 NBatch=         634 AvBLen=        22.9
 PrSmSu:  NxtVal=           2861.
 Polarizability after L701:
                1             2             3 
      1  0.000000D+00
      2  0.000000D+00  0.000000D+00
      3  0.000000D+00  0.000000D+00  0.000000D+00
 Dipole Derivatives after L701:
                 1             2             3             4             5 
      1  -0.782766D+00  0.799444D+00  0.105764D+00 -0.152826D+00 -0.158411D+00
      2   0.690999D+00 -0.763267D+00  0.138278D+00 -0.252761D+00 -0.124118D+01
      3   0.267490D+00 -0.402794D-02 -0.808267D+00 -0.233128D+00  0.755451D-01
                 6             7             8             9            10 
      1  -0.388796D+00 -0.465700D+00 -0.644331D+00  0.727837D+00  0.622123D+00
      2  -0.595611D+00 -0.431592D+00 -0.657353D+00  0.542833D+00  0.312715D+00
      3  -0.752756D+00 -0.121096D+00  0.112116D+00 -0.801856D+00  0.399749D-01
                11            12            13            14            15 
      1  -0.437195D+00 -0.160930D-01 -0.200141D+01 -0.148001D+00 -0.175801D+00
      2  -0.424026D+00  0.488851D-01  0.230714D+00 -0.674782D-01 -0.222199D+00
      3   0.418971D-01 -0.791318D+00  0.140416D+00 -0.265810D+00 -0.746891D+00
                16            17            18            19            20 
      1  -0.230981D+01 -0.333114D+00 -0.396220D-01 -0.410982D+00  0.101085D+01
      2  -0.310632D+00 -0.105926D+01 -0.131826D-01 -0.130464D+00 -0.143654D+01
      3  -0.463957D-01 -0.128441D-01 -0.102806D+01 -0.509058D-02  0.474739D-01
                21            22            23            24            25 
      1  -0.173740D+00  0.303966D-01  0.105847D+00  0.239627D+00  0.158419D-01
      2   0.483256D-01 -0.107789D+00  0.236208D+00  0.208280D+00 -0.205468D+00
      3  -0.100243D+01 -0.164672D+00  0.109380D+00  0.485569D+00  0.160901D+00
                26            27            28            29            30 
      1   0.200536D+00 -0.208442D+00  0.464202D+00 -0.235638D+00 -0.450997D+00
      2   0.371143D+00 -0.251245D+00 -0.267716D+00  0.329009D+00  0.379072D+00
      3  -0.180894D+00  0.370123D+00 -0.199988D+00  0.145885D+00  0.424706D+00
                31            32            33            34            35 
      1   0.254925D+00 -0.247425D+00  0.392815D+00  0.190595D+00  0.167209D+00
      2  -0.141026D+00  0.450143D+00 -0.460402D+00  0.109963D+00  0.103357D+01
      3   0.809451D-01 -0.154179D+00  0.399520D+00  0.202749D-03  0.174732D+00
                36            37            38            39            40 
      1  -0.133736D-01  0.184564D+00 -0.991527D-01  0.180523D+00  0.320302D-01
      2   0.366593D-01  0.423692D-01  0.216145D-01  0.259632D+00 -0.645490D-01
      3   0.143735D+00  0.950399D-01 -0.221868D+00  0.607481D+00  0.280958D+00
                41            42            43            44            45 
      1  -0.844005D-01 -0.209384D+00  0.569591D+00  0.552724D+00 -0.199859D+00
      2   0.749307D-01 -0.114446D+00  0.341074D+00  0.650162D+00 -0.142990D+00
      3   0.210992D+00  0.574897D+00 -0.204014D+00 -0.243046D+00  0.206209D+00
                46            47            48            49            50 
      1   0.584030D+00  0.272041D+00  0.816711D+00  0.915663D+00 -0.203190D+00
      2   0.185761D-01  0.162133D+00  0.351416D-01 -0.124423D+00  0.189851D+00
      3   0.156316D+00  0.941237D-01  0.422336D+00 -0.232547D+00  0.562020D-01
                51            52            53            54            55 
      1  -0.742958D+00  0.658654D+00 -0.563070D+00  0.853774D+00  0.677004D+00
      2   0.113283D+00  0.122598D-01  0.945785D-01 -0.458278D-02  0.635438D-01
      3   0.361098D+00  0.171001D+00 -0.206998D+00  0.419370D+00 -0.154636D+00
                56            57            58            59            60 
      1  -0.301750D+00 -0.997870D+00  0.274364D+00  0.103929D+01  0.145202D+00
      2   0.554550D-01 -0.992781D-01  0.846294D-01  0.828012D+00  0.102153D+00
      3   0.967641D-01  0.420955D+00  0.134054D-01  0.115889D+00  0.117322D+00
                61            62            63            64            65 
      1  -0.153395D-01 -0.956036D-02  0.563111D-01 -0.282374D-01 -0.152201D+00
      2   0.443125D+00  0.704185D-01 -0.195940D+00  0.272307D+00  0.416147D+00
      3  -0.340227D+00  0.674485D-01  0.325896D+00  0.923062D-01  0.129128D+00
                66            67            68            69 
      1  -0.338859D+00  0.693082D+00 -0.530503D+00  0.437230D+00
      2   0.634565D+00 -0.585856D+00  0.665728D+00 -0.447230D+00
      3   0.406732D+00  0.202838D+00 -0.187907D+00  0.245632D+00
 Hessian after L701:
                1             2             3             4             5 
      1  0.152153D+02
      2 -0.837350D+00  0.163904D+02
      3 -0.175039D-01 -0.428228D+00  0.180254D+02
      4 -0.260619D+01  0.816596D+00  0.793740D+00  0.150493D+02
      5  0.818105D+00 -0.608495D+01  0.116716D+00 -0.406761D-01  0.164845D+02
      6  0.764693D+00  0.940630D-01 -0.608984D+01  0.252171D+00 -0.329953D+00
      7  0.305666D+00 -0.127368D-01 -0.343877D+00 -0.398746D+01 -0.917731D+00
      8 -0.757469D-01 -0.124522D+00  0.602762D-01 -0.876157D+00 -0.534949D+01
      9 -0.216210D+00  0.516831D-01  0.577257D-02 -0.169042D+01  0.809132D+00
     10 -0.600491D+01  0.121241D+01  0.180687D+00  0.145570D+00  0.281987D+00
     11  0.114204D+01 -0.258494D+01  0.617997D+00  0.248263D+00  0.210531D+00
     12  0.173507D+00  0.610011D+00 -0.612757D+01  0.150852D-01  0.536113D-01
     13  0.212547D+00 -0.128762D+00  0.161272D-02  0.140610D+00 -0.240383D+00
     14 -0.137293D+00 -0.846428D-01 -0.206674D-02 -0.320297D+00  0.102318D+00
     15  0.193127D-02 -0.570196D-02 -0.156548D+00 -0.227759D+00  0.172508D+00
     16  0.840120D-01  0.153066D+00  0.445589D-01  0.159633D+00  0.191734D+00
     17  0.279805D+00  0.149604D+00  0.619831D-01  0.188117D+00 -0.227372D-01
     18  0.514991D-01  0.537359D-01 -0.117388D+00  0.643429D-01  0.451145D-01
     19  0.369815D-01 -0.134117D+00 -0.237230D-02 -0.792897D-01 -0.212759D+00
     20 -0.121291D+00  0.251903D-01  0.498371D-02 -0.177432D+00  0.193991D+00
     21 -0.165356D-02  0.611646D-02 -0.120387D+00 -0.122235D-01  0.226987D-01
     22  0.128863D+00  0.833354D-02 -0.245344D-01  0.182926D-03 -0.296374D-01
     23  0.601979D-01 -0.111995D+00 -0.858277D-01 -0.183641D-01 -0.143913D-01
     24  0.148071D-01 -0.915087D-01  0.130341D+00 -0.148725D-01 -0.189133D-01
     25  0.186618D+00 -0.392742D-01  0.362140D-01 -0.179720D-01  0.314086D-01
     26  0.276510D-01 -0.198435D+00  0.508924D-01  0.687976D-01  0.363728D-01
     27  0.146862D-01  0.611230D-01  0.194254D+00 -0.168370D-01 -0.243961D-01
     28 -0.348059D+01 -0.628985D+00 -0.109899D+01 -0.124229D+00  0.997445D-02
     29 -0.677107D+00 -0.397810D+01  0.757843D+00  0.250849D-01  0.120166D+00
     30 -0.109685D+01  0.702097D+00 -0.305811D+01  0.126587D-01  0.193186D-01
     31 -0.415676D+01 -0.476977D+00  0.658526D+00 -0.449295D-01 -0.575124D-01
     32 -0.464891D+00 -0.363534D+01 -0.114295D+01 -0.497690D-01  0.916874D-01
     33  0.594402D+00 -0.106384D+01 -0.273673D+01 -0.255724D-01 -0.714197D-01
     34 -0.437012D-01 -0.992546D-01 -0.347903D-01 -0.435628D+01  0.285683D+00
     35 -0.105774D+00  0.105598D+00 -0.220574D-01  0.282243D+00 -0.200992D+01
     36 -0.420460D-01 -0.255481D-01  0.773687D-01  0.504133D-01  0.332884D+00
     37 -0.910588D-01  0.294870D-01 -0.121194D+00 -0.446813D+01 -0.206114D+00
     38 -0.184362D-01  0.122687D+00 -0.376751D-01 -0.166559D+00 -0.426346D+01
     39 -0.132022D+00  0.294914D-02  0.869912D-01  0.586613D+00 -0.931181D+00
     40  0.349479D-01 -0.746777D-02 -0.384268D-01  0.172757D+00  0.912098D-01
     41 -0.262661D-01 -0.567053D-01  0.197345D-01  0.600370D-01  0.161746D+00
     42 -0.904849D-01  0.138210D-02  0.949764D-03  0.174910D+00 -0.146477D+00
     43  0.100761D+00  0.388802D-01 -0.567716D-01  0.658960D-02  0.660143D-01
     44  0.489718D-01 -0.224602D-01 -0.219200D-01  0.657910D-01  0.159959D+00
     45 -0.540808D-01 -0.135020D-01 -0.234555D-01  0.932311D-01 -0.382995D-01
     46  0.468589D-01 -0.107853D-01  0.114522D-01 -0.562240D-01  0.961761D-02
     47 -0.780072D-02 -0.128896D-01 -0.936835D-03  0.205321D-01  0.118168D-01
     48  0.231702D-01 -0.145016D-02 -0.121820D-01  0.104808D-01 -0.468983D-02
     49  0.116258D-02  0.243380D-02 -0.490123D-02  0.116442D+00 -0.104501D+00
     50 -0.109067D-02 -0.699301D-02  0.803112D-03 -0.927659D-01  0.339687D-02
[...]
    D9       -2.92746  -0.00311   0.04774  -0.03533   0.01258  -2.91487
   D10       -2.98748   0.00053  -0.00529   0.00780   0.00289  -2.98459
   D11        1.17444   0.00084   0.01069  -0.00230   0.00871   1.18316
   D12       -0.85179  -0.00083   0.01564  -0.01046   0.00511  -0.84668
   D13       -0.83744  -0.00190   0.01416  -0.02557  -0.01163  -0.84907
   D14       -2.95869  -0.00158   0.03013  -0.03567  -0.00581  -2.96450
   D15        1.29826  -0.00325   0.03508  -0.04383  -0.00941   1.28885
   D16        1.15216   0.00104   0.01187  -0.01246  -0.00025   1.15191
   D17       -0.96910   0.00135   0.02784  -0.02256   0.00557  -0.96353
   D18       -2.99533  -0.00032   0.03279  -0.03072   0.00197  -2.99337
   D19        2.03619  -0.00117   0.02702  -0.00314   0.02251   2.05871
   D20       -0.13723   0.00049   0.05678  -0.01438   0.04246  -0.09478
   D21       -2.14035  -0.00124   0.03479  -0.00187   0.03301  -2.10735
   D22       -2.14669  -0.00166   0.03314   0.00875   0.04107  -2.10562
   D23        1.96307   0.00000   0.06290  -0.00249   0.06102   2.02409
   D24       -0.04005  -0.00173   0.04090   0.01002   0.05156   0.01152
   D25       -0.14515   0.00067   0.04460   0.00459   0.04850  -0.09665
   D26       -2.31857   0.00233   0.07436  -0.00665   0.06844  -2.25013
   D27        1.96149   0.00060   0.05237   0.00587   0.05899   2.02048
   D28       -1.14143   0.00124   0.16233  -0.05278   0.10918  -1.03225
   D29        1.01668  -0.00020   0.09837  -0.00033   0.09777   1.11444
   D30        3.01267   0.00176   0.11334  -0.00496   0.10796   3.12063
   D31        1.04329  -0.00140   0.11728  -0.02341   0.09418   1.13746
   D32       -3.08179  -0.00284   0.05333   0.02904   0.08277  -2.99903
   D33       -1.08579  -0.00088   0.06829   0.02441   0.09295  -0.99284
   D34        3.02185   0.00149   0.13370  -0.03190   0.10183   3.12368
   D35       -1.10322   0.00006   0.06974   0.02055   0.09042  -1.01281
   D36        0.89277   0.00201   0.08471   0.01592   0.10060   0.99338
   D37       -1.03485  -0.00020   0.02371  -0.01234   0.01145  -1.02340
   D38        1.04778   0.00003   0.02671  -0.01547   0.01130   1.05909
   D39       -3.13525   0.00032   0.02341  -0.01188   0.01160  -3.12365
   D40        1.09950  -0.00099   0.00138   0.00239   0.00382   1.10332
   D41       -3.10105  -0.00076   0.00438  -0.00075   0.00367  -3.09738
   D42       -1.00090  -0.00047   0.00108   0.00285   0.00397  -0.99694
   D43        3.11590   0.00057  -0.02305   0.03253   0.00938   3.12527
   D44       -1.08465   0.00080  -0.02005   0.02939   0.00922  -1.07543
   D45        1.01550   0.00109  -0.02335   0.03299   0.00952   1.02502
   D46        0.93932   0.00062   0.00982   0.06507   0.07453   1.01385
   D47       -1.16190   0.00133   0.00313   0.06778   0.07013  -1.09177
   D48        3.03254   0.00040  -0.01923   0.09184   0.07182   3.10435
   D49       -1.20580   0.00093   0.05204   0.02689   0.07991  -1.12589
   D50        2.97616   0.00164   0.04536   0.02960   0.07551   3.05167
   D51        0.88741   0.00071   0.02299   0.05366   0.07720   0.96461
   D52        3.06680  -0.00115   0.04367   0.03371   0.07762  -3.13876
   D53        0.96559  -0.00044   0.03699   0.03642   0.07322   1.03880
   D54       -1.12317  -0.00137   0.01462   0.06048   0.07491  -1.04826
         Item               Value     Threshold  Converged?
 Maximum Force            0.038919     0.000015     NO 
 RMS     Force            0.009827     0.000010     NO 
 Maximum Displacement     0.671643     0.000060     NO 
 RMS     Displacement     0.148358     0.000040     NO 
 Predicted change in Energy=-3.019697D-03
 GradGradGradGradGradGradGradGradGradGradGradGradGradGradGradGradGradGrad

 Leave Link  103 at Sun Sep 29 14:48:20 2019, MaxMem=   671088640 cpu:             264.2 elap:             132.3
 (Enter /shared/centos7/gaussian/g16/l202.exe)
                          Input orientation:                          
 ---------------------------------------------------------------------
 Center     Atomic      Atomic             Coordinates (Angstroms)
 Number     Number       Type             X           Y           Z
 ---------------------------------------------------------------------
      1          6           0        1.120854   -1.249127    0.234028
      2          6           0       -0.036361   -0.426101    0.819197
      3          6           0        0.363237    0.933984    1.436569
      4          6           0        1.986754   -0.527684   -0.799129
      5          6           0       -0.245732    2.175818    0.773520
      6          6           0        2.967857   -1.477601   -1.486509
      7          6           0        0.075782    2.361835   -0.707842
      8          1           0        2.549811    0.275124   -0.319248
      9          1           0        1.347810   -0.045699   -1.543617
     10          1           0        0.713683   -2.151174   -0.230016
     11          1           0        1.759604   -1.596018    1.051623
     12          1           0       -0.523313   -1.029186    1.585886
     13          1           0       -0.789164   -0.279481    0.042448
     14          1           0        1.450141    1.042191    1.435553
     15          1           0        0.067615    0.941867    2.485939
     16          1           0       -1.331100    2.139634    0.903563
     17          1           0        0.097150    3.059404    1.314457
     18          1           0        3.622885   -1.953096   -0.755640
     19          1           0        2.435081   -2.271041   -2.016402
     20          1           0        3.594759   -0.956403   -2.208492
     21          1           0       -0.243626    1.512740   -1.312706
     22          1           0        1.148277    2.492985   -0.862946
     23          1           0       -0.429097    3.246754   -1.099547
 ---------------------------------------------------------------------
                    Distance matrix (angstroms):
                    1          2          3          4          5
     1  C    0.000000
     2  C    1.535885   0.000000
     3  C    2.605007   1.546175   0.000000
     4  C    1.528946   2.592739   3.125801   0.000000
     5  C    3.726776   2.610729   1.533828   3.842674   0.000000
     6  C    2.534534   3.930300   4.598279   1.528854   5.364918
     7  C    3.875351   3.180725   2.592275   3.465468   1.527222
     8  H    2.161336   2.911367   2.880641   1.091705   3.552722
     9  H    2.158650   2.764693   3.287959   1.093079   3.583802
    10  H    1.093076   2.153902   3.523992   2.140169   4.544274
    11  H    1.093982   2.155973   2.915293   2.149003   4.280824
    12  H    2.139902   1.090251   2.159237   3.498606   3.317988
    13  H    2.150602   1.091581   2.178095   2.911285   2.618831
    14  H    2.608109   2.178408   1.092277   2.783212   2.144617
    15  H    3.313740   2.158744   1.090243   4.078523   2.133823
    16  H    4.236043   2.875146   2.146734   4.584965   1.093730
    17  H    4.558370   3.523046   2.145490   4.572204   1.091286
    18  H    2.781218   4.266370   4.875072   2.170395   5.861097
    19  H    2.799274   4.189565   5.146623   2.173026   5.894487
    20  H    3.488811   4.757432   5.225205   2.180776   5.783820
    21  H    3.447042   2.889130   2.874327   3.066217   2.189068
    22  H    3.899680   3.571279   2.886961   3.135532   2.172987
    23  H    4.938999   4.162413   3.522582   4.491433   2.165388
                    6          7          8          9         10
     6  C    0.000000
     7  C    4.869465   0.000000
     8  H    2.146929   3.259784   0.000000
     9  H    2.162904   2.848297   1.745512   0.000000
    10  H    2.667167   4.582847   3.044052   2.561385   0.000000
    11  H    2.813540   4.647104   2.450486   3.050956   1.744920
    12  H    4.672147   4.137527   3.843807   3.776526   2.467087
    13  H    4.229469   2.878822   3.403992   2.671501   2.415786
    14  H    4.146234   2.867833   2.208391   3.173237   3.676149
    15  H    5.481384   3.495227   3.804591   4.341832   4.166620
    16  H    6.105560   2.150655   4.475839   4.235674   4.886428
    17  H    6.055640   2.139335   4.054226   4.401636   5.469519
    18  H    1.090563   5.585952   2.511353   3.071651   2.962934
    19  H    1.092787   5.361172   3.062099   2.521474   2.483698
    20  H    1.088997   5.064174   2.485522   2.514005   3.693569
    21  H    4.391579   1.090341   3.212778   2.239357   3.938645
    22  H    4.411945   1.091560   2.679331   2.635914   4.707196
    23  H    5.831686   1.091520   4.279409   3.767604   5.585665
                   11         12         13         14         15
    11  H    0.000000
    12  H    2.412146   0.000000
    13  H    3.041040   1.736358   0.000000
    14  H    2.683899   2.864913   2.949923   0.000000
    15  H    3.370601   2.245961   2.862937   1.739182   0.000000
    16  H    4.850719   3.340585   2.624373   3.036889   2.427954
    17  H    4.950332   4.144300   3.681265   2.431953   2.420166
    18  H    2.620214   4.850497   4.785825   4.300453   5.615033
    19  H    3.213207   4.823980   4.312880   4.885039   6.016540
    20  H    3.795425   5.600101   4.974308   4.676840   6.171050
    21  H    4.389459   3.865418   2.312166   3.262391   3.853890
    22  H    4.556231   4.603986   3.501426   2.734780   3.845624
    23  H    5.733269   5.050158   3.723994   3.849463   4.291262
                   16         17         18         19         20
    16  H    0.000000
    17  H    1.747773   0.000000
    18  H    6.636669   6.468483   0.000000
    19  H    6.493410   6.706280   1.761104   0.000000
    20  H    6.598062   6.385228   1.762092   1.763527   0.000000
    21  H    2.547047   3.067619   5.222284   4.689100   4.651053
    22  H    3.064754   2.483300   5.089484   5.067768   4.437798
    23  H    2.460035   2.477791   6.601157   6.284123   5.923488
                   21         22         23
    21  H    0.000000
    22  H    1.760840   0.000000
    23  H    1.756884   1.764158   0.000000
 Stoichiometry    C7H16
 Framework group  C1[X(C7H16)]
 Deg. of freedom    63
 Full point group                 C1      NOp   1
 RotChk:  IX=0 Diff= 3.22D-02
 Largest Abelian subgroup         C1      NOp   1
 Largest concise Abelian subgroup C1      NOp   1
                         Standard orientation:                         
 ---------------------------------------------------------------------
 Center     Atomic      Atomic             Coordinates (Angstroms)
 Number     Number       Type             X           Y           Z
 ---------------------------------------------------------------------
      1          6           0        1.158380   -0.996053   -0.215300
      2          6           0       -0.320489   -1.299947   -0.497329
      3          6           0       -1.310507   -0.854460    0.603608
      4          6           0        1.481314    0.462304    0.111172
      5          6           0       -2.351117    0.192011    0.185688
      6          6           0        2.987958    0.717333    0.159952
      7          6           0       -1.790554    1.515713   -0.330055
      8          1           0        1.045585    0.734656    1.074388
      9          1           0        1.014003    1.117803   -0.628261
     10          1           0        1.751941   -1.292255   -1.084072
     11          1           0        1.500281   -1.628002    0.609648
     12          1           0       -0.420304   -2.375716   -0.643639
     13          1           0       -0.594057   -0.849533   -1.453276
     14          1           0       -0.763652   -0.469263    1.467114
     15          1           0       -1.850088   -1.730658    0.963832
     16          1           0       -2.995067   -0.248234   -0.580966
     17          1           0       -2.994700    0.400292    1.042032
     18          1           0        3.464454    0.080675    0.906240
     19          1           0        3.451526    0.497214   -0.804846
     20          1           0        3.213582    1.752848    0.410388
     21          1           0       -1.136832    1.382845   -1.192515
     22          1           0       -1.215636    2.026554    0.444551
     23          1           0       -2.600942    2.179377   -0.637034
 ---------------------------------------------------------------------
 Rotational constants (GHZ):           3.8320295           1.3496624           1.1024995
 Leave Link  202 at Sun Sep 29 14:48:22 2019, MaxMem=   671088640 cpu:               3.6 elap:               1.8
 (Enter /shared/centos7/gaussian/g16/l301.exe)
 Standard basis: CC-pVTZ (5D, 7F)
 Ernie: Thresh=  0.10000D-02 Tol=  0.10000D-05 Strict=F.
 Ernie:  21 primitive shells out of 310 were deleted.
 There are   485 symmetry adapted cartesian basis functions of A   symmetry.
 There are   434 symmetry adapted basis functions of A   symmetry.
   434 basis functions,   636 primitive gaussians,   485 cartesian basis functions
    29 alpha electrons       29 beta electrons
       nuclear repulsion energy       324.4934825484 Hartrees.
 IExCor= 4336 DFT=T Ex+Corr=M062X ExCW=0 ScaHFX=  0.540000
 ScaDFX=  1.000000  1.000000  1.000000  1.000000 ScalE2=  1.000000  1.000000
 IRadAn=      5 IRanWt=     -1 IRanGd=            0 ICorTp=0 IEmpDi=  4
 NAtoms=   23 NActive=   23 NUniq=   23 SFac= 1.00D+00 NAtFMM=   60 NAOKFM=F Big=F
 Integral buffers will be    131072 words long.
 Raffenetti 2 integral format.
 Two-electron integral symmetry is turned on.
 Leave Link  301 at Sun Sep 29 14:48:23 2019, MaxMem=   671088640 cpu:               1.5 elap:               0.8
 (Enter /shared/centos7/gaussian/g16/l302.exe)
 NPDir=0 NMtPBC=     1 NCelOv=     1 NCel=       1 NClECP=     1 NCelD=      1
         NCelK=      1 NCelE2=     1 NClLst=     1 CellRange=     0.0.
 One-electron integrals computed using PRISM.
 One-electron integral symmetry used in STVInt
 NBasis=   434 RedAO= T EigKep=  3.06D-04  NBF=   434
 NBsUse=   434 1.00D-06 EigRej= -1.00D+00 NBFU=   434
 Precomputing XC quadrature grid using
 IXCGrd= 4 IRadAn=           5 IRanWt=          -1 IRanGd=           0 AccXCQ= 0.00D+00.
 Generated NRdTot=       0 NPtTot=           0 NUsed=           0 NTot=          32
 NSgBfM=   485   485   485   485   485 MxSgAt=    23 MxSgA2=    23.
 Leave Link  302 at Sun Sep 29 14:49:30 2019, MaxMem=   671088640 cpu:             134.1 elap:              67.1
 (Enter /shared/centos7/gaussian/g16/l303.exe)
 DipDrv:  MaxL=1.
 Leave Link  303 at Sun Sep 29 14:49:35 2019, MaxMem=   671088640 cpu:               9.6 elap:               4.8
 (Enter /shared/centos7/gaussian/g16/l401.exe)
 Lowest energy guess from the checkpoint file:  "/scratch/harms.n/gauss_scrdir/Gau-45987.chk"
 B after Tr=    -0.000000   -0.000000   -0.000000
         Rot=    0.999926    0.005897    0.005959   -0.008801 Ang=   1.39 deg.
 Guess basis will be translated and rotated to current coordinates.
 B after Tr=    -0.000000   -0.000000   -0.000000
         Rot=    0.999961   -0.002399   -0.002798    0.008008 Ang=  -1.01 deg.
 Guess basis will be translated and rotated to current coordinates.
 CkInt1:  FT= 2.52D-01
 Max alpha theta=  5.090 degrees.
 JPrj=2 DoOrth=T DoCkMO=T.
 Leave Link  401 at Sun Sep 29 14:50:43 2019, MaxMem=   671088640 cpu:             137.0 elap:              68.5
 (Enter /shared/centos7/gaussian/g16/l502.exe)
 Integral symmetry usage will be decided dynamically.
 Closed shell SCF:
 Using DIIS extrapolation, IDIIS=  1040.
 NGot=   671088640 LenX=   670604095 LenY=   670368385
 Requested convergence on RMS density matrix=1.00D-08 within 900 cycles.
 Requested convergence on MAX density matrix=1.00D-06.
 Requested convergence on             energy=1.00D-06.
 No special actions if energy rises.
 Fock matrices will be formed incrementally for  20 cycles.
 Integral accuracy reduced to 1.0D-05 until final iterations.

 Cycle   1  Pass 0  IDiag  1:
 FoFJK:  IHMeth= 1 ICntrl=       0 DoSepK=F KAlg= 0 I1Cent=           0 FoldK=F
 IRaf= 940000000 NMat=       1 IRICut=       1 DoRegI=T DoRafI=F ISym2E= 0 IDoP0=0 IntGTp=1.
 FoFCou: FMM=F IPFlag=           0 FMFlag=      100000 FMFlg1=           0
         NFxFlg=           0 DoJE=F BraDBF=F KetDBF=F FulRan=T
         wScrn=  0.000000 ICntrl=         0 IOpCl=  0 I1Cent=           0 NGrid=           0
         NMat0=    1 NMatS0=      1 NMatT0=    0 NMatD0=    1 NMtDS0=    0 NMtDT0=    0
 Symmetry not used in FoFCou.
 E= -276.321987979748    
 DIIS: error= 3.91D-03 at cycle   1 NSaved=   1.
 NSaved= 1 IEnMin= 1 EnMin= -276.321987979748     IErMin= 1 ErrMin= 3.91D-03
 ErrMax= 3.91D-03  0.00D+00 EMaxC= 1.00D-01 BMatC= 9.65D-03 BMatP= 9.65D-03
 IDIUse=3 WtCom= 9.61D-01 WtEn= 3.91D-02
 Coeff-Com:  0.100D+01
 Coeff-En:   0.100D+01
 Coeff:      0.100D+01
 Gap=    11.075 Goal=   None    Shift=    0.000
 GapD=   11.075 DampG=2.000 DampE=1.000 DampFc=2.0000 IDamp=-1.
 RMSDP=1.71D-04 MaxDP=5.94D-03              OVMax= 1.96D-02

 Cycle   2  Pass 0  IDiag  1:
 RMSU=  1.71D-04    CP:  1.00D+00
 E= -276.332881158997     Delta-E=       -0.010893179249 Rises=F Damp=F
 DIIS: error= 5.20D-04 at cycle   2 NSaved=   2.
 NSaved= 2 IEnMin= 2 EnMin= -276.332881158997     IErMin= 2 ErrMin= 5.20D-04
 ErrMax= 5.20D-04  0.00D+00 EMaxC= 1.00D-01 BMatC= 1.98D-04 BMatP= 9.65D-03
 IDIUse=3 WtCom= 9.95D-01 WtEn= 5.20D-03
 Coeff-Com: -0.104D+00 0.110D+01
 Coeff-En:   0.000D+00 0.100D+01
 Coeff:     -0.103D+00 0.110D+01
 Gap=     0.430 Goal=   None    Shift=    0.000
 RMSDP=4.45D-05 MaxDP=1.36D-03 DE=-1.09D-02 OVMax= 4.72D-03

 Cycle   3  Pass 0  IDiag  1:
 RMSU=  2.91D-05    CP:  9.99D-01  1.20D+00
 E= -276.333305295133     Delta-E=       -0.000424136137 Rises=F Damp=F
 DIIS: error= 1.55D-04 at cycle   3 NSaved=   3.
 NSaved= 3 IEnMin= 3 EnMin= -276.333305295133     IErMin= 3 ErrMin= 1.55D-04
 ErrMax= 1.55D-04  0.00D+00 EMaxC= 1.00D-01 BMatC= 2.11D-05 BMatP= 1.98D-04
 IDIUse=3 WtCom= 9.98D-01 WtEn= 1.55D-03
 Coeff-Com: -0.295D-01 0.206D+00 0.823D+00
 Coeff-En:   0.000D+00 0.000D+00 0.100D+01
 Coeff:     -0.295D-01 0.206D+00 0.823D+00
 Gap=     0.430 Goal=   None    Shift=    0.000
 RMSDP=1.13D-05 MaxDP=4.16D-04 DE=-4.24D-04 OVMax= 1.17D-03

 Cycle   4  Pass 0  IDiag  1:
 RMSU=  9.97D-06    CP:  9.99D-01  1.23D+00  1.05D+00
 E= -276.333325529778     Delta-E=       -0.000020234644 Rises=F Damp=F
 DIIS: error= 9.04D-05 at cycle   4 NSaved=   4.
 NSaved= 4 IEnMin= 4 EnMin= -276.333325529778     IErMin= 4 ErrMin= 9.04D-05
 ErrMax= 9.04D-05  0.00D+00 EMaxC= 1.00D-01 BMatC= 6.59D-06 BMatP= 2.11D-05
 IDIUse=1 WtCom= 1.00D+00 WtEn= 0.00D+00
 Coeff-Com:  0.262D-02-0.780D-01 0.346D+00 0.730D+00
 Coeff:      0.262D-02-0.780D-01 0.346D+00 0.730D+00
 Gap=     0.430 Goal=   None    Shift=    0.000
 RMSDP=4.80D-06 MaxDP=1.73D-04 DE=-2.02D-05 OVMax= 4.73D-04

 Initial convergence to 1.0D-05 achieved.  Increase integral accuracy.
 Cycle   5  Pass 1  IDiag  1:
 E= -276.333367246496     Delta-E=       -0.000041716718 Rises=F Damp=F
 DIIS: error= 3.23D-05 at cycle   1 NSaved=   1.
 NSaved= 1 IEnMin= 1 EnMin= -276.333367246496     IErMin= 1 ErrMin= 3.23D-05
 ErrMax= 3.23D-05  0.00D+00 EMaxC= 1.00D-01 BMatC= 8.65D-07 BMatP= 8.65D-07
 IDIUse=1 WtCom= 1.00D+00 WtEn= 0.00D+00
 Coeff-Com:  0.100D+01
 Coeff:      0.100D+01
 Gap=     0.430 Goal=   None    Shift=    0.000
 RMSDP=4.80D-06 MaxDP=1.73D-04 DE=-4.17D-05 OVMax= 9.72D-05

 Cycle   6  Pass 1  IDiag  1:
 RMSU=  7.39D-06    CP:  1.00D+00
 E= -276.333367607651     Delta-E=       -0.000000361155 Rises=F Damp=F
 DIIS: error= 9.31D-06 at cycle   2 NSaved=   2.
 NSaved= 2 IEnMin= 2 EnMin= -276.333367607651     IErMin= 2 ErrMin= 9.31D-06
 ErrMax= 9.31D-06  0.00D+00 EMaxC= 1.00D-01 BMatC= 5.05D-08 BMatP= 8.65D-07
 IDIUse=1 WtCom= 1.00D+00 WtEn= 0.00D+00
 Coeff-Com:  0.863D-01 0.914D+00
 Coeff:      0.863D-01 0.914D+00
 Gap=     0.430 Goal=   None    Shift=    0.000
 RMSDP=6.19D-07 MaxDP=2.55D-05 DE=-3.61D-07 OVMax= 6.38D-05

 Cycle   7  Pass 1  IDiag  1:
 RMSU=  5.98D-07    CP:  1.00D+00  1.02D+00
