 Entering Gaussian System, Link 0=g16
 Input=verytight/species/CCCCCCC/conformers/CCCCCCC_217.com
 Output=verytight/species/CCCCCCC/conformers/CCCCCCC_217.log
 Initial command:
 /shared/centos7/gaussian/g16/l1.exe "/scratch/harms.n/gauss_scrdir/Gau-39195.inp" -scrdir="/scratch/harms.n/gauss_scrdir/"
 Entering Link 1 = /shared/centos7/gaussian/g16/l1.exe PID=     39196.
  
 Copyright (c) 1988,1990,1992,1993,1995,1998,2003,2009,2016,
            Gaussian, Inc.  All Rights Reserved.
  
 This is part of the Gaussian(R) 16 program.  It is based on
 the Gaussian(R) 09 system (copyright 2009, Gaussian, Inc.),
 the Gaussian(R) 03 system (copyright 2003, Gaussian, Inc.),
 the Gaussian(R) 98 system (copyright 1998, Gaussian, Inc.),
 the Gaussian(R) 94 system (copyright 1995, Gaussian, Inc.),
 the Gaussian 92(TM) system (copyright 1992, Gaussian, Inc.),
 the Gaussian 90(TM) system (copyright 1990, Gaussian, Inc.),
 the Gaussian 88(TM) system (copyright 1988, Gaussian, Inc.),
 the Gaussian 86(TM) system (copyright 1986, Carnegie Mellon
 University), and the Gaussian 82(TM) system (copyright 1983,
 Carnegie Mellon University). Gaussian is a federally registered
 trademark of Gaussian, Inc.
  
 This software contains proprietary and confidential information,
 including trade secrets, belonging to Gaussian, Inc.
  
 This software is provided under written license and may be
 used, copied, transmitted, or stored only in accord with that
 written license.
  
 The following legend is applicable only to US Government
 contracts under FAR:
  
                    RESTRICTED RIGHTS LEGEND
  
 Use, reproduction and disclosure by the US Government is
 subject to restrictions as set forth in subparagraphs (a)
 and (c) of the Commercial Computer Software - Restricted
 Rights clause in FAR 52.227-19.
  
 Gaussian, Inc.
 340 Quinnipiac St., Bldg. 40, Wallingford CT 06492
  
  
 ---------------------------------------------------------------
 Warning -- This program may not be used in any manner that
 competes with the business of Gaussian, Inc. or will provide
 assistance to any competitor of Gaussian, Inc.  The licensee
 of this program is prohibited from giving any competitor of
 Gaussian, Inc. access to this program.  By using this program,
 the user acknowledges that Gaussian, Inc. is engaged in the
 business of creating and licensing software in the field of
 computational chemistry and represents and warrants to the
 licensee that it is not a competitor of Gaussian, Inc. and that
 it will not use this program in any manner prohibited above.
 ---------------------------------------------------------------
  

 Cite this work as:
 Gaussian 16, Revision A.03,
 M. J. Frisch, G. W. Trucks, H. B. Schlegel, G. E. Scuseria, 
 M. A. Robb, J. R. Cheeseman, G. Scalmani, V. Barone, 
 G. A. Petersson, H. Nakatsuji, X. Li, M. Caricato, A. V. Marenich, 
 J. Bloino, B. G. Janesko, R. Gomperts, B. Mennucci, H. P. Hratchian, 
 J. V. Ortiz, A. F. Izmaylov, J. L. Sonnenberg, D. Williams-Young, 
 F. Ding, F. Lipparini, F. Egidi, J. Goings, B. Peng, A. Petrone, 
 T. Henderson, D. Ranasinghe, V. G. Zakrzewski, J. Gao, N. Rega, 
 G. Zheng, W. Liang, M. Hada, M. Ehara, K. Toyota, R. Fukuda, 
 J. Hasegawa, M. Ishida, T. Nakajima, Y. Honda, O. Kitao, H. Nakai, 
 T. Vreven, K. Throssell, J. A. Montgomery, Jr., J. E. Peralta, 
 F. Ogliaro, M. J. Bearpark, J. J. Heyd, E. N. Brothers, K. N. Kudin, 
 V. N. Staroverov, T. A. Keith, R. Kobayashi, J. Normand, 
 K. Raghavachari, A. P. Rendell, J. C. Burant, S. S. Iyengar, 
 J. Tomasi, M. Cossi, J. M. Millam, M. Klene, C. Adamo, R. Cammi, 
 J. W. Ochterski, R. L. Martin, K. Morokuma, O. Farkas, 
 J. B. Foresman, and D. J. Fox, Gaussian, Inc., Wallingford CT, 2016.
 
 ******************************************
 Gaussian 16:  EM64L-G16RevA.03 25-Dec-2016
                29-Sep-2019 
 ******************************************
 %nprocshared=20
 Will use up to   20 processors via shared memory.
 %mem=5GB
 ----------------------------------------------------------------------
 #p m062x/cc-pVTZ opt=(calcfc,maxcycles=900,Tight) freq IOP(7/33=1,2/16
 =3) scf=(maxcycle=900)
 ----------------------------------------------------------------------
 1/6=900,7=10,10=4,18=20,19=15,26=3,38=1/1,3;
 2/9=110,12=2,16=3,17=6,18=5,40=1/2;
 3/5=16,6=1,11=2,25=1,30=1,71=2,74=-55,140=1/1,2,3;
 4//1;
 5/5=2,7=900,38=5/2;
 8/6=4,10=90,11=11/1;
 11/6=1,8=1,9=11,15=111,16=1/1,2,10;
 10/6=1,13=1/2;
 6/7=2,8=2,9=2,10=2,28=1/1;
 7/10=1,18=20,25=1,33=1/1,2,3,16;
 1/6=900,7=10,10=4,18=20,19=15,26=3/3(2);
 2/9=110,16=3/2;
 99//99;
 2/9=110,16=3/2;
 3/5=16,6=1,11=2,25=1,30=1,71=1,74=-55/1,2,3;
 4/5=5,16=3,69=1/1;
 5/5=2,7=900,38=5/2;
 7/33=1/1,2,3,16;
 1/6=900,7=10,18=20,19=15,26=3/3(-5);
 2/9=110,16=3/2;
 6/7=2,8=2,9=2,10=2,19=2,28=1/1;
 99/9=1/99;
 Leave Link    1 at Sun Sep 29 13:09:13 2019, MaxMem=   671088640 cpu:               4.2 elap:               2.1
 (Enter /shared/centos7/gaussian/g16/l101.exe)
 ------------------------------
 Gaussian input prepared by ASE
 ------------------------------
 Symbolic Z-matrix:
 Charge =  0 Multiplicity = 1
 C                     1.55581  -0.89692   0.82265 
 C                     0.25811  -0.32867   1.28636 
 C                    -0.95283  -1.12527   0.86917 
 C                     1.72447  -0.91166  -0.65937 
 C                    -0.939    -2.54859   1.37483 
 C                     3.03731  -1.40513  -1.1094 
 C                    -2.06718  -3.39252   0.84105 
 H                     1.56371   0.12763  -1.0633 
 H                     0.91905  -1.53636  -1.11414 
 H                     1.65651  -1.93272   1.21065 
 H                     2.38332  -0.31798   1.28166 
 H                     0.14949   0.70098   0.91127 
 H                     0.2776   -0.25184   2.39405 
 H                    -1.0267   -1.12641  -0.23159 
 H                    -1.86369  -0.61314   1.24225 
 H                     0.03825  -3.02569   1.10119 
 H                    -0.97959  -2.54539   2.47737 
 H                     3.21733  -2.44474  -0.77671 
 H                     3.10531  -1.39172  -2.23755 
 H                     3.86437  -0.77609  -0.71727 
 H                    -2.04199  -3.44735  -0.24796 
 H                    -3.06475  -2.97183   1.14723 
 H                    -1.99956  -4.44298   1.24581 
 
 ITRead=  0  0  0  0  0  0  0  0  0  0  0  0  0  0  0  0  0  0  0  0
 ITRead=  0  0  0
 MicOpt= -1 -1 -1 -1 -1 -1 -1 -1 -1 -1 -1 -1 -1 -1 -1 -1 -1 -1 -1 -1
 MicOpt= -1 -1 -1
 NAtoms=     23 NQM=       23 NQMF=       0 NMMI=      0 NMMIF=      0
                NMic=       0 NMicF=      0.
                    Isotopes and Nuclear Properties:
 (Nuclear quadrupole moments (NQMom) in fm**2, nuclear magnetic moments (NMagM)
  in nuclear magnetons)

  Atom         1           2           3           4           5           6           7           8           9          10
 IAtWgt=          12          12          12          12          12          12          12           1           1           1
 AtmWgt=  12.0000000  12.0000000  12.0000000  12.0000000  12.0000000  12.0000000  12.0000000   1.0078250   1.0078250   1.0078250
 NucSpn=           0           0           0           0           0           0           0           1           1           1
 AtZEff=  -0.0000000  -0.0000000  -0.0000000  -0.0000000  -0.0000000  -0.0000000  -0.0000000  -0.0000000  -0.0000000  -0.0000000
 NQMom=    0.0000000   0.0000000   0.0000000   0.0000000   0.0000000   0.0000000   0.0000000   0.0000000   0.0000000   0.0000000
 NMagM=    0.0000000   0.0000000   0.0000000   0.0000000   0.0000000   0.0000000   0.0000000   2.7928460   2.7928460   2.7928460
 AtZNuc=   6.0000000   6.0000000   6.0000000   6.0000000   6.0000000   6.0000000   6.0000000   1.0000000   1.0000000   1.0000000

  Atom        11          12          13          14          15          16          17          18          19          20
 IAtWgt=           1           1           1           1           1           1           1           1           1           1
 AtmWgt=   1.0078250   1.0078250   1.0078250   1.0078250   1.0078250   1.0078250   1.0078250   1.0078250   1.0078250   1.0078250
 NucSpn=           1           1           1           1           1           1           1           1           1           1
 AtZEff=  -0.0000000  -0.0000000  -0.0000000  -0.0000000  -0.0000000  -0.0000000  -0.0000000  -0.0000000  -0.0000000  -0.0000000
 NQMom=    0.0000000   0.0000000   0.0000000   0.0000000   0.0000000   0.0000000   0.0000000   0.0000000   0.0000000   0.0000000
 NMagM=    2.7928460   2.7928460   2.7928460   2.7928460   2.7928460   2.7928460   2.7928460   2.7928460   2.7928460   2.7928460
 AtZNuc=   1.0000000   1.0000000   1.0000000   1.0000000   1.0000000   1.0000000   1.0000000   1.0000000   1.0000000   1.0000000

  Atom        21          22          23
 IAtWgt=           1           1           1
 AtmWgt=   1.0078250   1.0078250   1.0078250
 NucSpn=           1           1           1
 AtZEff=  -0.0000000  -0.0000000  -0.0000000
 NQMom=    0.0000000   0.0000000   0.0000000
 NMagM=    2.7928460   2.7928460   2.7928460
 AtZNuc=   1.0000000   1.0000000   1.0000000
 Leave Link  101 at Sun Sep 29 13:09:14 2019, MaxMem=   671088640 cpu:               2.7 elap:               1.4
 (Enter /shared/centos7/gaussian/g16/l103.exe)

 GradGradGradGradGradGradGradGradGradGradGradGradGradGradGradGradGradGrad
 Berny optimization.
 Initialization pass.
                           ----------------------------
                           !    Initial Parameters    !
                           ! (Angstroms and Degrees)  !
 --------------------------                            --------------------------
 ! Name  Definition              Value          Derivative Info.                !
 --------------------------------------------------------------------------------
 ! R1    R(1,2)                  1.4906         calculate D2E/DX2 analytically  !
 ! R2    R(1,4)                  1.4917         calculate D2E/DX2 analytically  !
 ! R3    R(1,10)                 1.1107         calculate D2E/DX2 analytically  !
 ! R4    R(1,11)                 1.1093         calculate D2E/DX2 analytically  !
 ! R5    R(2,3)                  1.5083         calculate D2E/DX2 analytically  !
 ! R6    R(2,12)                 1.1012         calculate D2E/DX2 analytically  !
 ! R7    R(2,13)                 1.1105         calculate D2E/DX2 analytically  !
 ! R8    R(3,5)                  1.5105         calculate D2E/DX2 analytically  !
 ! R9    R(3,14)                 1.1032         calculate D2E/DX2 analytically  !
 ! R10   R(3,15)                 1.1096         calculate D2E/DX2 analytically  !
 ! R11   R(4,6)                  1.473          calculate D2E/DX2 analytically  !
 ! R12   R(4,8)                  1.1266         calculate D2E/DX2 analytically  !
 ! R13   R(4,9)                  1.1161         calculate D2E/DX2 analytically  !
 ! R14   R(5,7)                  1.5066         calculate D2E/DX2 analytically  !
 ! R15   R(5,16)                 1.1214         calculate D2E/DX2 analytically  !
 ! R16   R(5,17)                 1.1033         calculate D2E/DX2 analytically  !
 ! R17   R(6,18)                 1.1063         calculate D2E/DX2 analytically  !
 ! R18   R(6,19)                 1.1303         calculate D2E/DX2 analytically  !
 ! R19   R(6,20)                 1.1106         calculate D2E/DX2 analytically  !
 ! R20   R(7,21)                 1.0907         calculate D2E/DX2 analytically  !
 ! R21   R(7,22)                 1.1251         calculate D2E/DX2 analytically  !
 ! R22   R(7,23)                 1.1278         calculate D2E/DX2 analytically  !
 ! A1    A(2,1,4)              114.285          calculate D2E/DX2 analytically  !
 ! A2    A(2,1,10)             109.0124         calculate D2E/DX2 analytically  !
 ! A3    A(2,1,11)             108.7679         calculate D2E/DX2 analytically  !
 ! A4    A(4,1,10)             109.1245         calculate D2E/DX2 analytically  !
 ! A5    A(4,1,11)             109.3849         calculate D2E/DX2 analytically  !
 ! A6    A(10,1,11)            105.9336         calculate D2E/DX2 analytically  !
 ! A7    A(1,2,3)              114.3028         calculate D2E/DX2 analytically  !
 ! A8    A(1,2,12)             109.6547         calculate D2E/DX2 analytically  !
 ! A9    A(1,2,13)             108.7468         calculate D2E/DX2 analytically  !
 ! A10   A(3,2,12)             108.6884         calculate D2E/DX2 analytically  !
 ! A11   A(3,2,13)             109.0574         calculate D2E/DX2 analytically  !
 ! A12   A(12,2,13)            106.0686         calculate D2E/DX2 analytically  !
 ! A13   A(2,3,5)              113.435          calculate D2E/DX2 analytically  !
 ! A14   A(2,3,14)             109.2857         calculate D2E/DX2 analytically  !
 ! A15   A(2,3,15)             108.8016         calculate D2E/DX2 analytically  !
 ! A16   A(5,3,14)             109.4901         calculate D2E/DX2 analytically  !
 ! A17   A(5,3,15)             109.2608         calculate D2E/DX2 analytically  !
 ! A18   A(14,3,15)            106.3195         calculate D2E/DX2 analytically  !
 ! A19   A(1,4,6)              114.0569         calculate D2E/DX2 analytically  !
 ! A20   A(1,4,8)              109.3287         calculate D2E/DX2 analytically  !
 ! A21   A(1,4,9)              109.1934         calculate D2E/DX2 analytically  !
 ! A22   A(6,4,8)              109.0694         calculate D2E/DX2 analytically  !
 ! A23   A(6,4,9)              109.3398         calculate D2E/DX2 analytically  !
 ! A24   A(8,4,9)              105.5018         calculate D2E/DX2 analytically  !
 ! A25   A(3,5,7)              113.725          calculate D2E/DX2 analytically  !
 ! A26   A(3,5,16)             109.0978         calculate D2E/DX2 analytically  !
 ! A27   A(3,5,17)             109.3573         calculate D2E/DX2 analytically  !
 ! A28   A(7,5,16)             109.1349         calculate D2E/DX2 analytically  !
 ! A29   A(7,5,17)             109.1551         calculate D2E/DX2 analytically  !
 ! A30   A(16,5,17)            106.0895         calculate D2E/DX2 analytically  !
 ! A31   A(4,6,18)             111.5914         calculate D2E/DX2 analytically  !
 ! A32   A(4,6,19)             110.7691         calculate D2E/DX2 analytically  !
 ! A33   A(4,6,20)             111.4758         calculate D2E/DX2 analytically  !
 ! A34   A(18,6,19)            107.5491         calculate D2E/DX2 analytically  !
 ! A35   A(18,6,20)            107.7514         calculate D2E/DX2 analytically  !
 ! A36   A(19,6,20)            107.5105         calculate D2E/DX2 analytically  !
 ! A37   A(5,7,21)             111.3835         calculate D2E/DX2 analytically  !
 ! A38   A(5,7,22)             110.982          calculate D2E/DX2 analytically  !
 ! A39   A(5,7,23)             110.4685         calculate D2E/DX2 analytically  !
 ! A40   A(21,7,22)            108.1192         calculate D2E/DX2 analytically  !
 ! A41   A(21,7,23)            108.0674         calculate D2E/DX2 analytically  !
 ! A42   A(22,7,23)            107.6843         calculate D2E/DX2 analytically  !
 ! D1    D(4,1,2,3)             64.4334         calculate D2E/DX2 analytically  !
 ! D2    D(4,1,2,12)           -57.8843         calculate D2E/DX2 analytically  !
 ! D3    D(4,1,2,13)          -173.4532         calculate D2E/DX2 analytically  !
 ! D4    D(10,1,2,3)           -57.9537         calculate D2E/DX2 analytically  !
 ! D5    D(10,1,2,12)          179.7286         calculate D2E/DX2 analytically  !
 ! D6    D(10,1,2,13)           64.1598         calculate D2E/DX2 analytically  !
 ! D7    D(11,1,2,3)          -173.0256         calculate D2E/DX2 analytically  !
 ! D8    D(11,1,2,12)           64.6567         calculate D2E/DX2 analytically  !
 ! D9    D(11,1,2,13)          -50.9121         calculate D2E/DX2 analytically  !
 ! D10   D(2,1,4,6)            176.811          calculate D2E/DX2 analytically  !
 ! D11   D(2,1,4,8)             54.4164         calculate D2E/DX2 analytically  !
 ! D12   D(2,1,4,9)            -60.5449         calculate D2E/DX2 analytically  !
 ! D13   D(10,1,4,6)           -60.8631         calculate D2E/DX2 analytically  !
 ! D14   D(10,1,4,8)           176.7423         calculate D2E/DX2 analytically  !
 ! D15   D(10,1,4,9)            61.781          calculate D2E/DX2 analytically  !
 ! D16   D(11,1,4,6)            54.6065         calculate D2E/DX2 analytically  !
 ! D17   D(11,1,4,8)           -67.7881         calculate D2E/DX2 analytically  !
 ! D18   D(11,1,4,9)           177.2507         calculate D2E/DX2 analytically  !
 ! D19   D(1,2,3,5)             59.3163         calculate D2E/DX2 analytically  !
 ! D20   D(1,2,3,14)           -63.159          calculate D2E/DX2 analytically  !
 ! D21   D(1,2,3,15)          -178.8559         calculate D2E/DX2 analytically  !
 ! D22   D(12,2,3,5)          -177.8403         calculate D2E/DX2 analytically  !
 ! D23   D(12,2,3,14)           59.6845         calculate D2E/DX2 analytically  !
 ! D24   D(12,2,3,15)          -56.0125         calculate D2E/DX2 analytically  !
 ! D25   D(13,2,3,5)           -62.6272         calculate D2E/DX2 analytically  !
 ! D26   D(13,2,3,14)          174.8976         calculate D2E/DX2 analytically  !
 ! D27   D(13,2,3,15)           59.2007         calculate D2E/DX2 analytically  !
 ! D28   D(2,3,5,7)           -173.7595         calculate D2E/DX2 analytically  !
 ! D29   D(2,3,5,16)           -51.6814         calculate D2E/DX2 analytically  !
 ! D30   D(2,3,5,17)            63.9444         calculate D2E/DX2 analytically  !
 ! D31   D(14,3,5,7)           -51.3976         calculate D2E/DX2 analytically  !
 ! D32   D(14,3,5,16)           70.6806         calculate D2E/DX2 analytically  !
 ! D33   D(14,3,5,17)         -173.6936         calculate D2E/DX2 analytically  !
 ! D34   D(15,3,5,7)            64.6691         calculate D2E/DX2 analytically  !
 ! D35   D(15,3,5,16)         -173.2527         calculate D2E/DX2 analytically  !
 ! D36   D(15,3,5,17)          -57.6269         calculate D2E/DX2 analytically  !
 ! D37   D(1,4,6,18)            60.2667         calculate D2E/DX2 analytically  !
 ! D38   D(1,4,6,19)          -179.9379         calculate D2E/DX2 analytically  !
 ! D39   D(1,4,6,20)           -60.2679         calculate D2E/DX2 analytically  !
 ! D40   D(8,4,6,18)          -177.1968         calculate D2E/DX2 analytically  !
 ! D41   D(8,4,6,19)           -57.4014         calculate D2E/DX2 analytically  !
 ! D42   D(8,4,6,20)            62.2686         calculate D2E/DX2 analytically  !
 ! D43   D(9,4,6,18)           -62.2974         calculate D2E/DX2 analytically  !
 ! D44   D(9,4,6,19)            57.4979         calculate D2E/DX2 analytically  !
 ! D45   D(9,4,6,20)           177.168          calculate D2E/DX2 analytically  !
 ! D46   D(3,5,7,21)            59.4454         calculate D2E/DX2 analytically  !
 ! D47   D(3,5,7,22)           -61.0767         calculate D2E/DX2 analytically  !
 ! D48   D(3,5,7,23)           179.5554         calculate D2E/DX2 analytically  !
 ! D49   D(16,5,7,21)          -62.6123         calculate D2E/DX2 analytically  !
 ! D50   D(16,5,7,22)          176.8657         calculate D2E/DX2 analytically  !
 ! D51   D(16,5,7,23)           57.4978         calculate D2E/DX2 analytically  !
 ! D52   D(17,5,7,21)         -178.1471         calculate D2E/DX2 analytically  !
 ! D53   D(17,5,7,22)           61.3309         calculate D2E/DX2 analytically  !
 ! D54   D(17,5,7,23)          -58.037          calculate D2E/DX2 analytically  !
 --------------------------------------------------------------------------------
 Trust Radius=3.00D-01 FncErr=1.00D-07 GrdErr=1.00D-06 EigMax=2.50D+02 EigMin=1.00D-04
 Number of steps in this run=    138 maximum allowed number of steps=    138.
 GradGradGradGradGradGradGradGradGradGradGradGradGradGradGradGradGradGrad

 Leave Link  103 at Sun Sep 29 13:09:15 2019, MaxMem=   671088640 cpu:               1.5 elap:               0.8
 (Enter /shared/centos7/gaussian/g16/l202.exe)
                          Input orientation:                          
 ---------------------------------------------------------------------
 Center     Atomic      Atomic             Coordinates (Angstroms)
 Number     Number       Type             X           Y           Z
 ---------------------------------------------------------------------
      1          6           0        1.555811   -0.896921    0.822647
      2          6           0        0.258108   -0.328674    1.286357
      3          6           0       -0.952828   -1.125274    0.869171
      4          6           0        1.724470   -0.911660   -0.659367
      5          6           0       -0.939002   -2.548588    1.374830
      6          6           0        3.037307   -1.405134   -1.109398
      7          6           0       -2.067183   -3.392516    0.841051
      8          1           0        1.563706    0.127632   -1.063300
      9          1           0        0.919055   -1.536356   -1.114138
     10          1           0        1.656508   -1.932724    1.210652
     11          1           0        2.383320   -0.317976    1.281663
     12          1           0        0.149489    0.700984    0.911267
     13          1           0        0.277596   -0.251844    2.394045
     14          1           0       -1.026703   -1.126414   -0.231586
     15          1           0       -1.863688   -0.613135    1.242255
     16          1           0        0.038247   -3.025690    1.101194
     17          1           0       -0.979586   -2.545387    2.477374
     18          1           0        3.217329   -2.444743   -0.776706
     19          1           0        3.105308   -1.391720   -2.237552
     20          1           0        3.864372   -0.776094   -0.717269
     21          1           0       -2.041988   -3.447349   -0.247956
     22          1           0       -3.064750   -2.971830    1.147227
     23          1           0       -1.999559   -4.442983    1.245809
 ---------------------------------------------------------------------
                    Distance matrix (angstroms):
                    1          2          3          4          5
     1  C    0.000000
     2  C    1.490625   0.000000
     3  C    2.519440   1.508304   0.000000
     4  C    1.491652   2.505180   3.090304   0.000000
     5  C    3.042532   2.523671   1.510531   3.729822   0.000000
     6  C    2.487148   3.823919   4.462537   1.472952   4.825962
     7  C    4.399365   3.872002   2.526452   4.773104   1.506627
     8  H    2.146291   2.726479   3.411328   1.126559   4.401156
     9  H    2.136696   2.767259   2.757979   1.116134   3.266795
    10  H    1.110665   2.129373   2.752675   2.131704   2.672624
    11  H    1.109344   2.125244   3.457132   2.134043   4.002765
    12  H    2.130468   1.101220   2.133563   2.747376   3.458239
    13  H    2.125852   1.110520   2.145243   3.442691   2.791763
    14  H    2.798830   2.142727   1.103233   2.792502   2.147287
    15  H    3.456816   2.141234   1.109570   4.071874   2.149092
    16  H    2.629115   2.712290   2.155840   3.226770   1.121392
    17  H    3.447289   2.804323   2.145636   4.451980   1.103295
    18  H    2.777468   4.182220   4.673341   2.143068   4.681344
    19  H    3.465629   4.653445   5.117733   2.151242   5.544736
    20  H    2.777660   4.149679   5.083712   2.144974   5.530914
    21  H    4.538175   4.167816   2.797548   4.559077   2.158190
    22  H    5.075449   4.248178   2.819095   5.517672   2.179390
    23  H    5.039274   4.693213   3.499242   5.474334   2.174893
                    6          7          8          9         10
     6  C    0.000000
     7  C    5.814616   0.000000
     8  H    2.126734   5.403827   0.000000
     9  H    2.122319   4.023147   1.785221   0.000000
    10  H    2.750925   4.016650   3.069941   2.470950   0.000000
    11  H    2.706803   5.427145   2.523725   3.060782   1.772204
    12  H    4.105888   4.655674   2.495528   3.114512   3.049123
    13  H    4.606538   4.215875   3.708277   3.790618   2.475313
    14  H    4.167064   2.714473   2.995764   2.175529   3.151160
    15  H    5.493386   2.815551   4.196588   3.761460   3.759534
    16  H    4.062915   2.152922   4.117706   2.810985   1.955844
    17  H    5.504593   2.139637   5.113682   4.185922   2.988132
    18  H    1.106291   5.607270   3.071436   2.494212   2.578356
    19  H    1.130281   6.343157   2.462486   2.462252   3.779129
    20  H    1.110627   6.667636   2.495902   3.067637   3.151084
    21  H    5.541838   1.090678   5.142597   3.629041   4.254469
    22  H    6.691935   1.125104   5.992971   4.800527   4.834671
    23  H    6.336052   1.127778   6.238539   4.747225   4.435028
                   11         12         13         14         15
    11  H    0.000000
    12  H    2.483037   0.000000
    13  H    2.382402   1.767179   0.000000
    14  H    3.817296   2.455386   3.059413   0.000000
    15  H    4.257434   2.426797   2.458099   1.770933   0.000000
    16  H    3.586593   3.733168   3.069686   2.552973   3.075334
    17  H    4.207163   3.777092   2.616829   3.058458   2.457794
    18  H    3.074995   4.707068   4.848144   4.477383   5.766084
    19  H    3.749542   4.799098   5.544994   4.600849   6.116059
    20  H    2.529647   4.316740   4.777036   4.927599   6.056151
    21  H    5.631701   4.832705   4.750989   2.533340   3.207069
    22  H    6.061557   4.886366   4.485996   3.075763   2.648588
    23  H    6.018853   5.584865   4.906071   3.758826   3.832259
                   16         17         18         19         20
    16  H    0.000000
    17  H    1.777792   0.000000
    18  H    3.737722   5.311615   0.000000
    19  H    4.819123   6.344118   1.804294   0.000000
    20  H    4.796532   6.066306   1.790695   1.807328   0.000000
    21  H    2.515032   3.060989   5.380075   5.888868   6.499303
    22  H    3.103806   2.509791   6.591195   7.212704   7.504021
    23  H    2.486421   2.481525   5.941334   6.892292   7.189259
                   21         22         23
    21  H    0.000000
    22  H    1.794073   0.000000
    23  H    1.795668   1.818966   0.000000
 Stoichiometry    C7H16
 Framework group  C1[X(C7H16)]
 Deg. of freedom    63
 Full point group                 C1      NOp   1
 Largest Abelian subgroup         C1      NOp   1
 Largest concise Abelian subgroup C1      NOp   1
                         Standard orientation:                         
 ---------------------------------------------------------------------
 Center     Atomic      Atomic             Coordinates (Angstroms)
 Number     Number       Type             X           Y           Z
 ---------------------------------------------------------------------
      1          6           0        1.118384    0.622508    0.544266
      2          6           0        0.021328    1.470954   -0.002150
      3          6           0       -1.153633    0.694529   -0.542163
      4          6           0        1.791557   -0.238604   -0.470795
      5          6           0       -1.812570   -0.191965    0.488193
      6          6           0        2.922550   -1.019327    0.059219
      7          6           0       -2.890153   -1.080539   -0.076765
      8          1           0        2.154425    0.403217   -1.322575
      9          1           0        1.041079   -0.932654   -0.918938
     10          1           0        0.710311   -0.019811    1.353265
     11          1           0        1.870777    1.279295    1.027152
     12          1           0        0.415777    2.116222   -0.802602
     13          1           0       -0.332890    2.155098    0.797682
     14          1           0       -0.823068    0.081538   -1.397787
     15          1           0       -1.901788    1.409908   -0.941715
     16          1           0       -1.030452   -0.828816    0.978327
     17          1           0       -2.242387    0.434377    1.288326
     18          1           0        2.601852   -1.703259    0.867469
     19          1           0        3.391063   -1.648969   -0.754158
     20          1           0        3.715791   -0.358944    0.469288
     21          1           0       -2.496303   -1.740265   -0.850860
     22          1           0       -3.720981   -0.469857   -0.526935
     23          1           0       -3.337980   -1.722409    0.735231
 ---------------------------------------------------------------------
 Rotational constants (GHZ):           4.2484912           1.1915329           1.0381088
 Leave Link  202 at Sun Sep 29 13:09:17 2019, MaxMem=   671088640 cpu:               3.9 elap:               2.0
 (Enter /shared/centos7/gaussian/g16/l301.exe)
 Standard basis: CC-pVTZ (5D, 7F)
 Ernie: Thresh=  0.10000D-02 Tol=  0.10000D-05 Strict=F.
 Ernie:  21 primitive shells out of 310 were deleted.
 There are   485 symmetry adapted cartesian basis functions of A   symmetry.
 There are   434 symmetry adapted basis functions of A   symmetry.
   434 basis functions,   636 primitive gaussians,   485 cartesian basis functions
    29 alpha electrons       29 beta electrons
       nuclear repulsion energy       323.7567728598 Hartrees.
 IExCor= 4336 DFT=T Ex+Corr=M062X ExCW=0 ScaHFX=  0.540000
 ScaDFX=  1.000000  1.000000  1.000000  1.000000 ScalE2=  1.000000  1.000000
 IRadAn=      5 IRanWt=     -1 IRanGd=            0 ICorTp=0 IEmpDi=  4
 NAtoms=   23 NActive=   23 NUniq=   23 SFac= 1.00D+00 NAtFMM=   60 NAOKFM=F Big=F
 Integral buffers will be    131072 words long.
 Raffenetti 2 integral format.
 Two-electron integral symmetry is turned on.
 Leave Link  301 at Sun Sep 29 13:09:18 2019, MaxMem=   671088640 cpu:               1.7 elap:               0.9
 (Enter /shared/centos7/gaussian/g16/l302.exe)
 NPDir=0 NMtPBC=     1 NCelOv=     1 NCel=       1 NClECP=     1 NCelD=      1
         NCelK=      1 NCelE2=     1 NClLst=     1 CellRange=     0.0.
 One-electron integrals computed using PRISM.
 One-electron integral symmetry used in STVInt
 NBasis=   434 RedAO= T EigKep=  2.72D-04  NBF=   434
 NBsUse=   434 1.00D-06 EigRej= -1.00D+00 NBFU=   434
 Precomputing XC quadrature grid using
 IXCGrd= 4 IRadAn=           5 IRanWt=          -1 IRanGd=           0 AccXCQ= 0.00D+00.
 Generated NRdTot=       0 NPtTot=           0 NUsed=           0 NTot=          32
 NSgBfM=   485   485   485   485   485 MxSgAt=    23 MxSgA2=    23.
 Leave Link  302 at Sun Sep 29 13:10:37 2019, MaxMem=   671088640 cpu:             157.8 elap:              78.9
 (Enter /shared/centos7/gaussian/g16/l303.exe)
 DipDrv:  MaxL=1.
 Leave Link  303 at Sun Sep 29 13:10:41 2019, MaxMem=   671088640 cpu:               8.8 elap:               4.4
 (Enter /shared/centos7/gaussian/g16/l401.exe)
 ExpMin= 1.03D-01 ExpMax= 8.24D+03 ExpMxC= 2.81D+02 IAcc=3 IRadAn=         5 AccDes= 0.00D+00
 Harris functional with IExCor= 1009 and IRadAn=       5 diagonalized for initial guess.
 HarFok:  IExCor= 1009 AccDes= 0.00D+00 IRadAn=         5 IDoV= 1 UseB2=F ITyADJ=14
 ICtDFT=  3500011 ScaDFX=  1.000000  1.000000  1.000000  1.000000
 FoFCou: FMM=F IPFlag=           0 FMFlag=      100000 FMFlg1=           0
         NFxFlg=           0 DoJE=T BraDBF=F KetDBF=T FulRan=T
         wScrn=  0.000000 ICntrl=       500 IOpCl=  0 I1Cent=   200000004 NGrid=           0
         NMat0=    1 NMatS0=      1 NMatT0=    0 NMatD0=    1 NMtDS0=    0 NMtDT0=    0
 Petite list used in FoFCou.
 Harris En= -276.336206262067    
 JPrj=0 DoOrth=F DoCkMO=F.
 Leave Link  401 at Sun Sep 29 13:11:29 2019, MaxMem=   671088640 cpu:              95.1 elap:              47.6
 (Enter /shared/centos7/gaussian/g16/l502.exe)
 Integral symmetry usage will be decided dynamically.
 Closed shell SCF:
 Using DIIS extrapolation, IDIIS=  1040.
 NGot=   671088640 LenX=   670604095 LenY=   670368385
 Requested convergence on RMS density matrix=1.00D-08 within 900 cycles.
 Requested convergence on MAX density matrix=1.00D-06.
 Requested convergence on             energy=1.00D-06.
 No special actions if energy rises.
 Fock matrices will be formed incrementally for  20 cycles.
 Integral accuracy reduced to 1.0D-05 until final iterations.

 Cycle   1  Pass 0  IDiag  1:
 FoFJK:  IHMeth= 1 ICntrl=       0 DoSepK=F KAlg= 0 I1Cent=           0 FoldK=F
 IRaf= 930000000 NMat=       1 IRICut=       1 DoRegI=T DoRafI=F ISym2E= 0 IDoP0=0 IntGTp=1.
 FoFCou: FMM=F IPFlag=           0 FMFlag=      100000 FMFlg1=           0
         NFxFlg=           0 DoJE=F BraDBF=F KetDBF=F FulRan=T
         wScrn=  0.000000 ICntrl=         0 IOpCl=  0 I1Cent=           0 NGrid=           0
         NMat0=    1 NMatS0=      1 NMatT0=    0 NMatD0=    1 NMtDS0=    0 NMtDT0=    0
 Symmetry not used in FoFCou.
 E= -275.969548203689    
 DIIS: error= 3.64D-02 at cycle   1 NSaved=   1.
 NSaved= 1 IEnMin= 1 EnMin= -275.969548203689     IErMin= 1 ErrMin= 3.64D-02
 ErrMax= 3.64D-02  0.00D+00 EMaxC= 1.00D-01 BMatC= 3.73D-01 BMatP= 3.73D-01
 IDIUse=3 WtCom= 6.36D-01 WtEn= 3.64D-01
 Coeff-Com:  0.100D+01
 Coeff-En:   0.100D+01
 Coeff:      0.100D+01
 Gap=     0.374 Goal=   None    Shift=    0.000
 GapD=    0.374 DampG=1.000 DampE=0.500 DampFc=0.5000 IDamp=-1.
 Damping current iteration by 5.00D-01
 RMSDP=1.88D-03 MaxDP=6.72D-02              OVMax= 1.72D-01

 Cycle   2  Pass 0  IDiag  1:
 RMSU=  9.38D-04    CP:  9.89D-01
 E= -276.149833261425     Delta-E=       -0.180285057737 Rises=F Damp=T
 DIIS: error= 4.43D-03 at cycle   2 NSaved=   2.
 NSaved= 2 IEnMin= 2 EnMin= -276.149833261425     IErMin= 2 ErrMin= 4.43D-03
 ErrMax= 4.43D-03  0.00D+00 EMaxC= 1.00D-01 BMatC= 1.79D-02 BMatP= 3.73D-01
 IDIUse=3 WtCom= 9.56D-01 WtEn= 4.43D-02
 Coeff-Com: -0.585D-01 0.106D+01
 Coeff-En:   0.000D+00 0.100D+01
 Coeff:     -0.559D-01 0.106D+01
 Gap=     0.455 Goal=   None    Shift=    0.000
 RMSDP=5.13D-04 MaxDP=1.53D-02 DE=-1.80D-01 OVMax= 9.05D-02

 Cycle   3  Pass 0  IDiag  1:
 RMSU=  5.01D-04    CP:  9.96D-01  8.96D-01
 E= -276.328157938228     Delta-E=       -0.178324676803 Rises=F Damp=F
 DIIS: error= 2.87D-03 at cycle   3 NSaved=   3.
 NSaved= 3 IEnMin= 3 EnMin= -276.328157938228     IErMin= 3 ErrMin= 2.87D-03
 ErrMax= 2.87D-03  0.00D+00 EMaxC= 1.00D-01 BMatC= 2.22D-03 BMatP= 1.79D-02
 IDIUse=3 WtCom= 9.71D-01 WtEn= 2.87D-02
 Coeff-Com: -0.483D-01 0.222D+00 0.827D+00
 Coeff-En:   0.000D+00 0.000D+00 0.100D+01
 Coeff:     -0.469D-01 0.215D+00 0.832D+00
 Gap=     0.420 Goal=   None    Shift=    0.000
 RMSDP=9.20D-05 MaxDP=2.56D-03 DE=-1.78D-01 OVMax= 9.63D-03

 Cycle   4  Pass 0  IDiag  1:
 RMSU=  7.52D-05    CP:  9.95D-01  9.39D-01  9.33D-01
 E= -276.330015354505     Delta-E=       -0.001857416277 Rises=F Damp=F
 DIIS: error= 8.11D-04 at cycle   4 NSaved=   4.
 NSaved= 4 IEnMin= 4 EnMin= -276.330015354505     IErMin= 4 ErrMin= 8.11D-04
 ErrMax= 8.11D-04  0.00D+00 EMaxC= 1.00D-01 BMatC= 3.43D-04 BMatP= 2.22D-03
 IDIUse=3 WtCom= 9.92D-01 WtEn= 8.11D-03
 Coeff-Com: -0.144D-01 0.407D-01 0.322D+00 0.652D+00
 Coeff-En:   0.000D+00 0.000D+00 0.000D+00 0.100D+01
 Coeff:     -0.143D-01 0.404D-01 0.319D+00 0.655D+00
 Gap=     0.421 Goal=   None    Shift=    0.000
 RMSDP=3.19D-05 MaxDP=1.34D-03 DE=-1.86D-03 OVMax= 3.15D-03

 Cycle   5  Pass 0  IDiag  1:
 RMSU=  1.87D-05    CP:  9.95D-01  9.32D-01  9.67D-01  7.54D-01
 E= -276.330331594415     Delta-E=       -0.000316239910 Rises=F Damp=F
 DIIS: error= 1.52D-04 at cycle   5 NSaved=   5.
 NSaved= 5 IEnMin= 5 EnMin= -276.330331594415     IErMin= 5 ErrMin= 1.52D-04
 ErrMax= 1.52D-04  0.00D+00 EMaxC= 1.00D-01 BMatC= 1.49D-05 BMatP= 3.43D-04
 IDIUse=3 WtCom= 9.98D-01 WtEn= 1.52D-03
 Coeff-Com: -0.784D-03-0.103D-02 0.448D-01 0.207D+00 0.750D+00
 Coeff-En:   0.000D+00 0.000D+00 0.000D+00 0.000D+00 0.100D+01
 Coeff:     -0.783D-03-0.103D-02 0.447D-01 0.207D+00 0.750D+00
 Gap=     0.421 Goal=   None    Shift=    0.000
 RMSDP=6.20D-06 MaxDP=2.96D-04 DE=-3.16D-04 OVMax= 7.11D-04

 Initial convergence to 1.0D-05 achieved.  Increase integral accuracy.
 Cycle   6  Pass 1  IDiag  1:
 E= -276.330266675100     Delta-E=        0.000064919315 Rises=F Damp=F
 DIIS: error= 3.58D-05 at cycle   1 NSaved=   1.
 NSaved= 1 IEnMin= 1 EnMin= -276.330266675100     IErMin= 1 ErrMin= 3.58D-05
 ErrMax= 3.58D-05  0.00D+00 EMaxC= 1.00D-01 BMatC= 1.56D-06 BMatP= 1.56D-06
 IDIUse=1 WtCom= 1.00D+00 WtEn= 0.00D+00
 Coeff-Com:  0.100D+01
 Coeff:      0.100D+01
 Gap=     0.421 Goal=   None    Shift=    0.000
 RMSDP=6.20D-06 MaxDP=2.96D-04 DE= 6.49D-05 OVMax= 2.57D-04

 Cycle   7  Pass 1  IDiag  1:
 RMSU=  1.15D-05    CP:  1.00D+00
 E= -276.330267444009     Delta-E=       -0.000000768909 Rises=F Damp=F
 DIIS: error= 2.50D-05 at cycle   2 NSaved=   2.
 NSaved= 2 IEnMin= 2 EnMin= -276.330267444009     IErMin= 2 ErrMin= 2.50D-05
 ErrMax= 2.50D-05  0.00D+00 EMaxC= 1.00D-01 BMatC= 3.70D-07 BMatP= 1.56D-06
 IDIUse=1 WtCom= 1.00D+00 WtEn= 0.00D+00
 Coeff-Com:  0.274D+00 0.726D+00
 Coeff:      0.274D+00 0.726D+00
 Gap=     0.421 Goal=   None    Shift=    0.000
 RMSDP=1.28D-06 MaxDP=4.89D-05 DE=-7.69D-07 OVMax= 1.41D-04

 Cycle   8  Pass 1  IDiag  1:
 RMSU=  1.28D-06    CP:  1.00D+00  1.01D+00
 E= -276.330267741731     Delta-E=       -0.000000297722 Rises=F Damp=F
 DIIS: error= 1.01D-05 at cycle   3 NSaved=   3.
 NSaved= 3 IEnMin= 3 EnMin= -276.330267741731     IErMin= 3 ErrMin= 1.01D-05
 ErrMax= 1.01D-05  0.00D+00 EMaxC= 1.00D-01 BMatC= 7.58D-08 BMatP= 3.70D-07
 IDIUse=1 WtCom= 1.00D+00 WtEn= 0.00D+00
 Coeff-Com: -0.525D-02 0.303D+00 0.702D+00
 Coeff:     -0.525D-02 0.303D+00 0.702D+00
 Gap=     0.421 Goal=   None    Shift=    0.000
 RMSDP=4.59D-07 MaxDP=1.98D-05 DE=-2.98D-07 OVMax= 4.65D-05

 Cycle   9  Pass 1  IDiag  1:
 RMSU=  3.01D-07    CP:  1.00D+00  1.02D+00  7.79D-01
 E= -276.330267814467     Delta-E=       -0.000000072736 Rises=F Damp=F
 DIIS: error= 2.39D-06 at cycle   4 NSaved=   4.
 NSaved= 4 IEnMin= 4 EnMin= -276.330267814467     IErMin= 4 ErrMin= 2.39D-06
 ErrMax= 2.39D-06  0.00D+00 EMaxC= 1.00D-01 BMatC= 1.89D-09 BMatP= 7.58D-08
 IDIUse=1 WtCom= 1.00D+00 WtEn= 0.00D+00
 Coeff-Com: -0.108D-01 0.831D-01 0.243D+00 0.685D+00
 Coeff:     -0.108D-01 0.831D-01 0.243D+00 0.685D+00
 Gap=     0.421 Goal=   None    Shift=    0.000
 RMSDP=8.68D-08 MaxDP=3.00D-06 DE=-7.27D-08 OVMax= 8.17D-06

 Cycle  10  Pass 1  IDiag  1:
 RMSU=  8.23D-08    CP:  1.00D+00  1.03D+00  7.74D-01  9.15D-01
 E= -276.330267816379     Delta-E=       -0.000000001912 Rises=F Damp=F
 DIIS: error= 3.65D-07 at cycle   5 NSaved=   5.
 NSaved= 5 IEnMin= 5 EnMin= -276.330267816379     IErMin= 5 ErrMin= 3.65D-07
 ErrMax= 3.65D-07  0.00D+00 EMaxC= 1.00D-01 BMatC= 5.59D-11 BMatP= 1.89D-09
 IDIUse=1 WtCom= 1.00D+00 WtEn= 0.00D+00
 Coeff-Com: -0.178D-03-0.224D-01-0.497D-01 0.339D-01 0.104D+01
 Coeff:     -0.178D-03-0.224D-01-0.497D-01 0.339D-01 0.104D+01
 Gap=     0.421 Goal=   None    Shift=    0.000
 RMSDP=3.18D-08 MaxDP=8.70D-07 DE=-1.91D-09 OVMax= 2.50D-06

 Cycle  11  Pass 1  IDiag  1:
 RMSU=  1.44D-08    CP:  1.00D+00  1.03D+00  7.78D-01  1.00D+00  1.11D+00
 E= -276.330267816457     Delta-E=       -0.000000000078 Rises=F Damp=F
 DIIS: error= 1.02D-07 at cycle   6 NSaved=   6.
 NSaved= 6 IEnMin= 6 EnMin= -276.330267816457     IErMin= 6 ErrMin= 1.02D-07
 ErrMax= 1.02D-07  0.00D+00 EMaxC= 1.00D-01 BMatC= 5.78D-12 BMatP= 5.59D-11
 IDIUse=1 WtCom= 1.00D+00 WtEn= 0.00D+00
 Coeff-Com:  0.339D-03-0.106D-01-0.256D-01-0.133D-01 0.360D+00 0.689D+00
 Coeff:      0.339D-03-0.106D-01-0.256D-01-0.133D-01 0.360D+00 0.689D+00
 Gap=     0.421 Goal=   None    Shift=    0.000
 RMSDP=4.28D-09 MaxDP=1.39D-07 DE=-7.76D-11 OVMax= 4.92D-07

 SCF Done:  E(RM062X) =  -276.330267816     A.U. after   11 cycles
            NFock= 11  Conv=0.43D-08     -V/T= 2.0069
 KE= 2.744435916733D+02 PE=-1.285875111253D+03 EE= 4.113444789038D+02
 Leave Link  502 at Sun Sep 29 13:29:24 2019, MaxMem=   671088640 cpu:            2150.5 elap:            1075.5
 (Enter /shared/centos7/gaussian/g16/l801.exe)
 DoSCS=F DFT=T ScalE2(SS,OS)=  1.000000  1.000000
 Range of M.O.s used for correlation:     1   434
 NBasis=   434 NAE=    29 NBE=    29 NFC=     0 NFV=     0
 NROrb=    434 NOA=    29 NOB=    29 NVA=   405 NVB=   405

 **** Warning!!: The largest alpha MO coefficient is  0.14884066D+02

 Leave Link  801 at Sun Sep 29 13:29:25 2019, MaxMem=   671088640 cpu:               1.6 elap:               0.8
 (Enter /shared/centos7/gaussian/g16/l1101.exe)
 Using compressed storage, NAtomX=    23.
 Will process     24 centers per pass.
 Leave Link 1101 at Sun Sep 29 13:30:09 2019, MaxMem=   671088640 cpu:              88.4 elap:              44.2
 (Enter /shared/centos7/gaussian/g16/l1102.exe)
 Symmetrizing basis deriv contribution to polar:
 IMax=3 JMax=2 DiffMx= 0.00D+00
 Leave Link 1102 at Sun Sep 29 13:30:12 2019, MaxMem=   671088640 cpu:               5.4 elap:               2.7
 (Enter /shared/centos7/gaussian/g16/l1110.exe)
 Forming Gx(P) for the SCF density, NAtomX=    23.
 Integral derivatives from FoFJK, PRISM(SPDF).
 Do as many integral derivatives as possible in FoFJK.
 G2DrvN: MDV=     671086848.
 G2DrvN: will do    24 centers at a time, making    1 passes.
 Calling FoFCou, ICntrl=  3107 FMM=F I1Cent=   0 AccDes= 0.00D+00.
 FoFJK:  IHMeth= 1 ICntrl=    3107 DoSepK=F KAlg= 0 I1Cent=           0 FoldK=F
 IRaf=         0 NMat=       1 IRICut=       1 DoRegI=T DoRafI=F ISym2E= 0 IDoP0=0 IntGTp=1.
 FoFCou: FMM=F IPFlag=           0 FMFlag=      100000 FMFlg1=           0
         NFxFlg=           0 DoJE=F BraDBF=F KetDBF=F FulRan=T
         wScrn=  0.000000 ICntrl=      3107 IOpCl=  0 I1Cent=           0 NGrid=           0
         NMat0=    1 NMatS0=      1 NMatT0=    0 NMatD0=    1 NMtDS0=    0 NMtDT0=    0
 Symmetry not used in FoFCou.
 End of G2Drv F.D. properties file   721 does not exist.
 End of G2Drv F.D. properties file   722 does not exist.
 End of G2Drv F.D. properties file   788 does not exist.
 Leave Link 1110 at Sun Sep 29 14:16:28 2019, MaxMem=   671088640 cpu:            5551.8 elap:            2776.4
 (Enter /shared/centos7/gaussian/g16/l1002.exe)
 Minotr:  Closed shell wavefunction.
          IDoAtm=11111111111111111111111
          Direct CPHF calculation.
          Differentiating once with respect to nuclear coordinates.
          Requested convergence is 1.0D-08 RMS, and 1.0D-07 maximum.
          Secondary convergence is 1.0D-12 RMS, and 1.0D-12 maximum.
          NewPWx=T KeepS1=F KeepF1=F KeepIn=T MapXYZ=F SortEE=F KeepMc=T.
         6939 words used for storage of precomputed grid.
 Two-electron integrals replicated using symmetry.
          MDV=     671088640 using IRadAn=       1.
          Solving linear equations simultaneously, MaxMat=     380.
 FoF2E skips out because all densities are zero.
 CalDSu exits because no D1Ps are significant.
 FoFJK:  IHMeth= 1 ICntrl=       0 DoSepK=F KAlg= 0 I1Cent=           0 FoldK=F
 IRaf= 910000000 NMat=      69 IRICut=     172 DoRegI=T DoRafI=T ISym2E= 2 IDoP0=3 IntGTp=3.
 FoFCou: FMM=F IPFlag=           0 FMFlag=      100000 FMFlg1=           0
         NFxFlg=           0 DoJE=F BraDBF=F KetDBF=F FulRan=T
         wScrn=  0.000000 ICntrl=         0 IOpCl=  0 I1Cent=           0 NGrid=           0
         NMat0=   69 NMatS0=     69 NMatT0=    0 NMatD0=   69 NMtDS0=    0 NMtDT0=    0
 Integrals replicated using symmetry in FoFCou.
 Raff kept on since  86.67% of shell-pairs survive, threshold=   0.20 IRatSp=87.
          There are    72 degrees of freedom in the 1st order CPHF.  IDoFFX=6 NUNeed=     0.
     66 vectors produced by pass  0 Test12= 1.63D-14 1.39D-09 XBig12= 5.65D-02 3.99D-02.
 AX will form    66 AO Fock derivatives at one time.
     66 vectors produced by pass  1 Test12= 1.63D-14 1.39D-09 XBig12= 2.82D-03 7.43D-03.
     66 vectors produced by pass  2 Test12= 1.63D-14 1.39D-09 XBig12= 4.88D-05 1.44D-03.
