 Entering Gaussian System, Link 0=g16
 Input=verytight/species/CCCCCCC/conformers/CCCCCCC_123.com
 Output=verytight/species/CCCCCCC/conformers/CCCCCCC_123.log
 Initial command:
 /shared/centos7/gaussian/g16/l1.exe "/scratch/harms.n/gauss_scrdir/Gau-25370.inp" -scrdir="/scratch/harms.n/gauss_scrdir/"
 Entering Link 1 = /shared/centos7/gaussian/g16/l1.exe PID=     25408.
  
 Copyright (c) 1988,1990,1992,1993,1995,1998,2003,2009,2016,
            Gaussian, Inc.  All Rights Reserved.
  
 This is part of the Gaussian(R) 16 program.  It is based on
 the Gaussian(R) 09 system (copyright 2009, Gaussian, Inc.),
 the Gaussian(R) 03 system (copyright 2003, Gaussian, Inc.),
 the Gaussian(R) 98 system (copyright 1998, Gaussian, Inc.),
 the Gaussian(R) 94 system (copyright 1995, Gaussian, Inc.),
 the Gaussian 92(TM) system (copyright 1992, Gaussian, Inc.),
 the Gaussian 90(TM) system (copyright 1990, Gaussian, Inc.),
 the Gaussian 88(TM) system (copyright 1988, Gaussian, Inc.),
 the Gaussian 86(TM) system (copyright 1986, Carnegie Mellon
 University), and the Gaussian 82(TM) system (copyright 1983,
 Carnegie Mellon University). Gaussian is a federally registered
 trademark of Gaussian, Inc.
  
 This software contains proprietary and confidential information,
 including trade secrets, belonging to Gaussian, Inc.
  
 This software is provided under written license and may be
 used, copied, transmitted, or stored only in accord with that
 written license.
  
 The following legend is applicable only to US Government
 contracts under FAR:
  
                    RESTRICTED RIGHTS LEGEND
  
 Use, reproduction and disclosure by the US Government is
 subject to restrictions as set forth in subparagraphs (a)
 and (c) of the Commercial Computer Software - Restricted
 Rights clause in FAR 52.227-19.
  
 Gaussian, Inc.
 340 Quinnipiac St., Bldg. 40, Wallingford CT 06492
  
  
 ---------------------------------------------------------------
 Warning -- This program may not be used in any manner that
 competes with the business of Gaussian, Inc. or will provide
 assistance to any competitor of Gaussian, Inc.  The licensee
 of this program is prohibited from giving any competitor of
 Gaussian, Inc. access to this program.  By using this program,
 the user acknowledges that Gaussian, Inc. is engaged in the
 business of creating and licensing software in the field of
 computational chemistry and represents and warrants to the
 licensee that it is not a competitor of Gaussian, Inc. and that
 it will not use this program in any manner prohibited above.
 ---------------------------------------------------------------
  

 Cite this work as:
 Gaussian 16, Revision A.03,
 M. J. Frisch, G. W. Trucks, H. B. Schlegel, G. E. Scuseria, 
 M. A. Robb, J. R. Cheeseman, G. Scalmani, V. Barone, 
 G. A. Petersson, H. Nakatsuji, X. Li, M. Caricato, A. V. Marenich, 
 J. Bloino, B. G. Janesko, R. Gomperts, B. Mennucci, H. P. Hratchian, 
 J. V. Ortiz, A. F. Izmaylov, J. L. Sonnenberg, D. Williams-Young, 
 F. Ding, F. Lipparini, F. Egidi, J. Goings, B. Peng, A. Petrone, 
 T. Henderson, D. Ranasinghe, V. G. Zakrzewski, J. Gao, N. Rega, 
 G. Zheng, W. Liang, M. Hada, M. Ehara, K. Toyota, R. Fukuda, 
 J. Hasegawa, M. Ishida, T. Nakajima, Y. Honda, O. Kitao, H. Nakai, 
 T. Vreven, K. Throssell, J. A. Montgomery, Jr., J. E. Peralta, 
 F. Ogliaro, M. J. Bearpark, J. J. Heyd, E. N. Brothers, K. N. Kudin, 
 V. N. Staroverov, T. A. Keith, R. Kobayashi, J. Normand, 
 K. Raghavachari, A. P. Rendell, J. C. Burant, S. S. Iyengar, 
 J. Tomasi, M. Cossi, J. M. Millam, M. Klene, C. Adamo, R. Cammi, 
 J. W. Ochterski, R. L. Martin, K. Morokuma, O. Farkas, 
 J. B. Foresman, and D. J. Fox, Gaussian, Inc., Wallingford CT, 2016.
 
 ******************************************
 Gaussian 16:  EM64L-G16RevA.03 25-Dec-2016
                29-Sep-2019 
 ******************************************
 %nprocshared=20
 Will use up to   20 processors via shared memory.
 %mem=5GB
 ----------------------------------------------------------------------
 #p m062x/cc-pVTZ opt=(calcfc,maxcycles=900,Tight) freq IOP(7/33=1,2/16
 =3) scf=(maxcycle=900)
 ----------------------------------------------------------------------
 1/6=900,7=10,10=4,18=20,19=15,26=3,38=1/1,3;
 2/9=110,12=2,16=3,17=6,18=5,40=1/2;
 3/5=16,6=1,11=2,25=1,30=1,71=2,74=-55,140=1/1,2,3;
 4//1;
 5/5=2,7=900,38=5/2;
 8/6=4,10=90,11=11/1;
 11/6=1,8=1,9=11,15=111,16=1/1,2,10;
 10/6=1,13=1/2;
 6/7=2,8=2,9=2,10=2,28=1/1;
 7/10=1,18=20,25=1,33=1/1,2,3,16;
 1/6=900,7=10,10=4,18=20,19=15,26=3/3(2);
 2/9=110,16=3/2;
 99//99;
 2/9=110,16=3/2;
 3/5=16,6=1,11=2,25=1,30=1,71=1,74=-55/1,2,3;
 4/5=5,16=3,69=1/1;
 5/5=2,7=900,38=5/2;
 7/33=1/1,2,3,16;
 1/6=900,7=10,18=20,19=15,26=3/3(-5);
 2/9=110,16=3/2;
 6/7=2,8=2,9=2,10=2,19=2,28=1/1;
 99/9=1/99;
 Leave Link    1 at Sun Sep 29 13:27:14 2019, MaxMem=   671088640 cpu:               4.0 elap:               2.0
 (Enter /shared/centos7/gaussian/g16/l101.exe)
 ------------------------------
 Gaussian input prepared by ASE
 ------------------------------
 Symbolic Z-matrix:
 Charge =  0 Multiplicity = 1
 C                     1.47101  -0.78826   0.40573 
 C                     0.40697  -0.03313   1.12653 
 C                     0.48634  -0.09613   2.63142 
 C                     1.3871   -0.66504  -1.07845 
 C                     0.10503  -1.42145   3.24773 
 C                     2.43728  -1.40066  -1.8034 
 C                     1.14303  -2.50626   3.12265 
 H                     1.43557   0.42361  -1.36417 
 H                     0.3864   -1.01925  -1.42326 
 H                     1.41981  -1.86104   0.68874 
 H                     2.4665   -0.43702   0.74673 
 H                    -0.58319  -0.38924   0.80176 
 H                     0.4564    1.03456   0.82511 
 H                    -0.18988   0.67445   3.03892 
 H                     1.50683   0.18763   2.96192 
 H                    -0.10095  -1.25558   4.33749 
 H                    -0.84367  -1.77361   2.80817 
 H                     2.39777  -2.48478  -1.58658 
 H                     2.31833  -1.27227  -2.92005 
 H                     3.45153  -1.03794  -1.53279 
 H                     2.08507  -2.20914   3.58511 
 H                     1.34531  -2.75092   2.04326 
 H                     0.787    -3.44907   3.62886 
 
 ITRead=  0  0  0  0  0  0  0  0  0  0  0  0  0  0  0  0  0  0  0  0
 ITRead=  0  0  0
 MicOpt= -1 -1 -1 -1 -1 -1 -1 -1 -1 -1 -1 -1 -1 -1 -1 -1 -1 -1 -1 -1
 MicOpt= -1 -1 -1
 NAtoms=     23 NQM=       23 NQMF=       0 NMMI=      0 NMMIF=      0
                NMic=       0 NMicF=      0.
                    Isotopes and Nuclear Properties:
 (Nuclear quadrupole moments (NQMom) in fm**2, nuclear magnetic moments (NMagM)
  in nuclear magnetons)

  Atom         1           2           3           4           5           6           7           8           9          10
 IAtWgt=          12          12          12          12          12          12          12           1           1           1
 AtmWgt=  12.0000000  12.0000000  12.0000000  12.0000000  12.0000000  12.0000000  12.0000000   1.0078250   1.0078250   1.0078250
 NucSpn=           0           0           0           0           0           0           0           1           1           1
 AtZEff=  -0.0000000  -0.0000000  -0.0000000  -0.0000000  -0.0000000  -0.0000000  -0.0000000  -0.0000000  -0.0000000  -0.0000000
 NQMom=    0.0000000   0.0000000   0.0000000   0.0000000   0.0000000   0.0000000   0.0000000   0.0000000   0.0000000   0.0000000
 NMagM=    0.0000000   0.0000000   0.0000000   0.0000000   0.0000000   0.0000000   0.0000000   2.7928460   2.7928460   2.7928460
 AtZNuc=   6.0000000   6.0000000   6.0000000   6.0000000   6.0000000   6.0000000   6.0000000   1.0000000   1.0000000   1.0000000

  Atom        11          12          13          14          15          16          17          18          19          20
 IAtWgt=           1           1           1           1           1           1           1           1           1           1
 AtmWgt=   1.0078250   1.0078250   1.0078250   1.0078250   1.0078250   1.0078250   1.0078250   1.0078250   1.0078250   1.0078250
 NucSpn=           1           1           1           1           1           1           1           1           1           1
 AtZEff=  -0.0000000  -0.0000000  -0.0000000  -0.0000000  -0.0000000  -0.0000000  -0.0000000  -0.0000000  -0.0000000  -0.0000000
 NQMom=    0.0000000   0.0000000   0.0000000   0.0000000   0.0000000   0.0000000   0.0000000   0.0000000   0.0000000   0.0000000
 NMagM=    2.7928460   2.7928460   2.7928460   2.7928460   2.7928460   2.7928460   2.7928460   2.7928460   2.7928460   2.7928460
 AtZNuc=   1.0000000   1.0000000   1.0000000   1.0000000   1.0000000   1.0000000   1.0000000   1.0000000   1.0000000   1.0000000

  Atom        21          22          23
 IAtWgt=           1           1           1
 AtmWgt=   1.0078250   1.0078250   1.0078250
 NucSpn=           1           1           1
 AtZEff=  -0.0000000  -0.0000000  -0.0000000
 NQMom=    0.0000000   0.0000000   0.0000000
 NMagM=    2.7928460   2.7928460   2.7928460
 AtZNuc=   1.0000000   1.0000000   1.0000000
 Leave Link  101 at Sun Sep 29 13:27:15 2019, MaxMem=   671088640 cpu:               2.3 elap:               1.1
 (Enter /shared/centos7/gaussian/g16/l103.exe)

 GradGradGradGradGradGradGradGradGradGradGradGradGradGradGradGradGradGrad
 Berny optimization.
 Initialization pass.
                           ----------------------------
                           !    Initial Parameters    !
                           ! (Angstroms and Degrees)  !
 --------------------------                            --------------------------
 ! Name  Definition              Value          Derivative Info.                !
 --------------------------------------------------------------------------------
 ! R1    R(1,2)                  1.4906         calculate D2E/DX2 analytically  !
 ! R2    R(1,4)                  1.4917         calculate D2E/DX2 analytically  !
 ! R3    R(1,10)                 1.1107         calculate D2E/DX2 analytically  !
 ! R4    R(1,11)                 1.1093         calculate D2E/DX2 analytically  !
 ! R5    R(2,3)                  1.5083         calculate D2E/DX2 analytically  !
 ! R6    R(2,12)                 1.1012         calculate D2E/DX2 analytically  !
 ! R7    R(2,13)                 1.1105         calculate D2E/DX2 analytically  !
 ! R8    R(3,5)                  1.5105         calculate D2E/DX2 analytically  !
 ! R9    R(3,14)                 1.1032         calculate D2E/DX2 analytically  !
 ! R10   R(3,15)                 1.1096         calculate D2E/DX2 analytically  !
 ! R11   R(4,6)                  1.473          calculate D2E/DX2 analytically  !
 ! R12   R(4,8)                  1.1266         calculate D2E/DX2 analytically  !
 ! R13   R(4,9)                  1.1161         calculate D2E/DX2 analytically  !
 ! R14   R(5,7)                  1.5066         calculate D2E/DX2 analytically  !
 ! R15   R(5,16)                 1.1214         calculate D2E/DX2 analytically  !
 ! R16   R(5,17)                 1.1033         calculate D2E/DX2 analytically  !
 ! R17   R(6,18)                 1.1063         calculate D2E/DX2 analytically  !
 ! R18   R(6,19)                 1.1303         calculate D2E/DX2 analytically  !
 ! R19   R(6,20)                 1.1106         calculate D2E/DX2 analytically  !
 ! R20   R(7,21)                 1.0907         calculate D2E/DX2 analytically  !
 ! R21   R(7,22)                 1.1251         calculate D2E/DX2 analytically  !
 ! R22   R(7,23)                 1.1278         calculate D2E/DX2 analytically  !
 ! A1    A(2,1,4)              113.5236         calculate D2E/DX2 analytically  !
 ! A2    A(2,1,10)             109.4619         calculate D2E/DX2 analytically  !
 ! A3    A(2,1,11)             109.3619         calculate D2E/DX2 analytically  !
 ! A4    A(4,1,10)             109.3132         calculate D2E/DX2 analytically  !
 ! A5    A(4,1,11)             109.2798         calculate D2E/DX2 analytically  !
 ! A6    A(10,1,11)            105.5963         calculate D2E/DX2 analytically  !
 ! A7    A(1,2,3)              115.0706         calculate D2E/DX2 analytically  !
 ! A8    A(1,2,12)             109.5973         calculate D2E/DX2 analytically  !
 ! A9    A(1,2,13)             108.9067         calculate D2E/DX2 analytically  !
 ! A10   A(3,2,12)             109.1509         calculate D2E/DX2 analytically  !
 ! A11   A(3,2,13)             107.9759         calculate D2E/DX2 analytically  !
 ! A12   A(12,2,13)            105.717          calculate D2E/DX2 analytically  !
 ! A13   A(2,3,5)              115.496          calculate D2E/DX2 analytically  !
 ! A14   A(2,3,14)             107.8845         calculate D2E/DX2 analytically  !
 ! A15   A(2,3,15)             109.5669         calculate D2E/DX2 analytically  !
 ! A16   A(5,3,14)             107.9025         calculate D2E/DX2 analytically  !
 ! A17   A(5,3,15)             109.5738         calculate D2E/DX2 analytically  !
 ! A18   A(14,3,15)            105.9674         calculate D2E/DX2 analytically  !
 ! A19   A(1,4,6)              114.1007         calculate D2E/DX2 analytically  !
 ! A20   A(1,4,8)              109.2539         calculate D2E/DX2 analytically  !
 ! A21   A(1,4,9)              109.3662         calculate D2E/DX2 analytically  !
 ! A22   A(6,4,8)              109.0934         calculate D2E/DX2 analytically  !
 ! A23   A(6,4,9)              109.1903         calculate D2E/DX2 analytically  !
 ! A24   A(8,4,9)              105.4801         calculate D2E/DX2 analytically  !
 ! A25   A(3,5,7)              115.0843         calculate D2E/DX2 analytically  !
 ! A26   A(3,5,16)             108.246          calculate D2E/DX2 analytically  !
 ! A27   A(3,5,17)             109.5465         calculate D2E/DX2 analytically  !
 ! A28   A(7,5,16)             108.2838         calculate D2E/DX2 analytically  !
 ! A29   A(7,5,17)             109.2392         calculate D2E/DX2 analytically  !
 ! A30   A(16,5,17)            106.0476         calculate D2E/DX2 analytically  !
 ! A31   A(4,6,18)             111.5606         calculate D2E/DX2 analytically  !
 ! A32   A(4,6,19)             110.7608         calculate D2E/DX2 analytically  !
 ! A33   A(4,6,20)             111.5971         calculate D2E/DX2 analytically  !
 ! A34   A(18,6,19)            107.5289         calculate D2E/DX2 analytically  !
 ! A35   A(18,6,20)            107.7527         calculate D2E/DX2 analytically  !
 ! A36   A(19,6,20)            107.4414         calculate D2E/DX2 analytically  !
 ! A37   A(5,7,21)             111.3282         calculate D2E/DX2 analytically  !
 ! A38   A(5,7,22)             111.1052         calculate D2E/DX2 analytically  !
 ! A39   A(5,7,23)             110.3148         calculate D2E/DX2 analytically  !
 ! A40   A(21,7,22)            108.1034         calculate D2E/DX2 analytically  !
 ! A41   A(21,7,23)            108.0648         calculate D2E/DX2 analytically  !
 ! A42   A(22,7,23)            107.7933         calculate D2E/DX2 analytically  !
 ! D1    D(4,1,2,3)           -178.0526         calculate D2E/DX2 analytically  !
 ! D2    D(4,1,2,12)            58.5114         calculate D2E/DX2 analytically  !
 ! D3    D(4,1,2,13)           -56.6952         calculate D2E/DX2 analytically  !
 ! D4    D(10,1,2,3)            59.5092         calculate D2E/DX2 analytically  !
 ! D5    D(10,1,2,12)          -63.9267         calculate D2E/DX2 analytically  !
 ! D6    D(10,1,2,13)         -179.1334         calculate D2E/DX2 analytically  !
 ! D7    D(11,1,2,3)           -55.7314         calculate D2E/DX2 analytically  !
 ! D8    D(11,1,2,12)         -179.1674         calculate D2E/DX2 analytically  !
 ! D9    D(11,1,2,13)           65.626          calculate D2E/DX2 analytically  !
 ! D10   D(2,1,4,6)            179.6879         calculate D2E/DX2 analytically  !
 ! D11   D(2,1,4,8)             57.2878         calculate D2E/DX2 analytically  !
 ! D12   D(2,1,4,9)            -57.7014         calculate D2E/DX2 analytically  !
 ! D13   D(10,1,4,6)           -57.7918         calculate D2E/DX2 analytically  !
 ! D14   D(10,1,4,8)           179.8081         calculate D2E/DX2 analytically  !
 ! D15   D(10,1,4,9)            64.819          calculate D2E/DX2 analytically  !
 ! D16   D(11,1,4,6)            57.3212         calculate D2E/DX2 analytically  !
 ! D17   D(11,1,4,8)           -65.0789         calculate D2E/DX2 analytically  !
 ! D18   D(11,1,4,9)           179.932          calculate D2E/DX2 analytically  !
 ! D19   D(1,2,3,5)            -72.2409         calculate D2E/DX2 analytically  !
 ! D20   D(1,2,3,14)           166.979          calculate D2E/DX2 analytically  !
 ! D21   D(1,2,3,15)            52.0515         calculate D2E/DX2 analytically  !
 ! D22   D(12,2,3,5)            51.4317         calculate D2E/DX2 analytically  !
 ! D23   D(12,2,3,14)          -69.3485         calculate D2E/DX2 analytically  !
 ! D24   D(12,2,3,15)          175.7241         calculate D2E/DX2 analytically  !
 ! D25   D(13,2,3,5)           165.8973         calculate D2E/DX2 analytically  !
 ! D26   D(13,2,3,14)           45.1172         calculate D2E/DX2 analytically  !
 ! D27   D(13,2,3,15)          -69.8103         calculate D2E/DX2 analytically  !
 ! D28   D(2,3,5,7)             75.9119         calculate D2E/DX2 analytically  !
 ! D29   D(2,3,5,16)          -162.8194         calculate D2E/DX2 analytically  !
 ! D30   D(2,3,5,17)           -47.6108         calculate D2E/DX2 analytically  !
 ! D31   D(14,3,5,7)          -163.3177         calculate D2E/DX2 analytically  !
 ! D32   D(14,3,5,16)          -42.049          calculate D2E/DX2 analytically  !
 ! D33   D(14,3,5,17)           73.1596         calculate D2E/DX2 analytically  !
 ! D34   D(15,3,5,7)           -48.3769         calculate D2E/DX2 analytically  !
 ! D35   D(15,3,5,16)           72.8918         calculate D2E/DX2 analytically  !
 ! D36   D(15,3,5,17)         -171.8996         calculate D2E/DX2 analytically  !
 ! D37   D(1,4,6,18)            60.0365         calculate D2E/DX2 analytically  !
 ! D38   D(1,4,6,19)           179.7803         calculate D2E/DX2 analytically  !
 ! D39   D(1,4,6,20)           -60.5623         calculate D2E/DX2 analytically  !
 ! D40   D(8,4,6,18)          -177.4756         calculate D2E/DX2 analytically  !
 ! D41   D(8,4,6,19)           -57.7318         calculate D2E/DX2 analytically  !
 ! D42   D(8,4,6,20)            61.9256         calculate D2E/DX2 analytically  !
 ! D43   D(9,4,6,18)           -62.6702         calculate D2E/DX2 analytically  !
 ! D44   D(9,4,6,19)            57.0735         calculate D2E/DX2 analytically  !
 ! D45   D(9,4,6,20)           176.7309         calculate D2E/DX2 analytically  !
 ! D46   D(3,5,7,21)            58.7032         calculate D2E/DX2 analytically  !
 ! D47   D(3,5,7,22)           -61.8452         calculate D2E/DX2 analytically  !
 ! D48   D(3,5,7,23)           178.6714         calculate D2E/DX2 analytically  !
 ! D49   D(16,5,7,21)          -62.5449         calculate D2E/DX2 analytically  !
 ! D50   D(16,5,7,22)          176.9066         calculate D2E/DX2 analytically  !
 ! D51   D(16,5,7,23)           57.4232         calculate D2E/DX2 analytically  !
 ! D52   D(17,5,7,21)         -177.6113         calculate D2E/DX2 analytically  !
 ! D53   D(17,5,7,22)           61.8402         calculate D2E/DX2 analytically  !
 ! D54   D(17,5,7,23)          -57.6432         calculate D2E/DX2 analytically  !
 --------------------------------------------------------------------------------
 Trust Radius=3.00D-01 FncErr=1.00D-07 GrdErr=1.00D-06 EigMax=2.50D+02 EigMin=1.00D-04
 Number of steps in this run=    138 maximum allowed number of steps=    138.
 GradGradGradGradGradGradGradGradGradGradGradGradGradGradGradGradGradGrad

 Leave Link  103 at Sun Sep 29 13:27:16 2019, MaxMem=   671088640 cpu:               1.4 elap:               0.7
 (Enter /shared/centos7/gaussian/g16/l202.exe)
                          Input orientation:                          
 ---------------------------------------------------------------------
 Center     Atomic      Atomic             Coordinates (Angstroms)
 Number     Number       Type             X           Y           Z
 ---------------------------------------------------------------------
      1          6           0        1.471015   -0.788256    0.405730
      2          6           0        0.406966   -0.033129    1.126526
      3          6           0        0.486343   -0.096129    2.631422
      4          6           0        1.387096   -0.665040   -1.078454
      5          6           0        0.105026   -1.421445    3.247731
      6          6           0        2.437285   -1.400664   -1.803400
      7          6           0        1.143030   -2.506263    3.122654
      8          1           0        1.435573    0.423606   -1.364174
      9          1           0        0.386395   -1.019248   -1.423257
     10          1           0        1.419811   -1.861036    0.688743
     11          1           0        2.466503   -0.437023    0.746730
     12          1           0       -0.583185   -0.389239    0.801763
     13          1           0        0.456400    1.034562    0.825115
     14          1           0       -0.189876    0.674454    3.038919
     15          1           0        1.506834    0.187625    2.961919
     16          1           0       -0.100954   -1.255583    4.337494
     17          1           0       -0.843671   -1.773613    2.808172
     18          1           0        2.397773   -2.484779   -1.586575
     19          1           0        2.318329   -1.272271   -2.920047
     20          1           0        3.451529   -1.037939   -1.532788
     21          1           0        2.085065   -2.209136    3.585107
     22          1           0        1.345308   -2.750918    2.043262
     23          1           0        0.787004   -3.449071    3.628859
 ---------------------------------------------------------------------
                    Distance matrix (angstroms):
                    1          2          3          4          5
     1  C    0.000000
     2  C    1.490625   0.000000
     3  C    2.530282   1.508304   0.000000
     4  C    1.491652   2.494375   3.859819   0.000000
     5  C    3.216182   2.553057   1.510531   4.575121   0.000000
     6  C    2.487765   3.817960   5.017533   1.472952   5.563614
     7  C    3.231223   3.262317   2.545838   4.593363   1.506627
     8  H    2.145326   2.733171   4.139559   1.126559   5.142396
     9  H    2.138913   2.733907   4.159635   1.116134   4.696708
    10  H    1.110665   2.135124   2.785725   2.134119   2.910381
    11  H    1.109344   2.132855   2.754870   2.132700   3.577803
    12  H    2.129740   1.101220   2.139499   2.737388   2.742598
    13  H    2.127908   1.110520   2.131222   2.716324   3.467637
    14  H    3.439733   2.124651   1.103233   4.608020   2.126820
    15  H    2.736371   2.151071   1.109570   4.131100   2.153105
    16  H    4.260077   3.473139   2.144745   5.647613   1.121392
    17  H    3.478567   2.724208   2.148053   4.616397   1.103295
    18  H    2.776031   4.163511   5.210635   2.142687   5.455079
    19  H    3.465978   4.643656   5.963078   2.151137   6.554576
    20  H    2.782558   4.165448   5.198075   2.146475   5.848036
    21  H    3.536156   3.687226   2.816065   4.961874   2.157506
    22  H    2.559171   3.017825   2.851606   3.754697   2.180950
    23  H    4.235135   4.251442   3.511054   5.501794   2.172929
                    6          7          8          9         10
     6  C    0.000000
     7  C    5.211858   0.000000
     8  H    2.127043   5.366688   0.000000
     9  H    2.120409   4.842419   1.784964   0.000000
    10  H    2.730929   2.533150   3.071532   2.497419   0.000000
    11  H    2.726284   3.417361   2.501882   3.061810   1.768260
    12  H    4.114984   3.584431   3.070404   2.507531   2.488163
    13  H    4.094304   4.276399   2.474880   3.046016   3.054709
    14  H    5.886947   3.449726   4.700238   4.807466   3.813545
    15  H    5.108490   2.723091   4.333110   4.684196   3.061358
    16  H    6.646374   2.141852   6.139186   5.786157   3.999085
    17  H    5.671892   2.140713   5.237480   4.470696   3.102091
    18  H    1.106291   4.873570   3.071481   2.494012   2.553926
    19  H    1.130281   6.278400   2.464955   2.456984   3.765282
    20  H    1.110627   5.399842   2.495721   3.067147   3.120988
    21  H    5.460192   1.090678   5.643452   5.420795   2.992099
    22  H    4.220475   1.125104   4.657936   3.991860   1.622394
    23  H    6.035630   1.127778   6.352058   5.620356   3.400967
                   11         12         13         14         15
    11  H    0.000000
    12  H    3.050559   0.000000
    13  H    2.492433   1.763091   0.000000
    14  H    3.680470   2.508187   2.334155   0.000000
    15  H    2.493634   3.060592   2.527181   1.766849   0.000000
    16  H    4.489484   3.672124   4.229919   2.327927   2.561257
    17  H    4.122290   2.451535   3.675397   2.544351   3.065121
    18  H    3.105212   4.356783   4.687317   6.170241   5.350169
    19  H    3.763622   4.801084   4.776453   6.752045   6.114519
    20  H    2.554912   4.706364   4.338866   6.090371   5.048389
    21  H    3.367827   4.263635   4.559789   3.713322   2.543064
    22  H    2.879616   3.292102   4.074788   3.883464   3.083027
    23  H    4.494421   4.385483   5.298419   4.278526   3.766766
                   16         17         18         19         20
    16  H    0.000000
    17  H    1.777304   0.000000
    18  H    6.545927   5.506952   0.000000
    19  H    7.650171   6.562171   1.804061   0.000000
    20  H    6.864963   6.150926   1.790710   1.806528   0.000000
    21  H    2.500805   3.061177   5.188454   6.576409   5.425106
    22  H    3.096966   2.516315   3.788698   5.269498   4.489833
    23  H    2.470227   2.477859   5.543030   7.069058   6.289344
                   21         22         23
    21  H    0.000000
    22  H    1.793894   0.000000
    23  H    1.795638   1.820230   0.000000
 Stoichiometry    C7H16
 Framework group  C1[X(C7H16)]
 Deg. of freedom    63
 Full point group                 C1      NOp   1
 Largest Abelian subgroup         C1      NOp   1
 Largest concise Abelian subgroup C1      NOp   1
                         Standard orientation:                         
 ---------------------------------------------------------------------
 Center     Atomic      Atomic             Coordinates (Angstroms)
 Number     Number       Type             X           Y           Z
 ---------------------------------------------------------------------
      1          6           0       -0.774735   -0.085100    0.216512
      2          6           0        0.178855   -1.176842   -0.130951
      3          6           0        1.585597   -0.982496    0.377270
      4          6           0       -2.165112   -0.334052   -0.262967
      5          6           0        2.390466    0.083265   -0.328450
      6          6           0       -3.119863    0.733865    0.079951
      7          6           0        2.035151    1.500446    0.039346
      8          1           0       -2.535371   -1.309666    0.161556
      9          1           0       -2.155061   -0.475602   -1.370043
     10          1           0       -0.407428    0.874901   -0.204272
     11          1           0       -0.786548    0.056590    1.316707
     12          1           0        0.204786   -1.310717   -1.223695
     13          1           0       -0.204948   -2.134308    0.280401
     14          1           0        2.121124   -1.940695    0.266868
     15          1           0        1.561332   -0.770071    1.466046
     16          1           0        3.474199   -0.080561   -0.091375
     17          1           0        2.294467   -0.043968   -1.420172
     18          1           0       -2.818027    1.704592   -0.356471
     19          1           0       -4.151444    0.490220   -0.312492
     20          1           0       -3.205082    0.868580    1.179079
     21          1           0        2.159178    1.675750    1.108675
     22          1           0        0.968505    1.734093   -0.231828
     23          1           0        2.698165    2.226344   -0.513255
 ---------------------------------------------------------------------
 Rotational constants (GHZ):           4.6422096           1.1705727           0.9993801
 Leave Link  202 at Sun Sep 29 13:27:18 2019, MaxMem=   671088640 cpu:               4.1 elap:               2.0
 (Enter /shared/centos7/gaussian/g16/l301.exe)
 Standard basis: CC-pVTZ (5D, 7F)
 Ernie: Thresh=  0.10000D-02 Tol=  0.10000D-05 Strict=F.
 Ernie:  21 primitive shells out of 310 were deleted.
 There are   485 symmetry adapted cartesian basis functions of A   symmetry.
 There are   434 symmetry adapted basis functions of A   symmetry.
   434 basis functions,   636 primitive gaussians,   485 cartesian basis functions
    29 alpha electrons       29 beta electrons
       nuclear repulsion energy       323.1704620134 Hartrees.
 IExCor= 4336 DFT=T Ex+Corr=M062X ExCW=0 ScaHFX=  0.540000
 ScaDFX=  1.000000  1.000000  1.000000  1.000000 ScalE2=  1.000000  1.000000
 IRadAn=      5 IRanWt=     -1 IRanGd=            0 ICorTp=0 IEmpDi=  4
 NAtoms=   23 NActive=   23 NUniq=   23 SFac= 1.00D+00 NAtFMM=   60 NAOKFM=F Big=F
 Integral buffers will be    131072 words long.
 Raffenetti 2 integral format.
 Two-electron integral symmetry is turned on.
 Leave Link  301 at Sun Sep 29 13:27:19 2019, MaxMem=   671088640 cpu:               1.6 elap:               0.9
 (Enter /shared/centos7/gaussian/g16/l302.exe)
 NPDir=0 NMtPBC=     1 NCelOv=     1 NCel=       1 NClECP=     1 NCelD=      1
         NCelK=      1 NCelE2=     1 NClLst=     1 CellRange=     0.0.
 One-electron integrals computed using PRISM.
 One-electron integral symmetry used in STVInt
 NBasis=   434 RedAO= T EigKep=  2.80D-04  NBF=   434
 NBsUse=   434 1.00D-06 EigRej= -1.00D+00 NBFU=   434
 Precomputing XC quadrature grid using
 IXCGrd= 4 IRadAn=           5 IRanWt=          -1 IRanGd=           0 AccXCQ= 0.00D+00.
 Generated NRdTot=       0 NPtTot=           0 NUsed=           0 NTot=          32
 NSgBfM=   485   485   485   485   485 MxSgAt=    23 MxSgA2=    23.
 Leave Link  302 at Sun Sep 29 13:28:43 2019, MaxMem=   671088640 cpu:             168.2 elap:              84.2
 (Enter /shared/centos7/gaussian/g16/l303.exe)
 DipDrv:  MaxL=1.
 Leave Link  303 at Sun Sep 29 13:28:47 2019, MaxMem=   671088640 cpu:               7.5 elap:               3.7
 (Enter /shared/centos7/gaussian/g16/l401.exe)
 ExpMin= 1.03D-01 ExpMax= 8.24D+03 ExpMxC= 2.81D+02 IAcc=3 IRadAn=         5 AccDes= 0.00D+00
 Harris functional with IExCor= 1009 and IRadAn=       5 diagonalized for initial guess.
 HarFok:  IExCor= 1009 AccDes= 0.00D+00 IRadAn=         5 IDoV= 1 UseB2=F ITyADJ=14
 ICtDFT=  3500011 ScaDFX=  1.000000  1.000000  1.000000  1.000000
 FoFCou: FMM=F IPFlag=           0 FMFlag=      100000 FMFlg1=           0
         NFxFlg=           0 DoJE=T BraDBF=F KetDBF=T FulRan=T
         wScrn=  0.000000 ICntrl=       500 IOpCl=  0 I1Cent=   200000004 NGrid=           0
         NMat0=    1 NMatS0=      1 NMatT0=    0 NMatD0=    1 NMtDS0=    0 NMtDT0=    0
 Petite list used in FoFCou.
 Harris En= -276.331311732986    
 JPrj=0 DoOrth=F DoCkMO=F.
 Leave Link  401 at Sun Sep 29 13:29:29 2019, MaxMem=   671088640 cpu:              84.4 elap:              42.2
 (Enter /shared/centos7/gaussian/g16/l502.exe)
 Integral symmetry usage will be decided dynamically.
 Closed shell SCF:
 Using DIIS extrapolation, IDIIS=  1040.
 NGot=   671088640 LenX=   670604095 LenY=   670368385
 Requested convergence on RMS density matrix=1.00D-08 within 900 cycles.
 Requested convergence on MAX density matrix=1.00D-06.
 Requested convergence on             energy=1.00D-06.
 No special actions if energy rises.
 Fock matrices will be formed incrementally for  20 cycles.
 Integral accuracy reduced to 1.0D-05 until final iterations.

 Cycle   1  Pass 0  IDiag  1:
 FoFJK:  IHMeth= 1 ICntrl=       0 DoSepK=F KAlg= 0 I1Cent=           0 FoldK=F
 IRaf= 920000000 NMat=       1 IRICut=       1 DoRegI=T DoRafI=F ISym2E= 0 IDoP0=0 IntGTp=1.
 FoFCou: FMM=F IPFlag=           0 FMFlag=      100000 FMFlg1=           0
         NFxFlg=           0 DoJE=F BraDBF=F KetDBF=F FulRan=T
         wScrn=  0.000000 ICntrl=         0 IOpCl=  0 I1Cent=           0 NGrid=           0
         NMat0=    1 NMatS0=      1 NMatT0=    0 NMatD0=    1 NMtDS0=    0 NMtDT0=    0
 Symmetry not used in FoFCou.
 E= -275.965317277115    
 DIIS: error= 3.31D-02 at cycle   1 NSaved=   1.
 NSaved= 1 IEnMin= 1 EnMin= -275.965317277115     IErMin= 1 ErrMin= 3.31D-02
 ErrMax= 3.31D-02  0.00D+00 EMaxC= 1.00D-01 BMatC= 3.72D-01 BMatP= 3.72D-01
 IDIUse=3 WtCom= 6.69D-01 WtEn= 3.31D-01
 Coeff-Com:  0.100D+01
 Coeff-En:   0.100D+01
 Coeff:      0.100D+01
 Gap=     0.369 Goal=   None    Shift=    0.000
 GapD=    0.369 DampG=1.000 DampE=0.500 DampFc=0.5000 IDamp=-1.
 Damping current iteration by 5.00D-01
 RMSDP=1.88D-03 MaxDP=6.83D-02              OVMax= 1.72D-01

 Cycle   2  Pass 0  IDiag  1:
 RMSU=  9.38D-04    CP:  9.90D-01
 E= -276.144857467348     Delta-E=       -0.179540190232 Rises=F Damp=T
 DIIS: error= 4.02D-03 at cycle   2 NSaved=   2.
 NSaved= 2 IEnMin= 2 EnMin= -276.144857467348     IErMin= 2 ErrMin= 4.02D-03
 ErrMax= 4.02D-03  0.00D+00 EMaxC= 1.00D-01 BMatC= 1.80D-02 BMatP= 3.72D-01
 IDIUse=3 WtCom= 9.60D-01 WtEn= 4.02D-02
 Coeff-Com: -0.602D-01 0.106D+01
 Coeff-En:   0.000D+00 0.100D+01
 Coeff:     -0.577D-01 0.106D+01
 Gap=     0.447 Goal=   None    Shift=    0.000
 RMSDP=5.13D-04 MaxDP=1.58D-02 DE=-1.80D-01 OVMax= 9.17D-02

 Cycle   3  Pass 0  IDiag  1:
 RMSU=  5.02D-04    CP:  9.96D-01  9.01D-01
 E= -276.322028061079     Delta-E=       -0.177170593731 Rises=F Damp=F
 DIIS: error= 2.30D-03 at cycle   3 NSaved=   3.
 NSaved= 3 IEnMin= 3 EnMin= -276.322028061079     IErMin= 3 ErrMin= 2.30D-03
 ErrMax= 2.30D-03  0.00D+00 EMaxC= 1.00D-01 BMatC= 2.21D-03 BMatP= 1.80D-02
 IDIUse=3 WtCom= 9.77D-01 WtEn= 2.30D-02
 Coeff-Com: -0.492D-01 0.223D+00 0.826D+00
 Coeff-En:   0.000D+00 0.000D+00 0.100D+01
 Coeff:     -0.481D-01 0.218D+00 0.830D+00
 Gap=     0.415 Goal=   None    Shift=    0.000
 RMSDP=8.85D-05 MaxDP=2.96D-03 DE=-1.77D-01 OVMax= 9.56D-03

 Cycle   4  Pass 0  IDiag  1:
 RMSU=  7.14D-05    CP:  9.95D-01  9.44D-01  9.38D-01
 E= -276.323968569092     Delta-E=       -0.001940508013 Rises=F Damp=F
 DIIS: error= 6.85D-04 at cycle   4 NSaved=   4.
 NSaved= 4 IEnMin= 4 EnMin= -276.323968569092     IErMin= 4 ErrMin= 6.85D-04
 ErrMax= 6.85D-04  0.00D+00 EMaxC= 1.00D-01 BMatC= 2.46D-04 BMatP= 2.21D-03
 IDIUse=3 WtCom= 9.93D-01 WtEn= 6.85D-03
 Coeff-Com: -0.127D-01 0.345D-01 0.286D+00 0.692D+00
 Coeff-En:   0.000D+00 0.000D+00 0.000D+00 0.100D+01
 Coeff:     -0.126D-01 0.343D-01 0.285D+00 0.694D+00
 Gap=     0.416 Goal=   None    Shift=    0.000
 RMSDP=3.00D-05 MaxDP=1.24D-03 DE=-1.94D-03 OVMax= 2.89D-03

 Cycle   5  Pass 0  IDiag  1:
 RMSU=  1.81D-05    CP:  9.95D-01  9.38D-01  9.69D-01  7.67D-01
 E= -276.324196247805     Delta-E=       -0.000227678713 Rises=F Damp=F
 DIIS: error= 1.62D-04 at cycle   5 NSaved=   5.
 NSaved= 5 IEnMin= 5 EnMin= -276.324196247805     IErMin= 5 ErrMin= 1.62D-04
 ErrMax= 1.62D-04  0.00D+00 EMaxC= 1.00D-01 BMatC= 1.65D-05 BMatP= 2.46D-04
 IDIUse=3 WtCom= 9.98D-01 WtEn= 1.62D-03
 Coeff-Com: -0.129D-02 0.302D-03 0.546D-01 0.251D+00 0.695D+00
 Coeff-En:   0.000D+00 0.000D+00 0.000D+00 0.000D+00 0.100D+01
 Coeff:     -0.128D-02 0.301D-03 0.546D-01 0.251D+00 0.696D+00
 Gap=     0.416 Goal=   None    Shift=    0.000
 RMSDP=6.37D-06 MaxDP=3.43D-04 DE=-2.28D-04 OVMax= 7.10D-04

 Initial convergence to 1.0D-05 achieved.  Increase integral accuracy.
 Cycle   6  Pass 1  IDiag  1:
 E= -276.324161023853     Delta-E=        0.000035223952 Rises=F Damp=F
 DIIS: error= 4.84D-05 at cycle   1 NSaved=   1.
 NSaved= 1 IEnMin= 1 EnMin= -276.324161023853     IErMin= 1 ErrMin= 4.84D-05
 ErrMax= 4.84D-05  0.00D+00 EMaxC= 1.00D-01 BMatC= 1.74D-06 BMatP= 1.74D-06
 IDIUse=1 WtCom= 1.00D+00 WtEn= 0.00D+00
 Coeff-Com:  0.100D+01
 Coeff:      0.100D+01
 Gap=     0.416 Goal=   None    Shift=    0.000
 RMSDP=6.37D-06 MaxDP=3.43D-04 DE= 3.52D-05 OVMax= 2.76D-04

 Cycle   7  Pass 1  IDiag  1:
 RMSU=  1.37D-05    CP:  1.00D+00
 E= -276.324161920964     Delta-E=       -0.000000897112 Rises=F Damp=F
 DIIS: error= 2.43D-05 at cycle   2 NSaved=   2.
 NSaved= 2 IEnMin= 2 EnMin= -276.324161920964     IErMin= 2 ErrMin= 2.43D-05
 ErrMax= 2.43D-05  0.00D+00 EMaxC= 1.00D-01 BMatC= 5.06D-07 BMatP= 1.74D-06
 IDIUse=1 WtCom= 1.00D+00 WtEn= 0.00D+00
 Coeff-Com:  0.310D+00 0.690D+00
 Coeff:      0.310D+00 0.690D+00
 Gap=     0.416 Goal=   None    Shift=    0.000
 RMSDP=1.34D-06 MaxDP=5.52D-05 DE=-8.97D-07 OVMax= 1.46D-04

 Cycle   8  Pass 1  IDiag  1:
 RMSU=  1.33D-06    CP:  1.00D+00  1.01D+00
 E= -276.324162344514     Delta-E=       -0.000000423550 Rises=F Damp=F
 DIIS: error= 1.13D-05 at cycle   3 NSaved=   3.
 NSaved= 3 IEnMin= 3 EnMin= -276.324162344514     IErMin= 3 ErrMin= 1.13D-05
 ErrMax= 1.13D-05  0.00D+00 EMaxC= 1.00D-01 BMatC= 7.23D-08 BMatP= 5.06D-07
 IDIUse=1 WtCom= 1.00D+00 WtEn= 0.00D+00
 Coeff-Com: -0.503D-03 0.266D+00 0.734D+00
 Coeff:     -0.503D-03 0.266D+00 0.734D+00
 Gap=     0.416 Goal=   None    Shift=    0.000
 RMSDP=4.46D-07 MaxDP=1.71D-05 DE=-4.24D-07 OVMax= 4.57D-05

 Cycle   9  Pass 1  IDiag  1:
 RMSU=  3.05D-07    CP:  1.00D+00  1.03D+00  8.04D-01
 E= -276.324162413016     Delta-E=       -0.000000068502 Rises=F Damp=F
 DIIS: error= 2.25D-06 at cycle   4 NSaved=   4.
 NSaved= 4 IEnMin= 4 EnMin= -276.324162413016     IErMin= 4 ErrMin= 2.25D-06
 ErrMax= 2.25D-06  0.00D+00 EMaxC= 1.00D-01 BMatC= 2.25D-09 BMatP= 7.23D-08
 IDIUse=1 WtCom= 1.00D+00 WtEn= 0.00D+00
 Coeff-Com: -0.105D-01 0.738D-01 0.265D+00 0.672D+00
 Coeff:     -0.105D-01 0.738D-01 0.265D+00 0.672D+00
 Gap=     0.416 Goal=   None    Shift=    0.000
 RMSDP=9.09D-08 MaxDP=3.54D-06 DE=-6.85D-08 OVMax= 9.41D-06

 Cycle  10  Pass 1  IDiag  1:
 RMSU=  8.14D-08    CP:  1.00D+00  1.03D+00  8.04D-01  8.78D-01
 E= -276.324162415302     Delta-E=       -0.000000002286 Rises=F Damp=F
 DIIS: error= 3.40D-07 at cycle   5 NSaved=   5.
 NSaved= 5 IEnMin= 5 EnMin= -276.324162415302     IErMin= 5 ErrMin= 3.40D-07
 ErrMax= 3.40D-07  0.00D+00 EMaxC= 1.00D-01 BMatC= 5.46D-11 BMatP= 2.25D-09
 IDIUse=1 WtCom= 1.00D+00 WtEn= 0.00D+00
 Coeff-Com: -0.576D-03-0.136D-01-0.342D-01 0.332D-01 0.102D+01
 Coeff:     -0.576D-03-0.136D-01-0.342D-01 0.332D-01 0.102D+01
 Gap=     0.416 Goal=   None    Shift=    0.000
 RMSDP=3.06D-08 MaxDP=7.96D-07 DE=-2.29D-09 OVMax= 2.45D-06

 Cycle  11  Pass 1  IDiag  1:
 RMSU=  1.65D-08    CP:  1.00D+00  1.03D+00  8.05D-01  9.50D-01  1.16D+00
 E= -276.324162415363     Delta-E=       -0.000000000061 Rises=F Damp=F
 DIIS: error= 1.77D-07 at cycle   6 NSaved=   6.
 NSaved= 6 IEnMin= 6 EnMin= -276.324162415363     IErMin= 6 ErrMin= 1.77D-07
 ErrMax= 1.77D-07  0.00D+00 EMaxC= 1.00D-01 BMatC= 1.85D-11 BMatP= 5.46D-11
 IDIUse=1 WtCom= 1.00D+00 WtEn= 0.00D+00
 Coeff-Com:  0.486D-03-0.116D-01-0.349D-01-0.341D-01 0.467D+00 0.613D+00
 Coeff:      0.486D-03-0.116D-01-0.349D-01-0.341D-01 0.467D+00 0.613D+00
 Gap=     0.416 Goal=   None    Shift=    0.000
 RMSDP=6.46D-09 MaxDP=2.47D-07 DE=-6.09D-11 OVMax= 7.23D-07

 SCF Done:  E(RM062X) =  -276.324162415     A.U. after   11 cycles
            NFock= 11  Conv=0.65D-08     -V/T= 2.0068
 KE= 2.744707880065D+02 PE=-1.284728640001D+03 EE= 4.107632275661D+02
 Leave Link  502 at Sun Sep 29 13:43:58 2019, MaxMem=   671088640 cpu:            1738.4 elap:             869.4
 (Enter /shared/centos7/gaussian/g16/l801.exe)
 DoSCS=F DFT=T ScalE2(SS,OS)=  1.000000  1.000000
 Range of M.O.s used for correlation:     1   434
 NBasis=   434 NAE=    29 NBE=    29 NFC=     0 NFV=     0
 NROrb=    434 NOA=    29 NOB=    29 NVA=   405 NVB=   405

 **** Warning!!: The largest alpha MO coefficient is  0.10640575D+02

 Leave Link  801 at Sun Sep 29 13:43:59 2019, MaxMem=   671088640 cpu:               1.5 elap:               0.7
 (Enter /shared/centos7/gaussian/g16/l1101.exe)
 Using compressed storage, NAtomX=    23.
 Will process     24 centers per pass.
 Leave Link 1101 at Sun Sep 29 13:44:34 2019, MaxMem=   671088640 cpu:              69.1 elap:              34.6
 (Enter /shared/centos7/gaussian/g16/l1102.exe)
 Symmetrizing basis deriv contribution to polar:
 IMax=3 JMax=2 DiffMx= 0.00D+00
 Leave Link 1102 at Sun Sep 29 13:44:36 2019, MaxMem=   671088640 cpu:               5.1 elap:               2.6
 (Enter /shared/centos7/gaussian/g16/l1110.exe)
 Forming Gx(P) for the SCF density, NAtomX=    23.
 Integral derivatives from FoFJK, PRISM(SPDF).
 Do as many integral derivatives as possible in FoFJK.
 G2DrvN: MDV=     671086848.
 G2DrvN: will do    24 centers at a time, making    1 passes.
 Calling FoFCou, ICntrl=  3107 FMM=F I1Cent=   0 AccDes= 0.00D+00.
 FoFJK:  IHMeth= 1 ICntrl=    3107 DoSepK=F KAlg= 0 I1Cent=           0 FoldK=F
 IRaf=         0 NMat=       1 IRICut=       1 DoRegI=T DoRafI=F ISym2E= 0 IDoP0=0 IntGTp=1.
 FoFCou: FMM=F IPFlag=           0 FMFlag=      100000 FMFlg1=           0
         NFxFlg=           0 DoJE=F BraDBF=F KetDBF=F FulRan=T
         wScrn=  0.000000 ICntrl=      3107 IOpCl=  0 I1Cent=           0 NGrid=           0
         NMat0=    1 NMatS0=      1 NMatT0=    0 NMatD0=    1 NMtDS0=    0 NMtDT0=    0
 Symmetry not used in FoFCou.
 End of G2Drv F.D. properties file   721 does not exist.
 End of G2Drv F.D. properties file   722 does not exist.
 End of G2Drv F.D. properties file   788 does not exist.
 Leave Link 1110 at Sun Sep 29 14:22:30 2019, MaxMem=   671088640 cpu:            4546.7 elap:            2273.8
 (Enter /shared/centos7/gaussian/g16/l1002.exe)
 Minotr:  Closed shell wavefunction.
          IDoAtm=11111111111111111111111
          Direct CPHF calculation.
          Differentiating once with respect to nuclear coordinates.
          Requested convergence is 1.0D-08 RMS, and 1.0D-07 maximum.
          Secondary convergence is 1.0D-12 RMS, and 1.0D-12 maximum.
          NewPWx=T KeepS1=F KeepF1=F KeepIn=T MapXYZ=F SortEE=F KeepMc=T.
         6925 words used for storage of precomputed grid.
 Two-electron integrals replicated using symmetry.
          MDV=     671088640 using IRadAn=       1.
          Solving linear equations simultaneously, MaxMat=     380.
 FoF2E skips out because all densities are zero.
 CalDSu exits because no D1Ps are significant.
 FoFJK:  IHMeth= 1 ICntrl=       0 DoSepK=F KAlg= 0 I1Cent=           0 FoldK=F
 IRaf= 910000000 NMat=      69 IRICut=     172 DoRegI=T DoRafI=T ISym2E= 2 IDoP0=3 IntGTp=3.
 FoFCou: FMM=F IPFlag=           0 FMFlag=      100000 FMFlg1=           0
         NFxFlg=           0 DoJE=F BraDBF=F KetDBF=F FulRan=T
         wScrn=  0.000000 ICntrl=         0 IOpCl=  0 I1Cent=           0 NGrid=           0
         NMat0=   69 NMatS0=     69 NMatT0=    0 NMatD0=   69 NMtDS0=    0 NMtDT0=    0
 Integrals replicated using symmetry in FoFCou.
 Raff kept on since  86.75% of shell-pairs survive, threshold=   0.20 IRatSp=87.
          There are    72 degrees of freedom in the 1st order CPHF.  IDoFFX=6 NUNeed=     0.
     66 vectors produced by pass  0 Test12= 1.63D-14 1.39D-09 XBig12= 5.54D-02 4.89D-02.
 AX will form    66 AO Fock derivatives at one time.
     66 vectors produced by pass  1 Test12= 1.63D-14 1.39D-09 XBig12= 3.35D-03 6.29D-03.
     66 vectors produced by pass  2 Test12= 1.63D-14 1.39D-09 XBig12= 5.42D-05 9.48D-04.
     66 vectors produced by pass  3 Test12= 1.63D-14 1.39D-09 XBig12= 4.42D-07 8.34D-05.
     66 vectors produced by pass  4 Test12= 1.63D-14 1.39D-09 XBig12= 2.24D-09 4.62D-06.
     66 vectors produced by pass  5 Test12= 1.63D-14 1.39D-09 XBig12= 1.14D-11 3.16D-07.
     22 vectors produced by pass  6 Test12= 1.63D-14 1.39D-09 XBig12= 4.03D-14 1.63D-08.
 InvSVY:  IOpt=1 It=  1 EMax= 2.78D-16
 Solved reduced A of dimension   418 with    72 vectors.
 End of Minotr F.D. properties file   721 does not exist.
 End of Minotr F.D. properties file   722 does not exist.
 End of Minotr F.D. properties file   788 does not exist.
 Leave Link 1002 at Sun Sep 29 15:27:40 2019, MaxMem=   671088640 cpu:            7817.8 elap:            3909.5
 (Enter /shared/centos7/gaussian/g16/l601.exe)
 Copying SCF densities to generalized density rwf, IOpCl= 0 IROHF=0.

 **********************************************************************

            Population analysis using the SCF density.

 **********************************************************************

 Orbital symmetries:
       Occupied  (A) (A) (A) (A) (A) (A) (A) (A) (A) (A) (A) (A)
                 (A) (A) (A) (A) (A) (A) (A) (A) (A) (A) (A) (A)
                 (A) (A) (A) (A) (A)
       Virtual   (A) (A) (A) (A) (A) (A) (A) (A) (A) (A) (A) (A)
                 (A) (A) (A) (A) (A) (A) (A) (A) (A) (A) (A) (A)
                 (A) (A) (A) (A) (A) (A) (A) (A) (A) (A) (A) (A)
                 (A) (A) (A) (A) (A) (A) (A) (A) (A) (A) (A) (A)
                 (A) (A) (A) (A) (A) (A) (A) (A) (A) (A) (A) (A)
                 (A) (A) (A) (A) (A) (A) (A) (A) (A) (A) (A) (A)
                 (A) (A) (A) (A) (A) (A) (A) (A) (A) (A) (A) (A)
                 (A) (A) (A) (A) (A) (A) (A) (A) (A) (A) (A) (A)
                 (A) (A) (A) (A) (A) (A) (A) (A) (A) (A) (A) (A)
                 (A) (A) (A) (A) (A) (A) (A) (A) (A) (A) (A) (A)
                 (A) (A) (A) (A) (A) (A) (A) (A) (A) (A) (A) (A)
                 (A) (A) (A) (A) (A) (A) (A) (A) (A) (A) (A) (A)
                 (A) (A) (A) (A) (A) (A) (A) (A) (A) (A) (A) (A)
                 (A) (A) (A) (A) (A) (A) (A) (A) (A) (A) (A) (A)
                 (A) (A) (A) (A) (A) (A) (A) (A) (A) (A) (A) (A)
                 (A) (A) (A) (A) (A) (A) (A) (A) (A) (A) (A) (A)
                 (A) (A) (A) (A) (A) (A) (A) (A) (A) (A) (A) (A)
                 (A) (A) (A) (A) (A) (A) (A) (A) (A) (A) (A) (A)
                 (A) (A) (A) (A) (A) (A) (A) (A) (A) (A) (A) (A)
                 (A) (A) (A) (A) (A) (A) (A) (A) (A) (A) (A) (A)
                 (A) (A) (A) (A) (A) (A) (A) (A) (A) (A) (A) (A)
                 (A) (A) (A) (A) (A) (A) (A) (A) (A) (A) (A) (A)
                 (A) (A) (A) (A) (A) (A) (A) (A) (A) (A) (A) (A)
                 (A) (A) (A) (A) (A) (A) (A) (A) (A) (A) (A) (A)
                 (A) (A) (A) (A) (A) (A) (A) (A) (A) (A) (A) (A)
                 (A) (A) (A) (A) (A) (A) (A) (A) (A) (A) (A) (A)
                 (A) (A) (A) (A) (A) (A) (A) (A) (A) (A) (A) (A)
                 (A) (A) (A) (A) (A) (A) (A) (A) (A) (A) (A) (A)
                 (A) (A) (A) (A) (A) (A) (A) (A) (A) (A) (A) (A)
                 (A) (A) (A) (A) (A) (A) (A) (A) (A) (A) (A) (A)
                 (A) (A) (A) (A) (A) (A) (A) (A) (A) (A) (A) (A)
                 (A) (A) (A) (A) (A) (A) (A) (A) (A) (A) (A) (A)
                 (A) (A) (A) (A) (A) (A) (A) (A) (A) (A) (A) (A)
                 (A) (A) (A) (A) (A) (A) (A) (A) (A)
 The electronic state is 1-A.
 Alpha  occ. eigenvalues --  -10.52860 -10.52639 -10.52524 -10.52406 -10.52397
 Alpha  occ. eigenvalues --  -10.52389 -10.52208  -0.92181  -0.88332  -0.82795
 Alpha  occ. eigenvalues --   -0.76903  -0.69653  -0.65323  -0.64048  -0.55644
 Alpha  occ. eigenvalues --   -0.52271  -0.52077  -0.49264  -0.47627  -0.46221
 Alpha  occ. eigenvalues --   -0.45020  -0.43871  -0.40951  -0.40519  -0.39359
 Alpha  occ. eigenvalues --   -0.37959  -0.37608  -0.36360  -0.34963
 Alpha virt. eigenvalues --    0.06648   0.07683   0.08794   0.08923   0.11092
 Alpha virt. eigenvalues --    0.12216   0.12586   0.13702   0.14309   0.15198
 Alpha virt. eigenvalues --    0.16240   0.16548   0.17141   0.17937   0.18612
 Alpha virt. eigenvalues --    0.19700   0.22123   0.24286   0.24715   0.27121
 Alpha virt. eigenvalues --    0.28289   0.28843   0.29239   0.30215   0.31579
 Alpha virt. eigenvalues --    0.31965   0.32456   0.33295   0.34973   0.35504
 Alpha virt. eigenvalues --    0.38069   0.38452   0.41654   0.42332   0.43884
 Alpha virt. eigenvalues --    0.45239   0.46078   0.46755   0.47337   0.48381
 Alpha virt. eigenvalues --    0.49453   0.49767   0.50658   0.51271   0.51669
 Alpha virt. eigenvalues --    0.52013   0.52714   0.52984   0.53370   0.54043
 Alpha virt. eigenvalues --    0.54742   0.55061   0.55668   0.57420   0.58384
 Alpha virt. eigenvalues --    0.58724   0.59758   0.62023   0.64021   0.65686
 Alpha virt. eigenvalues --    0.66009   0.69678   0.71281   0.74179   0.76284
 Alpha virt. eigenvalues --    0.77631   0.77995   0.79975   0.81635   0.82582
 Alpha virt. eigenvalues --    0.83991   0.85647   0.85813   0.88586   0.89348
 Alpha virt. eigenvalues --    0.91287   0.94726   0.95196   0.96425   0.98223
 Alpha virt. eigenvalues --    0.99824   1.00865   1.02482   1.03445   1.03587
 Alpha virt. eigenvalues --    1.07255   1.08064   1.09105   1.09520   1.10342
 Alpha virt. eigenvalues --    1.12236   1.12296   1.13475   1.13713   1.15568
 Alpha virt. eigenvalues --    1.16343   1.17290   1.17932   1.18376   1.19344
 Alpha virt. eigenvalues --    1.20149   1.21533   1.21799   1.22880   1.23261
 Alpha virt. eigenvalues --    1.24873   1.25656   1.25847   1.27101   1.27707
 Alpha virt. eigenvalues --    1.28802   1.30269   1.31333   1.32100   1.32797
 Alpha virt. eigenvalues --    1.34218   1.35128   1.36365   1.37712   1.39039
 Alpha virt. eigenvalues --    1.39748   1.40941   1.41681   1.42514   1.44685
 Alpha virt. eigenvalues --    1.45649   1.46784   1.47986   1.50088   1.50808
 Alpha virt. eigenvalues --    1.51353   1.53238   1.53486   1.53996   1.56135
 Alpha virt. eigenvalues --    1.57057   1.58887   1.59611   1.62326   1.64055
 Alpha virt. eigenvalues --    1.65513   1.67607   1.69530   1.72501   1.77068
 Alpha virt. eigenvalues --    1.79243   1.81182   1.83927   1.95668   2.23383
 Alpha virt. eigenvalues --    2.26069   2.30699   2.32607   2.34274   2.37684
 Alpha virt. eigenvalues --    2.38527   2.40468   2.40960   2.43093   2.43775
 Alpha virt. eigenvalues --    2.44241   2.48202   2.48673   2.49747   2.50594
 Alpha virt. eigenvalues --    2.53716   2.55786   2.56363   2.57698   2.58856
 Alpha virt. eigenvalues --    2.59859   2.62126   2.63506   2.64772   2.65358
 Alpha virt. eigenvalues --    2.66384   2.67508   2.69400   2.71176   2.72664
 Alpha virt. eigenvalues --    2.73044   2.74027   2.75311   2.76936   2.77400
 Alpha virt. eigenvalues --    2.79656   2.80601   2.82461   2.83409   2.84397
 Alpha virt. eigenvalues --    2.86822   2.87971   2.88941   2.90163   2.90802
 Alpha virt. eigenvalues --    2.92324   2.94585   2.96528   2.97495   2.98609
 Alpha virt. eigenvalues --    3.00611   3.00858   3.04031   3.04235   3.05209
 Alpha virt. eigenvalues --    3.05605   3.06606   3.07441   3.09241   3.10248
 Alpha virt. eigenvalues --    3.10259   3.11136   3.11521   3.12592   3.13675
 Alpha virt. eigenvalues --    3.14640   3.15042   3.16498   3.17317   3.18927
 Alpha virt. eigenvalues --    3.19076   3.20267   3.20885   3.21714   3.22575
 Alpha virt. eigenvalues --    3.24089   3.24688   3.25877   3.26885   3.27820
 Alpha virt. eigenvalues --    3.28657   3.29708   3.30657   3.34687   3.36908
 Alpha virt. eigenvalues --    3.37826   3.38896   3.39412   3.41187   3.42494
 Alpha virt. eigenvalues --    3.43575   3.43961   3.45083   3.46043   3.46905
 Alpha virt. eigenvalues --    3.48642   3.49776   3.51296   3.52407   3.53082
 Alpha virt. eigenvalues --    3.54568   3.56610   3.57911   3.58950   3.60005
 Alpha virt. eigenvalues --    3.60402   3.62306   3.64572   3.66235   3.67523
 Alpha virt. eigenvalues --    3.68582   3.70631   3.72092   3.72725   3.73432
 Alpha virt. eigenvalues --    3.74823   3.76628   3.76875   3.78188   3.79942
 Alpha virt. eigenvalues --    3.80660   3.80991   3.82578   3.83085   3.84049
 Alpha virt. eigenvalues --    3.84582   3.87497   3.88438   3.89519   3.90365
 Alpha virt. eigenvalues --    3.90698   3.92272   3.93424   3.94607   3.95948
 Alpha virt. eigenvalues --    3.96527   3.97658   3.99066   3.99209   4.00828
 Alpha virt. eigenvalues --    4.02003   4.02310   4.02974   4.04391   4.05829
 Alpha virt. eigenvalues --    4.06814   4.07359   4.08654   4.09636   4.10241
 Alpha virt. eigenvalues --    4.11582   4.12560   4.13759   4.14311   4.16631
 Alpha virt. eigenvalues --    4.18413   4.19821   4.21025   4.21257   4.23209
 Alpha virt. eigenvalues --    4.24191   4.25029   4.26561   4.27691   4.28505
 Alpha virt. eigenvalues --    4.29704   4.30427   4.32869   4.33792   4.34574
 Alpha virt. eigenvalues --    4.36223   4.39138   4.39988   4.41897   4.43658
 Alpha virt. eigenvalues --    4.45139   4.49955   4.52581   4.54013   4.57520
 Alpha virt. eigenvalues --    4.60731   4.61634   4.64081   4.65735   4.66087
 Alpha virt. eigenvalues --    4.68389   4.70802   4.71878   4.73689   4.74219
 Alpha virt. eigenvalues --    4.76130   4.77376   4.79221   4.79325   4.80515
 Alpha virt. eigenvalues --    4.82323   4.83886   4.87332   4.88281   4.89391
 Alpha virt. eigenvalues --    4.91936   4.92911   4.93465   4.95870   4.97272
 Alpha virt. eigenvalues --    4.99098   5.00786   5.05517   5.05702   5.10187
 Alpha virt. eigenvalues --    5.10794   5.12798   5.14000   5.17986   5.19402
 Alpha virt. eigenvalues --    5.19727   5.24156   5.25804   5.26379   5.27065
 Alpha virt. eigenvalues --    5.30402   5.31570   5.33820   5.34476   5.37006
 Alpha virt. eigenvalues --    5.38376   5.40268   5.42621   5.45014   5.47598
 Alpha virt. eigenvalues --    5.48009   5.50467   5.51146   5.52712   5.56656
 Alpha virt. eigenvalues --    5.60013   5.62451   5.67387   5.69105   5.79035
 Alpha virt. eigenvalues --    5.81779   5.82341   5.85840   5.90230   5.92067
 Alpha virt. eigenvalues --    5.96723   5.99259   6.06145  11.94294  12.41249
 Alpha virt. eigenvalues --   12.79294  12.96565  13.25145  13.46590  13.75135
          Condensed to atoms (all electrons):
               1          2          3          4          5          6
     1  C    5.139886   0.306715  -0.049173   0.329599   0.005405  -0.059493
     2  C    0.306715   5.070009   0.323924  -0.056959  -0.048870   0.007724
     3  C   -0.049173   0.323924   5.063641   0.007109   0.317505  -0.000543
     4  C    0.329599  -0.056959   0.007109   5.014567  -0.000732   0.320012
     5  C    0.005405  -0.048870   0.317505  -0.000732   5.046305   0.000035
     6  C   -0.059493   0.007724  -0.000543   0.320012   0.000035   4.944759
     7  C   -0.013322   0.003504  -0.052502   0.000847   0.307146  -0.000002
     8  H   -0.050625  -0.004907  -0.000016   0.412049   0.000014  -0.039564
     9  H   -0.048226  -0.003811   0.000332   0.409694  -0.000148  -0.039037
    10  H    0.411702  -0.039638  -0.004586  -0.043900   0.004706  -0.004540
    11  H    0.400098  -0.047479  -0.000944  -0.032123  -0.001473  -0.002742
    12  H   -0.051693   0.409301  -0.037894  -0.002264  -0.008991   0.000120
    13  H   -0.047820   0.418428  -0.042892  -0.006540   0.008360   0.000209
    14  H    0.009569  -0.048855   0.420611  -0.000489  -0.045296   0.000022
    15  H   -0.007436  -0.044125   0.407684   0.000326  -0.045609   0.000004
    16  H   -0.000517   0.008332  -0.047086   0.000044   0.417213  -0.000001
    17  H   -0.001049  -0.003215  -0.048154   0.000005   0.402726   0.000005
    18  H   -0.004961  -0.000021   0.000011  -0.047262  -0.000008   0.406433
    19  H    0.010106  -0.000555   0.000022  -0.043880  -0.000001   0.406818
    20  H   -0.004694   0.000073  -0.000002  -0.047443  -0.000001   0.405829
    21  H    0.000104  -0.000214  -0.002384  -0.000071  -0.049458   0.000002
    22  H   -0.014714   0.002185  -0.003272   0.002329  -0.039618   0.000157
    23  H    0.000436  -0.000669   0.008325  -0.000032  -0.038207  -0.000001
               7          8          9         10         11         12
     1  C   -0.013322  -0.050625  -0.048226   0.411702   0.400098  -0.051693
     2  C    0.003504  -0.004907  -0.003811  -0.039638  -0.047479   0.409301
     3  C   -0.052502  -0.000016   0.000332  -0.004586  -0.000944  -0.037894
     4  C    0.000847   0.412049   0.409694  -0.043900  -0.032123  -0.002264
     5  C    0.307146   0.000014  -0.000148   0.004706  -0.001473  -0.008991
     6  C   -0.000002  -0.039564  -0.039037  -0.004540  -0.002742   0.000120
     7  C    5.005670  -0.000097   0.000122  -0.019104   0.001207   0.000825
     8  H   -0.000097   0.609594  -0.040111   0.009750  -0.007339  -0.000145
     9  H    0.000122  -0.040111   0.607661  -0.008534   0.008644   0.002643
    10  H   -0.019104   0.009750  -0.008534   0.605210  -0.041648  -0.005767
    11  H    0.001207  -0.007339   0.008644  -0.041648   0.581914   0.008142
    12  H    0.000825  -0.000145   0.002643  -0.005767   0.008142   0.576429
    13  H   -0.000888   0.004057  -0.000045   0.008134  -0.005411  -0.033446
    14  H    0.008228  -0.000028   0.000015  -0.000229   0.000304  -0.003001
    15  H   -0.005638   0.000079  -0.000054   0.000379   0.002905   0.007809
    16  H   -0.043340  -0.000001  -0.000002  -0.000177  -0.000060   0.000197
    17  H   -0.041688   0.000011  -0.000032   0.000303   0.000142   0.004099
    18  H   -0.000052   0.008762  -0.007055   0.003460  -0.000414   0.000056
    19  H    0.000003  -0.006783  -0.006824   0.000153  -0.000065   0.000003
    20  H    0.000002  -0.007142   0.008913  -0.001054   0.003968  -0.000043
    21  H    0.407445   0.000006  -0.000006   0.000435  -0.000080   0.000046
    22  H    0.403219  -0.000167   0.000201  -0.013718   0.000214   0.000533
    23  H    0.402109   0.000002  -0.000000   0.001690  -0.000035  -0.000056
              13         14         15         16         17         18
     1  C   -0.047820   0.009569  -0.007436  -0.000517  -0.001049  -0.004961
     2  C    0.418428  -0.048855  -0.044125   0.008332  -0.003215  -0.000021
     3  C   -0.042892   0.420611   0.407684  -0.047086  -0.048154   0.000011
     4  C   -0.006540  -0.000489   0.000326   0.000044   0.000005  -0.047262
     5  C    0.008360  -0.045296  -0.045609   0.417213   0.402726  -0.000008
     6  C    0.000209   0.000022   0.000004  -0.000001   0.000005   0.406433
     7  C   -0.000888   0.008228  -0.005638  -0.043340  -0.041688  -0.000052
     8  H    0.004057  -0.000028   0.000079  -0.000001   0.000011   0.008762
     9  H   -0.000045   0.000015  -0.000054  -0.000002  -0.000032  -0.007055
    10  H    0.008134  -0.000229   0.000379  -0.000177   0.000303   0.003460
    11  H   -0.005411   0.000304   0.002905  -0.000060   0.000142  -0.000414
    12  H   -0.033446  -0.003001   0.007809   0.000197   0.004099   0.000056
    13  H    0.584637  -0.010682  -0.002542  -0.000505   0.000336  -0.000036
    14  H   -0.010682   0.584057  -0.028972  -0.011959  -0.001464   0.000000
    15  H   -0.002542  -0.028972   0.576975  -0.002404   0.008018   0.000006
    16  H   -0.000505  -0.011959  -0.002404   0.601781  -0.033295   0.000000
    17  H    0.000336  -0.001464   0.008018  -0.033295   0.590996   0.000002
    18  H   -0.000036   0.000000   0.000006   0.000000   0.000002   0.605691
    19  H   -0.000010  -0.000001   0.000002   0.000000  -0.000000  -0.031221
    20  H    0.000065   0.000001  -0.000027  -0.000000  -0.000001  -0.039042
    21  H    0.000005   0.000261   0.003335  -0.006067   0.008123   0.000003
    22  H   -0.000301  -0.000515   0.000255   0.008125  -0.005984  -0.000009
    23  H    0.000055  -0.000502   0.000146  -0.007854  -0.004735   0.000002
              19         20         21         22         23
     1  C    0.010106  -0.004694   0.000104  -0.014714   0.000436
     2  C   -0.000555   0.000073  -0.000214   0.002185  -0.000669
     3  C    0.000022  -0.000002  -0.002384  -0.003272   0.008325
     4  C   -0.043880  -0.047443  -0.000071   0.002329  -0.000032
     5  C   -0.000001  -0.000001  -0.049458  -0.039618  -0.038207
     6  C    0.406818   0.405829   0.000002   0.000157  -0.000001
     7  C    0.000003   0.000002   0.407445   0.403219   0.402109
     8  H   -0.006783  -0.007142   0.000006  -0.000167   0.000002
     9  H   -0.006824   0.008913  -0.000006   0.000201  -0.000000
    10  H    0.000153  -0.001054   0.000435  -0.013718   0.001690
    11  H   -0.000065   0.003968  -0.000080   0.000214  -0.000035
    12  H    0.000003  -0.000043   0.000046   0.000533  -0.000056
    13  H   -0.000010   0.000065   0.000005  -0.000301   0.000055
    14  H   -0.000001   0.000001   0.000261  -0.000515  -0.000502
    15  H    0.000002  -0.000027   0.003335   0.000255   0.000146
    16  H    0.000000  -0.000000  -0.006067   0.008125  -0.007854
    17  H   -0.000000  -0.000001   0.008123  -0.005984  -0.004735
    18  H   -0.031221  -0.039042   0.000003  -0.000009   0.000002
    19  H    0.597932  -0.030678  -0.000000  -0.000003  -0.000000
    20  H   -0.030678   0.604831  -0.000002   0.000058   0.000000
    21  H   -0.000000  -0.000002   0.578915  -0.038293  -0.027304
    22  H   -0.000003   0.000058  -0.038293   0.613444  -0.032081
    23  H   -0.000000   0.000000  -0.027304  -0.032081   0.590275
 Mulliken charges:
               1
     1  C   -0.259898
     2  C   -0.250877
     3  C   -0.259715
     4  C   -0.214886
     5  C   -0.231001
     6  C   -0.346208
     7  C   -0.363695
     8  H    0.112602
     9  H    0.115661
    10  H    0.136973
    11  H    0.132273
    12  H    0.133096
    13  H    0.126831
    14  H    0.128923
    15  H    0.128883
    16  H    0.117573
    17  H    0.124852
    18  H    0.105653
    19  H    0.104984
    20  H    0.106388
    21  H    0.125197
    22  H    0.117954
    23  H    0.108435
 Sum of Mulliken charges =  -0.00000
 Mulliken charges with hydrogens summed into heavy atoms:
               1
     1  C    0.009348
     2  C    0.009051
     3  C   -0.001909
     4  C    0.013377
     5  C    0.011424
     6  C   -0.029183
     7  C   -0.012109
 APT charges:
               1
     1  C   -0.361840
     2  C   -0.676916
     3  C   -0.777436
     4  C   -0.639578
     5  C   -0.853990
     6  C   -1.349635
     7  C   -1.001557
     8  H    0.389656
     9  H    0.320450
    10  H    0.252915
    11  H    0.299136
    12  H    0.313856
    13  H    0.387020
    14  H    0.476032
    15  H    0.297042
    16  H    0.546605
    17  H    0.295279
    18  H    0.242337
    19  H    0.590426
    20  H    0.314580
    21  H    0.336434
    22  H    0.065056
    23  H    0.534127
 Sum of APT charges =  -0.00000
 APT charges with hydrogens summed into heavy atoms:
               1
     1  C    0.190211
     2  C    0.023960
     3  C   -0.004361
     4  C    0.070528
     5  C   -0.012106
     6  C   -0.202292
     7  C   -0.065939
 Electronic spatial extent (au):  <R**2>=           1265.9752
 Charge=             -0.0000 electrons
 Dipole moment (field-independent basis, Debye):
    X=              0.0755    Y=             -0.1184    Z=             -0.0313  Tot=              0.1439
 Quadrupole moment (field-independent basis, Debye-Ang):
   XX=            -49.5768   YY=            -49.8115   ZZ=            -48.5375
   XY=              0.1517   XZ=              0.0415   YZ=             -0.4070
 Traceless Quadrupole moment (field-independent basis, Debye-Ang):
   XX=             -0.2682   YY=             -0.5029   ZZ=              0.7711
   XY=              0.1517   XZ=              0.0415   YZ=             -0.4070
 Octapole moment (field-independent basis, Debye-Ang**2):
  XXX=              2.8175  YYY=             -2.2788  ZZZ=              0.4735  XYY=              0.7229
  XXY=             -2.0413  XXZ=             -0.2376  XZZ=             -0.1356  YZZ=              0.2374
  YYZ=             -0.3823  XYZ=              0.5802
 Hexadecapole moment (field-independent basis, Debye-Ang**3):
 XXXX=          -1321.6351 YYYY=           -359.4250 ZZZZ=           -122.3764 XXXY=              8.9135
 XXXZ=              5.5615 YYYX=             -1.9883 YYYZ=             -4.6044 ZZZX=             -0.6129
 ZZZY=              2.1255 XXYY=           -283.0283 XXZZ=           -240.7419 YYZZ=            -81.7008
 XXYZ=             -2.1792 YYXZ=             -1.9392 ZZXY=              1.1237
 N-N= 3.231704620134D+02 E-N=-1.284728588691D+03  KE= 2.744707880065D+02
  Exact polarizability:   0.000   0.000   0.000   0.000   0.000   0.000
 Approx polarizability:  99.468   1.613  98.906   0.068  -0.183  99.545
 No NMR shielding tensors so no spin-rotation constants.
 Leave Link  601 at Sun Sep 29 15:28:11 2019, MaxMem=   671088640 cpu:              61.9 elap:              31.0
 (Enter /shared/centos7/gaussian/g16/l701.exe)
 SCFChk:  SCF convergence  6.46D-09 required  1.00D-08
 ... and contract with generalized density number  0.
 Compute integral second derivatives.
 Entering OneElI...
 Calculate overlap and kinetic energy integrals
    NBasis = 485  MinDer = 2  MaxDer = 2
 Requested accuracy = 0.1000D-12
 PrmmSu-InSpLW:  IPartL=    0 NPrtUS=   20 NPrtUL=    1 DoSpLW=F IThBeg=    0 IThEnd=   19 NThAct=   20.
 PrsmSu:  NPrtUS=  20 ThrOK=T IAlg=1 NPAlg=1 LenDen=           0 ISkipM=0 DoSpLW=F IThBeg=    0 IThEnd=   19.
 Prism:   IPart=     0 DynPar=F LinDyn=F Incr=           6.
 PRISM was handed    33205329 working-precision words and 13575 shell-pairs
 PRISM was handed    33205329 working-precision words and 13575 shell-pairs
 PRISM was handed    33205329 working-precision words and 13575 shell-pairs
 PRISM was handed    33205329 working-precision words and 13575 shell-pairs
 PRISM was handed    33205329 working-precision words and 13575 shell-pairs
 PRISM was handed    33205329 working-precision words and 13575 shell-pairs
 PRISM was handed    33205329 working-precision words and 13575 shell-pairs
 PRISM was handed    33205329 working-precision words and 13575 shell-pairs
 PRISM was handed    33205329 working-precision words and 13575 shell-pairs
 PRISM was handed    33205329 working-precision words and 13575 shell-pairs
 PRISM was handed    33205329 working-precision words and 13575 shell-pairs
 PRISM was handed    33205329 working-precision words and 13575 shell-pairs
 PRISM was handed    33205329 working-precision words and 13575 shell-pairs
 IPart=  1 NShTot=         712 NBatch=          80 AvBLen=         8.9
 IPart=  8 NShTot=         677 NBatch=          60 AvBLen=        11.3
 IPart=  0 NShTot=         715 NBatch=          81 AvBLen=         8.8
 PRISM was handed    33205329 working-precision words and 13575 shell-pairs
 PRISM was handed    33205329 working-precision words and 13575 shell-pairs
 PRISM was handed    33205329 working-precision words and 13575 shell-pairs
 PRISM was handed    33205329 working-precision words and 13575 shell-pairs
 PRISM was handed    33205329 working-precision words and 13575 shell-pairs
 PRISM was handed    33205329 working-precision words and 13575 shell-pairs
 PRISM was handed    33205329 working-precision words and 13575 shell-pairs
 IPart=  9 NShTot=         672 NBatch=          58 AvBLen=        11.6
 IPart=  3 NShTot=         704 NBatch=          75 AvBLen=         9.4
 IPart= 10 NShTot=         670 NBatch=          58 AvBLen=        11.6
 IPart=  7 NShTot=         680 NBatch=          61 AvBLen=        11.1
 IPart=  5 NShTot=         700 NBatch=          72 AvBLen=         9.7
 IPart= 15 NShTot=         663 NBatch=          52 AvBLen=        12.8
 IPart= 14 NShTot=         664 NBatch=          52 AvBLen=        12.8
 IPart=  4 NShTot=         701 NBatch=          73 AvBLen=         9.6
 IPart= 17 NShTot=         655 NBatch=          50 AvBLen=        13.1
 IPart=  6 NShTot=         694 NBatch=          68 AvBLen=        10.2
 IPart= 16 NShTot=         658 NBatch=          50 AvBLen=        13.2
 IPart= 13 NShTot=         665 NBatch=          53 AvBLen=        12.5
 IPart= 18 NShTot=         653 NBatch=          49 AvBLen=        13.3
 IPart= 11 NShTot=         669 NBatch=          57 AvBLen=        11.7
 IPart= 19 NShTot=         651 NBatch=          49 AvBLen=        13.3
 IPart=  2 NShTot=         706 NBatch=          76 AvBLen=         9.3
 IPart= 12 NShTot=         666 NBatch=          54 AvBLen=        12.3
 PrSmSu:  NxtVal=            121.
 Entering OneElI...
 Calculate potential energy integrals
    NBasis = 485  MinDer = 2  MaxDer = 2
 Requested accuracy = 0.1000D-12
 PrmmSu-InSpLW:  IPartL=    0 NPrtUS=   20 NPrtUL=    1 DoSpLW=F IThBeg=    0 IThEnd=   19 NThAct=   20.
 PrsmSu:  NPrtUS=  20 ThrOK=T IAlg=1 NPAlg=1 LenDen=           0 ISkipM=0 DoSpLW=F IThBeg=    0 IThEnd=   19.
 Prism:   IPart=     0 DynPar=F LinDyn=F Incr=         138.
 PRISM was handed    33269788 working-precision words and 12028 shell-pairs
 PRISM was handed    33269788 working-precision words and 12028 shell-pairs
 PRISM was handed    33269788 working-precision words and 12028 shell-pairs
 PRISM was handed    33269788 working-precision words and 12028 shell-pairs
 PRISM was handed    33269788 working-precision words and 12028 shell-pairs
 PRISM was handed    33269788 working-precision words and 12028 shell-pairs
 PRISM was handed    33269788 working-precision words and 12028 shell-pairs
 PRISM was handed    33269788 working-precision words and 12028 shell-pairs
 PRISM was handed    33269788 working-precision words and 12028 shell-pairs
 PRISM was handed    33269788 working-precision words and 12028 shell-pairs
 PRISM was handed    33269788 working-precision words and 12028 shell-pairs
 PRISM was handed    33269788 working-precision words and 12028 shell-pairs
 PRISM was handed    33269788 working-precision words and 12028 shell-pairs
 PRISM was handed    33269788 working-precision words and 12028 shell-pairs
 PRISM was handed    33269788 working-precision words and 12028 shell-pairs
 PRISM was handed    33269788 working-precision words and 12028 shell-pairs
 PRISM was handed    33269788 working-precision words and 12028 shell-pairs
 PRISM was handed    33269788 working-precision words and 12028 shell-pairs
 PRISM was handed    33269788 working-precision words and 12028 shell-pairs
 PRISM was handed    33269788 working-precision words and 12028 shell-pairs
 IPart=  0 NShTot=       14467 NBatch=         631 AvBLen=        22.9
 IPart= 18 NShTot=       13202 NBatch=         575 AvBLen=        23.0
 IPart=  6 NShTot=       14099 NBatch=         614 AvBLen=        23.0
 IPart=  4 NShTot=       14306 NBatch=         624 AvBLen=        22.9
 IPart=  7 NShTot=       13938 NBatch=         607 AvBLen=        23.0
 IPart=  1 NShTot=       14398 NBatch=         628 AvBLen=        22.9
 IPart=  9 NShTot=       13823 NBatch=         602 AvBLen=        23.0
 IPart=  3 NShTot=       14329 NBatch=         625 AvBLen=        22.9
 IPart= 13 NShTot=       13616 NBatch=         593 AvBLen=        23.0
 IPart= 16 NShTot=       13363 NBatch=         582 AvBLen=        23.0
 IPart= 11 NShTot=       13754 NBatch=         599 AvBLen=        23.0
 IPart= 10 NShTot=       13777 NBatch=         600 AvBLen=        23.0
 IPart= 12 NShTot=       13662 NBatch=         595 AvBLen=        23.0
 IPart= 19 NShTot=       13156 NBatch=         573 AvBLen=        23.0
 IPart= 17 NShTot=       13248 NBatch=         577 AvBLen=        23.0
 IPart= 15 NShTot=       13501 NBatch=         588 AvBLen=        23.0
 IPart=  5 NShTot=       14237 NBatch=         620 AvBLen=        23.0
 IPart= 14 NShTot=       13593 NBatch=         592 AvBLen=        23.0
 IPart=  8 NShTot=       13823 NBatch=         602 AvBLen=        23.0
 IPart=  2 NShTot=       14352 NBatch=         626 AvBLen=        22.9
 PrSmSu:  NxtVal=           2761.
 Polarizability after L701:
                1             2             3 
      1  0.000000D+00
      2  0.000000D+00  0.000000D+00
      3  0.000000D+00  0.000000D+00  0.000000D+00
 Dipole Derivatives after L701:
                 1             2             3             4             5 
      1   0.324852D-01  0.311345D+00  0.320367D+00 -0.897145D-01 -0.139661D+00
      2  -0.804275D-01 -0.351213D+00  0.210103D+00 -0.371413D+00 -0.117697D+01
      3   0.904822D-01  0.608536D-01 -0.766793D+00  0.120201D+00  0.525312D-01
                 6             7             8             9            10 
      1   0.177484D+00 -0.581697D+00  0.875724D+00 -0.720322D+00 -0.471116D+00
      2  -0.257223D+00  0.516186D+00 -0.926157D+00  0.273943D+00 -0.334355D+00
      3  -0.764068D+00 -0.926486D-01 -0.157538D-01 -0.824452D+00 -0.174656D-01
                11            12            13            14            15 
      1  -0.142037D+01 -0.619987D+00 -0.181401D+01  0.352850D+00  0.832841D+00
      2  -0.609226D+00  0.452425D-01  0.315387D-01  0.205829D-01  0.963064D-02
      3   0.133494D-01 -0.838392D+00 -0.132220D-01 -0.702532D-01 -0.768545D+00
                16            17            18            19            20 
      1  -0.205732D+01  0.111993D+01  0.344852D+00 -0.668270D+00 -0.126894D+01
      2   0.728796D-01 -0.102640D+01 -0.340487D-02  0.307053D-01 -0.137469D+01
      3  -0.346172D-01  0.586931D-01 -0.965179D+00 -0.482331D-01  0.909152D-01
                21            22            23            24            25 
      1  -0.327359D+00  0.472769D+00  0.740052D+00 -0.315166D+00  0.171965D+00
      2  -0.771107D-01  0.177641D+00  0.527753D+00 -0.191421D+00  0.393421D-02
      3  -0.961706D+00 -0.303100D-01 -0.794560D-01  0.168444D+00  0.901705D-02
                26            27            28            29            30 
      1   0.910071D-01  0.712333D+00  0.109597D+00 -0.104614D+00  0.350461D-01
      2   0.144808D+00  0.145461D+00  0.172081D+00  0.452676D+00 -0.136098D+00
      3   0.447651D-01  0.644577D+00 -0.423663D-01 -0.976042D-01  0.196473D+00
                31            32            33            34            35 
      1   0.130768D+00 -0.381590D-01 -0.271226D+00  0.134773D+00 -0.200467D-01
      2   0.389788D-02  0.134006D+00  0.468054D-03 -0.196667D-01  0.196665D+00
      3  -0.167823D-01  0.497845D-01  0.632634D+00 -0.169086D-01  0.524992D-01
                36            37            38            39            40 
      1  -0.787034D-01  0.171581D+00  0.679836D-01 -0.407827D-01  0.546314D+00
      2   0.434205D+00  0.230907D+00  0.813176D+00 -0.297619D+00 -0.337222D+00
      3   0.610130D+00 -0.453159D-01 -0.116749D+00  0.176302D+00  0.350663D-01
                41            42            43            44            45 
      1  -0.655296D+00 -0.981456D-01  0.127505D+00  0.103363D+00  0.536526D+00
      2   0.778089D+00  0.910640D-01  0.114393D-01  0.787096D-01 -0.248753D+00
      3  -0.712037D-01  0.103694D+00 -0.178870D-01  0.111589D+00  0.684912D+00
                46            47            48            49            50 
      1   0.135399D+01 -0.172497D+00  0.289090D+00  0.686922D-01 -0.566683D-01
      2  -0.255024D-01  0.168825D+00 -0.138938D-01  0.228014D-02  0.145774D+00
      3  -0.811496D-02 -0.327945D-02  0.117001D+00  0.531938D-01  0.408520D-01
                51            52            53            54            55 
      1  -0.770576D+00 -0.132785D+00 -0.822419D+00  0.321587D+00  0.153692D+01
      2   0.207149D-01  0.179429D+00  0.681643D+00 -0.255134D+00 -0.143861D+00
      3   0.671371D+00 -0.632870D-01 -0.146217D+00  0.178154D+00  0.130045D+00
                56            57            58            59            60 
      1   0.367441D+00  0.566253D+00  0.183316D+00 -0.173482D+00 -0.107693D+01
      2   0.817403D-01 -0.440933D-01 -0.324738D-01  0.156743D+00  0.281896D+00
      3   0.461589D-01  0.152612D+00 -0.333294D-01  0.485323D-01  0.603682D+00
                61            62            63            64            65 
      1   0.189028D+00  0.131374D+00  0.759919D+00 -0.148561D+00  0.638862D-01
      2   0.467385D-01  0.227224D+00  0.570530D+00 -0.646502D+00  0.204185D+00
      3   0.667655D-01  0.736344D-01  0.593049D+00  0.122027D+00 -0.717592D-02
                66            67            68            69 
      1  -0.281987D-01  0.733769D+00  0.647195D+00 -0.548894D+00
      2  -0.115643D+00  0.511766D+00  0.652059D+00 -0.442865D+00
      3   0.139545D+00 -0.146310D+00 -0.136465D+00  0.216554D+00
 Hessian after L701:
                1             2             3             4             5 
      1  0.143734D+02
      2  0.862574D+00  0.176957D+02
      3 -0.164653D+00  0.283269D-01  0.185612D+02
      4 -0.443698D+01 -0.194914D+01 -0.579734D+00  0.146331D+02
      5 -0.200807D+01 -0.435855D+01  0.485992D+00  0.271498D+00  0.169487D+02
      6 -0.578188D+00  0.478389D+00 -0.609974D+01 -0.142744D+00 -0.173390D+00
      7  0.353264D+00 -0.157674D+00  0.309774D-01 -0.247966D+01  0.515217D+00
      8 -0.173342D+00 -0.243171D-01  0.193415D-01  0.515735D+00 -0.606905D+01
      9 -0.533858D-01  0.365068D-01 -0.133899D+00  0.119373D+01  0.165212D+00
     10 -0.252381D+01  0.418828D+00  0.123537D+01  0.330670D+00 -0.890311D-01
     11  0.432753D+00 -0.625870D+01  0.119209D+00 -0.219969D+00 -0.484632D-01
     12  0.122479D+01  0.117295D+00 -0.583746D+01 -0.365957D-02  0.220778D-01
     13  0.355667D+00  0.581074D-01 -0.644204D-01  0.300711D+00  0.182964D+00
     14  0.247960D-01 -0.180479D+00  0.543035D-02  0.233036D+00  0.236000D-01
     15 -0.447507D-01  0.612367D-02 -0.203413D+00 -0.182475D-01 -0.393377D-01
     16  0.345153D+00 -0.173296D+00  0.176658D-01  0.181565D+00 -0.177631D+00
     17 -0.855234D-01 -0.682679D-01  0.172969D-01 -0.181268D+00 -0.390070D-01
     18  0.663021D-01 -0.527006D-02 -0.118437D+00 -0.166607D-01  0.137607D-01
     19  0.124765D+00  0.232421D+00 -0.256281D-01 -0.809458D-02  0.234855D+00
     20  0.819819D-01 -0.478402D-01 -0.156534D-01  0.210291D+00  0.141249D+00
     21 -0.248885D-01 -0.184105D-01 -0.140685D+00  0.163884D-01  0.280138D-01
     22 -0.484616D-01 -0.133994D+00 -0.260139D-01  0.221773D-01  0.249161D-02
     23 -0.979347D-01  0.724688D-01 -0.438628D-01  0.179954D-01 -0.752909D-02
     24 -0.254957D-01 -0.380213D-01  0.129226D+00 -0.190017D-01 -0.526872D-02
     25  0.254192D-02 -0.490538D-01 -0.148467D+00  0.126200D-01 -0.591051D-02
     26 -0.356745D-01  0.970595D-01 -0.326895D-01 -0.111905D-01 -0.197073D-01
     27 -0.114717D+00 -0.481051D-01  0.464133D-01  0.419296D-01 -0.340697D-03
     28 -0.448582D+01  0.834320D+00 -0.308984D+00  0.811867D-01  0.135949D+00
     29  0.965099D+00 -0.244542D+01 -0.846801D+00  0.768021D-01 -0.699051D-01
     30 -0.354030D+00 -0.837976D+00 -0.436693D+01 -0.214454D-02 -0.543737D-01
     31 -0.457996D+01  0.136719D-01 -0.863440D-01  0.542938D-01  0.105886D+00
     32  0.235173D-01 -0.438585D+01  0.450593D+00  0.827324D-01 -0.851821D-02
     33 -0.400507D-01  0.468257D+00 -0.193423D+01  0.722727D-01 -0.118125D+00
     34  0.780701D-01  0.975332D-01  0.100972D+00 -0.457371D+01  0.131744D-01
     35  0.102254D+00 -0.639891D-02 -0.141315D+00  0.102832D-01 -0.441663D+01
     36  0.870400D-01 -0.137354D+00  0.861964D-01 -0.499020D-01  0.407485D+00
     37  0.105728D+00  0.111833D+00 -0.122282D-01 -0.414920D+01  0.764122D+00
     38  0.924210D-01 -0.596274D-01 -0.477372D-01  0.835473D+00 -0.236182D+01
     39 -0.707898D-02 -0.391540D-01  0.129058D+00 -0.289592D+00 -0.719049D+00
     40  0.119320D+00 -0.104002D+00  0.151325D-02 -0.111597D+00  0.413986D-01
     41 -0.130543D+00  0.198611D-01 -0.521791D-02  0.483666D-01  0.154426D+00
     42  0.168992D-02 -0.201639D-02 -0.547791D-01 -0.418224D-01  0.240386D-01
     43 -0.679653D-02  0.331854D-02 -0.905828D-03 -0.266527D-01 -0.537821D-01
     44  0.253957D-02 -0.754737D-02  0.423884D-02 -0.199473D-01  0.982013D-01
     45  0.254603D-01  0.529993D-02  0.117155D-01 -0.126316D+00 -0.391432D-01
     46  0.259365D-01  0.100874D-01  0.294465D-02  0.161485D+00  0.597004D-01
     47 -0.263696D-02 -0.103017D-01 -0.144207D-03  0.503931D-01 -0.307715D-01
     48  0.910909D-03  0.113968D-02 -0.849295D-02  0.738824D-02  0.172352D-02
     49  0.102701D-01  0.398785D-02 -0.136327D-01  0.135500D-01  0.125484D-01
     50 -0.487098D-02 -0.153147D-01  0.262935D-02  0.139635D-01 -0.197039D-01
[...]
 10922,0.00013340,0.00017321,0.01972000,-0.01971581,-0.00891460,-0.0000
 1457,-0.00000500,0.00003454,-0.00316718,-0.00456907,0.00103432,-0.0000
 0738,0.00000332,-0.00003656,-0.00001060,-0.00000481,0.00000951,-0.0000
 5902,0.00021271,0.00023803,0.00009153,-0.00012393,-0.00000197,-0.00005
 547,-0.00001730,-0.00032029,-0.00029339,0.00054804,-0.00034094,-0.1200
 0833,0.17341582,-0.00219208,0.00306039,-0.00632956,0.02392933,-0.02260
 999,-0.01651650,0.06646553,-0.06941930,-0.08634833,0.00143687,-0.00165
 082,-0.00023657,-0.00710104,0.00857726,0.00212192,-0.00014770,0.000331
 69,-0.00077047,0.00062768,0.00245860,-0.00031577,0.00006062,0.00008515
 ,-0.00001491,-0.00010585,-0.00004544,-0.00003435,-0.00023230,-0.000081
 97,0.00014969,0.00001623,0.00024697,0.00019185,-0.00055471,-0.00045666
 ,0.00136447,0.00027550,0.00044840,0.00118096,-0.07487322,0.07015247,0.
 10000542,0.00107260,0.00007962,0.00029226,-0.00085146,0.00050975,-0.00
 049162,-0.25974103,-0.05726120,-0.07701405,0.00035048,-0.00008374,0.00
 013394,-0.00655263,-0.00263320,-0.00264382,-0.00002135,0.00001814,-0.0
 0008348,0.00102055,0.00222360,-0.00044580,-0.00002186,0.00001617,-0.00
 002104,-0.00009206,0.00001228,0.00015508,-0.00003021,0.00009729,0.0000
 4012,0.00027159,-0.00041900,-0.00057590,0.00147879,0.00046976,0.000134
 00,0.00031370,0.00040696,-0.00057685,-0.01969022,-0.00490150,-0.006950
 13,0.28137580,-0.00065731,-0.00026151,-0.00015680,0.00349241,0.0003890
 6,0.00164871,-0.05569451,-0.06148212,-0.02197841,0.00015301,0.00003961
 ,-0.00004745,-0.02715554,-0.01212566,-0.01007082,-0.00001376,-0.000022
 36,-0.00000455,-0.00159209,0.00157726,-0.00103579,-0.00000964,-0.00002
 262,0.00001345,0.00001480,-0.00002715,0.00003850,-0.00002820,0.0000254
 5,0.00000736,0.00008257,0.00002169,-0.00018358,-0.00015461,0.00073933,
 0.00108030,0.00040859,0.00020441,-0.00014952,0.01918814,0.00525259,0.0
 0777633,0.06309412,0.07089708,-0.00166757,0.00035137,0.00192252,-0.032
 16155,-0.00756737,-0.01385699,-0.07578482,-0.02163625,-0.07489332,0.00
 016537,0.00015517,-0.00010511,0.00807776,0.00288862,0.00291764,0.00011
 933,0.00002450,0.00006853,0.00058503,0.00021420,0.00116724,-0.00002367
 ,0.00002686,-0.00002911,0.00020338,0.00000242,0.00028825,0.00006220,-0
 .00004256,-0.00002376,0.00108329,-0.00024516,-0.00000161,0.00009222,0.
 00062869,-0.00662860,0.00029419,0.00025236,0.00135746,0.01248709,0.003
 95006,0.00460247,0.08606787,0.02003715,0.08422458,0.00001784,-0.000049
 54,-0.00013344,-0.00008605,-0.00101649,-0.00087939,-0.00348845,0.00113
 314,0.00594365,0.00003757,0.00001251,-0.00000697,-0.11559784,0.0065135
 2,0.11431626,-0.00000407,-0.00000016,0.00000841,-0.01724606,0.00440488
 ,0.02454517,0.00000509,-0.00000916,-0.00001901,0.00001333,-0.00001518,
 0.00003009,-0.00015880,0.00009546,-0.00005026,0.00012245,0.00016556,-0
 .00005230,0.00015261,-0.00002535,0.00012680,0.00021288,0.00010095,0.00
 032053,0.00144254,0.00038370,-0.00060069,-0.00029362,-0.00035341,0.000
 09402,0.12601580,0.00029976,-0.00051706,-0.00021456,-0.00231122,-0.004
 82660,-0.00001443,-0.01338504,-0.00121043,0.02823562,-0.00010847,0.000
 21158,0.00010278,0.00731252,-0.04674638,-0.01692373,0.00002482,-0.0000
 1380,0.00004963,0.01140526,-0.00261351,-0.01703807,0.00002490,0.000068
 86,-0.00008510,-0.00000024,-0.00001722,-0.00002300,0.00002725,0.000212
 61,0.00015236,-0.00006588,0.00003535,-0.00000418,0.00018032,0.00005554
 ,-0.00009032,0.00016001,-0.00034703,0.00155858,0.00005695,0.00137700,0
 .00071507,-0.00064570,-0.00064285,0.00001414,-0.01277921,0.05715446,-0
 .00024692,-0.00006166,0.00040764,0.00087254,0.00240979,0.00031620,0.00
 327971,-0.00083332,-0.00779802,0.00007163,0.00009450,0.00004721,0.1147
 9796,-0.01619794,-0.24278601,-0.00003635,0.00001600,-0.00001472,-0.004
 05356,0.00063618,0.00595543,0.00000179,-0.00001627,-0.00005980,-0.0000
 0992,-0.00001589,0.00000243,-0.00015737,0.00016748,0.00015204,0.000101
 14,0.00011700,-0.00005688,0.00009125,-0.00012896,0.00015373,0.00014362
 ,0.00019618,-0.00075855,-0.00052639,0.00027582,0.00109405,0.00004586,0
 .00040548,-0.00037804,-0.12475142,0.01468662,0.26095712,-0.00021640,-0
 .00052165,-0.00000509,0.00109049,0.00044756,-0.00078698,-0.00614557,-0
 .00495737,-0.00465457,0.00012022,0.00024375,0.00010760,-0.13898154,-0.
 06675660,-0.10150554,-0.00004116,-0.00000907,0.00000020,-0.01712331,-0
 .01108995,-0.01934881,0.00001610,0.00004409,-0.00012719,0.00000146,-0.
 00004002,0.00003222,-0.00052356,0.00030690,0.00052798,0.00017360,0.000
 16735,-0.00006183,0.00010060,-0.00014221,0.00064414,0.00025856,0.00030
 089,-0.00007665,-0.00036879,-0.00034062,0.00008555,0.00011027,-0.00175
 266,0.00031294,0.01089214,0.00770922,0.01102435,0.15261142,0.00002405,
 0.00016770,0.00039888,-0.00068103,0.00149388,-0.00198272,-0.01949369,-
 0.01536722,-0.01728212,-0.00005367,0.00015728,0.00004689,-0.06829648,-
 0.09575140,-0.07643363,0.00000454,-0.00000178,0.00004378,0.01296560,0.
 00837270,0.01497335,0.00000936,-0.00000867,-0.00005796,0.00000783,-0.0
 0000995,0.00003819,-0.00020209,0.00014802,0.00009131,0.00018985,-0.000
 02654,-0.00012376,0.00075054,-0.00014014,0.00084610,0.00049302,0.00026
 561,-0.00025649,-0.00003421,-0.00105722,0.00006199,-0.00041156,-0.0048
 3305,0.00123621,-0.00118227,-0.00158696,-0.00188480,0.07357900,0.10867
 064,0.00038389,0.00020972,0.00022748,0.00131450,0.00082684,0.00055149,
 0.00707534,0.00540344,0.00654166,-0.00013128,0.00002988,-0.00004693,-0
 .10321520,-0.07653449,-0.16332962,0.00000289,-0.00003568,0.00004987,-0
 .00269587,-0.00116193,-0.00303588,-0.00000534,-0.00003053,0.00000050,-
 0.00000165,-0.00000463,-0.00000792,0.00022998,-0.00015522,-0.00019195,
 0.00000655,0.00011510,0.00002745,-0.00034323,-0.00019113,0.00049443,0.
 00010245,-0.00008615,0.00017189,-0.00030587,-0.00008535,0.00004950,0.0
 0136569,0.00215540,-0.00037000,-0.01697883,-0.01235363,-0.01945935,0.1
 1366410,0.07997977,0.17680451,0.00058605,0.00011389,-0.00110382,-0.000
 05486,0.00019567,-0.00012682,-0.00000885,-0.00013358,-0.00001701,0.006
 07847,0.02184814,-0.00236447,0.00002338,0.00000629,0.00006010,-0.06886
 009,-0.07303189,0.00866241,0.00000832,0.00000258,-0.00002607,-0.002036
 57,0.00303362,0.00277513,0.00089541,-0.00039475,-0.00086639,0.00007622
 ,-0.00047343,0.00007595,-0.00003509,-0.00014524,0.00007358,-0.00004085
 ,0.00001752,-0.00000405,-0.00004093,-0.00014655,0.00002766,-0.00000051
 ,0.00000909,-0.00002825,0.00000083,-0.00000182,-0.00000555,-0.00001137
 ,-0.00000161,-0.00000100,-0.00000950,-0.00000141,-0.00000351,0.0723833
 3,-0.00067224,0.00063480,0.00116547,0.00019802,0.00038472,-0.00015555,
 0.00004835,0.00005019,-0.00000117,-0.00543535,-0.02056013,0.00223213,-
 0.00001675,-0.00005662,-0.00003101,-0.07227492,-0.28687930,0.03096480,
 0.00002653,0.00002193,-0.00002578,0.00333112,-0.00100794,-0.00231701,0
 .00021203,0.00071188,0.00038051,0.00017031,0.00047778,-0.00098628,0.00
 005671,-0.00003722,-0.00006203,0.00002273,-0.00004107,0.00000639,-0.00
 013068,0.00024752,0.00018204,0.00000414,-0.00000307,-0.00001624,-0.000
 00114,0.00000299,-0.00000019,-0.00000037,0.00003149,-0.00001004,0.0000
 1660,0.00000010,0.00000623,0.07686307,0.31399827,-0.00094599,-0.001123
 72,0.00144496,0.00018581,-0.00012791,-0.00008639,-0.00000978,0.0000903
 7,-0.00000502,-0.00535085,-0.01665855,0.00110817,-0.00000201,-0.000017
 22,-0.00001408,0.00875596,0.03161734,-0.05160912,0.00003940,0.00000673
 ,-0.00003883,0.00229547,-0.00224214,-0.00134110,-0.00030287,0.00084270
 ,0.00044438,0.00035058,0.00040535,-0.00018201,-0.00005217,0.00002981,-
 0.00005060,-0.00002718,0.00000658,0.00000545,-0.00000175,0.00022905,-0
 .00006217,-0.00000640,0.00000433,0.00003619,0.00000409,-0.00000442,-0.
 00000092,-0.00000690,0.00001904,0.00001154,0.00002278,0.00000205,-0.00
 000762,-0.01193330,-0.03224435,0.05235956,-0.00270821,0.00319039,0.000
 94453,0.00068636,-0.00029129,0.00130434,-0.00035365,0.00034184,0.00009
 173,0.00007960,-0.00616591,0.02100472,0.00001258,0.00004294,-0.0000272
 5,-0.04715176,0.00070958,-0.00470564,-0.00001156,-0.00001027,0.0000149
 3,0.00069071,-0.00020216,-0.00072708,0.00040812,-0.00084342,-0.0003420
 5,-0.00005253,0.00015520,-0.00035459,0.00031909,0.00012288,0.00034793,
 -0.00000151,-0.00009979,-0.00006595,0.00001374,0.00005122,0.00000718,-
 0.00001638,-0.00000872,0.00018292,0.00001786,0.00000344,-0.00000993,0.
 00000354,-0.00001890,0.00001674,0.00001288,-0.00000821,-0.00001329,-0.
 00085949,-0.00165614,0.00979932,0.04823241,0.00286283,-0.00281885,-0.0
 0100043,0.00001156,0.00079454,-0.00122708,0.00032216,-0.00030773,-0.00
 009813,-0.00157671,0.00474109,-0.02188988,-0.00001322,-0.00005594,0.00
 003239,0.00051051,-0.05967822,0.05767832,0.00002515,0.00001697,-0.0000
 2076,-0.00087633,0.00059613,0.00031341,-0.00038010,0.00064875,0.000747
 74,0.00023759,0.00035552,-0.00023018,0.00001182,-0.00013850,0.00022232
 ,0.00005043,0.00000213,-0.00000500,-0.00010999,0.00001627,0.00006351,0
 .00000724,0.00000137,-0.00016640,-0.00001850,0.00000267,0.00001094,-0.
 00000343,0.00002140,-0.00000623,0.00000332,0.00000426,0.00001323,0.001
 58102,-0.00578129,0.03063403,-0.00278954,0.06191962,0.00296735,-0.0032
 8968,-0.00008642,-0.00048425,0.00077793,-0.00082722,0.00034046,-0.0003
 2503,-0.00002073,-0.00138490,0.00421162,-0.01419906,-0.00002061,-0.000
 04589,0.00001124,-0.00387768,0.05670469,-0.30454842,-0.00000612,0.0000
 1915,0.00002885,-0.00038820,-0.00036740,0.00036609,0.00036139,0.000202
 98,0.00056075,-0.00007018,0.00001089,0.00028868,-0.00001837,0.00001836
 ,0.00035682,0.00011854,-0.00001423,-0.00002071,-0.00001928,-0.00008609
 ,-0.00001027,0.00001220,0.00001102,-0.00019663,-0.00003317,0.00001552,
 0.00000381,0.00001080,0.00001736,-0.00003810,-0.00002248,0.00000190,0.
 00002237,-0.00017923,0.00075780,-0.00265832,0.00267848,-0.06084572,0.3
 3069186,0.00057827,-0.00059416,-0.00128144,0.00038890,0.00014140,0.000
 29183,0.00001521,0.00002993,0.00001685,-0.02020538,-0.00162209,-0.0064
 5821,-0.00001145,0.00001827,-0.00002314,-0.27988873,-0.02537731,-0.083
 53415,-0.00001791,-0.00000084,0.00004576,0.00087146,0.00018549,-0.0001
 3633,-0.00094332,0.00310682,0.00254891,-0.00007311,0.00003190,0.000062
 21,0.00027773,-0.00000780,0.00105497,0.00026057,-0.00011986,-0.0001624
 6,-0.00003551,-0.00001742,-0.00003901,-0.00000601,-0.00000005,0.000016
 84,0.00001044,0.00000961,0.00005671,0.00001217,-0.00001647,0.00001231,
 0.00001884,0.00000881,0.00000025,-0.00809393,-0.00074495,-0.00276157,0
 .00069191,0.00016065,-0.00001661,0.30615630,-0.00029116,0.00037398,0.0
 0105496,0.00001916,-0.00007523,0.00008698,-0.00009770,0.00001026,-0.00
 000640,0.02148481,0.00172230,0.00721689,-0.00001315,-0.00000322,-0.000
 02032,-0.02595886,-0.04974768,-0.00838903,-0.00000925,-0.00000247,0.00
 002708,-0.00040545,0.00067180,0.00088814,0.00291549,-0.00202964,-0.002
 68873,-0.00012801,-0.00002446,-0.00010880,-0.00040083,0.00020024,-0.00
 025532,-0.00014012,-0.00001514,0.00001538,0.00003840,-0.00004008,0.000
 01957,0.00000822,-0.00000489,0.00001653,-0.00000201,0.00000908,-0.0000
 3758,0.00000940,-0.00000425,0.00000028,0.00000651,-0.00000578,0.000007
 10,-0.02932502,-0.00218613,-0.01147367,0.00747810,-0.00033212,0.002238
 80,0.02481677,0.05147575,0.00099262,0.00042960,0.00173257,0.00017963,-
 0.00010378,-0.00003376,-0.00011238,0.00002911,-0.00001366,0.01701408,0
 .00226801,0.00507772,0.00000797,-0.00000075,0.00000485,-0.08424407,-0.
 00824261,-0.07722297,0.00001590,-0.00001479,-0.00003216,-0.00079606,0.
 00052449,0.00047242,0.00253234,-0.00219285,-0.00135295,-0.00004220,0.0
 0009479,-0.00004276,-0.00045222,-0.00022276,-0.00009363,-0.00017770,0.
 00000132,-0.00009403,-0.00000538,0.00003240,0.00002964,-0.00001277,0.0
 0000007,0.00004201,-0.00000236,-0.00000729,-0.00004268,-0.00000751,0.0
 0000283,0.00000795,0.00000447,-0.00000232,-0.00000274,0.00498276,0.000
 17557,0.00062635,-0.03015717,-0.00421336,-0.00969394,0.09030176,0.0114
 2243,0.08061020,0.00017571,0.00008753,0.00016990,0.00013541,0.00002532
 ,0.00005748,0.00037426,-0.00169928,0.00076607,-0.00002592,-0.00008308,
 0.00000173,-0.01800069,-0.01035993,-0.02044260,0.00000570,0.00001291,-
 0.00000273,-0.13115286,-0.06173293,-0.10722805,0.00000275,-0.00000856,
 0.00002876,0.00000924,-0.00000142,0.00001304,-0.00014967,-0.00008224,-
 0.00002781,0.00000866,0.00005130,-0.00006294,0.00008284,-0.00006539,0.
 00022104,0.00009261,0.00002275,-0.00007733,0.00012015,-0.00002116,0.00
 014338,0.00081799,0.00062101,0.00002875,0.00084654,-0.00070063,0.00048
 565,-0.00390595,0.00403473,-0.00034517,-0.00000859,-0.00000551,-0.0000
 0860,0.00000188,-0.00000761,-0.00000184,0.00000709,0.00000320,-0.00000
 110,0.14513513,0.00001054,-0.00002339,-0.00004545,0.00008998,-0.000108
 12,0.00028062,0.00092333,0.00215367,0.00048758,0.00000111,0.00000175,0
 .00001608,0.01207851,0.00654867,0.01495587,-0.00001310,-0.00001175,-0.
 00001201,-0.06298030,-0.09096533,-0.07799958,0.00000042,0.00000773,-0.
 00000729,-0.00000289,-0.00000256,-0.00001152,0.00007404,-0.00003569,0.
 00003111,-0.00005035,0.00000447,-0.00001235,-0.00017266,-0.00010139,-0
 .00004922,-0.00006608,-0.00001280,-0.00000249,-0.00000013,0.00021322,-
 0.00011217,-0.00054459,-0.00012090,-0.00013735,-0.00106365,0.00082485,
 -0.00017770,0.00357043,-0.00186855,0.00106521,0.00000359,0.00000673,0.
 00000857,0.00000380,0.00000424,-0.00000886,0.00000119,0.00000099,0.000
 00405,0.06496608,0.09687405,-0.00045502,-0.00045565,-0.00036409,0.0003
 5156,0.00002082,-0.00001735,-0.00030370,-0.00076753,-0.00007567,0.0000
 7980,0.00024709,0.00008539,-0.00241698,-0.00163802,-0.00332653,-0.0000
 3893,-0.00001621,-0.00000307,-0.10791613,-0.07726498,-0.18407359,0.000
 00277,0.00004767,-0.00010816,-0.00000575,-0.00001566,0.00000282,0.0001
 5082,0.00038392,0.00015428,0.00006270,-0.00003829,-0.00000987,0.000014
 69,-0.00003062,0.00015927,-0.00001060,0.00009244,-0.00001451,0.0002681
 7,0.00009313,0.00007596,0.00033471,0.00077419,-0.00017591,0.00009195,0
 .00046692,0.00079675,-0.00051422,0.00071387,0.00117161,0.00000714,0.00
 001666,0.00002393,0.00000898,0.00000875,-0.00001654,0.00001086,-0.0000
 0376,0.00000472,0.11960409,0.08486827,0.19672704,0.00051157,0.00072625
 ,0.00070358,-0.00024122,0.00044485,0.00000044,0.00085216,-0.00104072,-
 0.00020101,0.00004668,-0.00048606,-0.00017723,-0.01558239,0.00234512,0
 .02328778,0.00007080,0.00001286,-0.00002565,-0.12772518,0.01218396,0.1
 2279857,-0.00001425,-0.00008899,0.00019734,0.00002873,0.00001972,0.000
 06358,-0.00043067,-0.00033289,-0.00084107,0.00011363,-0.00008964,0.000
 10668,0.00001360,-0.00000333,0.00003952,0.00006084,-0.00010865,-0.0002
 0176,0.00015260,-0.00018822,-0.00003860,0.00027169,0.00026355,-0.00022
 402,-0.00397278,0.00351875,-0.00166976,0.00073892,-0.00085487,0.000043
 75,0.00000301,-0.00001228,-0.00003851,-0.00002168,-0.00000752,0.000028
 00,-0.00002254,-0.00000894,-0.00001026,0.01110801,-0.00093774,-0.01600
 173,0.13950849,0.00057218,-0.00024284,0.00056770,0.00011438,-0.0001469
 2,-0.00002068,-0.00024277,0.00121681,-0.00057836,-0.00018434,0.0000586
 0,0.00015103,0.01076669,-0.00231171,-0.01702212,-0.00000557,0.00008593
 ,0.00000336,0.01121915,-0.04948206,-0.01885885,0.00002327,0.00002684,-
 0.00006464,-0.00002807,0.00001600,-0.00012146,0.00021122,0.00020143,0.
 00037677,-0.00037865,-0.00045010,0.00044390,-0.00012460,0.00005976,0.0
 0000211,-0.00004389,0.00006233,-0.00000818,-0.00034156,0.00014339,-0.0
 0002926,-0.00042897,-0.00014358,-0.00015038,0.00380220,-0.00170129,0.0
 0095373,-0.00082824,0.00057884,0.00047550,-0.00002181,-0.00003314,-0.0
 0000357,0.00001093,-0.00002750,-0.00003364,-0.00000246,0.00000610,0.00
 002101,0.00821443,-0.00194635,-0.01134852,-0.01617702,0.05017571,-0.00
 016132,0.00073106,-0.00219204,-0.00005067,-0.00028992,0.00030625,0.000
 36326,-0.00022722,0.00059378,-0.00023911,0.00024780,-0.00003675,-0.003
 70149,0.00044226,0.00627496,0.00002802,0.00000704,0.00004990,0.1244010
 7,-0.01990303,-0.23398001,-0.00000225,0.00003746,-0.00001894,-0.000022
 58,0.00002259,-0.00004766,-0.00060283,0.00103237,-0.00155655,-0.000220
 83,-0.00009562,-0.00014544,0.00001010,-0.00001806,-0.00004804,0.000022
 22,-0.00001312,0.00004176,-0.00007928,-0.00012321,0.00003782,0.0000777
 5,-0.00033395,-0.00003048,-0.00173897,0.00109357,0.00122416,0.00051163
 ,-0.00046823,0.00043972,-0.00000135,-0.00001903,-0.00000718,-0.0000059
 1,-0.00000726,0.00000822,-0.00000347,-0.00000575,0.00000414,0.01266130
 ,-0.00090604,-0.01884777,-0.13473972,0.01962850,0.25505800,-0.00029952
 ,-0.00002345,0.00011669,0.00015307,0.00050488,0.00025731,-0.00489425,0
 .00211740,-0.00022685,0.00016639,-0.00009228,-0.00005807,0.00865165,0.
 02633681,-0.00891131,-0.00000932,-0.00001284,-0.00002500,-0.06797525,-
 0.06948693,0.02255443,-0.00001483,-0.00001843,0.00003959,0.00001318,-0
 .00000602,0.00006160,-0.00007178,-0.00015744,-0.00003897,0.00021487,0.
 00011640,-0.00001102,0.00000735,-0.00002503,0.00001573,0.00004724,-0.0
 0002774,-0.00025315,0.00027384,0.00138147,-0.00041586,0.00018186,0.000
 08231,0.00014696,0.00108453,-0.00068638,0.00050813,0.00117026,-0.00084
 785,-0.00015015,0.00000559,0.00000071,-0.00000553,0.00000610,-0.000001
 33,0.00000571,0.00000901,0.00000046,-0.00001034,-0.00568027,-0.0158915
 4,0.00667480,-0.00547001,-0.01612651,0.00349444,0.07243030,0.00008886,
 0.00001510,0.00001427,0.00010706,-0.00036671,-0.00027913,0.00360783,-0
 .00089184,-0.00026505,-0.00006439,0.00006039,-0.00005383,-0.00641993,-
 0.01552250,0.00486514,0.00001318,-0.00003776,0.00003964,-0.06807440,-0
 .27109782,0.07224626,0.00000413,0.00000111,-0.00000288,0.00000565,-0.0
 0000516,-0.00000058,-0.00002026,-0.00003366,0.00005998,-0.00002541,0.0
 0000705,-0.00002222,0.00003798,0.00000532,0.00010663,-0.00002890,-0.00
 002119,0.00018736,0.00003264,-0.00094416,0.00065741,0.00042344,0.00052
 055,0.00002416,-0.00012311,0.00023423,-0.00062623,0.00004278,0.0007982
 2,0.00035132,0.00000261,0.00001752,-0.00000042,-0.00001596,0.00001519,
 0.00002850,-0.00000741,0.00000061,-0.00000517,-0.00327152,-0.01144356,
 0.00384550,0.00082180,0.00385375,-0.00083220,0.07286333,0.29483534,0.0
 0013292,0.00002807,-0.00041705,0.00029147,-0.00033490,0.00008590,-0.00
 145868,0.00015543,0.00144078,-0.00014147,0.00009275,0.00010264,0.00146
 358,0.00426498,-0.00263581,-0.00000621,0.00005436,-0.00000040,0.022466
 94,0.07250297,-0.07124849,0.00000667,0.00002681,-0.00004819,-0.0000227
 1,0.00001590,-0.00007775,0.00018284,0.00019570,-0.00003663,-0.00022439
 ,-0.00019626,-0.00000399,-0.00005845,0.00001809,0.00005291,0.00001745,
 0.00003287,0.00000435,0.00011159,0.00042847,-0.00018924,0.00018685,0.0
 0002018,-0.00001599,-0.00026200,-0.00036750,0.00022322,0.00016541,0.00
 005776,-0.00010047,-0.00000391,-0.00001894,0.00000282,0.00000704,-0.00
 001420,-0.00002235,-0.00000289,-0.00000478,0.00001270,-0.00598300,-0.0
 2223533,0.00783130,0.00690008,0.02561606,-0.00712784,-0.02376912,-0.08
 033847,0.07216759\\0.00000001,0.00000021,-0.00000006,0.00000002,0.0000
 0008,0.00000033,0.00000011,-0.00000025,0.00000039,-0.00000012,0.000000
 34,-0.00000009,0.00000016,-0.00000046,-0.00000024,-0.00000033,0.000000
 59,-0.00000029,0.00000014,-0.00000039,0.,-0.00000018,0.00000039,0.0000
 0024,-0.00000016,0.00000047,0.00000016,-0.00000006,-0.00000013,-0.0000
 0016,-0.00000003,0.00000002,-0.00000004,0.,0.00000007,0.00000031,0.,0.
 00000003,0.00000041,0.00000019,-0.00000031,0.00000039,0.00000021,-0.00
 000035,0.00000021,0.00000019,-0.00000048,0.00000009,0.00000008,-0.0000
 0022,0.00000001,-0.00000024,0.00000054,-0.00000033,-0.00000032,0.00000
 066,0.00000007,-0.00000022,0.00000043,-0.00000023,0.00000023,-0.000000
 57,-0.00000020,0.00000010,-0.00000027,-0.00000053,0.00000021,-0.000000
 39,-0.00000042\\\@


 TRUTH, IN SCIENCE, CAN BE DEFINED AS THE WORKING HYPOTHESIS 
 BEST FITTED TO OPEN THE WAY TO THE NEXT BETTER ONE.

                              -- KONRAD LORENZ
 Job cpu time:       0 days  5 hours 17 minutes  9.6 seconds.
 Elapsed time:       0 days  2 hours 38 minutes 36.6 seconds.
 File lengths (MBytes):  RWF=   1488 Int=      0 D2E=      0 Chk=     32 Scr=     32
 Normal termination of Gaussian 16 at Mon Sep 30 02:13:53 2019.
