 Entering Gaussian System, Link 0=g16
 Input=verytight/species/CCCCCCC/conformers/CCCCCCC_343.com
 Output=verytight/species/CCCCCCC/conformers/CCCCCCC_343.log
 Initial command:
 /shared/centos7/gaussian/g16/l1.exe "/scratch/harms.n/gauss_scrdir/Gau-10699.inp" -scrdir="/scratch/harms.n/gauss_scrdir/"
 Entering Link 1 = /shared/centos7/gaussian/g16/l1.exe PID=     10700.
  
 Copyright (c) 1988,1990,1992,1993,1995,1998,2003,2009,2016,
            Gaussian, Inc.  All Rights Reserved.
  
 This is part of the Gaussian(R) 16 program.  It is based on
 the Gaussian(R) 09 system (copyright 2009, Gaussian, Inc.),
 the Gaussian(R) 03 system (copyright 2003, Gaussian, Inc.),
 the Gaussian(R) 98 system (copyright 1998, Gaussian, Inc.),
 the Gaussian(R) 94 system (copyright 1995, Gaussian, Inc.),
 the Gaussian 92(TM) system (copyright 1992, Gaussian, Inc.),
 the Gaussian 90(TM) system (copyright 1990, Gaussian, Inc.),
 the Gaussian 88(TM) system (copyright 1988, Gaussian, Inc.),
 the Gaussian 86(TM) system (copyright 1986, Carnegie Mellon
 University), and the Gaussian 82(TM) system (copyright 1983,
 Carnegie Mellon University). Gaussian is a federally registered
 trademark of Gaussian, Inc.
  
 This software contains proprietary and confidential information,
 including trade secrets, belonging to Gaussian, Inc.
  
 This software is provided under written license and may be
 used, copied, transmitted, or stored only in accord with that
 written license.
  
 The following legend is applicable only to US Government
 contracts under FAR:
  
                    RESTRICTED RIGHTS LEGEND
  
 Use, reproduction and disclosure by the US Government is
 subject to restrictions as set forth in subparagraphs (a)
 and (c) of the Commercial Computer Software - Restricted
 Rights clause in FAR 52.227-19.
  
 Gaussian, Inc.
 340 Quinnipiac St., Bldg. 40, Wallingford CT 06492
  
  
 ---------------------------------------------------------------
 Warning -- This program may not be used in any manner that
 competes with the business of Gaussian, Inc. or will provide
 assistance to any competitor of Gaussian, Inc.  The licensee
 of this program is prohibited from giving any competitor of
 Gaussian, Inc. access to this program.  By using this program,
 the user acknowledges that Gaussian, Inc. is engaged in the
 business of creating and licensing software in the field of
 computational chemistry and represents and warrants to the
 licensee that it is not a competitor of Gaussian, Inc. and that
 it will not use this program in any manner prohibited above.
 ---------------------------------------------------------------
  

 Cite this work as:
 Gaussian 16, Revision A.03,
 M. J. Frisch, G. W. Trucks, H. B. Schlegel, G. E. Scuseria, 
 M. A. Robb, J. R. Cheeseman, G. Scalmani, V. Barone, 
 G. A. Petersson, H. Nakatsuji, X. Li, M. Caricato, A. V. Marenich, 
 J. Bloino, B. G. Janesko, R. Gomperts, B. Mennucci, H. P. Hratchian, 
 J. V. Ortiz, A. F. Izmaylov, J. L. Sonnenberg, D. Williams-Young, 
 F. Ding, F. Lipparini, F. Egidi, J. Goings, B. Peng, A. Petrone, 
 T. Henderson, D. Ranasinghe, V. G. Zakrzewski, J. Gao, N. Rega, 
 G. Zheng, W. Liang, M. Hada, M. Ehara, K. Toyota, R. Fukuda, 
 J. Hasegawa, M. Ishida, T. Nakajima, Y. Honda, O. Kitao, H. Nakai, 
 T. Vreven, K. Throssell, J. A. Montgomery, Jr., J. E. Peralta, 
 F. Ogliaro, M. J. Bearpark, J. J. Heyd, E. N. Brothers, K. N. Kudin, 
 V. N. Staroverov, T. A. Keith, R. Kobayashi, J. Normand, 
 K. Raghavachari, A. P. Rendell, J. C. Burant, S. S. Iyengar, 
 J. Tomasi, M. Cossi, J. M. Millam, M. Klene, C. Adamo, R. Cammi, 
 J. W. Ochterski, R. L. Martin, K. Morokuma, O. Farkas, 
 J. B. Foresman, and D. J. Fox, Gaussian, Inc., Wallingford CT, 2016.
 
 ******************************************
 Gaussian 16:  EM64L-G16RevA.03 25-Dec-2016
                29-Sep-2019 
 ******************************************
 %nprocshared=20
 Will use up to   20 processors via shared memory.
 %mem=5GB
 ----------------------------------------------------------------------
 #p m062x/cc-pVTZ opt=(calcfc,maxcycles=900,Tight) freq IOP(7/33=1,2/16
 =3) scf=(maxcycle=900)
 ----------------------------------------------------------------------
 1/6=900,7=10,10=4,18=20,19=15,26=3,38=1/1,3;
 2/9=110,12=2,16=3,17=6,18=5,40=1/2;
 3/5=16,6=1,11=2,25=1,30=1,71=2,74=-55,140=1/1,2,3;
 4//1;
 5/5=2,7=900,38=5/2;
 8/6=4,10=90,11=11/1;
 11/6=1,8=1,9=11,15=111,16=1/1,2,10;
 10/6=1,13=1/2;
 6/7=2,8=2,9=2,10=2,28=1/1;
 7/10=1,18=20,25=1,33=1/1,2,3,16;
 1/6=900,7=10,10=4,18=20,19=15,26=3/3(2);
 2/9=110,16=3/2;
 99//99;
 2/9=110,16=3/2;
 3/5=16,6=1,11=2,25=1,30=1,71=1,74=-55/1,2,3;
 4/5=5,16=3,69=1/1;
 5/5=2,7=900,38=5/2;
 7/33=1/1,2,3,16;
 1/6=900,7=10,18=20,19=15,26=3/3(-5);
 2/9=110,16=3/2;
 6/7=2,8=2,9=2,10=2,19=2,28=1/1;
 99/9=1/99;
 Leave Link    1 at Sun Sep 29 12:42:24 2019, MaxMem=   671088640 cpu:               4.6 elap:               2.3
 (Enter /shared/centos7/gaussian/g16/l101.exe)
 ------------------------------
 Gaussian input prepared by ASE
 ------------------------------
 Symbolic Z-matrix:
 Charge =  0 Multiplicity = 1
 C                     1.52786  -0.59852   0.85499 
 C                     0.10963  -0.34186   1.23541 
 C                    -0.83833  -1.36663   0.66427 
 C                     1.74976  -0.59958  -0.62006 
 C                    -1.02389  -2.61224   1.49838 
 C                     1.64526   0.72196  -1.26209 
 C                     0.22292  -3.12058   2.17438 
 H                     0.9914   -1.29285  -1.08202 
 H                     2.74944  -1.04235  -0.84443 
 H                     1.83102  -1.58853   1.25694 
 H                     2.18401   0.15219   1.34134 
 H                    -0.18655   0.65692   0.87849 
 H                     0.02163  -0.31267   2.34206 
 H                    -0.46651  -1.65111  -0.3347 
 H                    -1.83299  -0.90237   0.50224 
 H                    -1.79825  -2.41597   2.28539 
 H                    -1.44165  -3.40613   0.85614 
 H                     0.6568    1.18435  -1.08038 
 H                     2.43086   1.43349  -0.86958 
 H                     1.78686   0.64156  -2.36072 
 H                     0.4414   -2.54429   3.07424 
 H                     1.11841  -3.04343   1.49763 
 H                     0.10097  -4.20098   2.47395 
 
 ITRead=  0  0  0  0  0  0  0  0  0  0  0  0  0  0  0  0  0  0  0  0
 ITRead=  0  0  0
 MicOpt= -1 -1 -1 -1 -1 -1 -1 -1 -1 -1 -1 -1 -1 -1 -1 -1 -1 -1 -1 -1
 MicOpt= -1 -1 -1
 NAtoms=     23 NQM=       23 NQMF=       0 NMMI=      0 NMMIF=      0
                NMic=       0 NMicF=      0.
                    Isotopes and Nuclear Properties:
 (Nuclear quadrupole moments (NQMom) in fm**2, nuclear magnetic moments (NMagM)
  in nuclear magnetons)

  Atom         1           2           3           4           5           6           7           8           9          10
 IAtWgt=          12          12          12          12          12          12          12           1           1           1
 AtmWgt=  12.0000000  12.0000000  12.0000000  12.0000000  12.0000000  12.0000000  12.0000000   1.0078250   1.0078250   1.0078250
 NucSpn=           0           0           0           0           0           0           0           1           1           1
 AtZEff=  -0.0000000  -0.0000000  -0.0000000  -0.0000000  -0.0000000  -0.0000000  -0.0000000  -0.0000000  -0.0000000  -0.0000000
 NQMom=    0.0000000   0.0000000   0.0000000   0.0000000   0.0000000   0.0000000   0.0000000   0.0000000   0.0000000   0.0000000
 NMagM=    0.0000000   0.0000000   0.0000000   0.0000000   0.0000000   0.0000000   0.0000000   2.7928460   2.7928460   2.7928460
 AtZNuc=   6.0000000   6.0000000   6.0000000   6.0000000   6.0000000   6.0000000   6.0000000   1.0000000   1.0000000   1.0000000

  Atom        11          12          13          14          15          16          17          18          19          20
 IAtWgt=           1           1           1           1           1           1           1           1           1           1
 AtmWgt=   1.0078250   1.0078250   1.0078250   1.0078250   1.0078250   1.0078250   1.0078250   1.0078250   1.0078250   1.0078250
 NucSpn=           1           1           1           1           1           1           1           1           1           1
 AtZEff=  -0.0000000  -0.0000000  -0.0000000  -0.0000000  -0.0000000  -0.0000000  -0.0000000  -0.0000000  -0.0000000  -0.0000000
 NQMom=    0.0000000   0.0000000   0.0000000   0.0000000   0.0000000   0.0000000   0.0000000   0.0000000   0.0000000   0.0000000
 NMagM=    2.7928460   2.7928460   2.7928460   2.7928460   2.7928460   2.7928460   2.7928460   2.7928460   2.7928460   2.7928460
 AtZNuc=   1.0000000   1.0000000   1.0000000   1.0000000   1.0000000   1.0000000   1.0000000   1.0000000   1.0000000   1.0000000

  Atom        21          22          23
 IAtWgt=           1           1           1
 AtmWgt=   1.0078250   1.0078250   1.0078250
 NucSpn=           1           1           1
 AtZEff=  -0.0000000  -0.0000000  -0.0000000
 NQMom=    0.0000000   0.0000000   0.0000000
 NMagM=    2.7928460   2.7928460   2.7928460
 AtZNuc=   1.0000000   1.0000000   1.0000000
 Leave Link  101 at Sun Sep 29 12:42:25 2019, MaxMem=   671088640 cpu:               2.3 elap:               1.2
 (Enter /shared/centos7/gaussian/g16/l103.exe)

 GradGradGradGradGradGradGradGradGradGradGradGradGradGradGradGradGradGrad
 Berny optimization.
 Initialization pass.
                           ----------------------------
                           !    Initial Parameters    !
                           ! (Angstroms and Degrees)  !
 --------------------------                            --------------------------
 ! Name  Definition              Value          Derivative Info.                !
 --------------------------------------------------------------------------------
 ! R1    R(1,2)                  1.4906         calculate D2E/DX2 analytically  !
 ! R2    R(1,4)                  1.4917         calculate D2E/DX2 analytically  !
 ! R3    R(1,10)                 1.1107         calculate D2E/DX2 analytically  !
 ! R4    R(1,11)                 1.1093         calculate D2E/DX2 analytically  !
 ! R5    R(2,3)                  1.5083         calculate D2E/DX2 analytically  !
 ! R6    R(2,12)                 1.1012         calculate D2E/DX2 analytically  !
 ! R7    R(2,13)                 1.1105         calculate D2E/DX2 analytically  !
 ! R8    R(3,5)                  1.5105         calculate D2E/DX2 analytically  !
 ! R9    R(3,14)                 1.1032         calculate D2E/DX2 analytically  !
 ! R10   R(3,15)                 1.1096         calculate D2E/DX2 analytically  !
 ! R11   R(4,6)                  1.473          calculate D2E/DX2 analytically  !
 ! R12   R(4,8)                  1.1266         calculate D2E/DX2 analytically  !
 ! R13   R(4,9)                  1.1161         calculate D2E/DX2 analytically  !
 ! R14   R(5,7)                  1.5066         calculate D2E/DX2 analytically  !
 ! R15   R(5,16)                 1.1214         calculate D2E/DX2 analytically  !
 ! R16   R(5,17)                 1.1033         calculate D2E/DX2 analytically  !
 ! R17   R(6,18)                 1.1063         calculate D2E/DX2 analytically  !
 ! R18   R(6,19)                 1.1303         calculate D2E/DX2 analytically  !
 ! R19   R(6,20)                 1.1106         calculate D2E/DX2 analytically  !
 ! R20   R(7,21)                 1.0907         calculate D2E/DX2 analytically  !
 ! R21   R(7,22)                 1.1251         calculate D2E/DX2 analytically  !
 ! R22   R(7,23)                 1.1278         calculate D2E/DX2 analytically  !
 ! A1    A(2,1,4)              113.2051         calculate D2E/DX2 analytically  !
 ! A2    A(2,1,10)             108.7123         calculate D2E/DX2 analytically  !
 ! A3    A(2,1,11)             109.5327         calculate D2E/DX2 analytically  !
 ! A4    A(4,1,10)             108.4594         calculate D2E/DX2 analytically  !
 ! A5    A(4,1,11)             110.244          calculate D2E/DX2 analytically  !
 ! A6    A(10,1,11)            106.4456         calculate D2E/DX2 analytically  !
 ! A7    A(1,2,3)              112.603          calculate D2E/DX2 analytically  !
 ! A8    A(1,2,12)             109.2288         calculate D2E/DX2 analytically  !
 ! A9    A(1,2,13)             109.5263         calculate D2E/DX2 analytically  !
 ! A10   A(3,2,12)             108.9323         calculate D2E/DX2 analytically  !
 ! A11   A(3,2,13)             110.2062         calculate D2E/DX2 analytically  !
 ! A12   A(12,2,13)            106.1308         calculate D2E/DX2 analytically  !
 ! A13   A(2,3,5)              115.3642         calculate D2E/DX2 analytically  !
 ! A14   A(2,3,14)             107.8336         calculate D2E/DX2 analytically  !
 ! A15   A(2,3,15)             109.5373         calculate D2E/DX2 analytically  !
 ! A16   A(5,3,14)             109.1949         calculate D2E/DX2 analytically  !
 ! A17   A(5,3,15)             108.3936         calculate D2E/DX2 analytically  !
 ! A18   A(14,3,15)            106.1281         calculate D2E/DX2 analytically  !
 ! A19   A(1,4,6)              114.8248         calculate D2E/DX2 analytically  !
 ! A20   A(1,4,8)              107.806          calculate D2E/DX2 analytically  !
 ! A21   A(1,4,9)              109.4087         calculate D2E/DX2 analytically  !
 ! A22   A(6,4,8)              109.0037         calculate D2E/DX2 analytically  !
 ! A23   A(6,4,9)              109.3806         calculate D2E/DX2 analytically  !
 ! A24   A(8,4,9)              106.044          calculate D2E/DX2 analytically  !
 ! A25   A(3,5,7)              115.1079         calculate D2E/DX2 analytically  !
 ! A26   A(3,5,16)             109.1505         calculate D2E/DX2 analytically  !
 ! A27   A(3,5,17)             108.5684         calculate D2E/DX2 analytically  !
 ! A28   A(7,5,16)             108.3974         calculate D2E/DX2 analytically  !
 ! A29   A(7,5,17)             109.375          calculate D2E/DX2 analytically  !
 ! A30   A(16,5,17)            105.8433         calculate D2E/DX2 analytically  !
 ! A31   A(4,6,18)             111.5182         calculate D2E/DX2 analytically  !
 ! A32   A(4,6,19)             111.3539         calculate D2E/DX2 analytically  !
 ! A33   A(4,6,20)             110.9272         calculate D2E/DX2 analytically  !
 ! A34   A(18,6,19)            107.5093         calculate D2E/DX2 analytically  !
 ! A35   A(18,6,20)            107.8573         calculate D2E/DX2 analytically  !
 ! A36   A(19,6,20)            107.4863         calculate D2E/DX2 analytically  !
 ! A37   A(5,7,21)             110.9581         calculate D2E/DX2 analytically  !
 ! A38   A(5,7,22)             111.4471         calculate D2E/DX2 analytically  !
 ! A39   A(5,7,23)             110.6666         calculate D2E/DX2 analytically  !
 ! A40   A(21,7,22)            107.4934         calculate D2E/DX2 analytically  !
 ! A41   A(21,7,23)            107.9802         calculate D2E/DX2 analytically  !
 ! A42   A(22,7,23)            108.1512         calculate D2E/DX2 analytically  !
 ! D1    D(4,1,2,3)             59.3251         calculate D2E/DX2 analytically  !
 ! D2    D(4,1,2,12)           -61.8344         calculate D2E/DX2 analytically  !
 ! D3    D(4,1,2,13)          -177.677          calculate D2E/DX2 analytically  !
 ! D4    D(10,1,2,3)           -61.2682         calculate D2E/DX2 analytically  !
 ! D5    D(10,1,2,12)          177.5723         calculate D2E/DX2 analytically  !
 ! D6    D(10,1,2,13)           61.7297         calculate D2E/DX2 analytically  !
 ! D7    D(11,1,2,3)          -177.2013         calculate D2E/DX2 analytically  !
 ! D8    D(11,1,2,12)           61.6391         calculate D2E/DX2 analytically  !
 ! D9    D(11,1,2,13)          -54.2034         calculate D2E/DX2 analytically  !
 ! D10   D(2,1,4,6)             70.6661         calculate D2E/DX2 analytically  !
 ! D11   D(2,1,4,8)            -51.0296         calculate D2E/DX2 analytically  !
 ! D12   D(2,1,4,9)           -165.923          calculate D2E/DX2 analytically  !
 ! D13   D(10,1,4,6)          -168.5972         calculate D2E/DX2 analytically  !
 ! D14   D(10,1,4,8)            69.7071         calculate D2E/DX2 analytically  !
 ! D15   D(10,1,4,9)           -45.1863         calculate D2E/DX2 analytically  !
 ! D16   D(11,1,4,6)           -52.4154         calculate D2E/DX2 analytically  !
 ! D17   D(11,1,4,8)          -174.1112         calculate D2E/DX2 analytically  !
 ! D18   D(11,1,4,9)            70.9955         calculate D2E/DX2 analytically  !
 ! D19   D(1,2,3,5)             86.645          calculate D2E/DX2 analytically  !
 ! D20   D(1,2,3,14)           -35.6811         calculate D2E/DX2 analytically  !
 ! D21   D(1,2,3,15)          -150.7554         calculate D2E/DX2 analytically  !
 ! D22   D(12,2,3,5)          -152.0264         calculate D2E/DX2 analytically  !
 ! D23   D(12,2,3,14)           85.6475         calculate D2E/DX2 analytically  !
 ! D24   D(12,2,3,15)          -29.4268         calculate D2E/DX2 analytically  !
 ! D25   D(13,2,3,5)           -35.9718         calculate D2E/DX2 analytically  !
 ! D26   D(13,2,3,14)         -158.2979         calculate D2E/DX2 analytically  !
 ! D27   D(13,2,3,15)           86.6278         calculate D2E/DX2 analytically  !
 ! D28   D(2,3,5,7)            -38.2527         calculate D2E/DX2 analytically  !
 ! D29   D(2,3,5,16)            83.8668         calculate D2E/DX2 analytically  !
 ! D30   D(2,3,5,17)          -161.2022         calculate D2E/DX2 analytically  !
 ! D31   D(14,3,5,7)            83.3428         calculate D2E/DX2 analytically  !
 ! D32   D(14,3,5,16)         -154.5377         calculate D2E/DX2 analytically  !
 ! D33   D(14,3,5,17)          -39.6068         calculate D2E/DX2 analytically  !
 ! D34   D(15,3,5,7)          -161.4597         calculate D2E/DX2 analytically  !
 ! D35   D(15,3,5,16)          -39.3402         calculate D2E/DX2 analytically  !
 ! D36   D(15,3,5,17)           75.5908         calculate D2E/DX2 analytically  !
 ! D37   D(1,4,6,18)           -57.8236         calculate D2E/DX2 analytically  !
 ! D38   D(1,4,6,19)            62.2684         calculate D2E/DX2 analytically  !
 ! D39   D(1,4,6,20)          -178.0671         calculate D2E/DX2 analytically  !
 ! D40   D(8,4,6,18)            63.2183         calculate D2E/DX2 analytically  !
 ! D41   D(8,4,6,19)          -176.6897         calculate D2E/DX2 analytically  !
 ! D42   D(8,4,6,20)           -57.0251         calculate D2E/DX2 analytically  !
 ! D43   D(9,4,6,18)           178.7504         calculate D2E/DX2 analytically  !
 ! D44   D(9,4,6,19)           -61.1576         calculate D2E/DX2 analytically  !
 ! D45   D(9,4,6,20)            58.507          calculate D2E/DX2 analytically  !
 ! D46   D(3,5,7,21)            79.3345         calculate D2E/DX2 analytically  !
 ! D47   D(3,5,7,22)           -40.4216         calculate D2E/DX2 analytically  !
 ! D48   D(3,5,7,23)          -160.813          calculate D2E/DX2 analytically  !
 ! D49   D(16,5,7,21)          -43.1896         calculate D2E/DX2 analytically  !
 ! D50   D(16,5,7,22)         -162.9457         calculate D2E/DX2 analytically  !
 ! D51   D(16,5,7,23)           76.6629         calculate D2E/DX2 analytically  !
 ! D52   D(17,5,7,21)         -158.1473         calculate D2E/DX2 analytically  !
 ! D53   D(17,5,7,22)           82.0966         calculate D2E/DX2 analytically  !
 ! D54   D(17,5,7,23)          -38.2948         calculate D2E/DX2 analytically  !
 --------------------------------------------------------------------------------
 Trust Radius=3.00D-01 FncErr=1.00D-07 GrdErr=1.00D-06 EigMax=2.50D+02 EigMin=1.00D-04
 Number of steps in this run=    138 maximum allowed number of steps=    138.
 GradGradGradGradGradGradGradGradGradGradGradGradGradGradGradGradGradGrad

 Leave Link  103 at Sun Sep 29 12:42:26 2019, MaxMem=   671088640 cpu:               1.5 elap:               0.9
 (Enter /shared/centos7/gaussian/g16/l202.exe)
                          Input orientation:                          
 ---------------------------------------------------------------------
 Center     Atomic      Atomic             Coordinates (Angstroms)
 Number     Number       Type             X           Y           Z
 ---------------------------------------------------------------------
      1          6           0        1.527859   -0.598525    0.854995
      2          6           0        0.109631   -0.341862    1.235413
      3          6           0       -0.838326   -1.366634    0.664273
      4          6           0        1.749756   -0.599581   -0.620060
      5          6           0       -1.023895   -2.612236    1.498384
      6          6           0        1.645258    0.721956   -1.262095
      7          6           0        0.222917   -3.120577    2.174383
      8          1           0        0.991396   -1.292849   -1.082018
      9          1           0        2.749439   -1.042352   -0.844428
     10          1           0        1.831017   -1.588531    1.256938
     11          1           0        2.184011    0.152194    1.341337
     12          1           0       -0.186547    0.656920    0.878485
     13          1           0        0.021628   -0.312667    2.342056
     14          1           0       -0.466506   -1.651112   -0.334700
     15          1           0       -1.832987   -0.902371    0.502240
     16          1           0       -1.798246   -2.415974    2.285392
     17          1           0       -1.441651   -3.406128    0.856141
     18          1           0        0.656799    1.184352   -1.080384
     19          1           0        2.430864    1.433494   -0.869575
     20          1           0        1.786856    0.641559   -2.360720
     21          1           0        0.441403   -2.544293    3.074238
     22          1           0        1.118410   -3.043425    1.497627
     23          1           0        0.100974   -4.200982    2.473947
 ---------------------------------------------------------------------
                    Distance matrix (angstroms):
                    1          2          3          4          5
     1  C    0.000000
     2  C    1.490625   0.000000
     3  C    2.495034   1.508304   0.000000
     4  C    1.491652   2.489821   2.989322   0.000000
     5  C    3.313673   2.551203   1.510531   4.028861   0.000000
     6  C    2.497903   3.118879   3.773763   1.472952   5.085416
     7  C    3.131198   2.935260   2.546171   4.061474   1.506627
     8  H    2.126475   2.655630   2.530387   1.126559   3.529965
     9  H    2.139458   3.432931   3.905559   1.116134   4.710770
    10  H    1.110665   2.125516   2.743334   2.123146   3.042498
    11  H    1.109344   2.135033   3.449605   2.144952   4.237617
    12  H    2.125060   1.101220   2.136697   2.752036   3.431153
    13  H    2.135836   1.110520   2.159937   3.441348   2.663254
    14  H    2.549667   2.123988   1.103233   2.469608   2.143511
    15  H    3.392940   2.150693   1.109570   3.766601   2.137890
    16  H    4.051189   3.007390   2.156523   4.932469   1.121392
    17  H    4.086640   3.455438   2.135498   4.498995   1.103295
    18  H    2.771838   2.826949   3.433185   2.142164   4.887623
    19  H    2.814012   3.601526   4.569575   2.158602   5.823275
    20  H    3.456257   4.088078   4.480514   2.138154   5.777559
    21  H    3.145066   2.888261   2.971956   4.375103   2.152912
    22  H    2.560891   2.895658   2.708307   3.294779   2.185268
    23  H    4.199369   4.053005   3.491523   5.026077   2.177422
                    6          7          8          9         10
     6  C    0.000000
     7  C    5.347662   0.000000
     8  H    2.125889   3.812518   0.000000
     9  H    2.122839   4.451466   1.791623   0.000000
    10  H    3.423212   2.403093   2.502620   2.357445   0.000000
    11  H    2.718959   3.905238   3.063189   2.554255   1.778160
    12  H    2.818123   4.014536   3.005449   3.804730   3.042342
    13  H    4.086138   2.820105   3.691272   4.257590   2.465604
    14  H    3.309238   2.988332   1.676995   3.312509   2.795682
    15  H    4.224867   3.455900   3.261822   4.778257   3.803329
    16  H    5.855680   2.143336   4.514749   5.688941   3.861856
    17  H    5.572881   2.142449   3.760602   5.103392   3.764924
    18  H    1.106291   5.414257   2.499696   3.064805   3.811922
    19  H    1.130281   5.905953   3.090332   2.496386   3.743597
    20  H    1.110627   6.096453   2.451484   2.461965   4.250024
    21  H    5.560704   1.090678   4.375279   4.789446   2.479332
    22  H    4.698056   1.125104   3.120131   3.485652   1.637821
    23  H    6.370097   1.127778   4.679207   5.291779   3.361407
                   11         12         13         14         15
    11  H    0.000000
    12  H    2.467494   0.000000
    13  H    2.427640   1.767902   0.000000
    14  H    3.617492   2.622443   3.032282   0.000000
    15  H    4.237035   2.298633   2.678110   1.768714   0.000000
    16  H    4.831677   3.744282   2.781916   3.037010   2.339195
    17  H    5.103185   4.252546   3.730769   2.334329   2.558748
    18  H    3.043429   2.196949   3.789143   3.139700   3.613606
    19  H    2.567255   3.241855   4.378136   4.265635   5.051591
    20  H    3.755321   3.793021   5.112992   3.799834   4.866572
    21  H    3.648379   3.932355   2.385887   3.639084   3.805776
    22  H    3.372227   3.972255   3.061541   2.794265   3.779637
    23  H    4.957014   5.121268   3.891361   3.835671   4.302170
                   16         17         18         19         20
    16  H    0.000000
    17  H    1.774915   0.000000
    18  H    5.506183   5.406120   0.000000
    19  H    6.531279   6.434005   1.803835   0.000000
    20  H    6.617237   6.095509   1.791902   1.807048   0.000000
    21  H    2.377977   3.034569   5.586598   5.944275   6.441946
    22  H    3.085637   2.664014   4.973261   5.231538   5.377060
    23  H    2.613205   2.372505   6.476422   6.953766   7.047440
                   21         22         23
    21  H    0.000000
    22  H    1.786946   0.000000
    23  H    1.794676   1.824367   0.000000
 Stoichiometry    C7H16
 Framework group  C1[X(C7H16)]
 Deg. of freedom    63
 Full point group                 C1      NOp   1
 Largest Abelian subgroup         C1      NOp   1
 Largest concise Abelian subgroup C1      NOp   1
                         Standard orientation:                         
 ---------------------------------------------------------------------
 Center     Atomic      Atomic             Coordinates (Angstroms)
 Number     Number       Type             X           Y           Z
 ---------------------------------------------------------------------
      1          6           0        0.724952   -0.750965    0.549915
      2          6           0       -0.009825    0.483136    0.948740
      3          6           0       -0.809780    1.073594   -0.185461
      4          6           0        1.685337   -0.527370   -0.569322
      5          6           0       -2.201413    0.511756   -0.356922
      6          6           0        2.875932    0.263653   -0.213860
      7          6           0       -2.326496   -0.970394   -0.117110
      8          1           0        1.131526   -0.004023   -1.399103
      9          1           0        2.005697   -1.512221   -0.985487
     10          1           0       -0.012857   -1.517986    0.232279
     11          1           0        1.253184   -1.169261    1.431188
     12          1           0        0.711052    1.234720    1.306713
     13          1           0       -0.673855    0.257817    1.809874
     14          1           0       -0.239254    0.919975   -1.117139
     15          1           0       -0.889830    2.172027   -0.050618
     16          1           0       -2.901148    1.043294    0.339755
     17          1           0       -2.552904    0.748668   -1.375543
     18          1           0        2.598589    1.258458    0.182780
     19          1           0        3.495096   -0.256701    0.575698
     20          1           0        3.527467    0.419734   -1.099655
     21          1           0       -2.363306   -1.191132    0.950363
     22          1           0       -1.452421   -1.532169   -0.548690
     23          1           0       -3.269282   -1.371668   -0.588297
 ---------------------------------------------------------------------
 Rotational constants (GHZ):           4.9596715           1.3225581           1.2355713
 Leave Link  202 at Sun Sep 29 12:42:28 2019, MaxMem=   671088640 cpu:               4.4 elap:               2.2
 (Enter /shared/centos7/gaussian/g16/l301.exe)
 Standard basis: CC-pVTZ (5D, 7F)
 Ernie: Thresh=  0.10000D-02 Tol=  0.10000D-05 Strict=F.
 Ernie:  21 primitive shells out of 310 were deleted.
 There are   485 symmetry adapted cartesian basis functions of A   symmetry.
 There are   434 symmetry adapted basis functions of A   symmetry.
   434 basis functions,   636 primitive gaussians,   485 cartesian basis functions
    29 alpha electrons       29 beta electrons
       nuclear repulsion energy       333.3222223912 Hartrees.
 IExCor= 4336 DFT=T Ex+Corr=M062X ExCW=0 ScaHFX=  0.540000
 ScaDFX=  1.000000  1.000000  1.000000  1.000000 ScalE2=  1.000000  1.000000
 IRadAn=      5 IRanWt=     -1 IRanGd=            0 ICorTp=0 IEmpDi=  4
 NAtoms=   23 NActive=   23 NUniq=   23 SFac= 1.00D+00 NAtFMM=   60 NAOKFM=F Big=F
 Integral buffers will be    131072 words long.
 Raffenetti 2 integral format.
 Two-electron integral symmetry is turned on.
 Leave Link  301 at Sun Sep 29 12:42:29 2019, MaxMem=   671088640 cpu:               1.6 elap:               0.8
 (Enter /shared/centos7/gaussian/g16/l302.exe)
 NPDir=0 NMtPBC=     1 NCelOv=     1 NCel=       1 NClECP=     1 NCelD=      1
         NCelK=      1 NCelE2=     1 NClLst=     1 CellRange=     0.0.
 One-electron integrals computed using PRISM.
 One-electron integral symmetry used in STVInt
 NBasis=   434 RedAO= T EigKep=  2.81D-04  NBF=   434
 NBsUse=   434 1.00D-06 EigRej= -1.00D+00 NBFU=   434
 Precomputing XC quadrature grid using
 IXCGrd= 4 IRadAn=           5 IRanWt=          -1 IRanGd=           0 AccXCQ= 0.00D+00.
 Generated NRdTot=       0 NPtTot=           0 NUsed=           0 NTot=          32
 NSgBfM=   485   485   485   485   485 MxSgAt=    23 MxSgA2=    23.
 Leave Link  302 at Sun Sep 29 12:43:38 2019, MaxMem=   671088640 cpu:             137.7 elap:              68.8
 (Enter /shared/centos7/gaussian/g16/l303.exe)
 DipDrv:  MaxL=1.
 Leave Link  303 at Sun Sep 29 12:43:42 2019, MaxMem=   671088640 cpu:               9.5 elap:               4.8
 (Enter /shared/centos7/gaussian/g16/l401.exe)
 ExpMin= 1.03D-01 ExpMax= 8.24D+03 ExpMxC= 2.81D+02 IAcc=3 IRadAn=         5 AccDes= 0.00D+00
 Harris functional with IExCor= 1009 and IRadAn=       5 diagonalized for initial guess.
 HarFok:  IExCor= 1009 AccDes= 0.00D+00 IRadAn=         5 IDoV= 1 UseB2=F ITyADJ=14
 ICtDFT=  3500011 ScaDFX=  1.000000  1.000000  1.000000  1.000000
 FoFCou: FMM=F IPFlag=           0 FMFlag=      100000 FMFlg1=           0
         NFxFlg=           0 DoJE=T BraDBF=F KetDBF=T FulRan=T
         wScrn=  0.000000 ICntrl=       500 IOpCl=  0 I1Cent=   200000004 NGrid=           0
         NMat0=    1 NMatS0=      1 NMatT0=    0 NMatD0=    1 NMtDS0=    0 NMtDT0=    0
 Petite list used in FoFCou.
 Harris En= -276.318730877271    
 JPrj=0 DoOrth=F DoCkMO=F.
 Leave Link  401 at Sun Sep 29 12:44:26 2019, MaxMem=   671088640 cpu:              86.4 elap:              43.2
 (Enter /shared/centos7/gaussian/g16/l502.exe)
 Integral symmetry usage will be decided dynamically.
 Closed shell SCF:
 Using DIIS extrapolation, IDIIS=  1040.
 NGot=   671088640 LenX=   670604095 LenY=   670368385
 Requested convergence on RMS density matrix=1.00D-08 within 900 cycles.
 Requested convergence on MAX density matrix=1.00D-06.
 Requested convergence on             energy=1.00D-06.
 No special actions if energy rises.
 Fock matrices will be formed incrementally for  20 cycles.
 Integral accuracy reduced to 1.0D-05 until final iterations.

 Cycle   1  Pass 0  IDiag  1:
 FoFJK:  IHMeth= 1 ICntrl=       0 DoSepK=F KAlg= 0 I1Cent=           0 FoldK=F
 IRaf= 950000000 NMat=       1 IRICut=       1 DoRegI=T DoRafI=F ISym2E= 0 IDoP0=0 IntGTp=1.
 FoFCou: FMM=F IPFlag=           0 FMFlag=      100000 FMFlg1=           0
         NFxFlg=           0 DoJE=F BraDBF=F KetDBF=F FulRan=T
         wScrn=  0.000000 ICntrl=         0 IOpCl=  0 I1Cent=           0 NGrid=           0
         NMat0=    1 NMatS0=      1 NMatT0=    0 NMatD0=    1 NMtDS0=    0 NMtDT0=    0
 Symmetry not used in FoFCou.
 E= -275.953777131099    
 DIIS: error= 2.41D-02 at cycle   1 NSaved=   1.
 NSaved= 1 IEnMin= 1 EnMin= -275.953777131099     IErMin= 1 ErrMin= 2.41D-02
 ErrMax= 2.41D-02  0.00D+00 EMaxC= 1.00D-01 BMatC= 3.76D-01 BMatP= 3.76D-01
 IDIUse=3 WtCom= 7.59D-01 WtEn= 2.41D-01
 Coeff-Com:  0.100D+01
 Coeff-En:   0.100D+01
 Coeff:      0.100D+01
 Gap=     0.364 Goal=   None    Shift=    0.000
 GapD=    0.364 DampG=1.000 DampE=0.500 DampFc=0.5000 IDamp=-1.
 Damping current iteration by 5.00D-01
 RMSDP=1.91D-03 MaxDP=6.31D-02              OVMax= 1.66D-01

 Cycle   2  Pass 0  IDiag  1:
 RMSU=  9.51D-04    CP:  9.90D-01
 E= -276.129872654350     Delta-E=       -0.176095523251 Rises=F Damp=T
 DIIS: error= 4.25D-03 at cycle   2 NSaved=   2.
 NSaved= 2 IEnMin= 2 EnMin= -276.129872654350     IErMin= 2 ErrMin= 4.25D-03
 ErrMax= 4.25D-03  0.00D+00 EMaxC= 1.00D-01 BMatC= 1.92D-02 BMatP= 3.76D-01
 IDIUse=3 WtCom= 9.58D-01 WtEn= 4.25D-02
 Coeff-Com: -0.414D-01 0.104D+01
 Coeff-En:   0.000D+00 0.100D+01
 Coeff:     -0.397D-01 0.104D+01
 Gap=     0.443 Goal=   None    Shift=    0.000
 RMSDP=5.67D-04 MaxDP=2.40D-02 DE=-1.76D-01 OVMax= 9.21D-02

 Cycle   3  Pass 0  IDiag  1:
 RMSU=  5.58D-04    CP:  9.98D-01  9.14D-01
 E= -276.310122393871     Delta-E=       -0.180249739522 Rises=F Damp=F
 DIIS: error= 2.70D-03 at cycle   3 NSaved=   3.
 NSaved= 3 IEnMin= 3 EnMin= -276.310122393871     IErMin= 3 ErrMin= 2.70D-03
 ErrMax= 2.70D-03  0.00D+00 EMaxC= 1.00D-01 BMatC= 3.17D-03 BMatP= 1.92D-02
 IDIUse=3 WtCom= 9.73D-01 WtEn= 2.70D-02
 Coeff-Com: -0.522D-01 0.257D+00 0.795D+00
 Coeff-En:   0.000D+00 0.000D+00 0.100D+01
 Coeff:     -0.508D-01 0.250D+00 0.801D+00
 Gap=     0.413 Goal=   None    Shift=    0.000
 RMSDP=1.07D-04 MaxDP=3.40D-03 DE=-1.80D-01 OVMax= 1.03D-02

 Cycle   4  Pass 0  IDiag  1:
 RMSU=  8.02D-05    CP:  9.97D-01  9.64D-01  9.09D-01
 E= -276.312861502067     Delta-E=       -0.002739108196 Rises=F Damp=F
 DIIS: error= 8.46D-04 at cycle   4 NSaved=   4.
 NSaved= 4 IEnMin= 4 EnMin= -276.312861502067     IErMin= 4 ErrMin= 8.46D-04
 ErrMax= 8.46D-04  0.00D+00 EMaxC= 1.00D-01 BMatC= 2.87D-04 BMatP= 3.17D-03
 IDIUse=3 WtCom= 9.92D-01 WtEn= 8.46D-03
 Coeff-Com: -0.141D-01 0.405D-01 0.269D+00 0.705D+00
 Coeff-En:   0.000D+00 0.000D+00 0.000D+00 0.100D+01
 Coeff:     -0.140D-01 0.401D-01 0.267D+00 0.707D+00
 Gap=     0.415 Goal=   None    Shift=    0.000
 RMSDP=3.44D-05 MaxDP=1.38D-03 DE=-2.74D-03 OVMax= 3.20D-03

 Cycle   5  Pass 0  IDiag  1:
 RMSU=  2.06D-05    CP:  9.97D-01  9.57D-01  9.44D-01  7.71D-01
 E= -276.313118840303     Delta-E=       -0.000257338236 Rises=F Damp=F
 DIIS: error= 1.98D-04 at cycle   5 NSaved=   5.
 NSaved= 5 IEnMin= 5 EnMin= -276.313118840303     IErMin= 5 ErrMin= 1.98D-04
 ErrMax= 1.98D-04  0.00D+00 EMaxC= 1.00D-01 BMatC= 2.41D-05 BMatP= 2.87D-04
 IDIUse=3 WtCom= 9.98D-01 WtEn= 1.98D-03
 Coeff-Com: -0.200D-02 0.145D-02 0.558D-01 0.278D+00 0.667D+00
 Coeff-En:   0.000D+00 0.000D+00 0.000D+00 0.000D+00 0.100D+01
 Coeff:     -0.200D-02 0.145D-02 0.557D-01 0.277D+00 0.668D+00
 Gap=     0.415 Goal=   None    Shift=    0.000
 RMSDP=7.42D-06 MaxDP=3.82D-04 DE=-2.57D-04 OVMax= 8.32D-04

 Initial convergence to 1.0D-05 achieved.  Increase integral accuracy.
 Cycle   6  Pass 1  IDiag  1:
 E= -276.313127069292     Delta-E=       -0.000008228988 Rises=F Damp=F
 DIIS: error= 3.75D-05 at cycle   1 NSaved=   1.
 NSaved= 1 IEnMin= 1 EnMin= -276.313127069292     IErMin= 1 ErrMin= 3.75D-05
 ErrMax= 3.75D-05  0.00D+00 EMaxC= 1.00D-01 BMatC= 1.39D-06 BMatP= 1.39D-06
 IDIUse=1 WtCom= 1.00D+00 WtEn= 0.00D+00
 Coeff-Com:  0.100D+01
 Coeff:      0.100D+01
 Gap=     0.415 Goal=   None    Shift=    0.000
 RMSDP=7.42D-06 MaxDP=3.82D-04 DE=-8.23D-06 OVMax= 2.18D-04

 Cycle   7  Pass 1  IDiag  1:
 RMSU=  9.97D-06    CP:  1.00D+00
 E= -276.313127795197     Delta-E=       -0.000000725906 Rises=F Damp=F
 DIIS: error= 1.87D-05 at cycle   2 NSaved=   2.
 NSaved= 2 IEnMin= 2 EnMin= -276.313127795197     IErMin= 2 ErrMin= 1.87D-05
 ErrMax= 1.87D-05  0.00D+00 EMaxC= 1.00D-01 BMatC= 2.96D-07 BMatP= 1.39D-06
 IDIUse=1 WtCom= 1.00D+00 WtEn= 0.00D+00
 Coeff-Com:  0.258D+00 0.742D+00
 Coeff:      0.258D+00 0.742D+00
 Gap=     0.415 Goal=   None    Shift=    0.000
 RMSDP=1.12D-06 MaxDP=4.80D-05 DE=-7.26D-07 OVMax= 1.24D-04

 Cycle   8  Pass 1  IDiag  1:
 RMSU=  1.11D-06    CP:  1.00D+00  1.00D+00
 E= -276.313128025348     Delta-E=       -0.000000230151 Rises=F Damp=F
 DIIS: error= 8.19D-06 at cycle   3 NSaved=   3.
 NSaved= 3 IEnMin= 3 EnMin= -276.313128025348     IErMin= 3 ErrMin= 8.19D-06
 ErrMax= 8.19D-06  0.00D+00 EMaxC= 1.00D-01 BMatC= 6.15D-08 BMatP= 2.96D-07
 IDIUse=1 WtCom= 1.00D+00 WtEn= 0.00D+00
 Coeff-Com: -0.772D-02 0.303D+00 0.705D+00
 Coeff:     -0.772D-02 0.303D+00 0.705D+00
 Gap=     0.415 Goal=   None    Shift=    0.000
 RMSDP=4.29D-07 MaxDP=1.45D-05 DE=-2.30D-07 OVMax= 4.22D-05

 Cycle   9  Pass 1  IDiag  1:
 RMSU=  2.98D-07    CP:  1.00D+00  1.02D+00  7.72D-01
 E= -276.313128084110     Delta-E=       -0.000000058762 Rises=F Damp=F
 DIIS: error= 1.75D-06 at cycle   4 NSaved=   4.
 NSaved= 4 IEnMin= 4 EnMin= -276.313128084110     IErMin= 4 ErrMin= 1.75D-06
 ErrMax= 1.75D-06  0.00D+00 EMaxC= 1.00D-01 BMatC= 1.42D-09 BMatP= 6.15D-08
 IDIUse=1 WtCom= 1.00D+00 WtEn= 0.00D+00
 Coeff-Com: -0.114D-01 0.721D-01 0.224D+00 0.715D+00
 Coeff:     -0.114D-01 0.721D-01 0.224D+00 0.715D+00
 Gap=     0.415 Goal=   None    Shift=    0.000
 RMSDP=7.99D-08 MaxDP=3.64D-06 DE=-5.88D-08 OVMax= 7.06D-06

 Cycle  10  Pass 1  IDiag  1:
 RMSU=  7.59D-08    CP:  1.00D+00  1.02D+00  7.83D-01  9.55D-01
 E= -276.313128085571     Delta-E=       -0.000000001461 Rises=F Damp=F
 DIIS: error= 3.74D-07 at cycle   5 NSaved=   5.
 NSaved= 5 IEnMin= 5 EnMin= -276.313128085571     IErMin= 5 ErrMin= 3.74D-07
 ErrMax= 3.74D-07  0.00D+00 EMaxC= 1.00D-01 BMatC= 7.02D-11 BMatP= 1.42D-09
 IDIUse=1 WtCom= 1.00D+00 WtEn= 0.00D+00
 Coeff-Com: -0.938D-03-0.174D-01-0.324D-01 0.101D+00 0.949D+00
 Coeff:     -0.938D-03-0.174D-01-0.324D-01 0.101D+00 0.949D+00
 Gap=     0.415 Goal=   None    Shift=    0.000
 RMSDP=3.43D-08 MaxDP=9.53D-07 DE=-1.46D-09 OVMax= 2.68D-06

 Cycle  11  Pass 1  IDiag  1:
 RMSU=  1.87D-08    CP:  1.00D+00  1.02D+00  7.88D-01  1.05D+00  1.06D+00
 E= -276.313128085642     Delta-E=       -0.000000000071 Rises=F Damp=F
 DIIS: error= 1.64D-07 at cycle   6 NSaved=   6.
 NSaved= 6 IEnMin= 6 EnMin= -276.313128085642     IErMin= 6 ErrMin= 1.64D-07
 ErrMax= 1.64D-07  0.00D+00 EMaxC= 1.00D-01 BMatC= 1.62D-11 BMatP= 7.02D-11
 IDIUse=1 WtCom= 1.00D+00 WtEn= 0.00D+00
 Coeff-Com:  0.345D-03-0.124D-01-0.293D-01-0.482D-02 0.418D+00 0.628D+00
 Coeff:      0.345D-03-0.124D-01-0.293D-01-0.482D-02 0.418D+00 0.628D+00
 Gap=     0.415 Goal=   None    Shift=    0.000
 RMSDP=6.65D-09 MaxDP=2.39D-07 DE=-7.07D-11 OVMax= 7.17D-07

 SCF Done:  E(RM062X) =  -276.313128086     A.U. after   11 cycles
            NFock= 11  Conv=0.67D-08     -V/T= 2.0065
 KE= 2.745268831113D+02 PE=-1.305083042241D+03 EE= 4.209208086525D+02
 Leave Link  502 at Sun Sep 29 13:00:26 2019, MaxMem=   671088640 cpu:            1920.4 elap:             960.3
 (Enter /shared/centos7/gaussian/g16/l801.exe)
 DoSCS=F DFT=T ScalE2(SS,OS)=  1.000000  1.000000
 Range of M.O.s used for correlation:     1   434
 NBasis=   434 NAE=    29 NBE=    29 NFC=     0 NFV=     0
 NROrb=    434 NOA=    29 NOB=    29 NVA=   405 NVB=   405
 Leave Link  801 at Sun Sep 29 13:00:27 2019, MaxMem=   671088640 cpu:               1.4 elap:               0.7
 (Enter /shared/centos7/gaussian/g16/l1101.exe)
 Using compressed storage, NAtomX=    23.
 Will process     24 centers per pass.
 Leave Link 1101 at Sun Sep 29 13:01:01 2019, MaxMem=   671088640 cpu:              67.8 elap:              33.9
 (Enter /shared/centos7/gaussian/g16/l1102.exe)
 Symmetrizing basis deriv contribution to polar:
 IMax=3 JMax=2 DiffMx= 0.00D+00
 Leave Link 1102 at Sun Sep 29 13:01:03 2019, MaxMem=   671088640 cpu:               4.6 elap:               2.3
 (Enter /shared/centos7/gaussian/g16/l1110.exe)
 Forming Gx(P) for the SCF density, NAtomX=    23.
 Integral derivatives from FoFJK, PRISM(SPDF).
 Do as many integral derivatives as possible in FoFJK.
 G2DrvN: MDV=     671086848.
 G2DrvN: will do    24 centers at a time, making    1 passes.
 Calling FoFCou, ICntrl=  3107 FMM=F I1Cent=   0 AccDes= 0.00D+00.
 FoFJK:  IHMeth= 1 ICntrl=    3107 DoSepK=F KAlg= 0 I1Cent=           0 FoldK=F
 IRaf=         0 NMat=       1 IRICut=       1 DoRegI=T DoRafI=F ISym2E= 0 IDoP0=0 IntGTp=1.
 FoFCou: FMM=F IPFlag=           0 FMFlag=      100000 FMFlg1=           0
         NFxFlg=           0 DoJE=F BraDBF=F KetDBF=F FulRan=T
         wScrn=  0.000000 ICntrl=      3107 IOpCl=  0 I1Cent=           0 NGrid=           0
         NMat0=    1 NMatS0=      1 NMatT0=    0 NMatD0=    1 NMtDS0=    0 NMtDT0=    0
 Symmetry not used in FoFCou.
 End of G2Drv F.D. properties file   721 does not exist.
 End of G2Drv F.D. properties file   722 does not exist.
 End of G2Drv F.D. properties file   788 does not exist.
 Leave Link 1110 at Sun Sep 29 13:42:32 2019, MaxMem=   671088640 cpu:            4976.9 elap:            2488.7
 (Enter /shared/centos7/gaussian/g16/l1002.exe)
 Minotr:  Closed shell wavefunction.
          IDoAtm=11111111111111111111111
          Direct CPHF calculation.
          Differentiating once with respect to nuclear coordinates.
          Requested convergence is 1.0D-08 RMS, and 1.0D-07 maximum.
          Secondary convergence is 1.0D-12 RMS, and 1.0D-12 maximum.
          NewPWx=T KeepS1=F KeepF1=F KeepIn=T MapXYZ=F SortEE=F KeepMc=T.
         6897 words used for storage of precomputed grid.
 Two-electron integrals replicated using symmetry.
          MDV=     671088640 using IRadAn=       1.
          Solving linear equations simultaneously, MaxMat=     380.
 FoF2E skips out because all densities are zero.
 CalDSu exits because no D1Ps are significant.
 FoFJK:  IHMeth= 1 ICntrl=       0 DoSepK=F KAlg= 0 I1Cent=           0 FoldK=F
 IRaf= 930000000 NMat=      69 IRICut=     172 DoRegI=T DoRafI=T ISym2E= 2 IDoP0=3 IntGTp=3.
 FoFCou: FMM=F IPFlag=           0 FMFlag=      100000 FMFlg1=           0
         NFxFlg=           0 DoJE=F BraDBF=F KetDBF=F FulRan=T
         wScrn=  0.000000 ICntrl=         0 IOpCl=  0 I1Cent=           0 NGrid=           0
         NMat0=   69 NMatS0=     69 NMatT0=    0 NMatD0=   69 NMtDS0=    0 NMtDT0=    0
 Integrals replicated using symmetry in FoFCou.
 Raff kept on since  89.63% of shell-pairs survive, threshold=   0.20 IRatSp=90.
          There are    72 degrees of freedom in the 1st order CPHF.  IDoFFX=6 NUNeed=     0.
     66 vectors produced by pass  0 Test12= 1.63D-14 1.39D-09 XBig12= 5.58D-02 3.52D-02.
 AX will form    66 AO Fock derivatives at one time.
     66 vectors produced by pass  1 Test12= 1.63D-14 1.39D-09 XBig12= 2.41D-03 6.36D-03.
     66 vectors produced by pass  2 Test12= 1.63D-14 1.39D-09 XBig12= 5.23D-05 1.16D-03.
     66 vectors produced by pass  3 Test12= 1.63D-14 1.39D-09 XBig12= 4.54D-07 8.10D-05.
     66 vectors produced by pass  4 Test12= 1.63D-14 1.39D-09 XBig12= 2.11D-09 4.64D-06.
     66 vectors produced by pass  5 Test12= 1.63D-14 1.39D-09 XBig12= 9.84D-12 3.26D-07.
     24 vectors produced by pass  6 Test12= 1.63D-14 1.39D-09 XBig12= 4.14D-14 1.76D-08.
 InvSVY:  IOpt=1 It=  1 EMax= 3.89D-16
 Solved reduced A of dimension   420 with    72 vectors.
 End of Minotr F.D. properties file   721 does not exist.
 End of Minotr F.D. properties file   722 does not exist.
 End of Minotr F.D. properties file   788 does not exist.
 Leave Link 1002 at Sun Sep 29 14:53:05 2019, MaxMem=   671088640 cpu:            8465.4 elap:            4233.1
 (Enter /shared/centos7/gaussian/g16/l601.exe)
 Copying SCF densities to generalized density rwf, IOpCl= 0 IROHF=0.

 **********************************************************************

            Population analysis using the SCF density.

 **********************************************************************

 Orbital symmetries:
       Occupied  (A) (A) (A) (A) (A) (A) (A) (A) (A) (A) (A) (A)
                 (A) (A) (A) (A) (A) (A) (A) (A) (A) (A) (A) (A)
                 (A) (A) (A) (A) (A)
       Virtual   (A) (A) (A) (A) (A) (A) (A) (A) (A) (A) (A) (A)
                 (A) (A) (A) (A) (A) (A) (A) (A) (A) (A) (A) (A)
                 (A) (A) (A) (A) (A) (A) (A) (A) (A) (A) (A) (A)
                 (A) (A) (A) (A) (A) (A) (A) (A) (A) (A) (A) (A)
                 (A) (A) (A) (A) (A) (A) (A) (A) (A) (A) (A) (A)
                 (A) (A) (A) (A) (A) (A) (A) (A) (A) (A) (A) (A)
                 (A) (A) (A) (A) (A) (A) (A) (A) (A) (A) (A) (A)
                 (A) (A) (A) (A) (A) (A) (A) (A) (A) (A) (A) (A)
                 (A) (A) (A) (A) (A) (A) (A) (A) (A) (A) (A) (A)
                 (A) (A) (A) (A) (A) (A) (A) (A) (A) (A) (A) (A)
                 (A) (A) (A) (A) (A) (A) (A) (A) (A) (A) (A) (A)
                 (A) (A) (A) (A) (A) (A) (A) (A) (A) (A) (A) (A)
                 (A) (A) (A) (A) (A) (A) (A) (A) (A) (A) (A) (A)
                 (A) (A) (A) (A) (A) (A) (A) (A) (A) (A) (A) (A)
                 (A) (A) (A) (A) (A) (A) (A) (A) (A) (A) (A) (A)
                 (A) (A) (A) (A) (A) (A) (A) (A) (A) (A) (A) (A)
                 (A) (A) (A) (A) (A) (A) (A) (A) (A) (A) (A) (A)
                 (A) (A) (A) (A) (A) (A) (A) (A) (A) (A) (A) (A)
                 (A) (A) (A) (A) (A) (A) (A) (A) (A) (A) (A) (A)
                 (A) (A) (A) (A) (A) (A) (A) (A) (A) (A) (A) (A)
                 (A) (A) (A) (A) (A) (A) (A) (A) (A) (A) (A) (A)
                 (A) (A) (A) (A) (A) (A) (A) (A) (A) (A) (A) (A)
                 (A) (A) (A) (A) (A) (A) (A) (A) (A) (A) (A) (A)
                 (A) (A) (A) (A) (A) (A) (A) (A) (A) (A) (A) (A)
                 (A) (A) (A) (A) (A) (A) (A) (A) (A) (A) (A) (A)
                 (A) (A) (A) (A) (A) (A) (A) (A) (A) (A) (A) (A)
                 (A) (A) (A) (A) (A) (A) (A) (A) (A) (A) (A) (A)
                 (A) (A) (A) (A) (A) (A) (A) (A) (A) (A) (A) (A)
                 (A) (A) (A) (A) (A) (A) (A) (A) (A) (A) (A) (A)
                 (A) (A) (A) (A) (A) (A) (A) (A) (A) (A) (A) (A)
                 (A) (A) (A) (A) (A) (A) (A) (A) (A) (A) (A) (A)
                 (A) (A) (A) (A) (A) (A) (A) (A) (A) (A) (A) (A)
                 (A) (A) (A) (A) (A) (A) (A) (A) (A) (A) (A) (A)
                 (A) (A) (A) (A) (A) (A) (A) (A) (A)
 The electronic state is 1-A.
 Alpha  occ. eigenvalues --  -10.52819 -10.52500 -10.52429 -10.52345 -10.52280
 Alpha  occ. eigenvalues --  -10.52218 -10.51967  -0.92700  -0.87952  -0.82145
 Alpha  occ. eigenvalues --   -0.77077  -0.71161  -0.65878  -0.61491  -0.55394
 Alpha  occ. eigenvalues --   -0.54571  -0.51120  -0.49344  -0.47597  -0.46820
 Alpha  occ. eigenvalues --   -0.43906  -0.43601  -0.43019  -0.40142  -0.39343
 Alpha  occ. eigenvalues --   -0.38092  -0.36794  -0.35193  -0.34958
 Alpha virt. eigenvalues --    0.06504   0.08286   0.08416   0.08522   0.11803
 Alpha virt. eigenvalues --    0.11928   0.12752   0.13388   0.14134   0.14884
 Alpha virt. eigenvalues --    0.16053   0.16413   0.18283   0.19638   0.20450
 Alpha virt. eigenvalues --    0.21654   0.23083   0.23948   0.24410   0.26054
 Alpha virt. eigenvalues --    0.27493   0.29045   0.29111   0.29482   0.31527
 Alpha virt. eigenvalues --    0.31644   0.32217   0.33753   0.35822   0.36869
 Alpha virt. eigenvalues --    0.37513   0.38209   0.41403   0.43778   0.44004
 Alpha virt. eigenvalues --    0.44902   0.45667   0.46470   0.47304   0.48011
 Alpha virt. eigenvalues --    0.49059   0.49966   0.50316   0.51563   0.51892
 Alpha virt. eigenvalues --    0.52201   0.52617   0.52953   0.54795   0.55437
 Alpha virt. eigenvalues --    0.55753   0.55907   0.56566   0.57822   0.58643
 Alpha virt. eigenvalues --    0.59363   0.59760   0.60609   0.63386   0.64114
 Alpha virt. eigenvalues --    0.65793   0.66815   0.69907   0.71737   0.77333
 Alpha virt. eigenvalues --    0.78173   0.78993   0.81143   0.82533   0.84772
 Alpha virt. eigenvalues --    0.85814   0.87608   0.88996   0.89922   0.91706
 Alpha virt. eigenvalues --    0.92704   0.96744   0.97428   0.99426   1.00794
 Alpha virt. eigenvalues --    1.01131   1.01686   1.02600   1.03209   1.05262
 Alpha virt. eigenvalues --    1.06146   1.06827   1.07896   1.08551   1.10273
 Alpha virt. eigenvalues --    1.12456   1.13215   1.14235   1.14316   1.15775
 Alpha virt. eigenvalues --    1.16561   1.16970   1.17656   1.18772   1.19421
 Alpha virt. eigenvalues --    1.20193   1.21391   1.21702   1.23727   1.25164
 Alpha virt. eigenvalues --    1.25544   1.26453   1.27018   1.28105   1.28783
 Alpha virt. eigenvalues --    1.29816   1.31130   1.31269   1.32364   1.33326
 Alpha virt. eigenvalues --    1.33804   1.35309   1.37530   1.38301   1.40109
 Alpha virt. eigenvalues --    1.40701   1.41754   1.44212   1.44943   1.46804
 Alpha virt. eigenvalues --    1.47964   1.48318   1.49471   1.50083   1.51704
 Alpha virt. eigenvalues --    1.53424   1.54388   1.55465   1.56292   1.57731
 Alpha virt. eigenvalues --    1.59305   1.59783   1.61546   1.63379   1.65563
 Alpha virt. eigenvalues --    1.68246   1.69564   1.72772   1.74674   1.75740
 Alpha virt. eigenvalues --    1.80456   1.86131   1.89216   1.95547   2.24555
 Alpha virt. eigenvalues --    2.26917   2.30615   2.32607   2.35366   2.36835
 Alpha virt. eigenvalues --    2.39439   2.40944   2.42973   2.43457   2.45996
 Alpha virt. eigenvalues --    2.46488   2.48063   2.48896   2.50665   2.53269
 Alpha virt. eigenvalues --    2.53969   2.56707   2.57607   2.60607   2.61950
 Alpha virt. eigenvalues --    2.62685   2.63279   2.63658   2.65357   2.67887
 Alpha virt. eigenvalues --    2.69240   2.69633   2.70462   2.71942   2.73334
 Alpha virt. eigenvalues --    2.73791   2.75339   2.77502   2.78931   2.80436
 Alpha virt. eigenvalues --    2.81156   2.82054   2.82993   2.84722   2.86539
 Alpha virt. eigenvalues --    2.87293   2.89479   2.90423   2.92112   2.93366
 Alpha virt. eigenvalues --    2.93687   2.94714   2.96679   2.97820   2.98816
 Alpha virt. eigenvalues --    3.01239   3.01574   3.02601   3.03044   3.04167
 Alpha virt. eigenvalues --    3.05642   3.06100   3.06645   3.08215   3.08779
 Alpha virt. eigenvalues --    3.10369   3.11352   3.11492   3.12177   3.12812
 Alpha virt. eigenvalues --    3.15025   3.15465   3.16968   3.17582   3.19201
 Alpha virt. eigenvalues --    3.19896   3.20553   3.21662   3.23761   3.25403
 Alpha virt. eigenvalues --    3.25552   3.26820   3.27671   3.30062   3.30935
 Alpha virt. eigenvalues --    3.31804   3.33149   3.34678   3.37620   3.38177
 Alpha virt. eigenvalues --    3.38803   3.39937   3.40933   3.42459   3.43082
 Alpha virt. eigenvalues --    3.43390   3.45604   3.46501   3.47154   3.48403
 Alpha virt. eigenvalues --    3.49257   3.50813   3.52049   3.53332   3.56216
 Alpha virt. eigenvalues --    3.58450   3.59774   3.61486   3.62010   3.63245
 Alpha virt. eigenvalues --    3.63337   3.66347   3.67342   3.68598   3.69583
 Alpha virt. eigenvalues --    3.70839   3.71174   3.72167   3.72540   3.75070
 Alpha virt. eigenvalues --    3.76492   3.77157   3.78749   3.79506   3.80618
 Alpha virt. eigenvalues --    3.81665   3.81967   3.84076   3.84509   3.85889
 Alpha virt. eigenvalues --    3.86383   3.87526   3.88383   3.89729   3.90857
 Alpha virt. eigenvalues --    3.91728   3.93402   3.94640   3.95496   3.96020
 Alpha virt. eigenvalues --    3.96958   3.99346   4.00042   4.01569   4.02279
 Alpha virt. eigenvalues --    4.04180   4.04771   4.05428   4.06071   4.06681
 Alpha virt. eigenvalues --    4.09449   4.10725   4.10883   4.11901   4.12275
 Alpha virt. eigenvalues --    4.14009   4.15237   4.15922   4.16865   4.18084
 Alpha virt. eigenvalues --    4.18654   4.20729   4.22693   4.23532   4.24751
 Alpha virt. eigenvalues --    4.25670   4.27492   4.28472   4.29051   4.31274
 Alpha virt. eigenvalues --    4.32859   4.33587   4.35019   4.36806   4.39533
 Alpha virt. eigenvalues --    4.40265   4.41907   4.43036   4.44534   4.46482
 Alpha virt. eigenvalues --    4.48265   4.49552   4.53347   4.54829   4.57728
 Alpha virt. eigenvalues --    4.58576   4.63113   4.64705   4.67284   4.68801
 Alpha virt. eigenvalues --    4.70500   4.72098   4.74545   4.75398   4.75656
 Alpha virt. eigenvalues --    4.78004   4.78264   4.79767   4.81028   4.81601
 Alpha virt. eigenvalues --    4.81914   4.85522   4.86801   4.88202   4.89082
 Alpha virt. eigenvalues --    4.91554   4.94202   4.96885   4.98256   5.00764
 Alpha virt. eigenvalues --    5.03257   5.04723   5.07195   5.09390   5.10158
 Alpha virt. eigenvalues --    5.12469   5.13575   5.16242   5.18716   5.20559
 Alpha virt. eigenvalues --    5.22533   5.23008   5.24843   5.25954   5.26082
 Alpha virt. eigenvalues --    5.28820   5.29738   5.31789   5.32030   5.34366
 Alpha virt. eigenvalues --    5.36467   5.39415   5.40575   5.42899   5.45841
 Alpha virt. eigenvalues --    5.46396   5.47189   5.51052   5.52110   5.56723
 Alpha virt. eigenvalues --    5.61393   5.66953   5.70020   5.74431   5.81237
 Alpha virt. eigenvalues --    5.82692   5.83342   5.88569   5.91461   5.96759
 Alpha virt. eigenvalues --    6.02755   6.04225   6.09208  11.85975  12.25244
 Alpha virt. eigenvalues --   12.68784  13.00321  13.36780  13.42822  13.62963
          Condensed to atoms (all electrons):
               1          2          3          4          5          6
     1  C    5.172184   0.284482  -0.042184   0.307914   0.001159  -0.063148
     2  C    0.284482   5.198530   0.266870  -0.048794  -0.047210   0.004254
     3  C   -0.042184   0.266870   5.134825  -0.017382   0.321559  -0.001397
     4  C    0.307914  -0.048794  -0.017382   5.070244   0.000137   0.311918
     5  C    0.001159  -0.047210   0.321559   0.000137   5.019643   0.000097
     6  C   -0.063148   0.004254  -0.001397   0.311918   0.000097   4.969324
     7  C   -0.011693  -0.003064  -0.045817   0.000701   0.289738  -0.000088
     8  H   -0.043093  -0.011578  -0.006799   0.416467   0.000043  -0.046793
     9  H   -0.046329   0.009517   0.000401   0.412932  -0.000052  -0.041574
    10  H    0.435507  -0.047043   0.000745  -0.055873   0.000830   0.009521
    11  H    0.409798  -0.050351   0.009646  -0.037892  -0.000764  -0.006671
    12  H   -0.041966   0.419395  -0.048218  -0.007132   0.007303  -0.000249
    13  H   -0.045663   0.416063  -0.048109   0.008788  -0.001242  -0.000116
    14  H   -0.005639  -0.053849   0.417595  -0.008981  -0.040312   0.001044
    15  H    0.006938  -0.040789   0.414182   0.000977  -0.042871  -0.000130
    16  H    0.000055  -0.005556  -0.040793  -0.000104   0.409449  -0.000001
    17  H   -0.001253   0.010736  -0.052638   0.000283   0.421186  -0.000012
    18  H   -0.008493   0.006296  -0.000253  -0.043528   0.000031   0.405128
    19  H   -0.002325  -0.001903   0.000107  -0.048469  -0.000006   0.404702
    20  H    0.009453  -0.000467   0.000043  -0.042893   0.000000   0.407825
    21  H   -0.004324   0.006853  -0.006983   0.000329  -0.040709  -0.000015
    22  H   -0.011428  -0.009571   0.007206   0.000441  -0.052799  -0.000143
    23  H    0.001192  -0.000738   0.007854  -0.000081  -0.036747   0.000004
               7          8          9         10         11         12
     1  C   -0.011693  -0.043093  -0.046329   0.435507   0.409798  -0.041966
     2  C   -0.003064  -0.011578   0.009517  -0.047043  -0.050351   0.419395
     3  C   -0.045817  -0.006799   0.000401   0.000745   0.009646  -0.048218
     4  C    0.000701   0.416467   0.412932  -0.055873  -0.037892  -0.007132
     5  C    0.289738   0.000043  -0.000052   0.000830  -0.000764   0.007303
     6  C   -0.000088  -0.046793  -0.041574   0.009521  -0.006671  -0.000249
     7  C    5.029656   0.000700   0.000106  -0.015008   0.001036  -0.000552
     8  H    0.000700   0.612532  -0.036325  -0.004516   0.008245   0.000476
     9  H    0.000106  -0.036325   0.598184  -0.010388  -0.003155  -0.000369
    10  H   -0.015008  -0.004516  -0.010388   0.564762  -0.025097   0.007772
    11  H    0.001036   0.008245  -0.003155  -0.025097   0.564829  -0.005905
    12  H   -0.000552   0.000476  -0.000369   0.007772  -0.005905   0.558781
    13  H   -0.004095  -0.000462  -0.000272  -0.007446  -0.006988  -0.025082
    14  H   -0.003602  -0.010284   0.000910   0.000120  -0.000110   0.000029
    15  H    0.008871   0.000795   0.000005  -0.000519  -0.000373  -0.013698
    16  H   -0.046237  -0.000117   0.000009  -0.000294   0.000034  -0.000409
    17  H   -0.040630   0.000263  -0.000011  -0.000188   0.000052  -0.000425
    18  H   -0.000008  -0.007890   0.008873  -0.000467   0.000018  -0.005208
    19  H    0.000004   0.009532  -0.007765   0.000084   0.004596   0.000862
    20  H    0.000005  -0.006524  -0.007067  -0.000437  -0.000046  -0.000010
    21  H    0.405722   0.000018  -0.000011  -0.000922   0.000170   0.000189
    22  H    0.411630   0.000421   0.000393  -0.017769   0.001515  -0.000505
    23  H    0.401314  -0.000002  -0.000013   0.002020  -0.000044   0.000068
              13         14         15         16         17         18
     1  C   -0.045663  -0.005639   0.006938   0.000055  -0.001253  -0.008493
     2  C    0.416063  -0.053849  -0.040789  -0.005556   0.010736   0.006296
     3  C   -0.048109   0.417595   0.414182  -0.040793  -0.052638  -0.000253
     4  C    0.008788  -0.008981   0.000977  -0.000104   0.000283  -0.043528
     5  C   -0.001242  -0.040312  -0.042871   0.409449   0.421186   0.000031
     6  C   -0.000116   0.001044  -0.000130  -0.000001  -0.000012   0.405128
     7  C   -0.004095  -0.003602   0.008871  -0.046237  -0.040630  -0.000008
     8  H   -0.000462  -0.010284   0.000795  -0.000117   0.000263  -0.007890
     9  H   -0.000272   0.000910   0.000005   0.000009  -0.000011   0.008873
    10  H   -0.007446   0.000120  -0.000519  -0.000294  -0.000188  -0.000467
    11  H   -0.006988  -0.000110  -0.000373   0.000034   0.000052   0.000018
    12  H   -0.025082   0.000029  -0.013698  -0.000409  -0.000425  -0.005208
    13  H    0.558356   0.007683   0.000940   0.003277   0.000025   0.000292
    14  H    0.007683   0.589747  -0.033777   0.008652  -0.011561   0.000919
    15  H    0.000940  -0.033777   0.588111  -0.011954  -0.001237   0.000018
    16  H    0.003277   0.008652  -0.011954   0.606606  -0.035501   0.000002
    17  H    0.000025  -0.011561  -0.001237  -0.035501   0.598021   0.000001
    18  H    0.000292   0.000919   0.000018   0.000002   0.000001   0.600805
    19  H   -0.000199  -0.000256   0.000018  -0.000001   0.000000  -0.038577
    20  H    0.000039   0.000207  -0.000017   0.000000  -0.000000  -0.031701
    21  H   -0.001566  -0.000028  -0.000427  -0.011520   0.007726  -0.000002
    22  H    0.001904   0.001813   0.000090   0.008465  -0.001606   0.000014
    23  H   -0.000173  -0.000054  -0.000443  -0.000832  -0.011988  -0.000000
              19         20         21         22         23
     1  C   -0.002325   0.009453  -0.004324  -0.011428   0.001192
     2  C   -0.001903  -0.000467   0.006853  -0.009571  -0.000738
     3  C    0.000107   0.000043  -0.006983   0.007206   0.007854
     4  C   -0.048469  -0.042893   0.000329   0.000441  -0.000081
     5  C   -0.000006   0.000000  -0.040709  -0.052799  -0.036747
     6  C    0.404702   0.407825  -0.000015  -0.000143   0.000004
     7  C    0.000004   0.000005   0.405722   0.411630   0.401314
     8  H    0.009532  -0.006524   0.000018   0.000421  -0.000002
     9  H   -0.007765  -0.007067  -0.000011   0.000393  -0.000013
    10  H    0.000084  -0.000437  -0.000922  -0.017769   0.002020
    11  H    0.004596  -0.000046   0.000170   0.001515  -0.000044
    12  H    0.000862  -0.000010   0.000189  -0.000505   0.000068
    13  H   -0.000199   0.000039  -0.001566   0.001904  -0.000173
    14  H   -0.000256   0.000207  -0.000028   0.001813  -0.000054
    15  H    0.000018  -0.000017  -0.000427   0.000090  -0.000443
    16  H   -0.000001   0.000000  -0.011520   0.008465  -0.000832
    17  H    0.000000  -0.000000   0.007726  -0.001606  -0.011988
    18  H   -0.038577  -0.031701  -0.000002   0.000014  -0.000000
    19  H    0.605385  -0.029633   0.000001  -0.000002   0.000000
    20  H   -0.029633   0.587443   0.000000   0.000012  -0.000000
    21  H    0.000001   0.000000   0.584827  -0.042238  -0.027260
    22  H   -0.000002   0.000012  -0.042238   0.620680  -0.030067
    23  H    0.000000  -0.000000  -0.027260  -0.030067   0.583117
 Mulliken charges:
               1
     1  C   -0.301145
     2  C   -0.302085
     3  C   -0.270462
     4  C   -0.220002
     5  C   -0.208462
     6  C   -0.353481
     7  C   -0.378689
     8  H    0.124893
     9  H    0.122000
    10  H    0.164607
    11  H    0.137455
    12  H    0.154853
    13  H    0.144047
    14  H    0.139732
    15  H    0.125289
    16  H    0.116768
    17  H    0.118755
    18  H    0.113728
    19  H    0.103845
    20  H    0.113768
    21  H    0.130168
    22  H    0.111545
    23  H    0.112873
 Sum of Mulliken charges =  -0.00000
 Mulliken charges with hydrogens summed into heavy atoms:
               1
     1  C    0.000917
     2  C   -0.003186
     3  C   -0.005441
     4  C    0.026891
     5  C    0.027062
     6  C   -0.022140
     7  C   -0.024103
 APT charges:
               1
     1  C   -0.630821
     2  C   -0.722438
     3  C   -0.580720
     4  C   -0.502543
     5  C   -0.927250
     6  C   -1.322574
     7  C   -1.017851
     8  H    0.204281
     9  H    0.422117
    10  H    0.310379
    11  H    0.408108
    12  H    0.383409
    13  H    0.364830
    14  H    0.244422
    15  H    0.414534
    16  H    0.443417
    17  H    0.424855
    18  H    0.211538
    19  H    0.421414
    20  H    0.498600
    21  H    0.295075
    22  H    0.095914
    23  H    0.561303
 Sum of APT charges =  -0.00000
 APT charges with hydrogens summed into heavy atoms:
               1
     1  C    0.087666
     2  C    0.025802
     3  C    0.078235
     4  C    0.123854
     5  C   -0.058978
     6  C   -0.191021
     7  C   -0.065559
 Electronic spatial extent (au):  <R**2>=           1105.7177
 Charge=             -0.0000 electrons
 Dipole moment (field-independent basis, Debye):
    X=             -0.0787    Y=              0.0119    Z=             -0.0454  Tot=              0.0917
 Quadrupole moment (field-independent basis, Debye-Ang):
   XX=            -49.7415   YY=            -49.3747   ZZ=            -48.7533
   XY=             -0.3047   XZ=             -0.1829   YZ=              0.0634
 Traceless Quadrupole moment (field-independent basis, Debye-Ang):
   XX=             -0.4517   YY=             -0.0849   ZZ=              0.5366
   XY=             -0.3047   XZ=             -0.1829   YZ=              0.0634
 Octapole moment (field-independent basis, Debye-Ang**2):
  XXX=             -2.5710  YYY=              1.5145  ZZZ=             -0.3210  XYY=              0.9286
  XXY=             -1.2640  XXZ=             -0.3485  XZZ=             -0.5111  YZZ=             -0.1637
  YYZ=              0.3885  XYZ=             -0.5451
 Hexadecapole moment (field-independent basis, Debye-Ang**3):
 XXXX=          -1128.7962 YYYY=           -271.1651 ZZZZ=           -186.3893 XXXY=             -5.1278
 XXXZ=             -0.4790 YYYX=             -3.9066 YYYZ=              3.7872 ZZZX=             -1.3603
 ZZZY=             -3.6869 XXYY=           -233.8746 XXZZ=           -210.4988 YYZZ=            -77.4003
 XXYZ=              0.3776 YYXZ=              0.1201 ZZXY=             -0.3714
 N-N= 3.333222223912D+02 E-N=-1.305082968210D+03  KE= 2.745268831113D+02
  Exact polarizability:   0.000   0.000   0.000   0.000   0.000   0.000
 Approx polarizability: 100.481  -1.086  97.790   0.383   0.068  98.508
 No NMR shielding tensors so no spin-rotation constants.
 Leave Link  601 at Sun Sep 29 14:53:37 2019, MaxMem=   671088640 cpu:              64.6 elap:              32.3
 (Enter /shared/centos7/gaussian/g16/l701.exe)
 SCFChk:  SCF convergence  6.65D-09 required  1.00D-08
 ... and contract with generalized density number  0.
 Compute integral second derivatives.
 Entering OneElI...
 Calculate overlap and kinetic energy integrals
    NBasis = 485  MinDer = 2  MaxDer = 2
 Requested accuracy = 0.1000D-12
 PrmmSu-InSpLW:  IPartL=    0 NPrtUS=   20 NPrtUL=    1 DoSpLW=F IThBeg=    0 IThEnd=   19 NThAct=   20.
 PrsmSu:  NPrtUS=  20 ThrOK=T IAlg=1 NPAlg=1 LenDen=           0 ISkipM=0 DoSpLW=F IThBeg=    0 IThEnd=   19.
 Prism:   IPart=     0 DynPar=F LinDyn=F Incr=           6.
 PRISM was handed    33198490 working-precision words and 13685 shell-pairs
 PRISM was handed    33198490 working-precision words and 13685 shell-pairs
 PRISM was handed    33198490 working-precision words and 13685 shell-pairs
 PRISM was handed    33198490 working-precision words and 13685 shell-pairs
 PRISM was handed    33198490 working-precision words and 13685 shell-pairs
 PRISM was handed    33198490 working-precision words and 13685 shell-pairs
 PRISM was handed    33198490 working-precision words and 13685 shell-pairs
 PRISM was handed    33198490 working-precision words and 13685 shell-pairs
 PRISM was handed    33198490 working-precision words and 13685 shell-pairs
 PRISM was handed    33198490 working-precision words and 13685 shell-pairs
 IPart=  0 NShTot=         720 NBatch=          80 AvBLen=         9.0
 IPart= 12 NShTot=         671 NBatch=          54 AvBLen=        12.4
 PRISM was handed    33198490 working-precision words and 13685 shell-pairs
 PRISM was handed    33198490 working-precision words and 13685 shell-pairs
 PRISM was handed    33198490 working-precision words and 13685 shell-pairs
 PRISM was handed    33198490 working-precision words and 13685 shell-pairs
 PRISM was handed    33198490 working-precision words and 13685 shell-pairs
 IPart= 15 NShTot=         666 NBatch=          52 AvBLen=        12.8
 PRISM was handed    33198490 working-precision words and 13685 shell-pairs
 PRISM was handed    33198490 working-precision words and 13685 shell-pairs
 PRISM was handed    33198490 working-precision words and 13685 shell-pairs
 IPart=  7 NShTot=         689 NBatch=          58 AvBLen=        11.9
 IPart= 18 NShTot=         657 NBatch=          48 AvBLen=        13.7
 IPart=  8 NShTot=         687 NBatch=          58 AvBLen=        11.8
 PRISM was handed    33198490 working-precision words and 13685 shell-pairs
 IPart=  1 NShTot=         717 NBatch=          77 AvBLen=         9.3
 PRISM was handed    33198490 working-precision words and 13685 shell-pairs
 IPart= 19 NShTot=         655 NBatch=          47 AvBLen=        13.9
 IPart=  4 NShTot=         704 NBatch=          70 AvBLen=        10.1
 IPart= 16 NShTot=         660 NBatch=          49 AvBLen=        13.5
 IPart= 13 NShTot=         669 NBatch=          53 AvBLen=        12.6
 IPart=  5 NShTot=         701 NBatch=          69 AvBLen=        10.2
 IPart=  3 NShTot=         709 NBatch=          73 AvBLen=         9.7
 IPart= 10 NShTot=         680 NBatch=          57 AvBLen=        11.9
 IPart= 14 NShTot=         668 NBatch=          52 AvBLen=        12.8
 IPart= 11 NShTot=         677 NBatch=          56 AvBLen=        12.1
 IPart= 17 NShTot=         658 NBatch=          49 AvBLen=        13.4
 IPart=  2 NShTot=         715 NBatch=          76 AvBLen=         9.4
 IPart=  9 NShTot=         684 NBatch=          58 AvBLen=        11.8
 IPart=  6 NShTot=         698 NBatch=          66 AvBLen=        10.6
 PrSmSu:  NxtVal=            121.
 Entering OneElI...
 Calculate potential energy integrals
    NBasis = 485  MinDer = 2  MaxDer = 2
 Requested accuracy = 0.1000D-12
 PrmmSu-InSpLW:  IPartL=    0 NPrtUS=   20 NPrtUL=    1 DoSpLW=F IThBeg=    0 IThEnd=   19 NThAct=   20.
 PrsmSu:  NPrtUS=  20 ThrOK=T IAlg=1 NPAlg=1 LenDen=           0 ISkipM=0 DoSpLW=F IThBeg=    0 IThEnd=   19.
 Prism:   IPart=     0 DynPar=F LinDyn=F Incr=         142.
 PRISM was handed    33261480 working-precision words and 12402 shell-pairs
 PRISM was handed    33261480 working-precision words and 12402 shell-pairs
 PRISM was handed    33261480 working-precision words and 12402 shell-pairs
 PRISM was handed    33261480 working-precision words and 12402 shell-pairs
 PRISM was handed    33261480 working-precision words and 12402 shell-pairs
 PRISM was handed    33261480 working-precision words and 12402 shell-pairs
 PRISM was handed    33261480 working-precision words and 12402 shell-pairs
 PRISM was handed    33261480 working-precision words and 12402 shell-pairs
 PRISM was handed    33261480 working-precision words and 12402 shell-pairs
 PRISM was handed    33261480 working-precision words and 12402 shell-pairs
 PRISM was handed    33261480 working-precision words and 12402 shell-pairs
 PRISM was handed    33261480 working-precision words and 12402 shell-pairs
 PRISM was handed    33261480 working-precision words and 12402 shell-pairs
 PRISM was handed    33261480 working-precision words and 12402 shell-pairs
 PRISM was handed    33261480 working-precision words and 12402 shell-pairs
 PRISM was handed    33261480 working-precision words and 12402 shell-pairs
 PRISM was handed    33261480 working-precision words and 12402 shell-pairs
 PRISM was handed    33261480 working-precision words and 12402 shell-pairs
 PRISM was handed    33261480 working-precision words and 12402 shell-pairs
 PRISM was handed    33261480 working-precision words and 12402 shell-pairs
 IPart= 18 NShTot=       13731 NBatch=         598 AvBLen=        23.0
 IPart=  8 NShTot=       14306 NBatch=         623 AvBLen=        23.0
 IPart=  0 NShTot=       14927 NBatch=         651 AvBLen=        22.9
 IPart= 15 NShTot=       13892 NBatch=         605 AvBLen=        23.0
 IPart= 12 NShTot=       14030 NBatch=         611 AvBLen=        23.0
 IPart=  1 NShTot=       14881 NBatch=         649 AvBLen=        22.9
 IPart= 13 NShTot=       13938 NBatch=         607 AvBLen=        23.0
 IPart= 10 NShTot=       14145 NBatch=         616 AvBLen=        23.0
 IPart=  3 NShTot=       14812 NBatch=         646 AvBLen=        22.9
 IPart= 16 NShTot=       13800 NBatch=         601 AvBLen=        23.0
 IPart=  9 NShTot=       14214 NBatch=         619 AvBLen=        23.0
 IPart= 17 NShTot=       13754 NBatch=         599 AvBLen=        23.0
 IPart= 19 NShTot=       13616 NBatch=         593 AvBLen=        23.0
 IPart= 11 NShTot=       14122 NBatch=         615 AvBLen=        23.0
 IPart=  4 NShTot=       14766 NBatch=         644 AvBLen=        22.9
 IPart=  5 NShTot=       14697 NBatch=         641 AvBLen=        22.9
 IPart= 14 NShTot=       13938 NBatch=         607 AvBLen=        23.0
 IPart=  2 NShTot=       14835 NBatch=         647 AvBLen=        22.9
 IPart=  7 NShTot=       14329 NBatch=         624 AvBLen=        23.0
 IPart=  6 NShTot=       14513 NBatch=         632 AvBLen=        23.0
 PrSmSu:  NxtVal=           2841.
 Polarizability after L701:
                1             2             3 
      1  0.000000D+00
      2  0.000000D+00  0.000000D+00
      3  0.000000D+00  0.000000D+00  0.000000D+00
 Dipole Derivatives after L701:
                 1             2             3             4             5 
      1  -0.354330D+00  0.328612D+00 -0.530971D+00 -0.639397D+00 -0.370256D+00
      2  -0.232703D+00 -0.959333D+00  0.284435D+00 -0.407070D+00 -0.445032D+00
      3  -0.327396D+00  0.476216D+00 -0.578799D+00  0.142646D+00 -0.382677D+00
                 6             7             8             9            10 
      1   0.207386D+00  0.219191D-01  0.388121D+00 -0.600846D-01  0.158906D-01
      2  -0.395534D+00 -0.148081D+00 -0.124144D+01  0.331534D+00  0.319701D+00
      3  -0.108288D+01  0.329557D+00 -0.696244D-01 -0.522644D+00 -0.161551D+00
                11            12            13            14            15 
      1   0.702360D+00  0.895352D+00 -0.158205D+01  0.115733D+01 -0.349308D+00
      2  -0.680043D+00 -0.314042D+00  0.490092D+00 -0.293526D+00 -0.238772D-02
      3  -0.122499D+00 -0.843478D+00 -0.177893D+00  0.734787D-01 -0.906173D+00
                16            17            18            19            20 
      1  -0.213855D+01 -0.705051D+00 -0.314378D+00 -0.104671D+01 -0.140018D+01
      2   0.879026D-01 -0.937033D+00  0.342800D-01 -0.526775D-01 -0.105064D+01
      3   0.209353D+00  0.140214D+00 -0.892135D+00  0.314728D-01 -0.152278D+00
                21            22            23            24            25 
      1   0.207026D+00 -0.426672D-01  0.207875D+00 -0.278606D+00  0.374749D+00
      2  -0.171219D-01 -0.195715D-01  0.166500D+00 -0.188257D-01 -0.162009D+00
      3  -0.956202D+00  0.285799D+00 -0.300436D+00  0.489011D+00 -0.115512D+00
                26            27            28            29            30 
      1  -0.611748D+00 -0.287745D+00  0.234523D+00  0.191967D-01 -0.413762D-03
      2   0.637470D+00  0.208611D+00  0.486269D+00  0.553288D+00  0.255314D+00
      3   0.300602D+00  0.254131D+00 -0.723052D-01 -0.329035D-01  0.143326D+00
                31            32            33            34            35 
      1   0.350965D+00 -0.188427D+00  0.375240D+00  0.375765D+00  0.188275D+00
      2  -0.219856D+00  0.288992D+00 -0.341250D+00  0.322097D+00  0.509059D+00
      3   0.247975D+00 -0.189571D+00  0.584366D+00  0.354767D+00  0.335931D+00
                36            37            38            39            40 
      1   0.778357D-01  0.313085D+00  0.697212D-01 -0.206699D+00  0.134197D+00
      2   0.103420D+00 -0.581607D-01  0.121636D+00  0.657556D-01  0.163893D+00
      3   0.265404D+00 -0.424974D+00 -0.191744D+00  0.659769D+00 -0.244022D+00
                41            42            43            44            45 
      1  -0.894306D-02  0.630390D-01  0.179110D+00 -0.324550D+00 -0.313899D-01
      2   0.703306D-01 -0.269472D+00 -0.595959D-01  0.938155D+00  0.129486D+00
      3   0.105908D+00  0.528737D+00  0.144607D-01  0.226573D-02  0.126337D+00
                46            47            48            49            50 
      1   0.765562D+00 -0.487587D+00 -0.647259D+00  0.452425D+00 -0.166808D+00
      2  -0.218542D+00  0.335063D+00  0.238374D+00 -0.671445D-01  0.187473D+00
      3  -0.102975D+00  0.728810D-01  0.229626D+00  0.167679D+00 -0.105212D+00
                51            52            53            54            55 
      1   0.836257D+00 -0.775317D-01  0.753980D+00  0.341027D+00  0.804518D+00
      2  -0.248826D+00 -0.150782D+00  0.571723D+00  0.199875D+00 -0.689248D-01
      3   0.634667D+00 -0.273480D-01  0.866920D-01  0.140423D+00  0.147759D+00
                56            57            58            59            60 
      1  -0.568623D+00  0.892016D+00  0.864637D+00  0.185922D+00 -0.106511D+01
      2   0.188994D+00 -0.985969D-01  0.975418D-01  0.129193D+00 -0.120392D+00
      3  -0.126576D+00  0.270732D+00 -0.260280D+00 -0.512777D-01  0.501972D+00
                61            62            63            64            65 
      1   0.116669D+00  0.148000D+00 -0.798051D+00 -0.293276D+00  0.256214D+00
      2  -0.946936D-02  0.217859D+00 -0.389456D+00 -0.533534D+00  0.396280D+00
      3  -0.160857D-01 -0.550697D-01  0.550698D+00 -0.212829D+00  0.119985D+00
                66            67            68            69 
      1   0.660126D-01  0.117050D+01  0.426563D+00  0.608823D+00
      2   0.129671D+00  0.440625D+00  0.295028D+00  0.235149D+00
      3   0.184738D+00  0.211702D+00  0.656928D-01  0.218378D+00
 Hessian after L701:
                1             2             3             4             5 
      1  0.157765D+02
      2  0.466314D+00  0.171440D+02
      3  0.597595D+00  0.165949D+00  0.177220D+02
      4 -0.522181D+01 -0.163103D+01 -0.506725D+00  0.154126D+02
      5 -0.166523D+01 -0.376630D+01  0.875096D+00  0.696277D+00  0.173593D+02
      6 -0.515725D+00  0.892617D+00 -0.602830D+01 -0.268045D+00 -0.328939D+00
      7  0.168941D+00 -0.291373D+00  0.181318D+00 -0.475116D+01 -0.882152D+00
      8 -0.316325D+00  0.138530D+00 -0.192209D+00 -0.885217D+00 -0.537570D+01
      9  0.143965D+00 -0.152533D+00 -0.316490D-01  0.161537D+01 -0.111694D+01
     10 -0.458187D+01  0.351698D+00 -0.206048D+01  0.259435D+00 -0.159404D+00
     11  0.355045D+00 -0.629124D+01 -0.355889D+00 -0.205409D+00 -0.447918D-02
     12 -0.197210D+01 -0.366218D+00 -0.400363D+01 -0.279154D+00  0.117686D+00
     13  0.186779D+00 -0.132128D+00  0.873919D-01  0.189914D+00  0.366929D-01
     14 -0.155742D+00 -0.893997D-01 -0.424662D-01  0.859455D-01 -0.858790D-01
     15  0.853013D-01 -0.329293D-01 -0.140519D+00  0.309243D+00 -0.725469D-02
     16  0.280294D+00  0.124560D+00 -0.596494D-01  0.261204D+00  0.124088D-01
     17  0.174556D+00 -0.121496D-01 -0.287859D-01 -0.768645D-01 -0.216997D+00
     18 -0.143743D+00 -0.370474D-01 -0.285149D-01 -0.228399D+00 -0.760413D-02
     19  0.279684D+00  0.122323D+00  0.104681D+00  0.204841D+00  0.207860D+00
     20 -0.553157D-01 -0.173685D+00 -0.331917D-02  0.187053D+00 -0.102521D+00
     21  0.952996D-01  0.323763D-01 -0.146044D+00  0.173076D+00  0.703957D-01
     22  0.113685D+00 -0.606808D-01  0.106475D+00  0.141489D-02 -0.432378D-02
     23 -0.330771D-01  0.664299D-01  0.479247D-01 -0.120728D-03  0.141450D-01
     24  0.542081D-01  0.108182D+00 -0.414715D-01 -0.658777D-02  0.378825D-02
     25  0.892500D-02  0.304010D-01  0.103787D+00  0.287482D-01 -0.803392D-01
     26  0.302138D-01  0.151010D+00 -0.328916D-01 -0.958971D-01  0.330921D-01
     27  0.976615D-01 -0.299615D-01 -0.101865D-01 -0.844574D-01  0.809745D-01
     28 -0.348804D+01  0.133268D+01  0.554787D+00  0.178138D+00  0.992518D-01
     29  0.156118D+01 -0.326472D+01  0.620904D+00  0.473129D-01 -0.118218D+00
     30  0.552002D+00  0.526830D+00 -0.454284D+01  0.230466D-01 -0.923908D-01
     31 -0.387546D+01 -0.492462D+00  0.913979D+00  0.540142D-01  0.123647D+00
     32 -0.512987D+00 -0.390263D+01 -0.875675D+00  0.129586D+00 -0.659771D-01
     33  0.940323D+00 -0.865598D+00 -0.282998D+01  0.459498D-03  0.315876D-01
     34  0.151517D+00  0.978834D-01  0.401713D-01 -0.348740D+01  0.116472D+01
     35  0.663958D-01 -0.977016D-01 -0.256099D-01  0.125816D+01 -0.335970D+01
     36  0.275963D-01 -0.724668D-01  0.103333D+00  0.664470D+00  0.670225D+00
     37  0.328853D-01  0.103225D+00  0.532306D-01 -0.361398D+01  0.286535D+00
     38  0.122769D+00  0.505968D-01 -0.100890D+00  0.271249D+00 -0.443507D+01
     39  0.799697D-01 -0.108031D+00  0.807003D-01 -0.134823D+01 -0.394189D+00
     40 -0.136551D-01 -0.411976D-02 -0.215251D-01  0.179179D+00  0.507408D-02
     41 -0.212439D-01  0.809872D-02  0.114209D-01  0.239143D-02  0.137298D+00
     42  0.217166D-01 -0.126199D-01 -0.260519D-01 -0.701965D-01  0.714063D-01
     43 -0.568932D-02 -0.713678D-01  0.147152D-01  0.328408D-01  0.691002D-01
     44 -0.926840D-01  0.106697D+00 -0.322612D-01  0.652835D-01  0.923636D-01
     45  0.151699D-01 -0.270103D-01 -0.423895D-01 -0.561493D-01  0.864144D-01
     46  0.314159D-01 -0.103812D-01  0.845750D-05  0.880241D-02  0.110073D-02
     47 -0.248320D-01 -0.719220D-02  0.636260D-03 -0.752123D-02 -0.529880D-02
     48 -0.999386D-02  0.127474D-03 -0.110059D-01 -0.103623D-01  0.570907D-02
     49  0.632619D-02  0.151934D-02  0.597586D-02  0.816237D-01 -0.206280D-01
     50 -0.833659D-02 -0.941529D-02 -0.431067D-02 -0.253131D-01 -0.545213D-01
     51  0.185595D-01  0.218986D-02  0.182442D-02  0.142169D+00 -0.187363D-01
[...]
     63  0.387347D-02  0.199116D-02  0.399934D-02  0.669681D-02  0.254302D-02
     64  0.100941D-02 -0.697189D-03 -0.571129D-01  0.339966D-02 -0.402983D-01
     65 -0.607580D-02 -0.146892D-02 -0.128118D-01  0.322634D-01 -0.527644D-02
     66 -0.580477D-03 -0.377603D-02 -0.396344D-01 -0.261000D-02  0.181117D-01
     67 -0.396975D-02 -0.190438D-02  0.236300D-01 -0.106504D-01  0.623943D-02
     68 -0.167345D-02 -0.501443D-03  0.345998D-04 -0.923362D-02 -0.115642D-03
     69 -0.134126D-02 -0.134469D-02  0.820182D-02 -0.327062D-02 -0.694174D-02
               31            32            33            34            35 
     31  0.369178D+01
     32  0.483328D+00  0.383214D+01
     33 -0.105223D+01  0.104692D+01  0.260601D+01
     34  0.114650D-01  0.181582D-01 -0.558362D-02  0.333070D+01
     35  0.121065D-01 -0.452778D-01  0.239249D-03 -0.136605D+01  0.322471D+01
     36  0.170717D-03  0.877122D-03  0.156963D-01 -0.605343D+00 -0.865710D+00
     37 -0.224589D-01  0.316907D-01  0.115326D-01 -0.644238D-01 -0.111023D+00
     38  0.351397D-01 -0.846407D-02 -0.451933D-02 -0.111854D+00  0.914189D-02
     39  0.818839D-02 -0.745327D-02  0.135567D-01  0.539904D-01  0.469702D-01
     40 -0.280082D-02  0.191553D-03 -0.124523D-02 -0.492806D-02 -0.205420D-02
     41 -0.127820D-02 -0.382411D-03 -0.238137D-02  0.221964D-02 -0.257345D-02
     42  0.584707D-02 -0.644305D-02  0.850590D-02  0.142376D-01  0.108878D-01
     43 -0.157834D-02  0.225000D-02  0.371208D-03 -0.334466D-01  0.432848D-01
     44 -0.131921D-02 -0.241889D-04 -0.438854D-02  0.467559D-01  0.133226D-01
     45 -0.167497D-02  0.264945D-02 -0.396912D-03 -0.655551D-01  0.354381D-01
     46  0.476372D-02 -0.354634D-02  0.425942D-02  0.497726D-02  0.427534D-02
     47 -0.355991D-02  0.128508D-02 -0.278633D-02 -0.303835D-02 -0.248967D-02
     48 -0.104928D-02  0.764704D-03 -0.247039D-02 -0.292430D-02 -0.173758D-02
     49  0.289543D-02 -0.212280D-02  0.411641D-02 -0.227998D-02  0.253106D-02
     50 -0.214314D-02  0.415577D-03 -0.217488D-02 -0.154057D-02 -0.482270D-03
     51  0.472358D-02 -0.292944D-02  0.461352D-02  0.185122D-02  0.374912D-02
     52 -0.240623D-02  0.325898D-02 -0.208725D-02 -0.286844D-01 -0.262282D-02
     53  0.109730D-02  0.108279D-01 -0.127011D-01 -0.254926D-02  0.280498D-02
     54 -0.156694D-02 -0.216263D-02 -0.271725D-02  0.175022D-01  0.673415D-03
     55  0.265698D-01  0.280799D-01 -0.311134D-01  0.840909D-02 -0.164250D-01
     56  0.148776D-01 -0.128110D-01 -0.561600D-02 -0.671046D-02  0.366124D-02
     57 -0.121304D-01 -0.407603D-02 -0.157251D-01 -0.370343D-02 -0.132195D-02
     58 -0.106782D-02  0.384472D-02 -0.740355D-02 -0.119884D-02 -0.502682D-02
     59  0.919495D-03  0.110105D-03 -0.425293D-02 -0.378891D-03 -0.131525D-02
     60 -0.897896D-03 -0.501248D-02  0.762835D-02  0.618044D-04  0.559934D-02
     61  0.850085D-02 -0.131089D-02  0.404791D-02  0.485296D-02  0.586829D-02
     62  0.113742D-02 -0.302573D-02  0.956177D-03  0.676345D-02  0.346626D-02
     63 -0.407392D-02  0.156114D-02 -0.621417D-02 -0.469536D-02 -0.438691D-02
     64  0.105238D-01  0.199782D-02  0.124176D-01 -0.557551D-02 -0.646236D-02
     65  0.772989D-02 -0.783339D-02  0.717987D-02  0.121212D-02  0.986816D-03
     66  0.193466D-01  0.592740D-03  0.833423D-02 -0.389057D-05  0.161826D-03
     67  0.363688D-02 -0.175888D-02  0.484148D-02  0.595321D-02  0.547734D-02
     68  0.134760D-02 -0.103594D-02  0.142303D-02  0.378048D-02  0.215006D-02
     69  0.270436D-02 -0.689915D-03  0.189636D-02  0.346333D-02  0.279092D-02
               36            37            38            39            40 
     36  0.406881D+01
     37  0.589664D-01  0.346156D+01
     38  0.508282D-01 -0.329168D+00  0.444262D+01
     39  0.848536D-01  0.132471D+01  0.379389D+00  0.245324D+01
     40  0.189789D-02 -0.265629D-01  0.799422D-02 -0.306890D-01  0.393776D+01
     41  0.311041D-02  0.698315D-02 -0.248814D-01 -0.319846D-01  0.705548D-01
     42  0.147861D-01 -0.338756D-01 -0.321740D-01  0.123633D+00  0.135673D+01
     43 -0.702543D-01 -0.863219D-02 -0.253271D-02  0.284583D-02  0.867163D-01
     44  0.461945D-01  0.447991D-02  0.164437D-01 -0.314293D-01  0.106335D+00
     45 -0.160350D-01  0.509606D-03 -0.173114D-01  0.105800D-01  0.780470D-01
     46  0.118558D-02  0.175439D-01 -0.151356D-01  0.341106D-01  0.867484D-01
     47 -0.840957D-03 -0.111634D-01 -0.800665D-02 -0.148689D-01 -0.172825D-01
     48 -0.204107D-02  0.175310D-01 -0.551806D-02 -0.307553D-02 -0.665948D-01
     49 -0.339579D-02 -0.225531D-02 -0.137049D-02  0.637311D-02 -0.878633D-01
     50 -0.113997D-02  0.397907D-03 -0.178520D-02 -0.251315D-02 -0.880868D-02
     51 -0.178314D-03 -0.926358D-03 -0.300214D-02  0.107716D-01 -0.116981D-01
     52  0.181158D-01  0.638714D-02  0.263250D-02 -0.536689D-02  0.102319D-01
     53 -0.295040D-02  0.885527D-02  0.644545D-03 -0.653393D-02  0.282612D-02
     54 -0.246387D-02 -0.304440D-02 -0.547110D-03 -0.151218D-02  0.738878D-02
     55 -0.751679D-02  0.295223D-02  0.117608D-02 -0.354435D-02 -0.370621D-02
     56  0.398356D-02 -0.218183D-02 -0.110886D-02  0.185611D-02  0.876023D-03
     57 -0.587044D-02  0.268002D-02  0.416233D-03 -0.290599D-02 -0.166400D-02
     58 -0.566179D-02  0.428295D-02  0.112496D-02 -0.491740D-02  0.554013D-02
     59  0.853682D-03  0.738072D-03 -0.500988D-03 -0.549797D-03 -0.102651D-02
     60  0.359642D-02 -0.493050D-02 -0.105286D-02  0.398559D-02 -0.301032D-03
     61  0.128946D-02 -0.856207D-02 -0.331282D-02  0.313580D-02  0.191356D-02
     62  0.109628D-02 -0.497373D-02 -0.403001D-02  0.418352D-02  0.525087D-02
     63 -0.299964D-02 -0.255009D-02 -0.298583D-02 -0.839679D-02 -0.850212D-02
     64 -0.371815D-02 -0.509847D-02  0.506215D-02  0.183312D-02 -0.809131D-02
     65 -0.461426D-03  0.314643D-02  0.480088D-02  0.286484D-01  0.162786D-01
     66 -0.745712D-03  0.465396D-02  0.175825D-01  0.211729D-01 -0.189329D-02
     67  0.283467D-02 -0.239043D-02 -0.692954D-04  0.695975D-02  0.760649D-02
     68  0.153253D-02 -0.272055D-03 -0.137128D-02  0.347094D-02  0.534946D-02
     69  0.676665D-03 -0.588401D-03  0.339605D-04  0.399115D-02  0.155068D-02
               41            42            43            44            45 
     41  0.463731D+01
     42 -0.976654D-01  0.245365D+01
     43  0.110746D+00  0.897547D-01  0.435732D+01
     44 -0.549563D-01 -0.189648D+00  0.153069D+00  0.139288D+01
     45 -0.176783D+00 -0.496928D-02  0.531680D-01 -0.144028D+00  0.430457D+01
     46 -0.480659D-02 -0.794696D-01 -0.616917D-01 -0.560412D-01  0.179106D-01
     47 -0.303094D-01  0.101942D-01 -0.484899D-01  0.304818D-02  0.980707D-02
     48  0.254372D-02  0.132072D-01  0.166023D-01  0.664719D-02  0.308527D-01
     49 -0.159502D-01 -0.114925D-01  0.586402D-03  0.676940D-02  0.307992D-02
     50  0.335419D-01  0.106316D-02  0.114155D-02 -0.486053D-03  0.100016D-02
     51 -0.394987D-02  0.296869D-01  0.302649D-02  0.122561D-01  0.310901D-02
     52  0.218207D-02  0.112737D-01  0.380942D-02 -0.375722D-02  0.903661D-05
     53 -0.421241D-02  0.867728D-02  0.129327D-02 -0.633617D-02 -0.335203D-03
     54  0.201514D-02  0.233503D-02  0.204626D-02 -0.266543D-02 -0.259070D-02
     55  0.105819D-02  0.437722D-02  0.235792D-02 -0.540826D-02  0.179122D-03
     56 -0.113972D-02 -0.239078D-02 -0.209156D-02  0.266470D-02  0.161174D-03
     57  0.516485D-03  0.337411D-02  0.144264D-02 -0.336239D-02 -0.102148D-02
     58 -0.213598D-03  0.560920D-02  0.233596D-02 -0.501114D-02 -0.139517D-02
     59 -0.249370D-02  0.256085D-03 -0.686032D-03 -0.445837D-03  0.207331D-03
     60 -0.498495D-03 -0.601145D-02 -0.198338D-02  0.413069D-02  0.120773D-03
     61  0.288104D-02 -0.505243D-02 -0.102282D-02  0.244640D-03 -0.105954D-03
     62  0.711063D-03 -0.618215D-02 -0.481677D-03  0.192242D-02  0.246468D-03
     63 -0.323372D-02  0.860709D-02 -0.516945D-03 -0.713185D-02 -0.491761D-03
     64  0.587554D-02  0.163995D-02 -0.227357D-02 -0.621248D-02 -0.850469D-03
     65  0.102758D-01 -0.149982D-01  0.143944D-02  0.132411D-01  0.220545D-02
     66 -0.332854D-02 -0.843269D-02  0.610354D-04  0.343445D-02 -0.206318D-02
     67  0.281737D-02 -0.684104D-02 -0.167484D-02  0.284997D-02  0.434771D-03
     68 -0.993918D-04 -0.377623D-02 -0.434084D-02 -0.140379D-02 -0.687544D-04
     69 -0.192804D-03 -0.348547D-02  0.442272D-03  0.290694D-02  0.276137D-03
               46            47            48            49            50 
     46  0.267640D+01
     47  0.100664D+01  0.342999D+01
     48  0.982609D+00 -0.764269D+00  0.319340D+01
     49  0.130584D+00  0.282744D-02  0.729844D-01  0.373886D+01
     50  0.450212D-02  0.127485D+00 -0.663280D-01  0.382633D+00  0.396526D+01
     51  0.943034D-01 -0.727850D-01 -0.241211D+00 -0.103229D+01  0.640318D+00
     52  0.146198D-02 -0.288642D-03 -0.452011D-03  0.112475D-02 -0.221288D-04
     53  0.331350D-02 -0.206614D-02 -0.180031D-02  0.270012D-02 -0.125738D-02
     54  0.132704D-02 -0.537655D-03 -0.142715D-02  0.175326D-02 -0.294635D-03
     55  0.291807D-02 -0.168918D-02 -0.144937D-02  0.223867D-02 -0.930083D-03
     56 -0.156431D-02  0.467740D-03  0.806619D-03 -0.107047D-02  0.128757D-04
     57  0.188452D-02 -0.112458D-02 -0.149353D-02  0.184740D-02 -0.741074D-03
     58  0.292010D-02 -0.140883D-02 -0.192106D-02  0.267331D-02 -0.804301D-03
     59  0.206876D-03 -0.505060D-03 -0.152860D-03  0.251496D-03 -0.574334D-03
     60 -0.256619D-02  0.131973D-02  0.134497D-02 -0.173640D-02  0.610447D-03
     61  0.275220D-01  0.178062D-01 -0.633444D-02 -0.266107D-01 -0.141970D-02
     62  0.300499D-01 -0.739900D-01  0.288262D-01 -0.128709D-01  0.224192D-01
     63 -0.469442D-02  0.266551D-01  0.221975D-01  0.149360D-01 -0.684178D-01
     64  0.113095D-01 -0.629657D-01 -0.262571D-01  0.549344D-02 -0.788491D-02
     65 -0.721860D-01  0.742835D-01  0.444171D-01 -0.516143D-02  0.743314D-02
     66 -0.250721D-01  0.386948D-01 -0.135670D-01 -0.326498D-03 -0.117519D-02
     67 -0.666803D-02  0.800923D-02  0.612392D-02  0.198812D-01 -0.329530D-01
     68 -0.224833D-02  0.118878D-01  0.832905D-02 -0.274649D-01 -0.636007D-01
     69 -0.270514D-02  0.866892D-02  0.233101D-02  0.974079D-02  0.333703D-01
               51            52            53            54            55 
     51  0.200489D+01
     52  0.108210D-02  0.384038D+01
     53  0.342587D-02  0.243797D+00  0.193563D+01
     54  0.133352D-02  0.191049D+00 -0.798206D+00  0.367318D+01
     55  0.301237D-02  0.377174D-01  0.194629D+00 -0.481583D-01  0.258286D+01
     56 -0.151242D-02  0.153602D+00 -0.153204D+00  0.901524D-01  0.605968D+00
     57  0.205353D-02 -0.313287D-01  0.800284D-01  0.130384D+00 -0.987659D+00
     58  0.284747D-02  0.213982D-01  0.903590D-01  0.127333D+00  0.111549D+00
     59  0.330446D-03  0.815197D-01  0.488018D-01 -0.122330D+00 -0.584983D-02
     60 -0.269510D-02  0.103705D+00 -0.112646D+00 -0.590927D-01 -0.231978D-02
     61  0.186566D-02  0.502966D-03  0.182401D-02  0.234736D-03  0.175311D-02
     62 -0.709051D-01  0.637042D-03  0.999168D-03  0.367725D-03  0.964651D-03
     63  0.671325D-01 -0.634760D-03 -0.355189D-02 -0.160334D-02 -0.296390D-02
     64  0.964836D-02  0.177794D-03 -0.156886D-02 -0.747250D-03 -0.141748D-02
     65 -0.825914D-02  0.149383D-02  0.332060D-02  0.163466D-02  0.269369D-02
     66 -0.283215D-03  0.418162D-03  0.142748D-02 -0.411901D-03  0.138675D-02
     67  0.898481D-02  0.604685D-03  0.380981D-02  0.156981D-02  0.319916D-02
     68  0.344117D-01  0.450265D-03  0.125395D-02  0.700602D-03  0.105764D-02
     69  0.161976D-01  0.231569D-03  0.161900D-02  0.241864D-03  0.142940D-02
               56            57            58            59            60 
     56  0.338378D+01
     57  0.658778D+00  0.248591D+01
     58 -0.725377D-02  0.209754D-02  0.265082D+01
     59  0.501786D-01  0.105609D+00 -0.256824D+00  0.362912D+01
     60  0.917019D-01 -0.153519D+00  0.118310D+01  0.360492D+00  0.239727D+01
     61 -0.326377D-03  0.731544D-03  0.122236D-02  0.445570D-03 -0.113206D-02
     62 -0.779240D-03  0.491387D-03  0.959527D-03 -0.184600D-03 -0.809613D-03
     63  0.110624D-02 -0.242713D-02 -0.304410D-02 -0.764679D-03  0.251852D-02
     64  0.920362D-03 -0.118496D-02 -0.118699D-02 -0.557522D-04  0.152423D-02
     65 -0.139865D-02  0.188202D-02  0.313943D-02  0.251911D-03 -0.214836D-02
     66 -0.314627D-03  0.141823D-03  0.479831D-03  0.204077D-03 -0.113310D-02
     67 -0.110118D-02  0.249615D-02  0.305504D-02  0.822027D-03 -0.263748D-02
     68 -0.716338D-03  0.799358D-03  0.126001D-02  0.766721D-05 -0.974498D-03
     69 -0.549222D-03  0.751677D-03  0.102713D-02  0.267060D-03 -0.129736D-02
               61            62            63            64            65 
     61  0.392184D+01
     62 -0.173354D+00  0.395204D+01
     63  0.103053D+00  0.728694D+00  0.195807D+01
     64  0.421696D-01  0.312520D-01  0.209910D+00  0.268845D+01
     65  0.604347D-01  0.162876D+00 -0.107213D+00  0.109203D+01  0.311789D+01
     66  0.261289D+00 -0.769141D-01 -0.197346D+00  0.612008D+00 -0.552106D+00
     67  0.314793D-01 -0.297963D-02 -0.124780D+00 -0.188734D+00  0.309135D-01
     68 -0.616358D-02  0.890603D-01 -0.307892D-01  0.252078D-01  0.104104D+00
     69 -0.130490D+00 -0.264201D-01 -0.112627D+00  0.251747D-02  0.114682D-01
               66            67            68            69 
     66  0.391882D+01
     67 -0.105135D-01  0.193880D+01
     68  0.133875D-01 -0.882649D+00  0.324394D+01
     69  0.104981D+00 -0.795024D+00 -0.477836D+00  0.327245D+01
 Leave Link  701 at Sun Sep 29 14:53:59 2019, MaxMem=   671088640 cpu:              44.7 elap:              22.4
 (Enter /shared/centos7/gaussian/g16/l702.exe)
 L702 exits ... SP integral derivatives will be done elsewhere.
 Leave Link  702 at Sun Sep 29 14:54:00 2019, MaxMem=   671088640 cpu:               1.5 elap:               0.8
 (Enter /shared/centos7/gaussian/g16/l703.exe)
 Integral derivatives from FoFJK, PRISM(SPDF).
 Compute integral second derivatives, UseDBF=F ICtDFT=           0.
 ICntrl=    100147.
 Calling FoFJK, ICntrl=    100147 FMM=F ISym2X=0 I1Cent= 0 IOpClX= 0 NMat=1 NMatS=1 NMatT=0.
 FoFJK:  IHMeth= 1 ICntrl=  100147 DoSepK=F KAlg= 0 I1Cent=           0 FoldK=F
 IRaf=         0 NMat=       1 IRICut=       1 DoRegI=T DoRafI=F ISym2E= 0 IDoP0=0 IntGTp=1.
 FoFCou: FMM=F IPFlag=           0 FMFlag=      100000 FMFlg1=         800
         NFxFlg=           0 DoJE=F BraDBF=F KetDBF=F FulRan=T
         wScrn=  0.000000 ICntrl=    100147 IOpCl=  0 I1Cent=           0 NGrid=           0
         NMat0=    1 NMatS0=      1 NMatT0=    0 NMatD0=    1 NMtDS0=    0 NMtDT0=    0
 Symmetry not used in FoFCou.
 FoFCou:  KetSym=F NOpSet=  1 NOpAb=1 NOp=  1.
 FoFCou:  CnvScl= 1.00D+00 Thresh= 1.00D-08 IAcrcy=      12.
 PrismS was handed   669985928 working-precision words and 13025 shell-pairs
 FoFCou: LinMIO=F DoNuc=F BraDBF=F KetDBF=F HaveP=T PDBF=F HaveZ=T HaveW=F
         NIJTC =      10 NIJTAt=       0 NIJTCD=       0 NIJTT =      10
         IJTBeg=       1 IJTEnd=      10 KLTBeg=       1 KLTEnd=      10
         IPTBeg=       1 IPTEnd=      10 IPTBCv=       1 IPTECv=      10
         IZTBeg=       1 IZTEnd=      10 IZTBCv=       1 IZTECv=      10
         IWTBeg=      11 IWTEnd=      10 IWTBCv=      11 IWTECv=      10
         INTBeg=       1 INTEnd=       0 IFTBCv=       1 IFTECv=      10
 NCel replicated for PrismC:     1
 CoulSu-InSpLW:  IPartL=    0 NPrtUS=   20 NPrtUL=    1 DoSpLW=F IThBeg=    0 IThEnd=   19 NThAct=   20.
 CoulSu:  IncDef=  1024 NBBP=       84831825 NTPThr=   100 NPartT=   20 Incr=        1024 LDynOK=F GPUOK=T.
 CoulSu:  NPrtUS=  20 ThrOK=T IAlg=1 NPAlg=1 LenDen=           0 LWGrdD=           0 DoCopy=F ISkipM=0
          DoSpLW=F IThBeg=    0 IThEnd=   19.
 Enter PrismC:  IPart=  0 JobTyp=22 DoJE=F Cont=F.
 PrismC:  IPart=     0 DynPar=T LinDyn=F Incr=        1024 UseFst=F UseS4=T ISplat=2.
 PrismC was handed    33261750 working-precision words and 13025 shell-pairs
 Enter PrismC:  IPart=  9 JobTyp=22 DoJE=F Cont=F.
 PrismC:  IPart=     9 DynPar=T LinDyn=F Incr=        1024 UseFst=F UseS4=T ISplat=2.
 PrismC was handed    33261750 working-precision words and 13025 shell-pairs
 Enter PrismC:  IPart=  4 JobTyp=22 DoJE=F Cont=F.
 PrismC:  IPart=     4 DynPar=T LinDyn=F Incr=        1024 UseFst=F UseS4=T ISplat=2.
 PrismC was handed    33261750 working-precision words and 13025 shell-pairs
 Enter PrismC:  IPart= 13 JobTyp=22 DoJE=F Cont=F.
 Enter PrismC:  IPart= 10 JobTyp=22 DoJE=F Cont=F.
 PrismC:  IPart=    10 DynPar=T LinDyn=F Incr=        1024 UseFst=F UseS4=T ISplat=2.
 PrismC was handed    33261750 working-precision words and 13025 shell-pairs
 Enter PrismC:  IPart=  2 JobTyp=22 DoJE=F Cont=F.
 PrismC:  IPart=     2 DynPar=T LinDyn=F Incr=        1024 UseFst=F UseS4=T ISplat=2.
 PrismC was handed    33261750 working-precision words and 13025 shell-pairs
 PrismC:  IPart=    13 DynPar=T LinDyn=F Incr=        1024 UseFst=F UseS4=T ISplat=2.
 PrismC was handed    33261750 working-precision words and 13025 shell-pairs
 Enter PrismC:  IPart= 11 JobTyp=22 DoJE=F Cont=F.
 PrismC:  IPart=    11 DynPar=T LinDyn=F Incr=        1024 UseFst=F UseS4=T ISplat=2.
 PrismC was handed    33261750 working-precision words and 13025 shell-pairs
 Enter PrismC:  IPart= 19 JobTyp=22 DoJE=F Cont=F.
 PrismC:  IPart=    19 DynPar=T LinDyn=F Incr=        1024 UseFst=F UseS4=T ISplat=2.
 PrismC was handed    33261750 working-precision words and 13025 shell-pairs
 Enter PrismC:  IPart=  5 JobTyp=22 DoJE=F Cont=F.
 PrismC:  IPart=     5 DynPar=T LinDyn=F Incr=        1024 UseFst=F UseS4=T ISplat=2.
 PrismC was handed    33261750 working-precision words and 13025 shell-pairs
 Enter PrismC:  IPart= 14 JobTyp=22 DoJE=F Cont=F.
 PrismC:  IPart=    14 DynPar=T LinDyn=F Incr=        1024 UseFst=F UseS4=T ISplat=2.
 PrismC was handed    33261750 working-precision words and 13025 shell-pairs
 Enter PrismC:  IPart=  3 JobTyp=22 DoJE=F Cont=F.
 PrismC:  IPart=     3 DynPar=T LinDyn=F Incr=        1024 UseFst=F UseS4=T ISplat=2.
 PrismC was handed    33261750 working-precision words and 13025 shell-pairs
 Enter PrismC:  IPart=  7 JobTyp=22 DoJE=F Cont=F.
 PrismC:  IPart=     7 DynPar=T LinDyn=F Incr=        1024 UseFst=F UseS4=T ISplat=2.
 PrismC was handed    33261750 working-precision words and 13025 shell-pairs
 Enter PrismC:  IPart=  8 JobTyp=22 DoJE=F Cont=F.
 PrismC:  IPart=     8 DynPar=T LinDyn=F Incr=        1024 UseFst=F UseS4=T ISplat=2.
 PrismC was handed    33261750 working-precision words and 13025 shell-pairs
 Enter PrismC:  IPart= 18 JobTyp=22 DoJE=F Cont=F.
 PrismC:  IPart=    18 DynPar=T LinDyn=F Incr=        1024 UseFst=F UseS4=T ISplat=2.
 PrismC was handed    33261750 working-precision words and 13025 shell-pairs
 Enter PrismC:  IPart=  1 JobTyp=22 DoJE=F Cont=F.
 PrismC:  IPart=     1 DynPar=T LinDyn=F Incr=        1024 UseFst=F UseS4=T ISplat=2.
 PrismC was handed    33261750 working-precision words and 13025 shell-pairs
 Enter PrismC:  IPart= 16 JobTyp=22 DoJE=F Cont=F.
 PrismC:  IPart=    16 DynPar=T LinDyn=F Incr=        1024 UseFst=F UseS4=T ISplat=2.
 PrismC was handed    33261750 working-precision words and 13025 shell-pairs
 Enter PrismC:  IPart= 17 JobTyp=22 DoJE=F Cont=F.
 PrismC:  IPart=    17 DynPar=T LinDyn=F Incr=        1024 UseFst=F UseS4=T ISplat=2.
 PrismC was handed    33261750 working-precision words and 13025 shell-pairs
 Enter PrismC:  IPart= 12 JobTyp=22 DoJE=F Cont=F.
 PrismC:  IPart=    12 DynPar=T LinDyn=F Incr=        1024 UseFst=F UseS4=T ISplat=2.
 PrismC was handed    33261750 working-precision words and 13025 shell-pairs
 Enter PrismC:  IPart= 15 JobTyp=22 DoJE=F Cont=F.
 PrismC:  IPart=    15 DynPar=T LinDyn=F Incr=        1024 UseFst=F UseS4=T ISplat=2.
 PrismC was handed    33261750 working-precision words and 13025 shell-pairs
 Enter PrismC:  IPart=  6 JobTyp=22 DoJE=F Cont=F.
 PrismC:  IPart=     6 DynPar=T LinDyn=F Incr=        1024 UseFst=F UseS4=T ISplat=2.
 PrismC was handed    33261750 working-precision words and 13025 shell-pairs
