 Entering Gaussian System, Link 0=g16
 Input=verytight/species/CCCCCCC/conformers/CCCCCCC_349.com
 Output=verytight/species/CCCCCCC/conformers/CCCCCCC_349.log
 Initial command:
 /shared/centos7/gaussian/g16/l1.exe "/scratch/harms.n/gauss_scrdir/Gau-26858.inp" -scrdir="/scratch/harms.n/gauss_scrdir/"
 Entering Link 1 = /shared/centos7/gaussian/g16/l1.exe PID=     26859.
  
 Copyright (c) 1988,1990,1992,1993,1995,1998,2003,2009,2016,
            Gaussian, Inc.  All Rights Reserved.
  
 This is part of the Gaussian(R) 16 program.  It is based on
 the Gaussian(R) 09 system (copyright 2009, Gaussian, Inc.),
 the Gaussian(R) 03 system (copyright 2003, Gaussian, Inc.),
 the Gaussian(R) 98 system (copyright 1998, Gaussian, Inc.),
 the Gaussian(R) 94 system (copyright 1995, Gaussian, Inc.),
 the Gaussian 92(TM) system (copyright 1992, Gaussian, Inc.),
 the Gaussian 90(TM) system (copyright 1990, Gaussian, Inc.),
 the Gaussian 88(TM) system (copyright 1988, Gaussian, Inc.),
 the Gaussian 86(TM) system (copyright 1986, Carnegie Mellon
 University), and the Gaussian 82(TM) system (copyright 1983,
 Carnegie Mellon University). Gaussian is a federally registered
 trademark of Gaussian, Inc.
  
 This software contains proprietary and confidential information,
 including trade secrets, belonging to Gaussian, Inc.
  
 This software is provided under written license and may be
 used, copied, transmitted, or stored only in accord with that
 written license.
  
 The following legend is applicable only to US Government
 contracts under FAR:
  
                    RESTRICTED RIGHTS LEGEND
  
 Use, reproduction and disclosure by the US Government is
 subject to restrictions as set forth in subparagraphs (a)
 and (c) of the Commercial Computer Software - Restricted
 Rights clause in FAR 52.227-19.
  
 Gaussian, Inc.
 340 Quinnipiac St., Bldg. 40, Wallingford CT 06492
  
  
 ---------------------------------------------------------------
 Warning -- This program may not be used in any manner that
 competes with the business of Gaussian, Inc. or will provide
 assistance to any competitor of Gaussian, Inc.  The licensee
 of this program is prohibited from giving any competitor of
 Gaussian, Inc. access to this program.  By using this program,
 the user acknowledges that Gaussian, Inc. is engaged in the
 business of creating and licensing software in the field of
 computational chemistry and represents and warrants to the
 licensee that it is not a competitor of Gaussian, Inc. and that
 it will not use this program in any manner prohibited above.
 ---------------------------------------------------------------
  

 Cite this work as:
 Gaussian 16, Revision A.03,
 M. J. Frisch, G. W. Trucks, H. B. Schlegel, G. E. Scuseria, 
 M. A. Robb, J. R. Cheeseman, G. Scalmani, V. Barone, 
 G. A. Petersson, H. Nakatsuji, X. Li, M. Caricato, A. V. Marenich, 
 J. Bloino, B. G. Janesko, R. Gomperts, B. Mennucci, H. P. Hratchian, 
 J. V. Ortiz, A. F. Izmaylov, J. L. Sonnenberg, D. Williams-Young, 
 F. Ding, F. Lipparini, F. Egidi, J. Goings, B. Peng, A. Petrone, 
 T. Henderson, D. Ranasinghe, V. G. Zakrzewski, J. Gao, N. Rega, 
 G. Zheng, W. Liang, M. Hada, M. Ehara, K. Toyota, R. Fukuda, 
 J. Hasegawa, M. Ishida, T. Nakajima, Y. Honda, O. Kitao, H. Nakai, 
 T. Vreven, K. Throssell, J. A. Montgomery, Jr., J. E. Peralta, 
 F. Ogliaro, M. J. Bearpark, J. J. Heyd, E. N. Brothers, K. N. Kudin, 
 V. N. Staroverov, T. A. Keith, R. Kobayashi, J. Normand, 
 K. Raghavachari, A. P. Rendell, J. C. Burant, S. S. Iyengar, 
 J. Tomasi, M. Cossi, J. M. Millam, M. Klene, C. Adamo, R. Cammi, 
 J. W. Ochterski, R. L. Martin, K. Morokuma, O. Farkas, 
 J. B. Foresman, and D. J. Fox, Gaussian, Inc., Wallingford CT, 2016.
 
 ******************************************
 Gaussian 16:  EM64L-G16RevA.03 25-Dec-2016
                29-Sep-2019 
 ******************************************
 %nprocshared=20
 Will use up to   20 processors via shared memory.
 %mem=5GB
 ----------------------------------------------------------------------
 #p m062x/cc-pVTZ opt=(calcfc,maxcycles=900,Tight) freq IOP(7/33=1,2/16
 =3) scf=(maxcycle=900)
 ----------------------------------------------------------------------
 1/6=900,7=10,10=4,18=20,19=15,26=3,38=1/1,3;
 2/9=110,12=2,16=3,17=6,18=5,40=1/2;
 3/5=16,6=1,11=2,25=1,30=1,71=2,74=-55,140=1/1,2,3;
 4//1;
 5/5=2,7=900,38=5/2;
 8/6=4,10=90,11=11/1;
 11/6=1,8=1,9=11,15=111,16=1/1,2,10;
 10/6=1,13=1/2;
 6/7=2,8=2,9=2,10=2,28=1/1;
 7/10=1,18=20,25=1,33=1/1,2,3,16;
 1/6=900,7=10,10=4,18=20,19=15,26=3/3(2);
 2/9=110,16=3/2;
 99//99;
 2/9=110,16=3/2;
 3/5=16,6=1,11=2,25=1,30=1,71=1,74=-55/1,2,3;
 4/5=5,16=3,69=1/1;
 5/5=2,7=900,38=5/2;
 7/33=1/1,2,3,16;
 1/6=900,7=10,18=20,19=15,26=3/3(-5);
 2/9=110,16=3/2;
 6/7=2,8=2,9=2,10=2,19=2,28=1/1;
 99/9=1/99;
 Leave Link    1 at Sun Sep 29 10:21:32 2019, MaxMem=   671088640 cpu:               4.2 elap:               2.1
 (Enter /shared/centos7/gaussian/g16/l101.exe)
 ------------------------------
 Gaussian input prepared by ASE
 ------------------------------
 Symbolic Z-matrix:
 Charge =  0 Multiplicity = 1
 C                     1.45245  -1.11103   0.69414 
 C                     0.16148  -0.39515   0.9012 
 C                    -1.06407  -1.19802   0.54285 
 C                     2.30322  -0.59383  -0.41659 
 C                    -1.26166  -1.43223  -0.93628 
 C                     1.64768  -0.5505   -1.73492 
 C                    -1.59709  -0.18449  -1.71123 
 H                     3.22564  -1.23711  -0.4833 
 H                     2.67096   0.42732  -0.15625 
 H                     1.26165  -2.19193   0.52436 
 H                     2.0485   -1.06453   1.6286 
 H                     0.15076   0.5511    0.33802 
 H                     0.0738   -0.10789   1.97034 
 H                    -1.95412  -0.68706   0.94764 
 H                    -1.01469  -2.18129   1.0546 
 H                    -0.33117  -1.88117  -1.37233 
 H                    -2.0665   -2.17376  -1.07639 
 H                     1.14773  -1.50902  -1.96984 
 H                     0.84942   0.24906  -1.76699 
 H                     2.37918  -0.33012  -2.54103 
 H                    -0.75592   0.50977  -1.70797 
 H                    -2.49234   0.33965  -1.27573 
 H                    -1.83527  -0.4388   -2.78383 
 
 ITRead=  0  0  0  0  0  0  0  0  0  0  0  0  0  0  0  0  0  0  0  0
 ITRead=  0  0  0
 MicOpt= -1 -1 -1 -1 -1 -1 -1 -1 -1 -1 -1 -1 -1 -1 -1 -1 -1 -1 -1 -1
 MicOpt= -1 -1 -1
 NAtoms=     23 NQM=       23 NQMF=       0 NMMI=      0 NMMIF=      0
                NMic=       0 NMicF=      0.
                    Isotopes and Nuclear Properties:
 (Nuclear quadrupole moments (NQMom) in fm**2, nuclear magnetic moments (NMagM)
  in nuclear magnetons)

  Atom         1           2           3           4           5           6           7           8           9          10
 IAtWgt=          12          12          12          12          12          12          12           1           1           1
 AtmWgt=  12.0000000  12.0000000  12.0000000  12.0000000  12.0000000  12.0000000  12.0000000   1.0078250   1.0078250   1.0078250
 NucSpn=           0           0           0           0           0           0           0           1           1           1
 AtZEff=  -0.0000000  -0.0000000  -0.0000000  -0.0000000  -0.0000000  -0.0000000  -0.0000000  -0.0000000  -0.0000000  -0.0000000
 NQMom=    0.0000000   0.0000000   0.0000000   0.0000000   0.0000000   0.0000000   0.0000000   0.0000000   0.0000000   0.0000000
 NMagM=    0.0000000   0.0000000   0.0000000   0.0000000   0.0000000   0.0000000   0.0000000   2.7928460   2.7928460   2.7928460
 AtZNuc=   6.0000000   6.0000000   6.0000000   6.0000000   6.0000000   6.0000000   6.0000000   1.0000000   1.0000000   1.0000000

  Atom        11          12          13          14          15          16          17          18          19          20
 IAtWgt=           1           1           1           1           1           1           1           1           1           1
 AtmWgt=   1.0078250   1.0078250   1.0078250   1.0078250   1.0078250   1.0078250   1.0078250   1.0078250   1.0078250   1.0078250
 NucSpn=           1           1           1           1           1           1           1           1           1           1
 AtZEff=  -0.0000000  -0.0000000  -0.0000000  -0.0000000  -0.0000000  -0.0000000  -0.0000000  -0.0000000  -0.0000000  -0.0000000
 NQMom=    0.0000000   0.0000000   0.0000000   0.0000000   0.0000000   0.0000000   0.0000000   0.0000000   0.0000000   0.0000000
 NMagM=    2.7928460   2.7928460   2.7928460   2.7928460   2.7928460   2.7928460   2.7928460   2.7928460   2.7928460   2.7928460
 AtZNuc=   1.0000000   1.0000000   1.0000000   1.0000000   1.0000000   1.0000000   1.0000000   1.0000000   1.0000000   1.0000000

  Atom        21          22          23
 IAtWgt=           1           1           1
 AtmWgt=   1.0078250   1.0078250   1.0078250
 NucSpn=           1           1           1
 AtZEff=  -0.0000000  -0.0000000  -0.0000000
 NQMom=    0.0000000   0.0000000   0.0000000
 NMagM=    2.7928460   2.7928460   2.7928460
 AtZNuc=   1.0000000   1.0000000   1.0000000
 Leave Link  101 at Sun Sep 29 10:21:33 2019, MaxMem=   671088640 cpu:               2.2 elap:               1.1
 (Enter /shared/centos7/gaussian/g16/l103.exe)

 GradGradGradGradGradGradGradGradGradGradGradGradGradGradGradGradGradGrad
 Berny optimization.
 Initialization pass.
                           ----------------------------
                           !    Initial Parameters    !
                           ! (Angstroms and Degrees)  !
 --------------------------                            --------------------------
 ! Name  Definition              Value          Derivative Info.                !
 --------------------------------------------------------------------------------
 ! R1    R(1,2)                  1.4906         calculate D2E/DX2 analytically  !
 ! R2    R(1,4)                  1.4917         calculate D2E/DX2 analytically  !
 ! R3    R(1,10)                 1.1107         calculate D2E/DX2 analytically  !
 ! R4    R(1,11)                 1.1093         calculate D2E/DX2 analytically  !
 ! R5    R(2,3)                  1.5083         calculate D2E/DX2 analytically  !
 ! R6    R(2,12)                 1.1012         calculate D2E/DX2 analytically  !
 ! R7    R(2,13)                 1.1105         calculate D2E/DX2 analytically  !
 ! R8    R(3,5)                  1.5105         calculate D2E/DX2 analytically  !
 ! R9    R(3,14)                 1.1032         calculate D2E/DX2 analytically  !
 ! R10   R(3,15)                 1.1096         calculate D2E/DX2 analytically  !
 ! R11   R(4,6)                  1.473          calculate D2E/DX2 analytically  !
 ! R12   R(4,8)                  1.1266         calculate D2E/DX2 analytically  !
 ! R13   R(4,9)                  1.1161         calculate D2E/DX2 analytically  !
 ! R14   R(5,7)                  1.5066         calculate D2E/DX2 analytically  !
 ! R15   R(5,16)                 1.1214         calculate D2E/DX2 analytically  !
 ! R16   R(5,17)                 1.1033         calculate D2E/DX2 analytically  !
 ! R17   R(6,18)                 1.1063         calculate D2E/DX2 analytically  !
 ! R18   R(6,19)                 1.1303         calculate D2E/DX2 analytically  !
 ! R19   R(6,20)                 1.1106         calculate D2E/DX2 analytically  !
 ! R20   R(7,21)                 1.0907         calculate D2E/DX2 analytically  !
 ! R21   R(7,22)                 1.1251         calculate D2E/DX2 analytically  !
 ! R22   R(7,23)                 1.1278         calculate D2E/DX2 analytically  !
 ! A1    A(2,1,4)              115.5233         calculate D2E/DX2 analytically  !
 ! A2    A(2,1,10)             109.8669         calculate D2E/DX2 analytically  !
 ! A3    A(2,1,11)             109.1592         calculate D2E/DX2 analytically  !
 ! A4    A(4,1,10)             108.7591         calculate D2E/DX2 analytically  !
 ! A5    A(4,1,11)             107.8341         calculate D2E/DX2 analytically  !
 ! A6    A(10,1,11)            105.1802         calculate D2E/DX2 analytically  !
 ! A7    A(1,2,3)              114.5232         calculate D2E/DX2 analytically  !
 ! A8    A(1,2,12)             110.4906         calculate D2E/DX2 analytically  !
 ! A9    A(1,2,13)             109.0469         calculate D2E/DX2 analytically  !
 ! A10   A(3,2,12)             109.1464         calculate D2E/DX2 analytically  !
 ! A11   A(3,2,13)             107.5945         calculate D2E/DX2 analytically  !
 ! A12   A(12,2,13)            105.6232         calculate D2E/DX2 analytically  !
 ! A13   A(2,3,5)              114.9274         calculate D2E/DX2 analytically  !
 ! A14   A(2,3,14)             108.7724         calculate D2E/DX2 analytically  !
 ! A15   A(2,3,15)             109.0243         calculate D2E/DX2 analytically  !
 ! A16   A(5,3,14)             108.9996         calculate D2E/DX2 analytically  !
 ! A17   A(5,3,15)             108.6658         calculate D2E/DX2 analytically  !
 ! A18   A(14,3,15)            106.0878         calculate D2E/DX2 analytically  !
 ! A19   A(1,4,6)              115.0131         calculate D2E/DX2 analytically  !
 ! A20   A(1,4,8)              108.2466         calculate D2E/DX2 analytically  !
 ! A21   A(1,4,9)              109.3571         calculate D2E/DX2 analytically  !
 ! A22   A(6,4,8)              109.1601         calculate D2E/DX2 analytically  !
 ! A23   A(6,4,9)              109.1775         calculate D2E/DX2 analytically  !
 ! A24   A(8,4,9)              105.4529         calculate D2E/DX2 analytically  !
 ! A25   A(3,5,7)              113.8527         calculate D2E/DX2 analytically  !
 ! A26   A(3,5,16)             109.5297         calculate D2E/DX2 analytically  !
 ! A27   A(3,5,17)             108.9042         calculate D2E/DX2 analytically  !
 ! A28   A(7,5,16)             108.4377         calculate D2E/DX2 analytically  !
 ! A29   A(7,5,17)             109.2016         calculate D2E/DX2 analytically  !
 ! A30   A(16,5,17)            106.6692         calculate D2E/DX2 analytically  !
 ! A31   A(4,6,18)             111.4505         calculate D2E/DX2 analytically  !
 ! A32   A(4,6,19)             111.1323         calculate D2E/DX2 analytically  !
 ! A33   A(4,6,20)             111.2434         calculate D2E/DX2 analytically  !
 ! A34   A(18,6,19)            106.7214         calculate D2E/DX2 analytically  !
 ! A35   A(18,6,20)            108.3876         calculate D2E/DX2 analytically  !
 ! A36   A(19,6,20)            107.7099         calculate D2E/DX2 analytically  !
 ! A37   A(5,7,21)             110.7275         calculate D2E/DX2 analytically  !
 ! A38   A(5,7,22)             111.3373         calculate D2E/DX2 analytically  !
 ! A39   A(5,7,23)             110.4548         calculate D2E/DX2 analytically  !
 ! A40   A(21,7,22)            108.4205         calculate D2E/DX2 analytically  !
 ! A41   A(21,7,23)            108.0147         calculate D2E/DX2 analytically  !
 ! A42   A(22,7,23)            107.7667         calculate D2E/DX2 analytically  !
 ! D1    D(4,1,2,3)            110.8515         calculate D2E/DX2 analytically  !
 ! D2    D(4,1,2,12)           -12.8826         calculate D2E/DX2 analytically  !
 ! D3    D(4,1,2,13)          -128.5514         calculate D2E/DX2 analytically  !
 ! D4    D(10,1,2,3)           -12.6151         calculate D2E/DX2 analytically  !
 ! D5    D(10,1,2,12)         -136.3492         calculate D2E/DX2 analytically  !
 ! D6    D(10,1,2,13)          107.982          calculate D2E/DX2 analytically  !
 ! D7    D(11,1,2,3)          -127.4684         calculate D2E/DX2 analytically  !
 ! D8    D(11,1,2,12)          108.7975         calculate D2E/DX2 analytically  !
 ! D9    D(11,1,2,13)           -6.8712         calculate D2E/DX2 analytically  !
 ! D10   D(2,1,4,6)            -55.9888         calculate D2E/DX2 analytically  !
 ! D11   D(2,1,4,8)           -178.3448         calculate D2E/DX2 analytically  !
 ! D12   D(2,1,4,9)             67.2502         calculate D2E/DX2 analytically  !
 ! D13   D(10,1,4,6)            68.0588         calculate D2E/DX2 analytically  !
 ! D14   D(10,1,4,8)           -54.2972         calculate D2E/DX2 analytically  !
 ! D15   D(10,1,4,9)          -168.7023         calculate D2E/DX2 analytically  !
 ! D16   D(11,1,4,6)          -178.3773         calculate D2E/DX2 analytically  !
 ! D17   D(11,1,4,8)            59.2667         calculate D2E/DX2 analytically  !
 ! D18   D(11,1,4,9)           -55.1384         calculate D2E/DX2 analytically  !
 ! D19   D(1,2,3,5)            -70.7411         calculate D2E/DX2 analytically  !
 ! D20   D(1,2,3,14)           166.7694         calculate D2E/DX2 analytically  !
 ! D21   D(1,2,3,15)            51.5058         calculate D2E/DX2 analytically  !
 ! D22   D(12,2,3,5)            53.7087         calculate D2E/DX2 analytically  !
 ! D23   D(12,2,3,14)          -68.7808         calculate D2E/DX2 analytically  !
 ! D24   D(12,2,3,15)          175.9556         calculate D2E/DX2 analytically  !
 ! D25   D(13,2,3,5)           167.8612         calculate D2E/DX2 analytically  !
 ! D26   D(13,2,3,14)           45.3718         calculate D2E/DX2 analytically  !
 ! D27   D(13,2,3,15)          -69.8919         calculate D2E/DX2 analytically  !
 ! D28   D(2,3,5,7)            -68.1881         calculate D2E/DX2 analytically  !
 ! D29   D(2,3,5,16)            53.3962         calculate D2E/DX2 analytically  !
 ! D30   D(2,3,5,17)           169.7031         calculate D2E/DX2 analytically  !
 ! D31   D(14,3,5,7)            54.1791         calculate D2E/DX2 analytically  !
 ! D32   D(14,3,5,16)          175.7634         calculate D2E/DX2 analytically  !
 ! D33   D(14,3,5,17)          -67.9298         calculate D2E/DX2 analytically  !
 ! D34   D(15,3,5,7)           169.3718         calculate D2E/DX2 analytically  !
 ! D35   D(15,3,5,16)          -69.0439         calculate D2E/DX2 analytically  !
 ! D36   D(15,3,5,17)           47.263          calculate D2E/DX2 analytically  !
 ! D37   D(1,4,6,18)           -48.8812         calculate D2E/DX2 analytically  !
 ! D38   D(1,4,6,19)            70.019          calculate D2E/DX2 analytically  !
 ! D39   D(1,4,6,20)          -169.9703         calculate D2E/DX2 analytically  !
 ! D40   D(8,4,6,18)            72.982          calculate D2E/DX2 analytically  !
 ! D41   D(8,4,6,19)          -168.1178         calculate D2E/DX2 analytically  !
 ! D42   D(8,4,6,20)           -48.1071         calculate D2E/DX2 analytically  !
 ! D43   D(9,4,6,18)          -172.2158         calculate D2E/DX2 analytically  !
 ! D44   D(9,4,6,19)           -53.3156         calculate D2E/DX2 analytically  !
 ! D45   D(9,4,6,20)            66.6951         calculate D2E/DX2 analytically  !
 ! D46   D(3,5,7,21)            66.168          calculate D2E/DX2 analytically  !
 ! D47   D(3,5,7,22)           -54.532          calculate D2E/DX2 analytically  !
 ! D48   D(3,5,7,23)          -174.2244         calculate D2E/DX2 analytically  !
 ! D49   D(16,5,7,21)          -56.0202         calculate D2E/DX2 analytically  !
 ! D50   D(16,5,7,22)         -176.7201         calculate D2E/DX2 analytically  !
 ! D51   D(16,5,7,23)           63.5875         calculate D2E/DX2 analytically  !
 ! D52   D(17,5,7,21)         -171.8874         calculate D2E/DX2 analytically  !
 ! D53   D(17,5,7,22)           67.4127         calculate D2E/DX2 analytically  !
 ! D54   D(17,5,7,23)          -52.2797         calculate D2E/DX2 analytically  !
 --------------------------------------------------------------------------------
 Trust Radius=3.00D-01 FncErr=1.00D-07 GrdErr=1.00D-06 EigMax=2.50D+02 EigMin=1.00D-04
 Number of steps in this run=    138 maximum allowed number of steps=    138.
 GradGradGradGradGradGradGradGradGradGradGradGradGradGradGradGradGradGrad

 Leave Link  103 at Sun Sep 29 10:21:34 2019, MaxMem=   671088640 cpu:               1.5 elap:               0.8
 (Enter /shared/centos7/gaussian/g16/l202.exe)
                          Input orientation:                          
 ---------------------------------------------------------------------
 Center     Atomic      Atomic             Coordinates (Angstroms)
 Number     Number       Type             X           Y           Z
 ---------------------------------------------------------------------
      1          6           0        1.452450   -1.111028    0.694142
      2          6           0        0.161476   -0.395155    0.901205
      3          6           0       -1.064069   -1.198025    0.542848
      4          6           0        2.303215   -0.593827   -0.416591
      5          6           0       -1.261665   -1.432228   -0.936276
      6          6           0        1.647676   -0.550503   -1.734915
      7          6           0       -1.597089   -0.184485   -1.711230
      8          1           0        3.225644   -1.237108   -0.483296
      9          1           0        2.670965    0.427318   -0.156248
     10          1           0        1.261652   -2.191929    0.524360
     11          1           0        2.048497   -1.064534    1.628599
     12          1           0        0.150764    0.551100    0.338024
     13          1           0        0.073798   -0.107886    1.970338
     14          1           0       -1.954115   -0.687060    0.947640
     15          1           0       -1.014690   -2.181295    1.054598
     16          1           0       -0.331167   -1.881169   -1.372333
     17          1           0       -2.066497   -2.173763   -1.076388
     18          1           0        1.147731   -1.509016   -1.969835
     19          1           0        0.849421    0.249056   -1.766993
     20          1           0        2.379184   -0.330123   -2.541031
     21          1           0       -0.755916    0.509773   -1.707974
     22          1           0       -2.492342    0.339651   -1.275726
     23          1           0       -1.835271   -0.438797   -2.783834
 ---------------------------------------------------------------------
                    Distance matrix (angstroms):
                    1          2          3          4          5
     1  C    0.000000
     2  C    1.490625   0.000000
     3  C    2.522564   1.508304   0.000000
     4  C    1.491652   2.522519   3.553052   0.000000
     5  C    3.182428   2.545032   1.510531   3.698832   0.000000
     6  C    2.500524   3.030190   3.600146   1.472952   3.143171
     7  C    3.992992   3.156224   2.528289   4.129894   1.506627
     8  H    2.132246   3.466245   4.410912   1.126559   4.514333
     9  H    2.138796   2.844679   4.132911   1.116134   4.419494
    10  H    1.110665   2.140280   2.529262   2.127011   3.012927
    11  H    1.109344   2.130263   3.299203   2.114060   4.203683
    12  H    2.140999   1.101220   2.139442   2.552126   2.748160
    13  H    2.129707   1.110520   2.126234   3.302100   3.462043
    14  H    3.442194   2.136140   1.103233   4.471541   2.141005
    15  H    2.713333   2.144106   1.109570   3.961432   2.141419
    16  H    2.836322   2.760418   2.161423   3.083935   1.121392
    17  H    4.080094   3.469609   2.139825   4.693177   1.103295
    18  H    2.710724   3.233614   3.361897   2.141327   2.622847
    19  H    2.875876   2.829763   3.330293   2.155819   2.823737
    20  H    3.454705   4.095295   4.703143   2.142091   4.128638
    21  H    3.643355   2.910037   2.842135   3.499126   2.150039
    22  H    4.641792   3.510231   2.776981   4.960530   2.183883
    23  H    4.832941   4.191470   3.498284   4.770214   2.174718
                    6          7          8          9         10
     6  C    0.000000
     7  C    3.265430   0.000000
     8  H    2.127900   5.086707   0.000000
     9  H    2.120246   4.583509   1.784641   0.000000
    10  H    2.819152   4.147300   2.405062   3.051204   0.000000
    11  H    3.426093   5.021877   2.423955   2.408063   1.763374
    12  H    2.784126   2.792046   3.650636   2.571194   2.965300
    13  H    4.049926   4.043721   4.150855   3.399130   2.800908
    14  H    4.493067   2.729403   5.401855   4.883828   3.575605
    15  H    4.186771   3.460671   4.608366   4.674939   2.337305
    16  H    2.412044   2.143863   3.722379   3.977533   2.496214
    17  H    4.106545   2.140232   5.407017   5.482319   3.693142
    18  H    1.106291   3.058643   2.569330   3.059204   2.588505
    19  H    1.130281   2.485252   3.082694   2.438094   3.373225
    20  H    1.110627   4.064545   2.402787   2.519135   3.756570
    21  H    2.627197   1.090678   4.517106   3.762733   4.043895
    22  H    4.259457   1.125104   5.984102   5.284000   4.872543
    23  H    3.639180   1.127778   5.616283   5.287772   4.858863
                   11         12         13         14         15
    11  H    0.000000
    12  H    2.806644   0.000000
    13  H    2.220675   1.761997   0.000000
    14  H    4.077634   2.516980   2.343883   0.000000
    15  H    3.310551   3.055771   2.514440   1.768247   0.000000
    16  H    3.916029   3.012227   3.805519   3.072805   2.539147
    17  H    5.047823   3.787042   4.258080   2.513882   2.376437
    18  H    3.735997   3.250267   4.317576   4.336902   3.778256
    19  H    3.833191   2.238404   3.833620   4.013149   4.164479
    20  H    4.246707   3.745847   5.071157   5.574559   5.279560
    21  H    4.634209   2.238277   3.820982   3.149663   3.865309
    22  H    5.570104   3.104015   4.162006   2.507425   3.737517
    23  H    5.911410   3.830174   5.133829   3.741611   4.294556
                   16         17         18         19         20
    16  H    0.000000
    17  H    1.784535   0.000000
    18  H    1.637878   3.401676   0.000000
    19  H    2.467267   3.853513   1.794701   0.000000
    20  H    3.334306   5.030731   1.797923   1.809629   0.000000
    21  H    2.451463   3.052522   2.787104   1.627440   3.350859
    22  H    3.100331   2.557016   4.141194   3.378894   5.077534
    23  H    2.516963   2.445188   3.272043   2.952063   4.222842
                   21         22         23
    21  H    0.000000
    22  H    1.797486   0.000000
    23  H    1.795068   1.819921   0.000000
 Stoichiometry    C7H16
 Framework group  C1[X(C7H16)]
 Deg. of freedom    63
 Full point group                 C1      NOp   1
 Largest Abelian subgroup         C1      NOp   1
 Largest concise Abelian subgroup C1      NOp   1
                         Standard orientation:                         
 ---------------------------------------------------------------------
 Center     Atomic      Atomic             Coordinates (Angstroms)
 Number     Number       Type             X           Y           Z
 ---------------------------------------------------------------------
      1          6           0       -1.390621   -0.943896    0.212141
      2          6           0       -0.174793   -1.228059   -0.602093
      3          6           0        1.115391   -1.230505    0.179189
      4          6           0       -2.049291    0.368007   -0.052608
      5          6           0        1.572836    0.127451    0.657103
      6          6           0       -1.176346    1.544814    0.097991
      7          6           0        2.004111    1.050503   -0.452808
      8          1           0       -2.928596    0.468268    0.644461
      9          1           0       -2.483839    0.363002   -1.080663
     10          1           0       -1.144389   -1.008212    1.293256
     11          1           0       -2.140796   -1.742166    0.037083
     12          1           0       -0.091860   -0.511397   -1.434080
     13          1           0       -0.281677   -2.226312   -1.076773
     14          1           0        1.907696   -1.677186   -0.445192
     15          1           0        1.004307   -1.897665    1.058793
     16          1           0        0.744471    0.622456    1.228332
     17          1           0        2.409330   -0.005537    1.364105
     18          1           0       -0.617744    1.514684    1.052420
     19          1           0       -0.406330    1.589394   -0.728219
     20          1           0       -1.762520    2.487569    0.064742
     21          1           0        1.156851    1.313523   -1.087276
     22          1           0        2.795860    0.575599   -1.095815
     23          1           0        2.431513    2.004090   -0.028681
 ---------------------------------------------------------------------
 Rotational constants (GHZ):           3.3084251           1.9244780           1.4092111
 Leave Link  202 at Sun Sep 29 10:21:35 2019, MaxMem=   671088640 cpu:               3.2 elap:               1.6
 (Enter /shared/centos7/gaussian/g16/l301.exe)
 Standard basis: CC-pVTZ (5D, 7F)
 Ernie: Thresh=  0.10000D-02 Tol=  0.10000D-05 Strict=F.
 Ernie:  21 primitive shells out of 310 were deleted.
 There are   485 symmetry adapted cartesian basis functions of A   symmetry.
 There are   434 symmetry adapted basis functions of A   symmetry.
   434 basis functions,   636 primitive gaussians,   485 cartesian basis functions
    29 alpha electrons       29 beta electrons
       nuclear repulsion energy       339.0727575771 Hartrees.
 IExCor= 4336 DFT=T Ex+Corr=M062X ExCW=0 ScaHFX=  0.540000
 ScaDFX=  1.000000  1.000000  1.000000  1.000000 ScalE2=  1.000000  1.000000
 IRadAn=      5 IRanWt=     -1 IRanGd=            0 ICorTp=0 IEmpDi=  4
 NAtoms=   23 NActive=   23 NUniq=   23 SFac= 1.00D+00 NAtFMM=   60 NAOKFM=F Big=F
 Integral buffers will be    131072 words long.
 Raffenetti 2 integral format.
 Two-electron integral symmetry is turned on.
 Leave Link  301 at Sun Sep 29 10:21:37 2019, MaxMem=   671088640 cpu:               3.2 elap:               1.8
 (Enter /shared/centos7/gaussian/g16/l302.exe)
 NPDir=0 NMtPBC=     1 NCelOv=     1 NCel=       1 NClECP=     1 NCelD=      1
         NCelK=      1 NCelE2=     1 NClLst=     1 CellRange=     0.0.
 One-electron integrals computed using PRISM.
 One-electron integral symmetry used in STVInt
 NBasis=   434 RedAO= T EigKep=  2.66D-04  NBF=   434
 NBsUse=   434 1.00D-06 EigRej= -1.00D+00 NBFU=   434
 Precomputing XC quadrature grid using
 IXCGrd= 4 IRadAn=           5 IRanWt=          -1 IRanGd=           0 AccXCQ= 0.00D+00.
 Generated NRdTot=       0 NPtTot=           0 NUsed=           0 NTot=          32
 NSgBfM=   485   485   485   485   485 MxSgAt=    23 MxSgA2=    23.
 Leave Link  302 at Sun Sep 29 10:22:45 2019, MaxMem=   671088640 cpu:             135.9 elap:              68.0
 (Enter /shared/centos7/gaussian/g16/l303.exe)
 DipDrv:  MaxL=1.
 Leave Link  303 at Sun Sep 29 10:22:50 2019, MaxMem=   671088640 cpu:               9.9 elap:               5.0
 (Enter /shared/centos7/gaussian/g16/l401.exe)
 ExpMin= 1.03D-01 ExpMax= 8.24D+03 ExpMxC= 2.81D+02 IAcc=3 IRadAn=         5 AccDes= 0.00D+00
 Harris functional with IExCor= 1009 and IRadAn=       5 diagonalized for initial guess.
 HarFok:  IExCor= 1009 AccDes= 0.00D+00 IRadAn=         5 IDoV= 1 UseB2=F ITyADJ=14
 ICtDFT=  3500011 ScaDFX=  1.000000  1.000000  1.000000  1.000000
 FoFCou: FMM=F IPFlag=           0 FMFlag=      100000 FMFlg1=           0
         NFxFlg=           0 DoJE=T BraDBF=F KetDBF=T FulRan=T
         wScrn=  0.000000 ICntrl=       500 IOpCl=  0 I1Cent=   200000004 NGrid=           0
         NMat0=    1 NMatS0=      1 NMatT0=    0 NMatD0=    1 NMtDS0=    0 NMtDT0=    0
 Petite list used in FoFCou.
 Harris En= -276.314854242739    
 JPrj=0 DoOrth=F DoCkMO=F.
 Leave Link  401 at Sun Sep 29 10:23:40 2019, MaxMem=   671088640 cpu:             100.0 elap:              50.0
 (Enter /shared/centos7/gaussian/g16/l502.exe)
 Integral symmetry usage will be decided dynamically.
 Closed shell SCF:
 Using DIIS extrapolation, IDIIS=  1040.
 NGot=   671088640 LenX=   670604095 LenY=   670368385
 Requested convergence on RMS density matrix=1.00D-08 within 900 cycles.
 Requested convergence on MAX density matrix=1.00D-06.
 Requested convergence on             energy=1.00D-06.
 No special actions if energy rises.
 Fock matrices will be formed incrementally for  20 cycles.
 Integral accuracy reduced to 1.0D-05 until final iterations.

 Cycle   1  Pass 0  IDiag  1:
 FoFJK:  IHMeth= 1 ICntrl=       0 DoSepK=F KAlg= 0 I1Cent=           0 FoldK=F
 IRaf= 970000000 NMat=       1 IRICut=       1 DoRegI=T DoRafI=F ISym2E= 0 IDoP0=0 IntGTp=1.
 FoFCou: FMM=F IPFlag=           0 FMFlag=      100000 FMFlg1=           0
         NFxFlg=           0 DoJE=F BraDBF=F KetDBF=F FulRan=T
         wScrn=  0.000000 ICntrl=         0 IOpCl=  0 I1Cent=           0 NGrid=           0
         NMat0=    1 NMatS0=      1 NMatT0=    0 NMatD0=    1 NMtDS0=    0 NMtDT0=    0
 Symmetry not used in FoFCou.
 E= -275.955728249151    
 DIIS: error= 2.21D-02 at cycle   1 NSaved=   1.
 NSaved= 1 IEnMin= 1 EnMin= -275.955728249151     IErMin= 1 ErrMin= 2.21D-02
 ErrMax= 2.21D-02  0.00D+00 EMaxC= 1.00D-01 BMatC= 3.74D-01 BMatP= 3.74D-01
 IDIUse=3 WtCom= 7.79D-01 WtEn= 2.21D-01
 Coeff-Com:  0.100D+01
 Coeff-En:   0.100D+01
 Coeff:      0.100D+01
 Gap=     0.371 Goal=   None    Shift=    0.000
 GapD=    0.371 DampG=1.000 DampE=0.500 DampFc=0.5000 IDamp=-1.
 Damping current iteration by 5.00D-01
 RMSDP=1.92D-03 MaxDP=6.63D-02              OVMax= 1.65D-01

 Cycle   2  Pass 0  IDiag  1:
 RMSU=  9.57D-04    CP:  9.90D-01
 E= -276.130033932386     Delta-E=       -0.174305683235 Rises=F Damp=T
 DIIS: error= 3.76D-03 at cycle   2 NSaved=   2.
 NSaved= 2 IEnMin= 2 EnMin= -276.130033932386     IErMin= 2 ErrMin= 3.76D-03
 ErrMax= 3.76D-03  0.00D+00 EMaxC= 1.00D-01 BMatC= 1.98D-02 BMatP= 3.74D-01
 IDIUse=3 WtCom= 9.62D-01 WtEn= 3.76D-02
 Coeff-Com: -0.373D-01 0.104D+01
 Coeff-En:   0.000D+00 0.100D+01
 Coeff:     -0.359D-01 0.104D+01
 Gap=     0.454 Goal=   None    Shift=    0.000
 RMSDP=5.89D-04 MaxDP=2.67D-02 DE=-1.74D-01 OVMax= 9.45D-02

 Cycle   3  Pass 0  IDiag  1:
 RMSU=  5.80D-04    CP:  9.99D-01  9.16D-01
 E= -276.309570856498     Delta-E=       -0.179536924112 Rises=F Damp=F
 DIIS: error= 3.55D-03 at cycle   3 NSaved=   3.
 NSaved= 3 IEnMin= 3 EnMin= -276.309570856498     IErMin= 3 ErrMin= 3.55D-03
 ErrMax= 3.55D-03  0.00D+00 EMaxC= 1.00D-01 BMatC= 4.07D-03 BMatP= 1.98D-02
 IDIUse=3 WtCom= 9.64D-01 WtEn= 3.55D-02
 Coeff-Com: -0.541D-01 0.288D+00 0.766D+00
 Coeff-En:   0.000D+00 0.000D+00 0.100D+01
 Coeff:     -0.522D-01 0.278D+00 0.774D+00
 Gap=     0.421 Goal=   None    Shift=    0.000
 RMSDP=1.43D-04 MaxDP=5.16D-03 DE=-1.80D-01 OVMax= 1.35D-02

 Cycle   4  Pass 0  IDiag  1:
 RMSU=  1.07D-04    CP:  9.97D-01  9.64D-01  8.59D-01
 E= -276.313149610140     Delta-E=       -0.003578753643 Rises=F Damp=F
 DIIS: error= 8.06D-04 at cycle   4 NSaved=   4.
 NSaved= 4 IEnMin= 4 EnMin= -276.313149610140     IErMin= 4 ErrMin= 8.06D-04
 ErrMax= 8.06D-04  0.00D+00 EMaxC= 1.00D-01 BMatC= 3.18D-04 BMatP= 4.07D-03
 IDIUse=3 WtCom= 9.92D-01 WtEn= 8.06D-03
 Coeff-Com: -0.134D-01 0.358D-01 0.252D+00 0.726D+00
 Coeff-En:   0.000D+00 0.000D+00 0.000D+00 0.100D+01
 Coeff:     -0.133D-01 0.355D-01 0.250D+00 0.728D+00
 Gap=     0.421 Goal=   None    Shift=    0.000
 RMSDP=3.82D-05 MaxDP=1.32D-03 DE=-3.58D-03 OVMax= 2.97D-03

 Cycle   5  Pass 0  IDiag  1:
 RMSU=  1.86D-05    CP:  9.97D-01  9.59D-01  9.03D-01  8.01D-01
 E= -276.313448803404     Delta-E=       -0.000299193264 Rises=F Damp=F
 DIIS: error= 1.67D-04 at cycle   5 NSaved=   5.
 NSaved= 5 IEnMin= 5 EnMin= -276.313448803404     IErMin= 5 ErrMin= 1.67D-04
 ErrMax= 1.67D-04  0.00D+00 EMaxC= 1.00D-01 BMatC= 1.51D-05 BMatP= 3.18D-04
 IDIUse=3 WtCom= 9.98D-01 WtEn= 1.67D-03
 Coeff-Com: -0.188D-02 0.127D-02 0.508D-01 0.243D+00 0.706D+00
 Coeff-En:   0.000D+00 0.000D+00 0.000D+00 0.000D+00 0.100D+01
 Coeff:     -0.187D-02 0.127D-02 0.508D-01 0.243D+00 0.707D+00
 Gap=     0.421 Goal=   None    Shift=    0.000
 RMSDP=6.43D-06 MaxDP=3.87D-04 DE=-2.99D-04 OVMax= 7.35D-04

 Initial convergence to 1.0D-05 achieved.  Increase integral accuracy.
 Cycle   6  Pass 1  IDiag  1:
 E= -276.313455437140     Delta-E=       -0.000006633736 Rises=F Damp=F
 DIIS: error= 4.41D-05 at cycle   1 NSaved=   1.
 NSaved= 1 IEnMin= 1 EnMin= -276.313455437140     IErMin= 1 ErrMin= 4.41D-05
 ErrMax= 4.41D-05  0.00D+00 EMaxC= 1.00D-01 BMatC= 1.98D-06 BMatP= 1.98D-06
 IDIUse=1 WtCom= 1.00D+00 WtEn= 0.00D+00
 Coeff-Com:  0.100D+01
 Coeff:      0.100D+01
 Gap=     0.421 Goal=   None    Shift=    0.000
 RMSDP=6.43D-06 MaxDP=3.87D-04 DE=-6.63D-06 OVMax= 3.26D-04

 Cycle   7  Pass 1  IDiag  1:
 RMSU=  9.03D-06    CP:  1.00D+00
 E= -276.313456173687     Delta-E=       -0.000000736547 Rises=F Damp=F
 DIIS: error= 3.20D-05 at cycle   2 NSaved=   2.
 NSaved= 2 IEnMin= 2 EnMin= -276.313456173687     IErMin= 2 ErrMin= 3.20D-05
 ErrMax= 3.20D-05  0.00D+00 EMaxC= 1.00D-01 BMatC= 6.87D-07 BMatP= 1.98D-06
 IDIUse=1 WtCom= 1.00D+00 WtEn= 0.00D+00
 Coeff-Com:  0.341D+00 0.659D+00
 Coeff:      0.341D+00 0.659D+00
 Gap=     0.421 Goal=   None    Shift=    0.000
 RMSDP=1.56D-06 MaxDP=8.18D-05 DE=-7.37D-07 OVMax= 1.74D-04

 Cycle   8  Pass 1  IDiag  1:
 RMSU=  1.55D-06    CP:  1.00D+00  9.80D-01
 E= -276.313456789254     Delta-E=       -0.000000615567 Rises=F Damp=F
 DIIS: error= 8.83D-06 at cycle   3 NSaved=   3.
 NSaved= 3 IEnMin= 3 EnMin= -276.313456789254     IErMin= 3 ErrMin= 8.83D-06
 ErrMax= 8.83D-06  0.00D+00 EMaxC= 1.00D-01 BMatC= 6.05D-08 BMatP= 6.87D-07
 IDIUse=1 WtCom= 1.00D+00 WtEn= 0.00D+00
 Coeff-Com: -0.564D-02 0.218D+00 0.788D+00
 Coeff:     -0.564D-02 0.218D+00 0.788D+00
 Gap=     0.421 Goal=   None    Shift=    0.000
 RMSDP=4.41D-07 MaxDP=1.97D-05 DE=-6.16D-07 OVMax= 4.32D-05

 Cycle   9  Pass 1  IDiag  1:
 RMSU=  3.04D-07    CP:  1.00D+00  1.00D+00  8.41D-01
 E= -276.313456847432     Delta-E=       -0.000000058178 Rises=F Damp=F
 DIIS: error= 2.14D-06 at cycle   4 NSaved=   4.
 NSaved= 4 IEnMin= 4 EnMin= -276.313456847432     IErMin= 4 ErrMin= 2.14D-06
 ErrMax= 2.14D-06  0.00D+00 EMaxC= 1.00D-01 BMatC= 2.02D-09 BMatP= 6.05D-08
 IDIUse=1 WtCom= 1.00D+00 WtEn= 0.00D+00
 Coeff-Com: -0.111D-01 0.596D-01 0.276D+00 0.675D+00
 Coeff:     -0.111D-01 0.596D-01 0.276D+00 0.675D+00
 Gap=     0.421 Goal=   None    Shift=    0.000
 RMSDP=9.27D-08 MaxDP=3.29D-06 DE=-5.82D-08 OVMax= 8.83D-06

 Cycle  10  Pass 1  IDiag  1:
 RMSU=  8.46D-08    CP:  1.00D+00  1.00D+00  8.37D-01  8.82D-01
 E= -276.313456849420     Delta-E=       -0.000000001988 Rises=F Damp=F
 DIIS: error= 3.20D-07 at cycle   5 NSaved=   5.
 NSaved= 5 IEnMin= 5 EnMin= -276.313456849420     IErMin= 5 ErrMin= 3.20D-07
 ErrMax= 3.20D-07  0.00D+00 EMaxC= 1.00D-01 BMatC= 8.56D-11 BMatP= 2.02D-09
 IDIUse=1 WtCom= 1.00D+00 WtEn= 0.00D+00
 Coeff-Com: -0.903D-03-0.126D-01-0.375D-01 0.862D-01 0.965D+00
 Coeff:     -0.903D-03-0.126D-01-0.375D-01 0.862D-01 0.965D+00
 Gap=     0.421 Goal=   None    Shift=    0.000
 RMSDP=3.58D-08 MaxDP=9.64D-07 DE=-1.99D-09 OVMax= 2.88D-06

 Cycle  11  Pass 1  IDiag  1:
 RMSU=  1.91D-08    CP:  1.00D+00  1.00D+00  8.39D-01  9.75D-01  1.09D+00
 E= -276.313456849511     Delta-E=       -0.000000000091 Rises=F Damp=F
 DIIS: error= 1.80D-07 at cycle   6 NSaved=   6.
 NSaved= 6 IEnMin= 6 EnMin= -276.313456849511     IErMin= 6 ErrMin= 1.80D-07
 ErrMax= 1.80D-07  0.00D+00 EMaxC= 1.00D-01 BMatC= 2.32D-11 BMatP= 8.56D-11
 IDIUse=1 WtCom= 1.00D+00 WtEn= 0.00D+00
 Coeff-Com:  0.365D-03-0.102D-01-0.373D-01-0.971D-02 0.446D+00 0.611D+00
 Coeff:      0.365D-03-0.102D-01-0.373D-01-0.971D-02 0.446D+00 0.611D+00
 Gap=     0.421 Goal=   None    Shift=    0.000
 RMSDP=7.48D-09 MaxDP=2.77D-07 DE=-9.09D-11 OVMax= 8.29D-07

 SCF Done:  E(RM062X) =  -276.313456850     A.U. after   11 cycles
            NFock= 11  Conv=0.75D-08     -V/T= 2.0065
 KE= 2.745346176578D+02 PE=-1.316574419978D+03 EE= 4.266535878941D+02
 Leave Link  502 at Sun Sep 29 10:39:47 2019, MaxMem=   671088640 cpu:            1932.7 elap:             966.5
 (Enter /shared/centos7/gaussian/g16/l801.exe)
 DoSCS=F DFT=T ScalE2(SS,OS)=  1.000000  1.000000
 Range of M.O.s used for correlation:     1   434
 NBasis=   434 NAE=    29 NBE=    29 NFC=     0 NFV=     0
 NROrb=    434 NOA=    29 NOB=    29 NVA=   405 NVB=   405

 **** Warning!!: The largest alpha MO coefficient is  0.10409867D+02

 Leave Link  801 at Sun Sep 29 10:39:47 2019, MaxMem=   671088640 cpu:               1.4 elap:               0.7
 (Enter /shared/centos7/gaussian/g16/l1101.exe)
 Using compressed storage, NAtomX=    23.
 Will process     24 centers per pass.
 Leave Link 1101 at Sun Sep 29 10:40:22 2019, MaxMem=   671088640 cpu:              68.4 elap:              34.2
 (Enter /shared/centos7/gaussian/g16/l1102.exe)
 Symmetrizing basis deriv contribution to polar:
 IMax=3 JMax=2 DiffMx= 0.00D+00
 Leave Link 1102 at Sun Sep 29 10:40:24 2019, MaxMem=   671088640 cpu:               4.8 elap:               2.4
 (Enter /shared/centos7/gaussian/g16/l1110.exe)
 Forming Gx(P) for the SCF density, NAtomX=    23.
 Integral derivatives from FoFJK, PRISM(SPDF).
 Do as many integral derivatives as possible in FoFJK.
 G2DrvN: MDV=     671086848.
 G2DrvN: will do    24 centers at a time, making    1 passes.
 Calling FoFCou, ICntrl=  3107 FMM=F I1Cent=   0 AccDes= 0.00D+00.
 FoFJK:  IHMeth= 1 ICntrl=    3107 DoSepK=F KAlg= 0 I1Cent=           0 FoldK=F
 IRaf=         0 NMat=       1 IRICut=       1 DoRegI=T DoRafI=F ISym2E= 0 IDoP0=0 IntGTp=1.
 FoFCou: FMM=F IPFlag=           0 FMFlag=      100000 FMFlg1=           0
         NFxFlg=           0 DoJE=F BraDBF=F KetDBF=F FulRan=T
         wScrn=  0.000000 ICntrl=      3107 IOpCl=  0 I1Cent=           0 NGrid=           0
         NMat0=    1 NMatS0=      1 NMatT0=    0 NMatD0=    1 NMtDS0=    0 NMtDT0=    0
 Symmetry not used in FoFCou.
 End of G2Drv F.D. properties file   721 does not exist.
 End of G2Drv F.D. properties file   722 does not exist.
 End of G2Drv F.D. properties file   788 does not exist.
 Leave Link 1110 at Sun Sep 29 11:24:29 2019, MaxMem=   671088640 cpu:            5288.6 elap:            2644.7
 (Enter /shared/centos7/gaussian/g16/l1002.exe)
 Minotr:  Closed shell wavefunction.
          IDoAtm=11111111111111111111111
          Direct CPHF calculation.
          Differentiating once with respect to nuclear coordinates.
          Requested convergence is 1.0D-08 RMS, and 1.0D-07 maximum.
          Secondary convergence is 1.0D-12 RMS, and 1.0D-12 maximum.
          NewPWx=T KeepS1=F KeepF1=F KeepIn=T MapXYZ=F SortEE=F KeepMc=T.
         6890 words used for storage of precomputed grid.
 Two-electron integrals replicated using symmetry.
          MDV=     671088640 using IRadAn=       1.
          Solving linear equations simultaneously, MaxMat=     380.
 FoF2E skips out because all densities are zero.
 CalDSu exits because no D1Ps are significant.
 FoFJK:  IHMeth= 1 ICntrl=       0 DoSepK=F KAlg= 0 I1Cent=           0 FoldK=F
 IRaf= 950000000 NMat=      69 IRICut=     172 DoRegI=T DoRafI=T ISym2E= 2 IDoP0=3 IntGTp=3.
 FoFCou: FMM=F IPFlag=           0 FMFlag=      100000 FMFlg1=           0
         NFxFlg=           0 DoJE=F BraDBF=F KetDBF=F FulRan=T
         wScrn=  0.000000 ICntrl=         0 IOpCl=  0 I1Cent=           0 NGrid=           0
         NMat0=   69 NMatS0=     69 NMatT0=    0 NMatD0=   69 NMtDS0=    0 NMtDT0=    0
 Integrals replicated using symmetry in FoFCou.
 Raff kept on since  91.97% of shell-pairs survive, threshold=   0.20 IRatSp=92.
          There are    72 degrees of freedom in the 1st order CPHF.  IDoFFX=6 NUNeed=     0.
     66 vectors produced by pass  0 Test12= 1.63D-14 1.39D-09 XBig12= 5.57D-02 3.74D-02.
 AX will form    66 AO Fock derivatives at one time.
     66 vectors produced by pass  1 Test12= 1.63D-14 1.39D-09 XBig12= 3.21D-03 6.85D-03.
     66 vectors produced by pass  2 Test12= 1.63D-14 1.39D-09 XBig12= 4.98D-05 8.91D-04.
     66 vectors produced by pass  3 Test12= 1.63D-14 1.39D-09 XBig12= 3.94D-07 7.24D-05.
     66 vectors produced by pass  4 Test12= 1.63D-14 1.39D-09 XBig12= 1.82D-09 4.41D-06.
     66 vectors produced by pass  5 Test12= 1.63D-14 1.39D-09 XBig12= 9.74D-12 3.07D-07.
     24 vectors produced by pass  6 Test12= 1.63D-14 1.39D-09 XBig12= 3.52D-14 1.61D-08.
 InvSVY:  IOpt=1 It=  1 EMax= 3.61D-16
 Solved reduced A of dimension   420 with    72 vectors.
 End of Minotr F.D. properties file   721 does not exist.
 End of Minotr F.D. properties file   722 does not exist.
 End of Minotr F.D. properties file   788 does not exist.
 Leave Link 1002 at Sun Sep 29 12:36:40 2019, MaxMem=   671088640 cpu:            8660.5 elap:            4330.8
 (Enter /shared/centos7/gaussian/g16/l601.exe)
 Copying SCF densities to generalized density rwf, IOpCl= 0 IROHF=0.

 **********************************************************************

            Population analysis using the SCF density.

 **********************************************************************

 Orbital symmetries:
       Occupied  (A) (A) (A) (A) (A) (A) (A) (A) (A) (A) (A) (A)
                 (A) (A) (A) (A) (A) (A) (A) (A) (A) (A) (A) (A)
                 (A) (A) (A) (A) (A)
       Virtual   (A) (A) (A) (A) (A) (A) (A) (A) (A) (A) (A) (A)
                 (A) (A) (A) (A) (A) (A) (A) (A) (A) (A) (A) (A)
                 (A) (A) (A) (A) (A) (A) (A) (A) (A) (A) (A) (A)
                 (A) (A) (A) (A) (A) (A) (A) (A) (A) (A) (A) (A)
                 (A) (A) (A) (A) (A) (A) (A) (A) (A) (A) (A) (A)
                 (A) (A) (A) (A) (A) (A) (A) (A) (A) (A) (A) (A)
                 (A) (A) (A) (A) (A) (A) (A) (A) (A) (A) (A) (A)
                 (A) (A) (A) (A) (A) (A) (A) (A) (A) (A) (A) (A)
                 (A) (A) (A) (A) (A) (A) (A) (A) (A) (A) (A) (A)
                 (A) (A) (A) (A) (A) (A) (A) (A) (A) (A) (A) (A)
                 (A) (A) (A) (A) (A) (A) (A) (A) (A) (A) (A) (A)
                 (A) (A) (A) (A) (A) (A) (A) (A) (A) (A) (A) (A)
                 (A) (A) (A) (A) (A) (A) (A) (A) (A) (A) (A) (A)
                 (A) (A) (A) (A) (A) (A) (A) (A) (A) (A) (A) (A)
                 (A) (A) (A) (A) (A) (A) (A) (A) (A) (A) (A) (A)
                 (A) (A) (A) (A) (A) (A) (A) (A) (A) (A) (A) (A)
                 (A) (A) (A) (A) (A) (A) (A) (A) (A) (A) (A) (A)
                 (A) (A) (A) (A) (A) (A) (A) (A) (A) (A) (A) (A)
                 (A) (A) (A) (A) (A) (A) (A) (A) (A) (A) (A) (A)
                 (A) (A) (A) (A) (A) (A) (A) (A) (A) (A) (A) (A)
                 (A) (A) (A) (A) (A) (A) (A) (A) (A) (A) (A) (A)
                 (A) (A) (A) (A) (A) (A) (A) (A) (A) (A) (A) (A)
                 (A) (A) (A) (A) (A) (A) (A) (A) (A) (A) (A) (A)
                 (A) (A) (A) (A) (A) (A) (A) (A) (A) (A) (A) (A)
                 (A) (A) (A) (A) (A) (A) (A) (A) (A) (A) (A) (A)
                 (A) (A) (A) (A) (A) (A) (A) (A) (A) (A) (A) (A)
                 (A) (A) (A) (A) (A) (A) (A) (A) (A) (A) (A) (A)
                 (A) (A) (A) (A) (A) (A) (A) (A) (A) (A) (A) (A)
                 (A) (A) (A) (A) (A) (A) (A) (A) (A) (A) (A) (A)
                 (A) (A) (A) (A) (A) (A) (A) (A) (A) (A) (A) (A)
                 (A) (A) (A) (A) (A) (A) (A) (A) (A) (A) (A) (A)
                 (A) (A) (A) (A) (A) (A) (A) (A) (A) (A) (A) (A)
                 (A) (A) (A) (A) (A) (A) (A) (A) (A) (A) (A) (A)
                 (A) (A) (A) (A) (A) (A) (A) (A) (A)
 The electronic state is 1-A.
 Alpha  occ. eigenvalues --  -10.52663 -10.52520 -10.52468 -10.52440 -10.52289
 Alpha  occ. eigenvalues --  -10.52245 -10.52116  -0.92521  -0.87871  -0.83081
 Alpha  occ. eigenvalues --   -0.76173  -0.71382  -0.65978  -0.62198  -0.55074
 Alpha  occ. eigenvalues --   -0.53108  -0.51654  -0.50519  -0.49066  -0.45592
 Alpha  occ. eigenvalues --   -0.44352  -0.43842  -0.41955  -0.39750  -0.38650
 Alpha  occ. eigenvalues --   -0.37898  -0.36963  -0.35848  -0.35394
 Alpha virt. eigenvalues --    0.06732   0.08173   0.08479   0.08771   0.11537
 Alpha virt. eigenvalues --    0.12698   0.12875   0.13136   0.13886   0.14856
 Alpha virt. eigenvalues --    0.16140   0.17620   0.17874   0.17887   0.19807
 Alpha virt. eigenvalues --    0.21031   0.23341   0.25169   0.25876   0.27140
 Alpha virt. eigenvalues --    0.28321   0.28702   0.29152   0.30856   0.31292
 Alpha virt. eigenvalues --    0.32299   0.33143   0.34311   0.35176   0.36247
 Alpha virt. eigenvalues --    0.38340   0.39358   0.41210   0.43717   0.44454
 Alpha virt. eigenvalues --    0.45611   0.46203   0.46640   0.47058   0.47754
 Alpha virt. eigenvalues --    0.49225   0.49298   0.50711   0.51025   0.51449
 Alpha virt. eigenvalues --    0.52445   0.53489   0.53865   0.54108   0.54832
 Alpha virt. eigenvalues --    0.54999   0.55695   0.57096   0.57859   0.58789
 Alpha virt. eigenvalues --    0.59232   0.60303   0.63089   0.63700   0.64414
 Alpha virt. eigenvalues --    0.66578   0.68471   0.70291   0.73016   0.76233
 Alpha virt. eigenvalues --    0.76319   0.80176   0.82538   0.83148   0.84992
 Alpha virt. eigenvalues --    0.86144   0.87665   0.90830   0.92644   0.94595
 Alpha virt. eigenvalues --    0.95325   0.96441   0.96993   0.99123   1.00537
 Alpha virt. eigenvalues --    1.01949   1.03267   1.04387   1.05176   1.05941
 Alpha virt. eigenvalues --    1.07248   1.07470   1.09710   1.09949   1.10950
 Alpha virt. eigenvalues --    1.11335   1.12195   1.12705   1.15226   1.16144
 Alpha virt. eigenvalues --    1.16657   1.17733   1.18601   1.18845   1.19419
 Alpha virt. eigenvalues --    1.20485   1.21966   1.23111   1.23695   1.25217
 Alpha virt. eigenvalues --    1.25999   1.27228   1.27834   1.28486   1.29255
 Alpha virt. eigenvalues --    1.30181   1.30620   1.31594   1.32577   1.33035
 Alpha virt. eigenvalues --    1.35653   1.37484   1.38293   1.38843   1.40800
 Alpha virt. eigenvalues --    1.41205   1.42628   1.44672   1.45513   1.46537
 Alpha virt. eigenvalues --    1.47556   1.49543   1.49675   1.51051   1.52124
 Alpha virt. eigenvalues --    1.53410   1.53865   1.54448   1.55772   1.56228
 Alpha virt. eigenvalues --    1.58563   1.61949   1.62546   1.65091   1.67826
 Alpha virt. eigenvalues --    1.69173   1.72858   1.74278   1.76419   1.80689
 Alpha virt. eigenvalues --    1.81233   1.85194   1.91643   2.02787   2.27904
 Alpha virt. eigenvalues --    2.28941   2.30796   2.33228   2.35657   2.37076
 Alpha virt. eigenvalues --    2.39133   2.41014   2.42449   2.43536   2.44576
 Alpha virt. eigenvalues --    2.49209   2.50085   2.52467   2.54123   2.54935
 Alpha virt. eigenvalues --    2.55984   2.56802   2.59860   2.60105   2.62651
 Alpha virt. eigenvalues --    2.64124   2.64692   2.65611   2.66036   2.67755
 Alpha virt. eigenvalues --    2.68898   2.70510   2.71253   2.72353   2.72964
 Alpha virt. eigenvalues --    2.74410   2.75449   2.76118   2.79028   2.80401
 Alpha virt. eigenvalues --    2.80721   2.81774   2.83159   2.86006   2.86737
 Alpha virt. eigenvalues --    2.88627   2.90456   2.90571   2.91233   2.92048
 Alpha virt. eigenvalues --    2.94281   2.95184   2.96739   2.97517   2.98732
 Alpha virt. eigenvalues --    3.00286   3.02624   3.03586   3.04034   3.05443
 Alpha virt. eigenvalues --    3.06741   3.07740   3.08504   3.08990   3.10143
 Alpha virt. eigenvalues --    3.11400   3.11868   3.12931   3.13187   3.15124
 Alpha virt. eigenvalues --    3.15792   3.17088   3.17516   3.18812   3.20006
 Alpha virt. eigenvalues --    3.20571   3.22450   3.22710   3.23402   3.24752
 Alpha virt. eigenvalues --    3.25960   3.27625   3.28921   3.30987   3.32498
 Alpha virt. eigenvalues --    3.33027   3.34652   3.35681   3.37338   3.37786
 Alpha virt. eigenvalues --    3.39882   3.40590   3.41993   3.42470   3.44370
 Alpha virt. eigenvalues --    3.44721   3.45909   3.46783   3.48653   3.49317
 Alpha virt. eigenvalues --    3.50898   3.51732   3.52477   3.54775   3.56164
 Alpha virt. eigenvalues --    3.57370   3.58216   3.60573   3.61658   3.62360
 Alpha virt. eigenvalues --    3.63339   3.64776   3.66061   3.67516   3.68211
 Alpha virt. eigenvalues --    3.70140   3.70565   3.72755   3.73427   3.74916
 Alpha virt. eigenvalues --    3.76565   3.77634   3.79421   3.79803   3.80587
 Alpha virt. eigenvalues --    3.81986   3.83142   3.84511   3.86129   3.86559
 Alpha virt. eigenvalues --    3.87483   3.88743   3.89876   3.91462   3.91675
 Alpha virt. eigenvalues --    3.92521   3.93123   3.94354   3.96022   3.98642
 Alpha virt. eigenvalues --    3.99310   4.00393   4.01567   4.02447   4.02728
 Alpha virt. eigenvalues --    4.03766   4.04005   4.06814   4.07678   4.08005
 Alpha virt. eigenvalues --    4.09207   4.10130   4.10617   4.13196   4.13496
 Alpha virt. eigenvalues --    4.14053   4.16184   4.18335   4.19179   4.20601
 Alpha virt. eigenvalues --    4.21064   4.21867   4.22989   4.23400   4.26281
 Alpha virt. eigenvalues --    4.26965   4.29587   4.30132   4.30661   4.31039
 Alpha virt. eigenvalues --    4.31802   4.34443   4.36515   4.37110   4.38562
 Alpha virt. eigenvalues --    4.39660   4.40392   4.41334   4.44508   4.46987
 Alpha virt. eigenvalues --    4.48837   4.50303   4.52031   4.56163   4.56604
 Alpha virt. eigenvalues --    4.60584   4.62161   4.64066   4.66739   4.68611
 Alpha virt. eigenvalues --    4.69057   4.70675   4.73058   4.75714   4.76981
 Alpha virt. eigenvalues --    4.78729   4.81302   4.81520   4.81817   4.84029
 Alpha virt. eigenvalues --    4.84676   4.86136   4.88158   4.88803   4.91874
 Alpha virt. eigenvalues --    4.93090   4.93661   4.96750   4.99092   5.00081
 Alpha virt. eigenvalues --    5.02615   5.06265   5.07022   5.08422   5.11199
 Alpha virt. eigenvalues --    5.12786   5.13658   5.16426   5.18227   5.20993
 Alpha virt. eigenvalues --    5.21761   5.22902   5.25069   5.26708   5.27580
 Alpha virt. eigenvalues --    5.29757   5.31624   5.32284   5.35492   5.37376
 Alpha virt. eigenvalues --    5.38223   5.38479   5.40486   5.41567   5.46983
 Alpha virt. eigenvalues --    5.48718   5.50185   5.53292   5.53637   5.56784
 Alpha virt. eigenvalues --    5.61167   5.62901   5.68983   5.75986   5.81890
 Alpha virt. eigenvalues --    5.84448   5.88983   5.94451   5.96000   5.99697
 Alpha virt. eigenvalues --    6.02178   6.03621   6.12486  11.89959  12.35447
 Alpha virt. eigenvalues --   12.54112  13.10168  13.43331  13.51309  13.77319
          Condensed to atoms (all electrons):
               1          2          3          4          5          6
     1  C    5.156731   0.254742  -0.043320   0.303336   0.003117  -0.051028
     2  C    0.254742   5.198963   0.290003  -0.044253  -0.045163   0.002926
     3  C   -0.043320   0.290003   5.071445   0.006476   0.313811  -0.002346
     4  C    0.303336  -0.044253   0.006476   5.025623  -0.002355   0.295594
     5  C    0.003117  -0.045163   0.313811  -0.002355   5.130131  -0.004712
     6  C   -0.051028   0.002926  -0.002346   0.295594  -0.004712   5.080591
     7  C   -0.002695   0.003638  -0.059868   0.001210   0.300643  -0.013701
     8  H   -0.051486   0.011414  -0.000956   0.417932   0.000265  -0.044575
     9  H   -0.038246  -0.009823   0.000648   0.411417  -0.000422  -0.051000
    10  H    0.413077  -0.068416  -0.000712  -0.041643  -0.004381  -0.006099
    11  H    0.413474  -0.043289   0.005700  -0.042232  -0.000244   0.009077
    12  H   -0.061651   0.410779  -0.042904   0.000731  -0.008442  -0.005922
    13  H   -0.043574   0.414217  -0.040133   0.006435   0.008400  -0.000444
    14  H    0.010211  -0.054441   0.423251  -0.000875  -0.044286   0.000012
    15  H   -0.011723  -0.039610   0.418169   0.001016  -0.050488  -0.000109
    16  H    0.013423  -0.015054  -0.038880  -0.005914   0.406982  -0.012862
    17  H   -0.000643   0.009324  -0.043571  -0.000027   0.416702   0.000597
    18  H    0.002600  -0.004207   0.001245  -0.051433  -0.018087   0.405643
    19  H   -0.011018   0.006677  -0.003167  -0.046526   0.001129   0.413169
    20  H    0.008969  -0.000518   0.000014  -0.038894   0.000862   0.407206
    21  H   -0.000135   0.003478  -0.003533   0.000980  -0.047321  -0.014251
    22  H    0.000280  -0.001986  -0.001368  -0.000146  -0.043617   0.000549
    23  H    0.000044  -0.000347   0.008326   0.000019  -0.041718   0.000650
               7          8          9         10         11         12
     1  C   -0.002695  -0.051486  -0.038246   0.413077   0.413474  -0.061651
     2  C    0.003638   0.011414  -0.009823  -0.068416  -0.043289   0.410779
     3  C   -0.059868  -0.000956   0.000648  -0.000712   0.005700  -0.042904
     4  C    0.001210   0.417932   0.411417  -0.041643  -0.042232   0.000731
     5  C    0.300643   0.000265  -0.000422  -0.004381  -0.000244  -0.008442
     6  C   -0.013701  -0.044575  -0.051000  -0.006099   0.009077  -0.005922
     7  C    5.023532  -0.000128   0.000268   0.000505  -0.000045   0.002387
     8  H   -0.000128   0.610251  -0.034981  -0.008241  -0.006127   0.000257
     9  H    0.000268  -0.034981   0.601484   0.008608  -0.008870   0.002204
    10  H    0.000505  -0.008241   0.008608   0.587203  -0.031318   0.007406
    11  H   -0.000045  -0.006127  -0.008870  -0.031318   0.591528   0.005153
    12  H    0.002387   0.000257   0.002204   0.007406   0.005153   0.574586
    13  H   -0.000192  -0.000446   0.000459   0.004984  -0.019161  -0.031586
    14  H   -0.007230   0.000039  -0.000016   0.000426  -0.000412  -0.002319
    15  H    0.009026  -0.000006  -0.000024   0.002508   0.000819   0.007679
    16  H   -0.047267   0.000308  -0.000215   0.000542   0.000052   0.001065
    17  H   -0.036895  -0.000014   0.000012  -0.000299   0.000029  -0.000051
    18  H    0.002606  -0.004882   0.009139   0.002800   0.000240   0.001303
    19  H   -0.015297   0.008897  -0.008600   0.000426  -0.000462  -0.002070
    20  H    0.000635  -0.009690  -0.003336  -0.000020  -0.000510  -0.000227
    21  H    0.410970  -0.000170   0.000086  -0.000068  -0.000033  -0.004544
    22  H    0.398937   0.000007  -0.000025  -0.000041   0.000006   0.000770
    23  H    0.405597   0.000003   0.000002   0.000016   0.000001   0.000013
              13         14         15         16         17         18
     1  C   -0.043574   0.010211  -0.011723   0.013423  -0.000643   0.002600
     2  C    0.414217  -0.054441  -0.039610  -0.015054   0.009324  -0.004207
     3  C   -0.040133   0.423251   0.418169  -0.038880  -0.043571   0.001245
     4  C    0.006435  -0.000875   0.001016  -0.005914  -0.000027  -0.051433
     5  C    0.008400  -0.044286  -0.050488   0.406982   0.416702  -0.018087
     6  C   -0.000444   0.000012  -0.000109  -0.012862   0.000597   0.405643
     7  C   -0.000192  -0.007230   0.009026  -0.047267  -0.036895   0.002606
     8  H   -0.000446   0.000039  -0.000006   0.000308  -0.000014  -0.004882
     9  H    0.000459  -0.000016  -0.000024  -0.000215   0.000012   0.009139
    10  H    0.004984   0.000426   0.002508   0.000542  -0.000299   0.002800
    11  H   -0.019161  -0.000412   0.000819   0.000052   0.000029   0.000240
    12  H   -0.031586  -0.002319   0.007679   0.001065  -0.000051   0.001303
    13  H    0.584196  -0.009859  -0.004755  -0.000209  -0.000416  -0.000166
    14  H   -0.009859   0.570552  -0.028033   0.008336  -0.004674  -0.000174
    15  H   -0.004755  -0.028033   0.577881  -0.003294  -0.009062   0.000228
    16  H   -0.000209   0.008336  -0.003294   0.601599  -0.033523  -0.015248
    17  H   -0.000416  -0.004674  -0.009062  -0.033523   0.568698   0.001607
    18  H   -0.000166  -0.000174   0.000228  -0.015248   0.001607   0.604688
    19  H    0.000368   0.000130  -0.000080  -0.003382  -0.000069  -0.038777
    20  H    0.000030   0.000007  -0.000004   0.001860  -0.000024  -0.027731
    21  H    0.000092   0.000206  -0.000574  -0.006830   0.007535   0.000002
    22  H   -0.000184   0.004472   0.000198   0.008298  -0.005019  -0.000282
    23  H    0.000023  -0.000028  -0.000399  -0.004564  -0.007593   0.000259
              19         20         21         22         23
     1  C   -0.011018   0.008969  -0.000135   0.000280   0.000044
     2  C    0.006677  -0.000518   0.003478  -0.001986  -0.000347
     3  C   -0.003167   0.000014  -0.003533  -0.001368   0.008326
     4  C   -0.046526  -0.038894   0.000980  -0.000146   0.000019
     5  C    0.001129   0.000862  -0.047321  -0.043617  -0.041718
     6  C    0.413169   0.407206  -0.014251   0.000549   0.000650
     7  C   -0.015297   0.000635   0.410970   0.398937   0.405597
     8  H    0.008897  -0.009690  -0.000170   0.000007   0.000003
     9  H   -0.008600  -0.003336   0.000086  -0.000025   0.000002
    10  H    0.000426  -0.000020  -0.000068  -0.000041   0.000016
    11  H   -0.000462  -0.000510  -0.000033   0.000006   0.000001
    12  H   -0.002070  -0.000227  -0.004544   0.000770   0.000013
    13  H    0.000368   0.000030   0.000092  -0.000184   0.000023
    14  H    0.000130   0.000007   0.000206   0.004472  -0.000028
    15  H   -0.000080  -0.000004  -0.000574   0.000198  -0.000399
    16  H   -0.003382   0.001860  -0.006830   0.008298  -0.004564
    17  H   -0.000069  -0.000024   0.007535  -0.005019  -0.007593
    18  H   -0.038777  -0.027731   0.000002  -0.000282   0.000259
    19  H    0.615333  -0.028334  -0.011078   0.001423   0.000543
    20  H   -0.028334   0.565323   0.001102  -0.000001  -0.000117
    21  H   -0.011078   0.001102   0.603903  -0.039417  -0.033168
    22  H    0.001423  -0.000001  -0.039417   0.589229  -0.024354
    23  H    0.000543  -0.000117  -0.033168  -0.024354   0.577593
 Mulliken charges:
               1
     1  C   -0.264485
     2  C   -0.279052
     3  C   -0.258331
     4  C   -0.196471
     5  C   -0.270808
     6  C   -0.408965
     7  C   -0.376635
     8  H    0.112328
     9  H    0.121230
    10  H    0.132736
    11  H    0.126625
    12  H    0.145384
    13  H    0.131923
    14  H    0.134705
    15  H    0.130638
    16  H    0.144775
    17  H    0.137378
    18  H    0.128627
    19  H    0.120764
    20  H    0.123400
    21  H    0.132768
    22  H    0.112271
    23  H    0.119197
 Sum of Mulliken charges =  -0.00000
 Mulliken charges with hydrogens summed into heavy atoms:
               1
     1  C   -0.005125
     2  C   -0.001746
     3  C    0.007012
     4  C    0.037087
     5  C    0.011346
     6  C   -0.036174
     7  C   -0.012400
 APT charges:
               1
     1  C   -0.739253
     2  C   -0.602864
     3  C   -0.881620
     4  C   -0.908964
     5  C   -0.567493
     6  C   -0.893361
     7  C   -1.133723
     8  H    0.468197
     9  H    0.385809
    10  H    0.273839
    11  H    0.472693
    12  H    0.239114
    13  H    0.458267
    14  H    0.431173
    15  H    0.379079
    16  H    0.208823
    17  H    0.489790
    18  H    0.186699
    19  H    0.180193
    20  H    0.525486
    21  H    0.161118
    22  H    0.409039
    23  H    0.457959
 Sum of APT charges =  -0.00000
 APT charges with hydrogens summed into heavy atoms:
               1
     1  C    0.007280
     2  C    0.094517
     3  C   -0.071369
     4  C   -0.054959
     5  C    0.131121
     6  C   -0.000982
     7  C   -0.105607
 Electronic spatial extent (au):  <R**2>=            976.5089
 Charge=              0.0000 electrons
 Dipole moment (field-independent basis, Debye):
    X=             -0.0778    Y=             -0.0830    Z=              0.0394  Tot=              0.1204
 Quadrupole moment (field-independent basis, Debye-Ang):
   XX=            -49.3248   YY=            -49.3475   ZZ=            -49.0244
   XY=             -0.1374   XZ=              0.1637   YZ=              0.2765
 Traceless Quadrupole moment (field-independent basis, Debye-Ang):
   XX=             -0.0926   YY=             -0.1153   ZZ=              0.2078
   XY=             -0.1374   XZ=              0.1637   YZ=              0.2765
 Octapole moment (field-independent basis, Debye-Ang**2):
  XXX=              0.4904  YYY=             -1.8995  ZZZ=              0.6981  XYY=             -1.2282
  XXY=             -0.6333  XXZ=              0.5071  XZZ=             -0.3684  YZZ=             -0.3365
  YYZ=             -0.0147  XYZ=              0.4468
 Hexadecapole moment (field-independent basis, Debye-Ang**3):
 XXXX=           -775.8082 YYYY=           -451.0694 ZZZZ=           -163.2567 XXXY=             -2.7998
 XXXZ=             -0.0638 YYYX=              0.9566 YYYZ=              3.9575 ZZZX=              1.4373
 ZZZY=             -1.1210 XXYY=           -202.1634 XXZZ=           -154.8250 YYZZ=           -103.2778
 XXYZ=              4.0693 YYXZ=              2.6197 ZZXY=             -1.6819
 N-N= 3.390727575771D+02 E-N=-1.316574339068D+03  KE= 2.745346176578D+02
  Exact polarizability:   0.000   0.000   0.000   0.000   0.000   0.000
 Approx polarizability: 101.101  -0.697  98.309  -0.626   0.231  99.246
 No NMR shielding tensors so no spin-rotation constants.
 Leave Link  601 at Sun Sep 29 12:37:08 2019, MaxMem=   671088640 cpu:              57.2 elap:              28.6
 (Enter /shared/centos7/gaussian/g16/l701.exe)
 SCFChk:  SCF convergence  7.48D-09 required  1.00D-08
 ... and contract with generalized density number  0.
 Compute integral second derivatives.
 Entering OneElI...
 Calculate overlap and kinetic energy integrals
    NBasis = 485  MinDer = 2  MaxDer = 2
 Requested accuracy = 0.1000D-12
 PrmmSu-InSpLW:  IPartL=    0 NPrtUS=   20 NPrtUL=    1 DoSpLW=F IThBeg=    0 IThEnd=   19 NThAct=   20.
 PrsmSu:  NPrtUS=  20 ThrOK=T IAlg=1 NPAlg=1 LenDen=           0 ISkipM=0 DoSpLW=F IThBeg=    0 IThEnd=   19.
 Prism:   IPart=     0 DynPar=F LinDyn=F Incr=           6.
 PRISM was handed    33193476 working-precision words and 13811 shell-pairs
 PRISM was handed    33193476 working-precision words and 13811 shell-pairs
 PRISM was handed    33193476 working-precision words and 13811 shell-pairs
 PRISM was handed    33193476 working-precision words and 13811 shell-pairs
 PRISM was handed    33193476 working-precision words and 13811 shell-pairs
 PRISM was handed    33193476 working-precision words and 13811 shell-pairs
 PRISM was handed    33193476 working-precision words and 13811 shell-pairs
 PRISM was handed    33193476 working-precision words and 13811 shell-pairs
 PRISM was handed    33193476 working-precision words and 13811 shell-pairs
 PRISM was handed    33193476 working-precision words and 13811 shell-pairs
 PRISM was handed    33193476 working-precision words and 13811 shell-pairs
 IPart=  4 NShTot=         713 NBatch=          74 AvBLen=         9.6
 IPart=  1 NShTot=         724 NBatch=          78 AvBLen=         9.3
 PRISM was handed    33193476 working-precision words and 13811 shell-pairs
 PRISM was handed    33193476 working-precision words and 13811 shell-pairs
 PRISM was handed    33193476 working-precision words and 13811 shell-pairs
 PRISM was handed    33193476 working-precision words and 13811 shell-pairs
 PRISM was handed    33193476 working-precision words and 13811 shell-pairs
 IPart=  8 NShTot=         690 NBatch=          59 AvBLen=        11.7
 IPart=  0 NShTot=         726 NBatch=          79 AvBLen=         9.2
 PRISM was handed    33193476 working-precision words and 13811 shell-pairs
 IPart=  7 NShTot=         694 NBatch=          61 AvBLen=        11.4
 PRISM was handed    33193476 working-precision words and 13811 shell-pairs
 IPart=  9 NShTot=         687 NBatch=          59 AvBLen=        11.6
 PRISM was handed    33193476 working-precision words and 13811 shell-pairs
 IPart=  6 NShTot=         703 NBatch=          68 AvBLen=        10.3
 PRISM was handed    33193476 working-precision words and 13811 shell-pairs
 IPart= 17 NShTot=         669 NBatch=          50 AvBLen=        13.4
 IPart= 10 NShTot=         684 NBatch=          57 AvBLen=        12.0
 IPart= 11 NShTot=         682 NBatch=          56 AvBLen=        12.2
 IPart= 16 NShTot=         671 NBatch=          50 AvBLen=        13.4
 IPart= 14 NShTot=         675 NBatch=          52 AvBLen=        13.0
 IPart=  3 NShTot=         713 NBatch=          74 AvBLen=         9.6
 IPart=  2 NShTot=         717 NBatch=          76 AvBLen=         9.4
 IPart= 19 NShTot=         662 NBatch=          48 AvBLen=        13.8
 IPart= 13 NShTot=         675 NBatch=          52 AvBLen=        13.0
 IPart= 18 NShTot=         666 NBatch=          48 AvBLen=        13.9
 IPart= 12 NShTot=         677 NBatch=          53 AvBLen=        12.8
 IPart=  5 NShTot=         708 NBatch=          71 AvBLen=        10.0
 IPart= 15 NShTot=         675 NBatch=          52 AvBLen=        13.0
 PrSmSu:  NxtVal=            121.
 Entering OneElI...
 Calculate potential energy integrals
    NBasis = 485  MinDer = 2  MaxDer = 2
 Requested accuracy = 0.1000D-12
 PrmmSu-InSpLW:  IPartL=    0 NPrtUS=   20 NPrtUL=    1 DoSpLW=F IThBeg=    0 IThEnd=   19 NThAct=   20.
 PrsmSu:  NPrtUS=  20 ThrOK=T IAlg=1 NPAlg=1 LenDen=           0 ISkipM=0 DoSpLW=F IThBeg=    0 IThEnd=   19.
 Prism:   IPart=     0 DynPar=F LinDyn=F Incr=         146.
 PRISM was handed    33254067 working-precision words and 12763 shell-pairs
 PRISM was handed    33254067 working-precision words and 12763 shell-pairs
 PRISM was handed    33254067 working-precision words and 12763 shell-pairs
 PRISM was handed    33254067 working-precision words and 12763 shell-pairs
 PRISM was handed    33254067 working-precision words and 12763 shell-pairs
 PRISM was handed    33254067 working-precision words and 12763 shell-pairs
 PRISM was handed    33254067 working-precision words and 12763 shell-pairs
 PRISM was handed    33254067 working-precision words and 12763 shell-pairs
 PRISM was handed    33254067 working-precision words and 12763 shell-pairs
 PRISM was handed    33254067 working-precision words and 12763 shell-pairs
 PRISM was handed    33254067 working-precision words and 12763 shell-pairs
 PRISM was handed    33254067 working-precision words and 12763 shell-pairs
 PRISM was handed    33254067 working-precision words and 12763 shell-pairs
 PRISM was handed    33254067 working-precision words and 12763 shell-pairs
 PRISM was handed    33254067 working-precision words and 12763 shell-pairs
 PRISM was handed    33254067 working-precision words and 12763 shell-pairs
 PRISM was handed    33254067 working-precision words and 12763 shell-pairs
 PRISM was handed    33254067 working-precision words and 12763 shell-pairs
 PRISM was handed    33254067 working-precision words and 12763 shell-pairs
 PRISM was handed    33254067 working-precision words and 12763 shell-pairs
 IPart= 17 NShTot=       14168 NBatch=         617 AvBLen=        23.0
 IPart= 11 NShTot=       14559 NBatch=         634 AvBLen=        23.0
 IPart=  9 NShTot=       14628 NBatch=         637 AvBLen=        23.0
 IPart=  0 NShTot=       15387 NBatch=         671 AvBLen=        22.9
 IPart=  6 NShTot=       14904 NBatch=         650 AvBLen=        22.9
 IPart=  8 NShTot=       14674 NBatch=         639 AvBLen=        23.0
 IPart= 10 NShTot=       14628 NBatch=         637 AvBLen=        23.0
 IPart=  1 NShTot=       15318 NBatch=         668 AvBLen=        22.9
 IPart= 16 NShTot=       14191 NBatch=         618 AvBLen=        23.0
 IPart=  7 NShTot=       14720 NBatch=         642 AvBLen=        22.9
 IPart= 18 NShTot=       14168 NBatch=         617 AvBLen=        23.0
 IPart= 13 NShTot=       14375 NBatch=         626 AvBLen=        23.0
 IPart= 14 NShTot=       14352 NBatch=         625 AvBLen=        23.0
 IPart= 19 NShTot=       14099 NBatch=         614 AvBLen=        23.0
 IPart= 12 NShTot=       14421 NBatch=         628 AvBLen=        23.0
 IPart=  2 NShTot=       15272 NBatch=         666 AvBLen=        22.9
 IPart=  5 NShTot=       15065 NBatch=         657 AvBLen=        22.9
 IPart=  4 NShTot=       15157 NBatch=         661 AvBLen=        22.9
 IPart=  3 NShTot=       15180 NBatch=         662 AvBLen=        22.9
 IPart= 15 NShTot=       14283 NBatch=         622 AvBLen=        23.0
 PrSmSu:  NxtVal=           2921.
 Polarizability after L701:
                1             2             3 
      1  0.000000D+00
      2  0.000000D+00  0.000000D+00
      3  0.000000D+00  0.000000D+00  0.000000D+00
 Dipole Derivatives after L701:
                 1             2             3             4             5 
      1  -0.708785D+00 -0.890985D+00  0.473639D+00  0.227054D-01 -0.133359D+00
      2  -0.604734D+00 -0.796293D+00  0.428371D+00 -0.813686D-01 -0.964572D+00
      3  -0.206552D+00  0.942722D-02 -0.712681D+00 -0.334812D-01  0.799026D-02
                 6             7             8             9            10 
      1  -0.181933D+00 -0.879168D+00  0.793732D+00  0.155068D+00 -0.193226D+01
      2  -0.799652D+00  0.594004D+00 -0.112684D+01  0.364127D+00  0.406236D+00
      3  -0.866727D+00  0.310022D+00  0.269699D+00 -0.638848D+00  0.980948D-01
                11            12            13            14            15 
      1   0.205246D+00 -0.281162D+00 -0.778121D+00 -0.109258D-01 -0.104041D+01
      2   0.146288D-01  0.197896D-01  0.204539D+00 -0.974337D-01 -0.252926D+00
      3  -0.626478D-01 -0.809266D+00 -0.146240D+00 -0.269519D+00 -0.826924D+00
                16            17            18            19            20 
      1  -0.247616D+00  0.807560D+00  0.120026D+00 -0.131549D+01 -0.687332D+00
      2  -0.283455D+00 -0.145199D+01 -0.387133D-01 -0.153208D+00 -0.119850D+01
      3  -0.905543D-02  0.192536D-01 -0.980473D+00 -0.227690D-01 -0.590120D-01
                21            22            23            24            25 
      1   0.733720D+00  0.934097D+00 -0.120241D+00 -0.662718D+00  0.473318D+00
      2   0.230641D+00 -0.128827D+00  0.177345D+00  0.102089D+00 -0.373796D-01
      3  -0.887182D+00 -0.201626D+00  0.260347D-01  0.293149D+00  0.157246D+00
                26            27            28            29            30 
      1   0.416275D-02  0.794047D+00  0.784418D-01  0.556655D-03 -0.366430D+00
      2   0.157763D+00 -0.114910D+00 -0.824311D-01  0.133980D+00 -0.328599D+00
      3  -0.410975D-02  0.526345D+00  0.108505D+00 -0.441497D-02  0.609096D+00
                31            32            33            34            35 
      1   0.664001D+00  0.553207D+00  0.148173D+00  0.137720D+00 -0.233760D-01
      2   0.403223D+00  0.621814D+00  0.149969D+00 -0.201613D-01  0.630228D-01
      3  -0.791667D-02  0.198981D-01  0.132265D+00 -0.628830D-01 -0.396009D+00
                36            37            38            39            40 
      1   0.179710D-01  0.203701D+00  0.990012D-01  0.318024D-01  0.655545D+00
      2   0.996727D-01  0.110170D+00  0.897698D+00  0.328135D+00 -0.425391D+00
      3   0.516599D+00  0.419027D-01  0.364067D+00  0.273403D+00 -0.124461D+00
                41            42            43            44            45 
      1  -0.293153D+00 -0.401866D+00  0.112581D+00 -0.186647D+00  0.294721D+00
      2   0.389794D+00  0.366603D+00  0.803350D-01  0.545400D+00 -0.572103D+00
      3   0.936543D-01  0.248179D+00 -0.318864D-01 -0.234344D+00  0.479255D+00
                46            47            48            49            50 
      1  -0.180051D-01  0.118872D+00  0.948334D-01  0.845700D+00 -0.106155D+00
      2  -0.232273D+00  0.306764D+00  0.820294D-01  0.770120D-02  0.165024D+00
      3  -0.393874D+00  0.245720D+00  0.337710D+00  0.397912D+00 -0.791984D-01
                51            52            53            54            55 
      1   0.578923D+00 -0.823168D-02  0.148354D-01 -0.142484D+00  0.562252D-01
      2  -0.157283D-01  0.377494D+00  0.529386D-01  0.413115D+00  0.473081D+00
      3   0.458646D+00  0.300055D+00 -0.682092D-01  0.515391D+00 -0.254707D+00
                56            57            58            59            60 
      1   0.112014D-02  0.619065D-01  0.532854D+00 -0.569136D+00  0.126399D-01
      2   0.107224D+00 -0.393016D+00 -0.573112D+00  0.941683D+00 -0.199475D-01
      3   0.198817D-01  0.377129D+00 -0.129011D-01  0.157094D-01  0.101922D+00
                61            62            63            64            65 
      1  -0.107800D+00  0.823416D-01 -0.180844D+00  0.835605D+00 -0.461395D+00
      2  -0.436227D+00  0.233872D+00 -0.249383D+00  0.100735D+00  0.367960D-01
      3   0.377750D+00 -0.100450D+00  0.357284D+00 -0.297481D+00  0.173239D+00
                66            67            68            69 
      1  -0.632482D+00  0.442979D+00  0.802070D+00  0.372861D+00
      2  -0.115644D+00  0.301050D+00  0.789884D+00  0.316080D+00
      3   0.354716D+00  0.143459D-01  0.133402D-01  0.141013D+00
 Hessian after L701:
                1             2             3             4             5 
      1  0.156591D+02
      2  0.472786D+00  0.158130D+02
      3  0.165787D+00 -0.122524D+00  0.179359D+02
      4 -0.338065D+01 -0.651472D+00 -0.149970D+01  0.153373D+02
      5 -0.691427D+00 -0.579264D+01  0.476217D+00  0.116188D-01  0.167376D+02
      6 -0.150957D+01  0.475465D+00 -0.525092D+01 -0.302753D+00 -0.383913D+00
      7  0.449559D+00 -0.795924D-01 -0.691950D-01 -0.313559D+01  0.971455D-01
      8  0.199063D-01 -0.153035D+00  0.296536D-01  0.725175D-01 -0.610600D+01
      9 -0.196945D+00  0.302281D-01 -0.110990D+00  0.177045D+01  0.387265D-01
     10 -0.550607D+01 -0.155589D+01  0.339825D+00  0.181954D+00 -0.213483D+00
     11 -0.153886D+01 -0.304531D+01 -0.549482D+00 -0.243706D+00  0.609320D-01
     12  0.340823D+00 -0.581067D+00 -0.609416D+01 -0.260745D+00  0.191047D+00
     13  0.266837D+00  0.139473D+00  0.160529D+00  0.205508D+00  0.212887D+00
     14  0.120895D+00 -0.153058D+00  0.431059D-01  0.203123D+00  0.693510D-01
     15  0.562991D-01  0.173404D-01 -0.188948D+00  0.169832D+00  0.123380D+00
     16 -0.691151D-01  0.378624D-01 -0.903355D-02 -0.128331D+00 -0.227407D+00
     17  0.397350D-01  0.388144D+00  0.116545D+00 -0.161389D+00  0.261968D+00
     18 -0.237436D-02  0.363604D-01 -0.146017D+00 -0.300588D-01  0.899719D-01
     19  0.484448D-01  0.818588D-01 -0.128843D-01  0.541675D-01  0.283120D+00
     20  0.676225D-01 -0.358853D-01 -0.102987D-01  0.241907D+00  0.579479D-01
     21 -0.216730D-01 -0.133630D-01 -0.780007D-01  0.631029D-01  0.669406D-01
     22 -0.834585D-02  0.144794D+00 -0.257009D-02  0.132231D+00 -0.116619D+00
     23  0.129277D+00  0.288350D-02 -0.331707D-01 -0.988410D-01 -0.133374D-02
     24 -0.837584D-02 -0.273652D-01  0.138742D+00 -0.866407D-01  0.548722D-01
     25  0.957764D-01  0.583607D-01 -0.195160D-01 -0.409397D-01  0.563539D-02
     26  0.344712D-01 -0.407729D-01  0.997164D-01  0.155411D-01  0.101227D-01
     27  0.296986D-01  0.800831D-01  0.780679D-01 -0.110485D-02 -0.547537D-02
     28 -0.450250D+01 -0.313233D-02  0.393443D+00  0.659119D-01  0.320887D-01
     29 -0.374753D-01 -0.453655D+01 -0.300329D+00 -0.856084D-03  0.222930D+00
     30  0.574131D+00 -0.188356D+00 -0.185136D+01  0.265482D+00 -0.430028D-01
     31 -0.319982D+01  0.122578D+01  0.177012D+00 -0.357576D-01  0.572427D-01
     32  0.121641D+01 -0.300107D+01  0.181898D+00  0.540582D-01  0.156965D+00
     33  0.170900D+00  0.174220D+00 -0.424965D+01  0.961867D-01  0.120138D-01
     34  0.384744D-02 -0.365060D-01  0.234995D+00 -0.480423D+01  0.158431D+00
     35 -0.139085D-03  0.251871D+00 -0.352595D-01  0.156503D+00 -0.364537D+01
     36  0.270041D+00  0.848793D-02 -0.814337D-01 -0.209921D+00 -0.153339D+01
     37 -0.163253D-01  0.829210D-01  0.991002D-01 -0.436061D+01  0.217120D+00
     38  0.917985D-01  0.156871D+00 -0.273084D-01  0.210683D+00 -0.245065D+01
     39  0.104634D+00 -0.110067D-01  0.452461D-01  0.103024D+00  0.100047D+01
     40  0.182250D+00 -0.624968D-01 -0.463228D-01 -0.129921D+00  0.479141D-01
     41 -0.757225D-01 -0.349372D-01  0.115098D-01  0.725268D-01  0.129489D+00
     42 -0.634309D-01  0.177676D-01 -0.490892D-01 -0.636762D-01  0.248881D-01
     43 -0.431073D-01  0.387813D-01 -0.556038D-02  0.149004D-01  0.236995D-01
     44  0.305659D-01 -0.496569D-02 -0.622591D-02  0.193367D-01  0.119016D+00
     45 -0.338176D-04 -0.151987D-02  0.257697D-01 -0.812860D-01 -0.277936D-01
     46  0.442445D-01  0.881593D-01  0.580751D-01  0.198840D-01 -0.403839D-01
     47  0.129292D+00  0.271924D-02  0.743720D-01 -0.100645D-01 -0.163983D-01
     48  0.997942D-01  0.677766D-01 -0.301800D-01 -0.100583D-01 -0.489999D-01
     49  0.199809D-01  0.352330D-02  0.205211D-01  0.930648D-01  0.653894D-01
     50  0.374913D-02 -0.813225D-02  0.358387D-03  0.530526D-01 -0.311115D-01
[...]
 Enter PrismC:  IPart= 11 JobTyp=21 DoJE=F Cont=F.
 PrismC:  IPart=    11 DynPar=T LinDyn=F Incr=        1024 UseFst=F UseS4=T ISplat=2.
 PrismC was handed    33264168 working-precision words and 13229 shell-pairs
 Enter PrismC:  IPart= 18 JobTyp=21 DoJE=F Cont=F.
 PrismC:  IPart=    18 DynPar=T LinDyn=F Incr=        1024 UseFst=F UseS4=T ISplat=2.
 PrismC was handed    33264168 working-precision words and 13229 shell-pairs
 Enter PrismC:  IPart= 19 JobTyp=21 DoJE=F Cont=F.
 PrismC:  IPart=    19 DynPar=T LinDyn=F Incr=        1024 UseFst=F UseS4=T ISplat=2.
 PrismC was handed    33264168 working-precision words and 13229 shell-pairs
 Enter PrismC:  IPart=  8 JobTyp=21 DoJE=F Cont=F.
 PrismC:  IPart=     8 DynPar=T LinDyn=F Incr=        1024 UseFst=F UseS4=T ISplat=2.
 PrismC was handed    33264168 working-precision words and 13229 shell-pairs
 Enter PrismC:  IPart=  5 JobTyp=21 DoJE=F Cont=F.
 PrismC:  IPart=     5 DynPar=T LinDyn=F Incr=        1024 UseFst=F UseS4=T ISplat=2.
 PrismC was handed    33264168 working-precision words and 13229 shell-pairs
 Enter PrismC:  IPart= 15 JobTyp=21 DoJE=F Cont=F.
 PrismC:  IPart=    15 DynPar=T LinDyn=F Incr=        1024 UseFst=F UseS4=T ISplat=2.
 PrismC was handed    33264168 working-precision words and 13229 shell-pairs
 Enter PrismC:  IPart=  7 JobTyp=21 DoJE=F Cont=F.
 PrismC:  IPart=     7 DynPar=T LinDyn=F Incr=        1024 UseFst=F UseS4=T ISplat=2.
 PrismC was handed    33264168 working-precision words and 13229 shell-pairs
 IPart=  2 NShTot=     3202343 NShNF=     3202343 NShFF=           0 MinMC=       7
           NShCPU=     3202343 NBCPU=       65690 AvBCPU=        48.7
           NShGPU=           0 NBGPU=           0 AvBGPU=         0.0
 IPart= 17 NShTot=     3222750 NShNF=     3222750 NShFF=           0 MinMC=       7
           NShCPU=     3222750 NBCPU=       66165 AvBCPU=        48.7
           NShGPU=           0 NBGPU=           0 AvBGPU=         0.0
 IPart=  3 NShTot=     3244438 NShNF=     3244438 NShFF=           0 MinMC=       7
           NShCPU=     3244438 NBCPU=       66177 AvBCPU=        49.0
           NShGPU=           0 NBGPU=           0 AvBGPU=         0.0
 IPart= 11 NShTot=     3224259 NShNF=     3224259 NShFF=           0 MinMC=       7
           NShCPU=     3224259 NBCPU=       66156 AvBCPU=        48.7
           NShGPU=           0 NBGPU=           0 AvBGPU=         0.0
 IPart=  5 NShTot=     3291621 NShNF=     3291621 NShFF=           0 MinMC=       7
           NShCPU=     3291621 NBCPU=       66019 AvBCPU=        49.9
           NShGPU=           0 NBGPU=           0 AvBGPU=         0.0
 IPart= 12 NShTot=     3272736 NShNF=     3272736 NShFF=           0 MinMC=       7
           NShCPU=     3272736 NBCPU=       66381 AvBCPU=        49.3
           NShGPU=           0 NBGPU=           0 AvBGPU=         0.0
 IPart=  8 NShTot=     3266824 NShNF=     3266824 NShFF=           0 MinMC=       7
           NShCPU=     3266824 NBCPU=       66128 AvBCPU=        49.4
           NShGPU=           0 NBGPU=           0 AvBGPU=         0.0
 IPart= 19 NShTot=     3302645 NShNF=     3302645 NShFF=           0 MinMC=       7
           NShCPU=     3302645 NBCPU=       65990 AvBCPU=        50.0
           NShGPU=           0 NBGPU=           0 AvBGPU=         0.0
 IPart= 14 NShTot=     3212698 NShNF=     3212698 NShFF=           0 MinMC=       7
           NShCPU=     3212698 NBCPU=       65479 AvBCPU=        49.1
           NShGPU=           0 NBGPU=           0 AvBGPU=         0.0
 IPart= 13 NShTot=     3269027 NShNF=     3269027 NShFF=           0 MinMC=       7
           NShCPU=     3269027 NBCPU=       66255 AvBCPU=        49.3
           NShGPU=           0 NBGPU=           0 AvBGPU=         0.0
 IPart=  0 NShTot=     3262209 NShNF=     3262209 NShFF=           0 MinMC=       7
           NShCPU=     3262209 NBCPU=       66205 AvBCPU=        49.3
           NShGPU=           0 NBGPU=           0 AvBGPU=         0.0
 IPart=  7 NShTot=     3163089 NShNF=     3163089 NShFF=           0 MinMC=       7
           NShCPU=     3163089 NBCPU=       65616 AvBCPU=        48.2
           NShGPU=           0 NBGPU=           0 AvBGPU=         0.0
 IPart=  9 NShTot=     3268531 NShNF=     3268531 NShFF=           0 MinMC=       7
           NShCPU=     3268531 NBCPU=       65941 AvBCPU=        49.6
           NShGPU=           0 NBGPU=           0 AvBGPU=         0.0
 IPart= 18 NShTot=     3219291 NShNF=     3219291 NShFF=           0 MinMC=       7
           NShCPU=     3219291 NBCPU=       65180 AvBCPU=        49.4
           NShGPU=           0 NBGPU=           0 AvBGPU=         0.0
 IPart=  4 NShTot=     3256613 NShNF=     3256613 NShFF=           0 MinMC=       7
           NShCPU=     3256613 NBCPU=       65973 AvBCPU=        49.4
           NShGPU=           0 NBGPU=           0 AvBGPU=         0.0
 IPart= 10 NShTot=     3233467 NShNF=     3233467 NShFF=           0 MinMC=       7
           NShCPU=     3233467 NBCPU=       65699 AvBCPU=        49.2
           NShGPU=           0 NBGPU=           0 AvBGPU=         0.0
 IPart=  6 NShTot=     3283761 NShNF=     3283761 NShFF=           0 MinMC=       7
           NShCPU=     3283761 NBCPU=       66313 AvBCPU=        49.5
           NShGPU=           0 NBGPU=           0 AvBGPU=         0.0
 IPart= 15 NShTot=     3306730 NShNF=     3306730 NShFF=           0 MinMC=       7
           NShCPU=     3306730 NBCPU=       65986 AvBCPU=        50.1
           NShGPU=           0 NBGPU=           0 AvBGPU=         0.0
 IPart= 16 NShTot=     3324679 NShNF=     3324679 NShFF=           0 MinMC=       7
           NShCPU=     3324679 NBCPU=       66178 AvBCPU=        50.2
           NShGPU=           0 NBGPU=           0 AvBGPU=         0.0
 IPart=  1 NShTot=     3236017 NShNF=     3236017 NShFF=           0 MinMC=       7
           NShCPU=     3236017 NBCPU=       65892 AvBCPU=        49.1
           NShGPU=           0 NBGPU=           0 AvBGPU=         0.0
 CoulSu:  NxtVal=       94598145 LenVP=       33264169 MinMC=       7.
 ReadGW:  IGet=0 IStart=           1 Next=           1 LGW=           0.
 Remaining memory in FofDFT      639.77 Mw
 CkSvGd:  ISavGI=        -1 IRadAn=       5 IRASav=       5 ISavGd=        -1.
 CalDSu-InSpLW:  IPartL=    0 NPrtUS=   20 NPrtUL=    1 DoSpLW=F IThBeg=    0 IThEnd=   19 NThAct=   20.
 CalDSu:  NPrtUS=  20 ThrOK=T IAlg=1 NPAlg=2 DoDPD=T LenP=      117855 LenD1P=             0 GPUOK=T
          ISkipM=0 DoSpLW=F IThBeg=    0 IThEnd=   19.
 IPart=  0 IRanGd=          0 ScrnBf=T ScrnGd=T RCrit=4.00D+00 DoMicB=T.
 IPart=  8        67408 of        76950 points in      78 batches and      387 microbatches, Max-NSigAt=      23 Max-NSgAt2=      23
 IPart= 14        11423 of        12444 points in      12 batches and       52 microbatches, Max-NSigAt=      23 Max-NSgAt2=      23
 IPart= 11        12132 of        13874 points in      14 batches and       73 microbatches, Max-NSigAt=      23 Max-NSgAt2=      23
 IPart=  5        25437 of        30272 points in      32 batches and      154 microbatches, Max-NSigAt=      23 Max-NSgAt2=      23
 IPart=  7        10514 of        11884 points in      12 batches and       63 microbatches, Max-NSigAt=      23 Max-NSgAt2=      23
 IPart= 12        24511 of        29528 points in      33 batches and      171 microbatches, Max-NSigAt=      23 Max-NSgAt2=      23
 IPart= 15        13600 of        15208 points in      14 batches and       71 microbatches, Max-NSigAt=      23 Max-NSgAt2=      23
 IPart= 18        70716 of        84332 points in      90 batches and      382 microbatches, Max-NSigAt=      23 Max-NSgAt2=      23
 IPart= 16        72254 of        87744 points in      95 batches and      402 microbatches, Max-NSigAt=      23 Max-NSgAt2=      23
 IPart=  4        12271 of        12774 points in      12 batches and       49 microbatches, Max-NSigAt=      23 Max-NSgAt2=      23
 IPart=  0        13487 of        14762 points in      14 batches and       58 microbatches, Max-NSigAt=      23 Max-NSgAt2=      23
 IPart= 13        12172 of        15504 points in      17 batches and       72 microbatches, Max-NSigAt=      23 Max-NSgAt2=      23
 IPart= 17        12698 of        14312 points in      16 batches and       59 microbatches, Max-NSigAt=      23 Max-NSgAt2=      23
 IPart=  1        11500 of        12446 points in      12 batches and       55 microbatches, Max-NSigAt=      23 Max-NSgAt2=      23
 IPart=  9        11795 of        12418 points in      12 batches and       52 microbatches, Max-NSigAt=      23 Max-NSgAt2=      23
 IPart= 19        12118 of        13058 points in      13 batches and       59 microbatches, Max-NSigAt=      23 Max-NSgAt2=      23
 IPart=  6        12025 of        13148 points in      13 batches and       68 microbatches, Max-NSigAt=      23 Max-NSgAt2=      23
 IPart=  3        13659 of        15274 points in      15 batches and       72 microbatches, Max-NSigAt=      23 Max-NSgAt2=      23
 IPart= 10        13439 of        14440 points in      13 batches and       63 microbatches, Max-NSigAt=      23 Max-NSgAt2=      23
 IPart=  2        14578 of        16648 points in      16 batches and       70 microbatches, Max-NSigAt=      23 Max-NSgAt2=      23
 Force at end of L703
 I=    0 X=  -1.801714131956D-02 Y=  -3.660164842894D-02 Z=   1.452037389592D-02
 I=    1 X=   6.132114387567D-04 Y=  -3.363240735466D-05 Z=   1.049759299547D-02
 I=    2 X=  -3.344444453174D-03 Y=   3.244821556603D-05 Z=  -8.501947728426D-03
 I=    3 X=  -1.494678392318D-03 Y=  -1.920970362740D-03 Z=   3.478790661831D-03
 I=    4 X=   2.124858268401D-03 Y=  -1.617511006834D-03 Z=  -8.628070419040D-03
 I=    5 X=   1.294063319019D-03 Y=   1.412438469906D-03 Z=   1.211831452068D-03
 I=    6 X=   8.075185110243D-04 Y=   8.618099194297D-04 Z=   1.993935940407D-03
 I=    7 X=  -5.163517311635D-04 Y=  -3.972048221841D-04 Z=  -1.226134396606D-03
 I=    8 X=  -3.000761069991D-04 Y=  -4.158254524290D-04 Z=  -3.355913754590D-04
 I=    9 X=  -3.808674926966D-04 Y=  -1.661944035103D-05 Z=   1.568233484788D-04
 I=   10 X=  -9.791198887241D-04 Y=  -7.448817491755D-04 Z=  -4.449146169812D-04
 I=   11 X=  -6.307302665425D-04 Y=   8.311391303533D-04 Z=   7.402794475821D-04
 I=   12 X=   6.839048976132D-05 Y=  -1.663213873380D-03 Z=  -4.117411405558D-05
 I=   13 X=   3.234882773219D-04 Y=   4.427254662129D-04 Z=   1.530815060446D-05
 I=   14 X=  -3.478784954387D-04 Y=   6.460563551025D-04 Z=  -1.977466929586D-04
 I=   15 X=   8.168537349583D-04 Y=  -2.305822061013D-04 Z=  -6.474640070464D-04
 I=   16 X=  -2.160053035825D-04 Y=   2.613391782421D-03 Z=  -3.761313580974D-04
 I=   17 X=  -5.232864429683D-04 Y=  -2.961176246318D-04 Z=   3.103566488294D-05
 I=   18 X=   2.122871779873D-03 Y=  -1.696104059569D-03 Z=   1.493150867268D-03
 I=   19 X=   5.591102304967D-04 Y=   2.610339180342D-05 Z=  -9.685444609790D-04
 I=   20 X=   2.934589840753D-04 Y=  -2.565565228609D-04 Z=   5.227322028463D-04
 I=   21 X=  -3.907775854683D-04 Y=   1.897267691668D-03 Z=   1.273479861552D-03
 I=   22 X=   2.780325770857D-05 Y=   2.653066180874D-04 Z=  -3.661944914368D-05
 I=   23 X=   7.258786765907D-05 Y=   2.605324870339D-04 Z=  -1.062197423018D-05
 Leave Link  703 at Sun Sep 29 14:58:30 2019, MaxMem=   671088640 cpu:             488.7 elap:             244.4
 (Enter /shared/centos7/gaussian/g16/l716.exe)
 FrcOut:
 IF    =      1154 IFX   =      1272 IFXYZ =      1341
 IFFX  =      1410 IFFFX =      1410 IFLen =       118
 IFFLen=         0 IFFFLn=         0 IEDerv=      1410
 LEDerv=      3365 IFroze=      5591 ICStrt=    383433
 Dipole        =-1.80171413D-02-3.66016484D-02 1.45203739D-02
 Forces in standard orientation:
 -------------------------------------------------------------------
 Center     Atomic                   Forces (Hartrees/Bohr)
 Number     Number              X              Y              Z
 -------------------------------------------------------------------
      1        6           0.000613211   -0.000033632    0.010497593
      2        6          -0.003344444    0.000032448   -0.008501948
      3        6          -0.001494678   -0.001920970    0.003478791
      4        6           0.002124858   -0.001617511   -0.008628070
      5        6           0.001294063    0.001412438    0.001211831
      6        6           0.000807519    0.000861810    0.001993936
      7        6          -0.000516352   -0.000397205   -0.001226134
      8        1          -0.000300076   -0.000415825   -0.000335591
      9        1          -0.000380867   -0.000016619    0.000156823
     10        1          -0.000979120   -0.000744882   -0.000444915
     11        1          -0.000630730    0.000831139    0.000740279
     12        1           0.000068390   -0.001663214   -0.000041174
     13        1           0.000323488    0.000442725    0.000015308
     14        1          -0.000347878    0.000646056   -0.000197747
     15        1           0.000816854   -0.000230582   -0.000647464
     16        1          -0.000216005    0.002613392   -0.000376131
     17        1          -0.000523286   -0.000296118    0.000031036
     18        1           0.002122872   -0.001696104    0.001493151
     19        1           0.000559110    0.000026103   -0.000968544
     20        1           0.000293459   -0.000256557    0.000522732
     21        1          -0.000390778    0.001897268    0.001273480
     22        1           0.000027803    0.000265307   -0.000036619
     23        1           0.000072588    0.000260532   -0.000010622
 -------------------------------------------------------------------
 Cartesian Forces:  Max     0.010497593 RMS     0.002216400
 ***** Axes restored to original set *****
 Rotating derivatives, DoTrsp=F IDiff=-1 LEDeriv=   3364 LFDPrp=       0 LDFDPr=       0.
 -------------------------------------------------------------------
 Center     Atomic                   Forces (Hartrees/Bohr)
 Number     Number              X              Y              Z
 -------------------------------------------------------------------
      1        6           0.000203280    0.010364664    0.001763245
      2        6          -0.002994789   -0.008454397   -0.001738935
      3        6          -0.001417348    0.003720087   -0.001475890
      4        6           0.002619263   -0.008187912   -0.002769932
      5        6           0.001088879    0.000984127    0.001727413
      6        6           0.000633262    0.001837288    0.001262511
      7        6          -0.000423133   -0.001152507   -0.000648446
      8        1          -0.000241013   -0.000267177   -0.000496092
      9        1          -0.000382791    0.000149431   -0.000032733
     10        1          -0.000876590   -0.000333799   -0.000911944
     11        1          -0.000743630    0.000576939    0.000866477
     12        1           0.000245757    0.000240098   -0.001629297
     13        1           0.000273921   -0.000052519    0.000472328
     14        1          -0.000406381   -0.000310606    0.000562041
     15        1           0.000861320   -0.000582425   -0.000241942
     16        1          -0.000476807   -0.000813995    0.002475483
     17        1          -0.000489782    0.000069423   -0.000343179
     18        1           0.002230725    0.001800559   -0.001180976
     19        1           0.000590559   -0.000947336   -0.000071823
     20        1           0.000298367    0.000564377   -0.000132832
     21        1          -0.000638958    0.000928439    0.002025788
     22        1           0.000000948   -0.000080059    0.000257082
     23        1           0.000044938   -0.000052703    0.000261652
 -------------------------------------------------------------------
 Cartesian Forces:  Max     0.010364664 RMS     0.002216400
 Final forces over variables, Energy=-2.76332723D+02:
 -1.35901519D-02-1.18707298D-02 6.56051003D-03 7.48195506D-03
 -9.44355830D-03 3.16562326D-03 8.43684377D-03-1.33379986D-02
  3.55701838D-03 6.81990322D-03-1.07567592D-02 1.57997217D-02
  9.39665511D-03-5.79357884D-03 1.47089228D-02 4.86721462D-03
  7.73277726D-03 1.63226333D-02 9.35849138D-03 7.05327576D-04
  1.54208246D-02 1.74734226D-02-7.02958281D-03 3.77328213D-03
  7.62659459D-04 1.76029170D-03 2.19317694D-03-9.74833008D-04
 -8.83538995D-03 2.69078934D-03 2.50344800D-03 3.45009888D-03
  1.77680283D-03-8.79153216D-04-1.46302415D-02 5.45392346D-03
  3.09843318D-03 4.21168095D-03 5.42869719D-03-2.63116108D-03
  2.59259571D-03-5.01913494D-04-1.73881315D-03-1.83680306D-03
  1.17351920D-04 1.27302524D-03-8.08308714D-03-1.97167529D-03
  4.33496899D-03 6.94350822D-03-2.99484571D-04-4.24794019D-04
  2.92048418D-03 9.20506484D-04-2.80042808D-03-1.55098766D-03
 -2.70575772D-04 7.35755528D-04-1.54918816D-03-4.25189721D-04
 -1.17210987D-03 1.72007293D-04 2.25031582D-03 9.55024184D-04
  1.53788907D-03 1.41508875D-03-2.06601333D-04 1.02711166D-03
  9.04311338D-04-7.17378745D-04-1.78215202D-04-3.01015520D-04
 -1.92270560D-03-2.23113970D-03-1.26252299D-03-1.55883165D-03
 -7.10363996D-04 2.58252719D-04-3.80559496D-05 1.38372817D-04
  1.10698953D-03 8.10680864D-04 2.02320097D-04-5.69666437D-04
 -1.69566833D-03-1.51377665D-05-7.87124301D-04-1.91312619D-03
  1.47907193D-03 7.07085400D-04-4.18916495D-04-2.86203931D-03
 -1.59782451D-03-5.53945660D-04-1.45881901D-03-1.94604204D-04
  8.49274641D-04-4.52716631D-05 1.21894314D-03 2.26282198D-03
 -6.63250078D-04-1.88251743D-04-5.04896455D-04-8.46045235D-04
 -3.71046900D-04-6.87691612D-04-2.89180789D-04 1.85817546D-04
 -1.30827166D-04-1.79586024D-03-6.27026384D-04-7.60061313D-04
  1.09974539D-03 2.26857925D-03 2.13554432D-03-1.88601387D-03
 -7.17180012D-04-8.50214942D-04
 Leave Link  716 at Sun Sep 29 14:58:31 2019, MaxMem=   671088640 cpu:               1.4 elap:               0.7
 (Enter /shared/centos7/gaussian/g16/l103.exe)

 GradGradGradGradGradGradGradGradGradGradGradGradGradGradGradGradGradGrad
 Berny optimization.
 Using GEDIIS/GDIIS optimizer.
 FormGI is forming the generalized inverse of G from B-inverse, IUseBI=4.
 Internal  Forces:  Max     0.013458571 RMS     0.002386540
 Search for a local minimum.
 Step number   5 out of a maximum of  138
 All quantities printed in internal units (Hartrees-Bohrs-Radians)
 RMS Force = .23865D-02 SwitMx=.10000D-02 MixMth= 1
 Mixed Optimization -- RFO/linear search
 Update second derivatives using D2CorX and points    3    5
 DE= -2.09D-03 DEPred=-2.00D-03 R= 1.04D+00
 TightC=F SS=  1.41D+00  RLast= 8.96D-01 DXNew= 4.2426D-01 2.6873D+00
 Trust test= 1.04D+00 RLast= 8.96D-01 DXMaxT set to 4.24D-01
 ITU=  1 -1  1  0  0
 Use linear search instead of GDIIS.
     Eigenvalues ---   -0.00105   0.00110   0.00273   0.01150   0.01297
     Eigenvalues ---    0.02144   0.03618   0.03695   0.03827   0.04085
     Eigenvalues ---    0.04146   0.04247   0.04290   0.04376   0.04411
     Eigenvalues ---    0.04482   0.04516   0.04671   0.05574   0.06449
     Eigenvalues ---    0.06900   0.07118   0.07157   0.07242   0.07504
     Eigenvalues ---    0.10236   0.11067   0.11259   0.12038   0.12314
     Eigenvalues ---    0.12384   0.13887   0.14011   0.15226   0.15536
     Eigenvalues ---    0.18070   0.19400   0.22546   0.25806   0.27248
     Eigenvalues ---    0.27717   0.27723   0.28093   0.28911   0.29444
     Eigenvalues ---    0.29661   0.29858   0.30140   0.30235   0.30568
     Eigenvalues ---    0.30909   0.31273   0.31580   0.32044   0.32821
     Eigenvalues ---    0.33485   0.34184   0.34669   0.36017   0.37743
     Eigenvalues ---    0.44937   0.45748   2.08230
 Eigenvalue     1 is  -1.05D-03 should be greater than     0.000000 Eigenvector:
                          D10       D13       D49       D52       D46
   1                    0.23001   0.21304  -0.21265  -0.20847  -0.20472
                          D51       D54       D50       D16       D48
   1                   -0.20099  -0.19681  -0.19641   0.19573  -0.19306
 RFO step:  Lambda=-4.43482841D-03 EMin=-1.05274166D-03
 Quartic linear search produced a step of -0.19429.
