 Entering Gaussian System, Link 0=g16
 Input=verytight/species/CCCCCCC/conformers/CCCCCCC_424.com
 Output=verytight/species/CCCCCCC/conformers/CCCCCCC_424.log
 Initial command:
 /shared/centos7/gaussian/g16/l1.exe "/scratch/harms.n/gauss_scrdir/Gau-44681.inp" -scrdir="/scratch/harms.n/gauss_scrdir/"
 Entering Link 1 = /shared/centos7/gaussian/g16/l1.exe PID=     44682.
  
 Copyright (c) 1988,1990,1992,1993,1995,1998,2003,2009,2016,
            Gaussian, Inc.  All Rights Reserved.
  
 This is part of the Gaussian(R) 16 program.  It is based on
 the Gaussian(R) 09 system (copyright 2009, Gaussian, Inc.),
 the Gaussian(R) 03 system (copyright 2003, Gaussian, Inc.),
 the Gaussian(R) 98 system (copyright 1998, Gaussian, Inc.),
 the Gaussian(R) 94 system (copyright 1995, Gaussian, Inc.),
 the Gaussian 92(TM) system (copyright 1992, Gaussian, Inc.),
 the Gaussian 90(TM) system (copyright 1990, Gaussian, Inc.),
 the Gaussian 88(TM) system (copyright 1988, Gaussian, Inc.),
 the Gaussian 86(TM) system (copyright 1986, Carnegie Mellon
 University), and the Gaussian 82(TM) system (copyright 1983,
 Carnegie Mellon University). Gaussian is a federally registered
 trademark of Gaussian, Inc.
  
 This software contains proprietary and confidential information,
 including trade secrets, belonging to Gaussian, Inc.
  
 This software is provided under written license and may be
 used, copied, transmitted, or stored only in accord with that
 written license.
  
 The following legend is applicable only to US Government
 contracts under FAR:
  
                    RESTRICTED RIGHTS LEGEND
  
 Use, reproduction and disclosure by the US Government is
 subject to restrictions as set forth in subparagraphs (a)
 and (c) of the Commercial Computer Software - Restricted
 Rights clause in FAR 52.227-19.
  
 Gaussian, Inc.
 340 Quinnipiac St., Bldg. 40, Wallingford CT 06492
  
  
 ---------------------------------------------------------------
 Warning -- This program may not be used in any manner that
 competes with the business of Gaussian, Inc. or will provide
 assistance to any competitor of Gaussian, Inc.  The licensee
 of this program is prohibited from giving any competitor of
 Gaussian, Inc. access to this program.  By using this program,
 the user acknowledges that Gaussian, Inc. is engaged in the
 business of creating and licensing software in the field of
 computational chemistry and represents and warrants to the
 licensee that it is not a competitor of Gaussian, Inc. and that
 it will not use this program in any manner prohibited above.
 ---------------------------------------------------------------
  

 Cite this work as:
 Gaussian 16, Revision A.03,
 M. J. Frisch, G. W. Trucks, H. B. Schlegel, G. E. Scuseria, 
 M. A. Robb, J. R. Cheeseman, G. Scalmani, V. Barone, 
 G. A. Petersson, H. Nakatsuji, X. Li, M. Caricato, A. V. Marenich, 
 J. Bloino, B. G. Janesko, R. Gomperts, B. Mennucci, H. P. Hratchian, 
 J. V. Ortiz, A. F. Izmaylov, J. L. Sonnenberg, D. Williams-Young, 
 F. Ding, F. Lipparini, F. Egidi, J. Goings, B. Peng, A. Petrone, 
 T. Henderson, D. Ranasinghe, V. G. Zakrzewski, J. Gao, N. Rega, 
 G. Zheng, W. Liang, M. Hada, M. Ehara, K. Toyota, R. Fukuda, 
 J. Hasegawa, M. Ishida, T. Nakajima, Y. Honda, O. Kitao, H. Nakai, 
 T. Vreven, K. Throssell, J. A. Montgomery, Jr., J. E. Peralta, 
 F. Ogliaro, M. J. Bearpark, J. J. Heyd, E. N. Brothers, K. N. Kudin, 
 V. N. Staroverov, T. A. Keith, R. Kobayashi, J. Normand, 
 K. Raghavachari, A. P. Rendell, J. C. Burant, S. S. Iyengar, 
 J. Tomasi, M. Cossi, J. M. Millam, M. Klene, C. Adamo, R. Cammi, 
 J. W. Ochterski, R. L. Martin, K. Morokuma, O. Farkas, 
 J. B. Foresman, and D. J. Fox, Gaussian, Inc., Wallingford CT, 2016.
 
 ******************************************
 Gaussian 16:  EM64L-G16RevA.03 25-Dec-2016
                29-Sep-2019 
 ******************************************
 %nprocshared=20
 Will use up to   20 processors via shared memory.
 %mem=5GB
 ----------------------------------------------------------------------
 #p m062x/cc-pVTZ opt=(calcfc,maxcycles=900,Tight) freq IOP(7/33=1,2/16
 =3) scf=(maxcycle=900)
 ----------------------------------------------------------------------
 1/6=900,7=10,10=4,18=20,19=15,26=3,38=1/1,3;
 2/9=110,12=2,16=3,17=6,18=5,40=1/2;
 3/5=16,6=1,11=2,25=1,30=1,71=2,74=-55,140=1/1,2,3;
 4//1;
 5/5=2,7=900,38=5/2;
 8/6=4,10=90,11=11/1;
 11/6=1,8=1,9=11,15=111,16=1/1,2,10;
 10/6=1,13=1/2;
 6/7=2,8=2,9=2,10=2,28=1/1;
 7/10=1,18=20,25=1,33=1/1,2,3,16;
 1/6=900,7=10,10=4,18=20,19=15,26=3/3(2);
 2/9=110,16=3/2;
 99//99;
 2/9=110,16=3/2;
 3/5=16,6=1,11=2,25=1,30=1,71=1,74=-55/1,2,3;
 4/5=5,16=3,69=1/1;
 5/5=2,7=900,38=5/2;
 7/33=1/1,2,3,16;
 1/6=900,7=10,18=20,19=15,26=3/3(-5);
 2/9=110,16=3/2;
 6/7=2,8=2,9=2,10=2,19=2,28=1/1;
 99/9=1/99;
 Leave Link    1 at Sun Sep 29 13:16:03 2019, MaxMem=   671088640 cpu:               4.3 elap:               2.1
 (Enter /shared/centos7/gaussian/g16/l101.exe)
 ------------------------------
 Gaussian input prepared by ASE
 ------------------------------
 Symbolic Z-matrix:
 Charge =  0 Multiplicity = 1
 C                     1.20455  -1.29839   0.28829 
 C                     0.09896  -0.5037    0.895 
 C                     0.27256  -0.11467   2.34189 
 C                     2.20907  -0.49818  -0.47042 
 C                     1.32769   0.92534   2.6365 
 C                     3.2755   -1.30498  -1.08797 
 C                     2.73499   0.39599   2.73252 
 H                     2.67755   0.26098   0.21758 
 H                     1.68951   0.09326  -1.26163 
 H                     0.7629   -2.0481   -0.40197 
 H                     1.72211  -1.88971   1.07131 
 H                    -0.83105  -1.0896    0.828 
 H                    -0.08503   0.41214   0.29447 
 H                     0.46984  -1.01911   2.94206 
 H                    -0.7017    0.27924   2.69798 
 H                     1.2926    1.73264   1.85898 
 H                     1.0748    1.41302   3.5933 
 H                     3.8584   -1.85807  -0.32756 
 H                     2.853    -2.06537  -1.80966 
 H                     3.98118  -0.66208  -1.65558 
 H                     3.08608   0.02017   1.77072 
 H                     2.80383  -0.43741   3.48522 
 H                     3.43647   1.21505   3.06262 
 
 ITRead=  0  0  0  0  0  0  0  0  0  0  0  0  0  0  0  0  0  0  0  0
 ITRead=  0  0  0
 MicOpt= -1 -1 -1 -1 -1 -1 -1 -1 -1 -1 -1 -1 -1 -1 -1 -1 -1 -1 -1 -1
 MicOpt= -1 -1 -1
 NAtoms=     23 NQM=       23 NQMF=       0 NMMI=      0 NMMIF=      0
                NMic=       0 NMicF=      0.
                    Isotopes and Nuclear Properties:
 (Nuclear quadrupole moments (NQMom) in fm**2, nuclear magnetic moments (NMagM)
  in nuclear magnetons)

  Atom         1           2           3           4           5           6           7           8           9          10
 IAtWgt=          12          12          12          12          12          12          12           1           1           1
 AtmWgt=  12.0000000  12.0000000  12.0000000  12.0000000  12.0000000  12.0000000  12.0000000   1.0078250   1.0078250   1.0078250
 NucSpn=           0           0           0           0           0           0           0           1           1           1
 AtZEff=  -0.0000000  -0.0000000  -0.0000000  -0.0000000  -0.0000000  -0.0000000  -0.0000000  -0.0000000  -0.0000000  -0.0000000
 NQMom=    0.0000000   0.0000000   0.0000000   0.0000000   0.0000000   0.0000000   0.0000000   0.0000000   0.0000000   0.0000000
 NMagM=    0.0000000   0.0000000   0.0000000   0.0000000   0.0000000   0.0000000   0.0000000   2.7928460   2.7928460   2.7928460
 AtZNuc=   6.0000000   6.0000000   6.0000000   6.0000000   6.0000000   6.0000000   6.0000000   1.0000000   1.0000000   1.0000000

  Atom        11          12          13          14          15          16          17          18          19          20
 IAtWgt=           1           1           1           1           1           1           1           1           1           1
 AtmWgt=   1.0078250   1.0078250   1.0078250   1.0078250   1.0078250   1.0078250   1.0078250   1.0078250   1.0078250   1.0078250
 NucSpn=           1           1           1           1           1           1           1           1           1           1
 AtZEff=  -0.0000000  -0.0000000  -0.0000000  -0.0000000  -0.0000000  -0.0000000  -0.0000000  -0.0000000  -0.0000000  -0.0000000
 NQMom=    0.0000000   0.0000000   0.0000000   0.0000000   0.0000000   0.0000000   0.0000000   0.0000000   0.0000000   0.0000000
 NMagM=    2.7928460   2.7928460   2.7928460   2.7928460   2.7928460   2.7928460   2.7928460   2.7928460   2.7928460   2.7928460
 AtZNuc=   1.0000000   1.0000000   1.0000000   1.0000000   1.0000000   1.0000000   1.0000000   1.0000000   1.0000000   1.0000000

  Atom        21          22          23
 IAtWgt=           1           1           1
 AtmWgt=   1.0078250   1.0078250   1.0078250
 NucSpn=           1           1           1
 AtZEff=  -0.0000000  -0.0000000  -0.0000000
 NQMom=    0.0000000   0.0000000   0.0000000
 NMagM=    2.7928460   2.7928460   2.7928460
 AtZNuc=   1.0000000   1.0000000   1.0000000
 Leave Link  101 at Sun Sep 29 13:16:04 2019, MaxMem=   671088640 cpu:               2.6 elap:               1.3
 (Enter /shared/centos7/gaussian/g16/l103.exe)

 GradGradGradGradGradGradGradGradGradGradGradGradGradGradGradGradGradGrad
 Berny optimization.
 Initialization pass.
                           ----------------------------
                           !    Initial Parameters    !
                           ! (Angstroms and Degrees)  !
 --------------------------                            --------------------------
 ! Name  Definition              Value          Derivative Info.                !
 --------------------------------------------------------------------------------
 ! R1    R(1,2)                  1.4906         calculate D2E/DX2 analytically  !
 ! R2    R(1,4)                  1.4917         calculate D2E/DX2 analytically  !
 ! R3    R(1,10)                 1.1107         calculate D2E/DX2 analytically  !
 ! R4    R(1,11)                 1.1093         calculate D2E/DX2 analytically  !
 ! R5    R(2,3)                  1.5083         calculate D2E/DX2 analytically  !
 ! R6    R(2,12)                 1.1012         calculate D2E/DX2 analytically  !
 ! R7    R(2,13)                 1.1105         calculate D2E/DX2 analytically  !
 ! R8    R(3,5)                  1.5105         calculate D2E/DX2 analytically  !
 ! R9    R(3,14)                 1.1032         calculate D2E/DX2 analytically  !
 ! R10   R(3,15)                 1.1096         calculate D2E/DX2 analytically  !
 ! R11   R(4,6)                  1.473          calculate D2E/DX2 analytically  !
 ! R12   R(4,8)                  1.1266         calculate D2E/DX2 analytically  !
 ! R13   R(4,9)                  1.1161         calculate D2E/DX2 analytically  !
 ! R14   R(5,7)                  1.5066         calculate D2E/DX2 analytically  !
 ! R15   R(5,16)                 1.1214         calculate D2E/DX2 analytically  !
 ! R16   R(5,17)                 1.1033         calculate D2E/DX2 analytically  !
 ! R17   R(6,18)                 1.1063         calculate D2E/DX2 analytically  !
 ! R18   R(6,19)                 1.1303         calculate D2E/DX2 analytically  !
 ! R19   R(6,20)                 1.1106         calculate D2E/DX2 analytically  !
 ! R20   R(7,21)                 1.0907         calculate D2E/DX2 analytically  !
 ! R21   R(7,22)                 1.1251         calculate D2E/DX2 analytically  !
 ! R22   R(7,23)                 1.1278         calculate D2E/DX2 analytically  !
 ! A1    A(2,1,4)              114.8661         calculate D2E/DX2 analytically  !
 ! A2    A(2,1,10)             108.535          calculate D2E/DX2 analytically  !
 ! A3    A(2,1,11)             110.0545         calculate D2E/DX2 analytically  !
 ! A4    A(4,1,10)             108.2884         calculate D2E/DX2 analytically  !
 ! A5    A(4,1,11)             109.3166         calculate D2E/DX2 analytically  !
 ! A6    A(10,1,11)            105.3301         calculate D2E/DX2 analytically  !
 ! A7    A(1,2,3)              116.2691         calculate D2E/DX2 analytically  !
 ! A8    A(1,2,12)             108.5403         calculate D2E/DX2 analytically  !
 ! A9    A(1,2,13)             110.0258         calculate D2E/DX2 analytically  !
 ! A10   A(3,2,12)             107.0254         calculate D2E/DX2 analytically  !
 ! A11   A(3,2,13)             108.9721         calculate D2E/DX2 analytically  !
 ! A12   A(12,2,13)            105.4237         calculate D2E/DX2 analytically  !
 ! A13   A(2,3,5)              116.4282         calculate D2E/DX2 analytically  !
 ! A14   A(2,3,14)             109.3289         calculate D2E/DX2 analytically  !
 ! A15   A(2,3,15)             107.3593         calculate D2E/DX2 analytically  !
 ! A16   A(5,3,14)             109.4771         calculate D2E/DX2 analytically  !
 ! A17   A(5,3,15)             107.8371         calculate D2E/DX2 analytically  !
 ! A18   A(14,3,15)            105.8707         calculate D2E/DX2 analytically  !
 ! A19   A(1,4,6)              114.0147         calculate D2E/DX2 analytically  !
 ! A20   A(1,4,8)              109.3253         calculate D2E/DX2 analytically  !
 ! A21   A(1,4,9)              109.3507         calculate D2E/DX2 analytically  !
 ! A22   A(6,4,8)              108.9096         calculate D2E/DX2 analytically  !
 ! A23   A(6,4,9)              109.2732         calculate D2E/DX2 analytically  !
 ! A24   A(8,4,9)              105.6294         calculate D2E/DX2 analytically  !
 ! A25   A(3,5,7)              115.0237         calculate D2E/DX2 analytically  !
 ! A26   A(3,5,16)             109.7901         calculate D2E/DX2 analytically  !
 ! A27   A(3,5,17)             108.2624         calculate D2E/DX2 analytically  !
 ! A28   A(7,5,16)             109.0475         calculate D2E/DX2 analytically  !
 ! A29   A(7,5,17)             108.3088         calculate D2E/DX2 analytically  !
 ! A30   A(16,5,17)            106.0158         calculate D2E/DX2 analytically  !
 ! A31   A(4,6,18)             111.5394         calculate D2E/DX2 analytically  !
 ! A32   A(4,6,19)             111.4418         calculate D2E/DX2 analytically  !
 ! A33   A(4,6,20)             110.9297         calculate D2E/DX2 analytically  !
 ! A34   A(18,6,19)            107.4275         calculate D2E/DX2 analytically  !
 ! A35   A(18,6,20)            107.8129         calculate D2E/DX2 analytically  !
 ! A36   A(19,6,20)            107.4943         calculate D2E/DX2 analytically  !
 ! A37   A(5,7,21)             111.4409         calculate D2E/DX2 analytically  !
 ! A38   A(5,7,22)             111.1028         calculate D2E/DX2 analytically  !
 ! A39   A(5,7,23)             110.1504         calculate D2E/DX2 analytically  !
 ! A40   A(21,7,22)            108.3617         calculate D2E/DX2 analytically  !
 ! A41   A(21,7,23)            107.9473         calculate D2E/DX2 analytically  !
 ! A42   A(22,7,23)            107.7035         calculate D2E/DX2 analytically  !
 ! D1    D(4,1,2,3)            -96.0634         calculate D2E/DX2 analytically  !
 ! D2    D(4,1,2,12)           143.2782         calculate D2E/DX2 analytically  !
 ! D3    D(4,1,2,13)            28.3927         calculate D2E/DX2 analytically  !
 ! D4    D(10,1,2,3)           142.5926         calculate D2E/DX2 analytically  !
 ! D5    D(10,1,2,12)           21.9342         calculate D2E/DX2 analytically  !
 ! D6    D(10,1,2,13)          -92.9513         calculate D2E/DX2 analytically  !
 ! D7    D(11,1,2,3)            27.8065         calculate D2E/DX2 analytically  !
 ! D8    D(11,1,2,12)          -92.852          calculate D2E/DX2 analytically  !
 ! D9    D(11,1,2,13)          152.2626         calculate D2E/DX2 analytically  !
 ! D10   D(2,1,4,6)           -178.6567         calculate D2E/DX2 analytically  !
 ! D11   D(2,1,4,8)             59.1881         calculate D2E/DX2 analytically  !
 ! D12   D(2,1,4,9)            -56.0103         calculate D2E/DX2 analytically  !
 ! D13   D(10,1,4,6)           -57.1782         calculate D2E/DX2 analytically  !
 ! D14   D(10,1,4,8)          -179.3335         calculate D2E/DX2 analytically  !
 ! D15   D(10,1,4,9)            65.4681         calculate D2E/DX2 analytically  !
 ! D16   D(11,1,4,6)            57.083          calculate D2E/DX2 analytically  !
 ! D17   D(11,1,4,8)           -65.0722         calculate D2E/DX2 analytically  !
 ! D18   D(11,1,4,9)           179.7294         calculate D2E/DX2 analytically  !
 ! D19   D(1,2,3,5)             70.4564         calculate D2E/DX2 analytically  !
 ! D20   D(1,2,3,14)           -54.2184         calculate D2E/DX2 analytically  !
 ! D21   D(1,2,3,15)          -168.6295         calculate D2E/DX2 analytically  !
 ! D22   D(12,2,3,5)          -168.0784         calculate D2E/DX2 analytically  !
 ! D23   D(12,2,3,14)           67.2468         calculate D2E/DX2 analytically  !
 ! D24   D(12,2,3,15)          -47.1643         calculate D2E/DX2 analytically  !
 ! D25   D(13,2,3,5)           -54.538          calculate D2E/DX2 analytically  !
 ! D26   D(13,2,3,14)         -179.2129         calculate D2E/DX2 analytically  !
 ! D27   D(13,2,3,15)           66.3761         calculate D2E/DX2 analytically  !
 ! D28   D(2,3,5,7)            -82.1919         calculate D2E/DX2 analytically  !
 ! D29   D(2,3,5,16)            41.2257         calculate D2E/DX2 analytically  !
 ! D30   D(2,3,5,17)           156.5355         calculate D2E/DX2 analytically  !
 ! D31   D(14,3,5,7)            42.4073         calculate D2E/DX2 analytically  !
 ! D32   D(14,3,5,16)          165.8249         calculate D2E/DX2 analytically  !
 ! D33   D(14,3,5,17)          -78.8653         calculate D2E/DX2 analytically  !
 ! D34   D(15,3,5,7)           157.1483         calculate D2E/DX2 analytically  !
 ! D35   D(15,3,5,16)          -79.434          calculate D2E/DX2 analytically  !
 ! D36   D(15,3,5,17)           35.8757         calculate D2E/DX2 analytically  !
 ! D37   D(1,4,6,18)           -60.9629         calculate D2E/DX2 analytically  !
 ! D38   D(1,4,6,19)            59.0993         calculate D2E/DX2 analytically  !
 ! D39   D(1,4,6,20)           178.8339         calculate D2E/DX2 analytically  !
 ! D40   D(8,4,6,18)            61.4205         calculate D2E/DX2 analytically  !
 ! D41   D(8,4,6,19)          -178.5173         calculate D2E/DX2 analytically  !
 ! D42   D(8,4,6,20)           -58.7826         calculate D2E/DX2 analytically  !
 ! D43   D(9,4,6,18)           176.3483         calculate D2E/DX2 analytically  !
 ! D44   D(9,4,6,19)           -63.5895         calculate D2E/DX2 analytically  !
 ! D45   D(9,4,6,20)            56.1452         calculate D2E/DX2 analytically  !
 ! D46   D(3,5,7,21)            66.3005         calculate D2E/DX2 analytically  !
 ! D47   D(3,5,7,22)           -54.6518         calculate D2E/DX2 analytically  !
 ! D48   D(3,5,7,23)          -173.9147         calculate D2E/DX2 analytically  !
 ! D49   D(16,5,7,21)          -57.511          calculate D2E/DX2 analytically  !
 ! D50   D(16,5,7,22)         -178.4633         calculate D2E/DX2 analytically  !
 ! D51   D(16,5,7,23)           62.2739         calculate D2E/DX2 analytically  !
 ! D52   D(17,5,7,21)         -172.4521         calculate D2E/DX2 analytically  !
 ! D53   D(17,5,7,22)           66.5955         calculate D2E/DX2 analytically  !
 ! D54   D(17,5,7,23)          -52.6673         calculate D2E/DX2 analytically  !
 --------------------------------------------------------------------------------
 Trust Radius=3.00D-01 FncErr=1.00D-07 GrdErr=1.00D-06 EigMax=2.50D+02 EigMin=1.00D-04
 Number of steps in this run=    138 maximum allowed number of steps=    138.
 GradGradGradGradGradGradGradGradGradGradGradGradGradGradGradGradGradGrad

 Leave Link  103 at Sun Sep 29 13:16:05 2019, MaxMem=   671088640 cpu:               1.3 elap:               0.7
 (Enter /shared/centos7/gaussian/g16/l202.exe)
                          Input orientation:                          
 ---------------------------------------------------------------------
 Center     Atomic      Atomic             Coordinates (Angstroms)
 Number     Number       Type             X           Y           Z
 ---------------------------------------------------------------------
      1          6           0        1.204552   -1.298392    0.288287
      2          6           0        0.098962   -0.503702    0.895001
      3          6           0        0.272564   -0.114672    2.341894
      4          6           0        2.209069   -0.498178   -0.470416
      5          6           0        1.327690    0.925337    2.636504
      6          6           0        3.275503   -1.304985   -1.087965
      7          6           0        2.734993    0.395995    2.732524
      8          1           0        2.677550    0.260984    0.217577
      9          1           0        1.689505    0.093257   -1.261626
     10          1           0        0.762896   -2.048102   -0.401968
     11          1           0        1.722105   -1.889713    1.071307
     12          1           0       -0.831048   -1.089601    0.828001
     13          1           0       -0.085025    0.412139    0.294469
     14          1           0        0.469845   -1.019108    2.942060
     15          1           0       -0.701695    0.279237    2.697983
     16          1           0        1.292601    1.732641    1.858976
     17          1           0        1.074798    1.413025    3.593304
     18          1           0        3.858398   -1.858065   -0.327561
     19          1           0        2.853001   -2.065371   -1.809658
     20          1           0        3.981176   -0.662076   -1.655580
     21          1           0        3.086081    0.020172    1.770717
     22          1           0        2.803835   -0.437415    3.485219
     23          1           0        3.436472    1.215047    3.062622
 ---------------------------------------------------------------------
                    Distance matrix (angstroms):
                    1          2          3          4          5
     1  C    0.000000
     2  C    1.490625   0.000000
     3  C    2.546978   1.508304   0.000000
     4  C    1.491652   2.513354   3.436018   0.000000
     5  C    3.236396   2.566078   1.510531   3.529331   0.000000
     6  C    2.486554   3.829442   4.711521   1.472952   4.758149
     7  C    3.344771   3.336856   2.544981   3.366744   1.506627
     8  H    2.146247   2.773584   3.230758   1.126559   2.848630
     9  H    2.138714   2.745402   3.877669   1.116134   4.002335
    10  H    1.110665   2.123231   3.392250   2.120935   4.288664
    11  H    1.109344   2.141659   2.620369   2.133170   3.244982
    12  H    2.116260   1.101220   2.111947   3.358271   3.462774
    13  H    2.142186   1.110520   2.144144   2.583910   2.782852
    14  H    2.767726   2.143279   1.103233   3.865393   2.147121
    15  H    3.453886   2.122449   1.109570   4.372148   2.130641
    16  H    3.414964   2.712057   2.164775   3.352988   1.121392
    17  H    4.276886   3.450643   2.131540   4.631748   1.103295
    18  H    2.781259   4.178794   4.798293   2.142426   4.789310
    19  H    2.776151   4.163979   5.263010   2.159702   5.571289
    20  H    3.448645   4.647809   5.480260   2.138186   5.289882
    21  H    2.734294   3.156612   2.874074   2.461811   2.158900
    22  H    3.676868   3.745658   2.796191   4.000560   2.180920
    23  H    4.358415   4.334934   3.506838   4.113881   2.170823
                    6          7          8          9         10
     6  C    0.000000
     7  C    4.216826   0.000000
     8  H    2.124676   2.519223   0.000000
     9  H    2.121468   4.139799   1.786731   0.000000
    10  H    2.708507   4.437095   3.062942   2.486571   0.000000
    11  H    2.723492   3.001673   2.503443   3.061995   1.765137
    12  H    4.536638   4.307070   3.808800   3.481219   2.229845
    13  H    4.019053   3.727852   2.767776   2.381612   2.693841
    14  H    4.918795   2.679051   3.733016   4.516183   3.511016
    15  H    5.715004   3.438845   4.191903   4.629356   4.143818
    16  H    4.673707   2.151791   2.603469   3.547291   4.436944
    17  H    5.843369   2.128741   3.910441   5.068531   5.295175
    18  H    1.106291   3.963199   2.486352   3.063369   3.102222
    19  H    1.130281   5.167559   3.090695   2.512714   2.520006
    20  H    1.110627   4.682728   2.461747   2.444889   3.721550
    21  H    3.156578   1.090678   1.623925   3.339292   3.794141
    22  H    4.678585   1.125104   3.343829   4.904679   4.676533
    23  H    4.858379   1.127778   3.095235   4.796815   5.458895
                   11         12         13         14         15
    11  H    0.000000
    12  H    2.686628   0.000000
    13  H    3.027824   1.759667   0.000000
    14  H    2.413675   2.483252   3.060407   0.000000
    15  H    3.636651   2.321052   2.484920   1.765723   0.000000
    16  H    3.731802   3.679381   2.467643   3.069547   2.606441
    17  H    4.205657   4.188351   3.637208   2.589470   2.289761
    18  H    2.553738   4.890477   4.592530   4.782945   5.875068
    19  H    3.099959   4.634824   4.381484   5.417834   6.200958
    20  H    3.747854   5.432169   4.635797   5.796138   6.462884
    21  H    2.448931   4.179020   3.519781   3.049071   3.908220
    22  H    3.017660   4.549563   4.387270   2.465947   3.663614
    23  H    4.067422   5.340100   4.550635   3.715758   4.258302
                   16         17         18         19         20
    16  H    0.000000
    17  H    1.776932   0.000000
    18  H    4.925183   5.815638   0.000000
    19  H    5.506234   6.667327   1.802890   0.000000
    20  H    5.031422   6.348532   1.791396   1.807140   0.000000
    21  H    2.481312   3.050757   2.920106   4.150049   3.606407
    22  H    3.104454   2.534833   4.203289   5.539709   5.278675
    23  H    2.512539   2.428646   4.595148   5.902601   5.107027
                   21         22         23
    21  H    0.000000
    22  H    1.796820   0.000000
    23  H    1.794302   1.819189   0.000000
 Stoichiometry    C7H16
 Framework group  C1[X(C7H16)]
 Deg. of freedom    63
 Full point group                 C1      NOp   1
 Largest Abelian subgroup         C1      NOp   1
 Largest concise Abelian subgroup C1      NOp   1
                         Standard orientation:                         
 ---------------------------------------------------------------------
 Center     Atomic      Atomic             Coordinates (Angstroms)
 Number     Number       Type             X           Y           Z
 ---------------------------------------------------------------------
      1          6           0       -0.843124   -0.876394   -0.425639
      2          6           0        0.389497   -1.494810    0.140198
      3          6           0        1.694605   -0.827057   -0.214457
      4          6           0       -1.547206    0.068734    0.488707
      5          6           0        1.952086    0.522127    0.414119
      6          6           0       -2.779026    0.644762   -0.077330
      7          6           0        1.301749    1.686374   -0.286963
      8          1           0       -0.848056    0.906258    0.769561
      9          1           0       -1.790197   -0.453491    1.444736
     10          1           0       -1.550535   -1.687197   -0.700856
     11          1           0       -0.606237   -0.358222   -1.377493
     12          1           0        0.453225   -2.535651   -0.213743
     13          1           0        0.307634   -1.563229    1.245581
     14          1           0        1.775617   -0.743247   -1.311515
     15          1           0        2.511493   -1.509451    0.098873
     16          1           0        1.623352    0.510478    1.486182
     17          1           0        3.041925    0.693010    0.431754
     18          1           0       -2.570772    1.227738   -0.994199
     19          1           0       -3.524223   -0.160162   -0.349935
     20          1           0       -3.271482    1.322581    0.651739
     21          1           0        0.214404    1.636537   -0.217861
     22          1           0        1.586819    1.714643   -1.374986
     23          1           0        1.635542    2.656986    0.180348
 ---------------------------------------------------------------------
 Rotational constants (GHZ):           3.5423659           1.5821305           1.2166297
 Leave Link  202 at Sun Sep 29 13:16:06 2019, MaxMem=   671088640 cpu:               3.4 elap:               1.7
 (Enter /shared/centos7/gaussian/g16/l301.exe)
 Standard basis: CC-pVTZ (5D, 7F)
 Ernie: Thresh=  0.10000D-02 Tol=  0.10000D-05 Strict=F.
 Ernie:  21 primitive shells out of 310 were deleted.
 There are   485 symmetry adapted cartesian basis functions of A   symmetry.
 There are   434 symmetry adapted basis functions of A   symmetry.
   434 basis functions,   636 primitive gaussians,   485 cartesian basis functions
    29 alpha electrons       29 beta electrons
       nuclear repulsion energy       331.3052267896 Hartrees.
 IExCor= 4336 DFT=T Ex+Corr=M062X ExCW=0 ScaHFX=  0.540000
 ScaDFX=  1.000000  1.000000  1.000000  1.000000 ScalE2=  1.000000  1.000000
 IRadAn=      5 IRanWt=     -1 IRanGd=            0 ICorTp=0 IEmpDi=  4
 NAtoms=   23 NActive=   23 NUniq=   23 SFac= 1.00D+00 NAtFMM=   60 NAOKFM=F Big=F
 Integral buffers will be    131072 words long.
 Raffenetti 2 integral format.
 Two-electron integral symmetry is turned on.
 Leave Link  301 at Sun Sep 29 13:16:07 2019, MaxMem=   671088640 cpu:               1.4 elap:               0.7
 (Enter /shared/centos7/gaussian/g16/l302.exe)
 NPDir=0 NMtPBC=     1 NCelOv=     1 NCel=       1 NClECP=     1 NCelD=      1
         NCelK=      1 NCelE2=     1 NClLst=     1 CellRange=     0.0.
 One-electron integrals computed using PRISM.
 One-electron integral symmetry used in STVInt
 NBasis=   434 RedAO= T EigKep=  2.70D-04  NBF=   434
 NBsUse=   434 1.00D-06 EigRej= -1.00D+00 NBFU=   434
 Precomputing XC quadrature grid using
 IXCGrd= 4 IRadAn=           5 IRanWt=          -1 IRanGd=           0 AccXCQ= 0.00D+00.
 Generated NRdTot=       0 NPtTot=           0 NUsed=           0 NTot=          32
 NSgBfM=   485   485   485   485   485 MxSgAt=    23 MxSgA2=    23.
 Leave Link  302 at Sun Sep 29 13:17:17 2019, MaxMem=   671088640 cpu:             139.7 elap:              69.9
 (Enter /shared/centos7/gaussian/g16/l303.exe)
 DipDrv:  MaxL=1.
 Leave Link  303 at Sun Sep 29 13:17:22 2019, MaxMem=   671088640 cpu:              10.9 elap:               5.5
 (Enter /shared/centos7/gaussian/g16/l401.exe)
 ExpMin= 1.03D-01 ExpMax= 8.24D+03 ExpMxC= 2.81D+02 IAcc=3 IRadAn=         5 AccDes= 0.00D+00
 Harris functional with IExCor= 1009 and IRadAn=       5 diagonalized for initial guess.
 HarFok:  IExCor= 1009 AccDes= 0.00D+00 IRadAn=         5 IDoV= 1 UseB2=F ITyADJ=14
 ICtDFT=  3500011 ScaDFX=  1.000000  1.000000  1.000000  1.000000
 FoFCou: FMM=F IPFlag=           0 FMFlag=      100000 FMFlg1=           0
         NFxFlg=           0 DoJE=T BraDBF=F KetDBF=T FulRan=T
         wScrn=  0.000000 ICntrl=       500 IOpCl=  0 I1Cent=   200000004 NGrid=           0
         NMat0=    1 NMatS0=      1 NMatT0=    0 NMatD0=    1 NMtDS0=    0 NMtDT0=    0
 Petite list used in FoFCou.
 Harris En= -276.325699123850    
 JPrj=0 DoOrth=F DoCkMO=F.
 Leave Link  401 at Sun Sep 29 13:18:07 2019, MaxMem=   671088640 cpu:              89.5 elap:              44.8
 (Enter /shared/centos7/gaussian/g16/l502.exe)
 Integral symmetry usage will be decided dynamically.
 Closed shell SCF:
 Using DIIS extrapolation, IDIIS=  1040.
 NGot=   671088640 LenX=   670604095 LenY=   670368385
 Requested convergence on RMS density matrix=1.00D-08 within 900 cycles.
 Requested convergence on MAX density matrix=1.00D-06.
 Requested convergence on             energy=1.00D-06.
 No special actions if energy rises.
 Fock matrices will be formed incrementally for  20 cycles.
 Integral accuracy reduced to 1.0D-05 until final iterations.

 Cycle   1  Pass 0  IDiag  1:
 FoFJK:  IHMeth= 1 ICntrl=       0 DoSepK=F KAlg= 0 I1Cent=           0 FoldK=F
 IRaf= 950000000 NMat=       1 IRICut=       1 DoRegI=T DoRafI=F ISym2E= 0 IDoP0=0 IntGTp=1.
 FoFCou: FMM=F IPFlag=           0 FMFlag=      100000 FMFlg1=           0
         NFxFlg=           0 DoJE=F BraDBF=F KetDBF=F FulRan=T
         wScrn=  0.000000 ICntrl=         0 IOpCl=  0 I1Cent=           0 NGrid=           0
         NMat0=    1 NMatS0=      1 NMatT0=    0 NMatD0=    1 NMtDS0=    0 NMtDT0=    0
 Symmetry not used in FoFCou.
 E= -275.962050592851    
 DIIS: error= 2.95D-02 at cycle   1 NSaved=   1.
 NSaved= 1 IEnMin= 1 EnMin= -275.962050592851     IErMin= 1 ErrMin= 2.95D-02
 ErrMax= 2.95D-02  0.00D+00 EMaxC= 1.00D-01 BMatC= 3.73D-01 BMatP= 3.73D-01
 IDIUse=3 WtCom= 7.05D-01 WtEn= 2.95D-01
 Coeff-Com:  0.100D+01
 Coeff-En:   0.100D+01
 Coeff:      0.100D+01
 Gap=     0.380 Goal=   None    Shift=    0.000
 GapD=    0.380 DampG=1.000 DampE=0.500 DampFc=0.5000 IDamp=-1.
 Damping current iteration by 5.00D-01
 RMSDP=1.91D-03 MaxDP=7.00D-02              OVMax= 1.73D-01

 Cycle   2  Pass 0  IDiag  1:
 RMSU=  9.52D-04    CP:  9.90D-01
 E= -276.139948549190     Delta-E=       -0.177897956340 Rises=F Damp=T
 DIIS: error= 4.75D-03 at cycle   2 NSaved=   2.
 NSaved= 2 IEnMin= 2 EnMin= -276.139948549190     IErMin= 2 ErrMin= 4.75D-03
 ErrMax= 4.75D-03  0.00D+00 EMaxC= 1.00D-01 BMatC= 1.88D-02 BMatP= 3.73D-01
 IDIUse=3 WtCom= 9.52D-01 WtEn= 4.75D-02
 Coeff-Com: -0.511D-01 0.105D+01
 Coeff-En:   0.000D+00 0.100D+01
 Coeff:     -0.487D-01 0.105D+01
 Gap=     0.453 Goal=   None    Shift=    0.000
 RMSDP=5.71D-04 MaxDP=2.27D-02 DE=-1.78D-01 OVMax= 9.32D-02

 Cycle   3  Pass 0  IDiag  1:
 RMSU=  5.61D-04    CP:  9.97D-01  9.01D-01
 E= -276.318245116922     Delta-E=       -0.178296567731 Rises=F Damp=F
 DIIS: error= 3.22D-03 at cycle   3 NSaved=   3.
 NSaved= 3 IEnMin= 3 EnMin= -276.318245116922     IErMin= 3 ErrMin= 3.22D-03
 ErrMax= 3.22D-03  0.00D+00 EMaxC= 1.00D-01 BMatC= 3.15D-03 BMatP= 1.88D-02
 IDIUse=3 WtCom= 9.68D-01 WtEn= 3.22D-02
 Coeff-Com: -0.516D-01 0.263D+00 0.789D+00
 Coeff-En:   0.000D+00 0.000D+00 0.100D+01
 Coeff:     -0.500D-01 0.254D+00 0.796D+00
 Gap=     0.425 Goal=   None    Shift=    0.000
 RMSDP=1.21D-04 MaxDP=3.74D-03 DE=-1.78D-01 OVMax= 1.12D-02

 Cycle   4  Pass 0  IDiag  1:
 RMSU=  9.35D-05    CP:  9.96D-01  9.48D-01  8.90D-01
 E= -276.320953629070     Delta-E=       -0.002708512148 Rises=F Damp=F
 DIIS: error= 8.77D-04 at cycle   4 NSaved=   4.
 NSaved= 4 IEnMin= 4 EnMin= -276.320953629070     IErMin= 4 ErrMin= 8.77D-04
 ErrMax= 8.77D-04  0.00D+00 EMaxC= 1.00D-01 BMatC= 3.62D-04 BMatP= 3.15D-03
 IDIUse=3 WtCom= 9.91D-01 WtEn= 8.77D-03
 Coeff-Com: -0.139D-01 0.393D-01 0.288D+00 0.687D+00
 Coeff-En:   0.000D+00 0.000D+00 0.000D+00 0.100D+01
 Coeff:     -0.138D-01 0.389D-01 0.285D+00 0.690D+00
 Gap=     0.426 Goal=   None    Shift=    0.000
 RMSDP=3.67D-05 MaxDP=1.60D-03 DE=-2.71D-03 OVMax= 3.19D-03

 Cycle   5  Pass 0  IDiag  1:
 RMSU=  1.93D-05    CP:  9.96D-01  9.41D-01  9.30D-01  7.79D-01
 E= -276.321287729806     Delta-E=       -0.000334100736 Rises=F Damp=F
 DIIS: error= 1.70D-04 at cycle   5 NSaved=   5.
 NSaved= 5 IEnMin= 5 EnMin= -276.321287729806     IErMin= 5 ErrMin= 1.70D-04
 ErrMax= 1.70D-04  0.00D+00 EMaxC= 1.00D-01 BMatC= 1.82D-05 BMatP= 3.62D-04
 IDIUse=3 WtCom= 9.98D-01 WtEn= 1.70D-03
 Coeff-Com: -0.167D-02 0.976D-03 0.570D-01 0.240D+00 0.704D+00
 Coeff-En:   0.000D+00 0.000D+00 0.000D+00 0.000D+00 0.100D+01
 Coeff:     -0.167D-02 0.974D-03 0.569D-01 0.239D+00 0.704D+00
 Gap=     0.425 Goal=   None    Shift=    0.000
 RMSDP=6.75D-06 MaxDP=4.33D-04 DE=-3.34D-04 OVMax= 7.93D-04

 Initial convergence to 1.0D-05 achieved.  Increase integral accuracy.
 Cycle   6  Pass 1  IDiag  1:
 E= -276.321284646005     Delta-E=        0.000003083802 Rises=F Damp=F
 DIIS: error= 4.60D-05 at cycle   1 NSaved=   1.
 NSaved= 1 IEnMin= 1 EnMin= -276.321284646005     IErMin= 1 ErrMin= 4.60D-05
 ErrMax= 4.60D-05  0.00D+00 EMaxC= 1.00D-01 BMatC= 1.57D-06 BMatP= 1.57D-06
 IDIUse=1 WtCom= 1.00D+00 WtEn= 0.00D+00
 Coeff-Com:  0.100D+01
 Coeff:      0.100D+01
 Gap=     0.425 Goal=   None    Shift=    0.000
 RMSDP=6.75D-06 MaxDP=4.33D-04 DE= 3.08D-06 OVMax= 2.70D-04

 Cycle   7  Pass 1  IDiag  1:
 RMSU=  9.37D-06    CP:  1.00D+00
 E= -276.321285343672     Delta-E=       -0.000000697668 Rises=F Damp=F
 DIIS: error= 3.06D-05 at cycle   2 NSaved=   2.
 NSaved= 2 IEnMin= 2 EnMin= -276.321285343672     IErMin= 2 ErrMin= 3.06D-05
 ErrMax= 3.06D-05  0.00D+00 EMaxC= 1.00D-01 BMatC= 4.78D-07 BMatP= 1.57D-06
 IDIUse=1 WtCom= 1.00D+00 WtEn= 0.00D+00
 Coeff-Com:  0.320D+00 0.680D+00
 Coeff:      0.320D+00 0.680D+00
 Gap=     0.425 Goal=   None    Shift=    0.000
 RMSDP=1.34D-06 MaxDP=6.78D-05 DE=-6.98D-07 OVMax= 1.46D-04

 Cycle   8  Pass 1  IDiag  1:
 RMSU=  1.34D-06    CP:  1.00D+00  9.96D-01
 E= -276.321285764728     Delta-E=       -0.000000421056 Rises=F Damp=F
 DIIS: error= 1.10D-05 at cycle   3 NSaved=   3.
 NSaved= 3 IEnMin= 3 EnMin= -276.321285764728     IErMin= 3 ErrMin= 1.10D-05
 ErrMax= 1.10D-05  0.00D+00 EMaxC= 1.00D-01 BMatC= 5.55D-08 BMatP= 4.78D-07
 IDIUse=1 WtCom= 1.00D+00 WtEn= 0.00D+00
 Coeff-Com:  0.349D-03 0.245D+00 0.755D+00
 Coeff:      0.349D-03 0.245D+00 0.755D+00
 Gap=     0.425 Goal=   None    Shift=    0.000
 RMSDP=4.13D-07 MaxDP=1.85D-05 DE=-4.21D-07 OVMax= 4.10D-05

 Cycle   9  Pass 1  IDiag  1:
 RMSU=  3.17D-07    CP:  1.00D+00  1.01D+00  8.42D-01
 E= -276.321285817534     Delta-E=       -0.000000052805 Rises=F Damp=F
 DIIS: error= 2.86D-06 at cycle   4 NSaved=   4.
 NSaved= 4 IEnMin= 4 EnMin= -276.321285817534     IErMin= 4 ErrMin= 2.86D-06
 ErrMax= 2.86D-06  0.00D+00 EMaxC= 1.00D-01 BMatC= 2.38D-09 BMatP= 5.55D-08
 IDIUse=1 WtCom= 1.00D+00 WtEn= 0.00D+00
 Coeff-Com: -0.120D-01 0.667D-01 0.281D+00 0.665D+00
 Coeff:     -0.120D-01 0.667D-01 0.281D+00 0.665D+00
 Gap=     0.425 Goal=   None    Shift=    0.000
 RMSDP=1.01D-07 MaxDP=4.42D-06 DE=-5.28D-08 OVMax= 8.85D-06

 Cycle  10  Pass 1  IDiag  1:
 RMSU=  8.72D-08    CP:  1.00D+00  1.02D+00  8.37D-01  8.63D-01
 E= -276.321285819918     Delta-E=       -0.000000002384 Rises=F Damp=F
 DIIS: error= 3.99D-07 at cycle   5 NSaved=   5.
 NSaved= 5 IEnMin= 5 EnMin= -276.321285819918     IErMin= 5 ErrMin= 3.99D-07
 ErrMax= 3.99D-07  0.00D+00 EMaxC= 1.00D-01 BMatC= 6.88D-11 BMatP= 2.38D-09
 IDIUse=1 WtCom= 1.00D+00 WtEn= 0.00D+00
 Coeff-Com: -0.120D-02-0.123D-01-0.312D-01 0.609D-01 0.984D+00
 Coeff:     -0.120D-02-0.123D-01-0.312D-01 0.609D-01 0.984D+00
 Gap=     0.425 Goal=   None    Shift=    0.000
 RMSDP=3.29D-08 MaxDP=8.27D-07 DE=-2.38D-09 OVMax= 2.67D-06

 Cycle  11  Pass 1  IDiag  1:
 RMSU=  1.79D-08    CP:  1.00D+00  1.02D+00  8.40D-01  9.41D-01  1.12D+00
 E= -276.321285819983     Delta-E=       -0.000000000065 Rises=F Damp=F
 DIIS: error= 1.57D-07 at cycle   6 NSaved=   6.
 NSaved= 6 IEnMin= 6 EnMin= -276.321285819983     IErMin= 6 ErrMin= 1.57D-07
 ErrMax= 1.57D-07  0.00D+00 EMaxC= 1.00D-01 BMatC= 1.82D-11 BMatP= 6.88D-11
 IDIUse=1 WtCom= 1.00D+00 WtEn= 0.00D+00
 Coeff-Com:  0.375D-03-0.102D-01-0.342D-01-0.234D-01 0.428D+00 0.640D+00
 Coeff:      0.375D-03-0.102D-01-0.342D-01-0.234D-01 0.428D+00 0.640D+00
 Gap=     0.425 Goal=   None    Shift=    0.000
 RMSDP=6.84D-09 MaxDP=3.06D-07 DE=-6.53D-11 OVMax= 7.20D-07

 SCF Done:  E(RM062X) =  -276.321285820     A.U. after   11 cycles
            NFock= 11  Conv=0.68D-08     -V/T= 2.0067
 KE= 2.744817976092D+02 PE=-1.300993084325D+03 EE= 4.188847741059D+02
 Leave Link  502 at Sun Sep 29 13:33:23 2019, MaxMem=   671088640 cpu:            1831.5 elap:             915.9
 (Enter /shared/centos7/gaussian/g16/l801.exe)
 DoSCS=F DFT=T ScalE2(SS,OS)=  1.000000  1.000000
 Range of M.O.s used for correlation:     1   434
 NBasis=   434 NAE=    29 NBE=    29 NFC=     0 NFV=     0
 NROrb=    434 NOA=    29 NOB=    29 NVA=   405 NVB=   405

 **** Warning!!: The largest alpha MO coefficient is  0.13127277D+02

 Leave Link  801 at Sun Sep 29 13:33:24 2019, MaxMem=   671088640 cpu:               1.6 elap:               0.8
 (Enter /shared/centos7/gaussian/g16/l1101.exe)
 Using compressed storage, NAtomX=    23.
 Will process     24 centers per pass.
 Leave Link 1101 at Sun Sep 29 13:33:58 2019, MaxMem=   671088640 cpu:              67.9 elap:              34.0
 (Enter /shared/centos7/gaussian/g16/l1102.exe)
 Symmetrizing basis deriv contribution to polar:
 IMax=3 JMax=2 DiffMx= 0.00D+00
 Leave Link 1102 at Sun Sep 29 13:34:00 2019, MaxMem=   671088640 cpu:               4.9 elap:               2.5
 (Enter /shared/centos7/gaussian/g16/l1110.exe)
 Forming Gx(P) for the SCF density, NAtomX=    23.
 Integral derivatives from FoFJK, PRISM(SPDF).
 Do as many integral derivatives as possible in FoFJK.
 G2DrvN: MDV=     671086848.
 G2DrvN: will do    24 centers at a time, making    1 passes.
 Calling FoFCou, ICntrl=  3107 FMM=F I1Cent=   0 AccDes= 0.00D+00.
 FoFJK:  IHMeth= 1 ICntrl=    3107 DoSepK=F KAlg= 0 I1Cent=           0 FoldK=F
 IRaf=         0 NMat=       1 IRICut=       1 DoRegI=T DoRafI=F ISym2E= 0 IDoP0=0 IntGTp=1.
 FoFCou: FMM=F IPFlag=           0 FMFlag=      100000 FMFlg1=           0
         NFxFlg=           0 DoJE=F BraDBF=F KetDBF=F FulRan=T
         wScrn=  0.000000 ICntrl=      3107 IOpCl=  0 I1Cent=           0 NGrid=           0
         NMat0=    1 NMatS0=      1 NMatT0=    0 NMatD0=    1 NMtDS0=    0 NMtDT0=    0
 Symmetry not used in FoFCou.
 End of G2Drv F.D. properties file   721 does not exist.
 End of G2Drv F.D. properties file   722 does not exist.
 End of G2Drv F.D. properties file   788 does not exist.
 Leave Link 1110 at Sun Sep 29 14:15:35 2019, MaxMem=   671088640 cpu:            4989.5 elap:            2495.1
 (Enter /shared/centos7/gaussian/g16/l1002.exe)
 Minotr:  Closed shell wavefunction.
          IDoAtm=11111111111111111111111
          Direct CPHF calculation.
          Differentiating once with respect to nuclear coordinates.
          Requested convergence is 1.0D-08 RMS, and 1.0D-07 maximum.
          Secondary convergence is 1.0D-12 RMS, and 1.0D-12 maximum.
          NewPWx=T KeepS1=F KeepF1=F KeepIn=T MapXYZ=F SortEE=F KeepMc=T.
         6918 words used for storage of precomputed grid.
 Two-electron integrals replicated using symmetry.
          MDV=     671088640 using IRadAn=       1.
          Solving linear equations simultaneously, MaxMat=     380.
 FoF2E skips out because all densities are zero.
 CalDSu exits because no D1Ps are significant.
 FoFJK:  IHMeth= 1 ICntrl=       0 DoSepK=F KAlg= 0 I1Cent=           0 FoldK=F
 IRaf= 930000000 NMat=      69 IRICut=     172 DoRegI=T DoRafI=T ISym2E= 2 IDoP0=3 IntGTp=3.
 FoFCou: FMM=F IPFlag=           0 FMFlag=      100000 FMFlg1=           0
         NFxFlg=           0 DoJE=F BraDBF=F KetDBF=F FulRan=T
         wScrn=  0.000000 ICntrl=         0 IOpCl=  0 I1Cent=           0 NGrid=           0
         NMat0=   69 NMatS0=     69 NMatT0=    0 NMatD0=   69 NMtDS0=    0 NMtDT0=    0
 Integrals replicated using symmetry in FoFCou.
 Raff kept on since  89.86% of shell-pairs survive, threshold=   0.20 IRatSp=90.
          There are    72 degrees of freedom in the 1st order CPHF.  IDoFFX=6 NUNeed=     0.
     66 vectors produced by pass  0 Test12= 1.63D-14 1.39D-09 XBig12= 5.68D-02 3.69D-02.
 AX will form    66 AO Fock derivatives at one time.
     66 vectors produced by pass  1 Test12= 1.63D-14 1.39D-09 XBig12= 3.28D-03 6.27D-03.
     66 vectors produced by pass  2 Test12= 1.63D-14 1.39D-09 XBig12= 5.00D-05 8.17D-04.
     66 vectors produced by pass  3 Test12= 1.63D-14 1.39D-09 XBig12= 3.75D-07 6.67D-05.
