 Entering Gaussian System, Link 0=g16
 Input=verytight/species/CCCCCCC/conformers/CCCCCCC_151.com
 Output=verytight/species/CCCCCCC/conformers/CCCCCCC_151.log
 Initial command:
 /shared/centos7/gaussian/g16/l1.exe "/scratch/harms.n/gauss_scrdir/Gau-35609.inp" -scrdir="/scratch/harms.n/gauss_scrdir/"
 Entering Link 1 = /shared/centos7/gaussian/g16/l1.exe PID=     35610.
  
 Copyright (c) 1988,1990,1992,1993,1995,1998,2003,2009,2016,
            Gaussian, Inc.  All Rights Reserved.
  
 This is part of the Gaussian(R) 16 program.  It is based on
 the Gaussian(R) 09 system (copyright 2009, Gaussian, Inc.),
 the Gaussian(R) 03 system (copyright 2003, Gaussian, Inc.),
 the Gaussian(R) 98 system (copyright 1998, Gaussian, Inc.),
 the Gaussian(R) 94 system (copyright 1995, Gaussian, Inc.),
 the Gaussian 92(TM) system (copyright 1992, Gaussian, Inc.),
 the Gaussian 90(TM) system (copyright 1990, Gaussian, Inc.),
 the Gaussian 88(TM) system (copyright 1988, Gaussian, Inc.),
 the Gaussian 86(TM) system (copyright 1986, Carnegie Mellon
 University), and the Gaussian 82(TM) system (copyright 1983,
 Carnegie Mellon University). Gaussian is a federally registered
 trademark of Gaussian, Inc.
  
 This software contains proprietary and confidential information,
 including trade secrets, belonging to Gaussian, Inc.
  
 This software is provided under written license and may be
 used, copied, transmitted, or stored only in accord with that
 written license.
  
 The following legend is applicable only to US Government
 contracts under FAR:
  
                    RESTRICTED RIGHTS LEGEND
  
 Use, reproduction and disclosure by the US Government is
 subject to restrictions as set forth in subparagraphs (a)
 and (c) of the Commercial Computer Software - Restricted
 Rights clause in FAR 52.227-19.
  
 Gaussian, Inc.
 340 Quinnipiac St., Bldg. 40, Wallingford CT 06492
  
  
 ---------------------------------------------------------------
 Warning -- This program may not be used in any manner that
 competes with the business of Gaussian, Inc. or will provide
 assistance to any competitor of Gaussian, Inc.  The licensee
 of this program is prohibited from giving any competitor of
 Gaussian, Inc. access to this program.  By using this program,
 the user acknowledges that Gaussian, Inc. is engaged in the
 business of creating and licensing software in the field of
 computational chemistry and represents and warrants to the
 licensee that it is not a competitor of Gaussian, Inc. and that
 it will not use this program in any manner prohibited above.
 ---------------------------------------------------------------
  

 Cite this work as:
 Gaussian 16, Revision A.03,
 M. J. Frisch, G. W. Trucks, H. B. Schlegel, G. E. Scuseria, 
 M. A. Robb, J. R. Cheeseman, G. Scalmani, V. Barone, 
 G. A. Petersson, H. Nakatsuji, X. Li, M. Caricato, A. V. Marenich, 
 J. Bloino, B. G. Janesko, R. Gomperts, B. Mennucci, H. P. Hratchian, 
 J. V. Ortiz, A. F. Izmaylov, J. L. Sonnenberg, D. Williams-Young, 
 F. Ding, F. Lipparini, F. Egidi, J. Goings, B. Peng, A. Petrone, 
 T. Henderson, D. Ranasinghe, V. G. Zakrzewski, J. Gao, N. Rega, 
 G. Zheng, W. Liang, M. Hada, M. Ehara, K. Toyota, R. Fukuda, 
 J. Hasegawa, M. Ishida, T. Nakajima, Y. Honda, O. Kitao, H. Nakai, 
 T. Vreven, K. Throssell, J. A. Montgomery, Jr., J. E. Peralta, 
 F. Ogliaro, M. J. Bearpark, J. J. Heyd, E. N. Brothers, K. N. Kudin, 
 V. N. Staroverov, T. A. Keith, R. Kobayashi, J. Normand, 
 K. Raghavachari, A. P. Rendell, J. C. Burant, S. S. Iyengar, 
 J. Tomasi, M. Cossi, J. M. Millam, M. Klene, C. Adamo, R. Cammi, 
 J. W. Ochterski, R. L. Martin, K. Morokuma, O. Farkas, 
 J. B. Foresman, and D. J. Fox, Gaussian, Inc., Wallingford CT, 2016.
 
 ******************************************
 Gaussian 16:  EM64L-G16RevA.03 25-Dec-2016
                29-Sep-2019 
 ******************************************
 %nprocshared=20
 Will use up to   20 processors via shared memory.
 %mem=5GB
 ----------------------------------------------------------------------
 #p m062x/cc-pVTZ opt=(calcfc,maxcycles=900,Tight) freq IOP(7/33=1,2/16
 =3) scf=(maxcycle=900)
 ----------------------------------------------------------------------
 1/6=900,7=10,10=4,18=20,19=15,26=3,38=1/1,3;
 2/9=110,12=2,16=3,17=6,18=5,40=1/2;
 3/5=16,6=1,11=2,25=1,30=1,71=2,74=-55,140=1/1,2,3;
 4//1;
 5/5=2,7=900,38=5/2;
 8/6=4,10=90,11=11/1;
 11/6=1,8=1,9=11,15=111,16=1/1,2,10;
 10/6=1,13=1/2;
 6/7=2,8=2,9=2,10=2,28=1/1;
 7/10=1,18=20,25=1,33=1/1,2,3,16;
 1/6=900,7=10,10=4,18=20,19=15,26=3/3(2);
 2/9=110,16=3/2;
 99//99;
 2/9=110,16=3/2;
 3/5=16,6=1,11=2,25=1,30=1,71=1,74=-55/1,2,3;
 4/5=5,16=3,69=1/1;
 5/5=2,7=900,38=5/2;
 7/33=1/1,2,3,16;
 1/6=900,7=10,18=20,19=15,26=3/3(-5);
 2/9=110,16=3/2;
 6/7=2,8=2,9=2,10=2,19=2,28=1/1;
 99/9=1/99;
 Leave Link    1 at Sun Sep 29 12:37:40 2019, MaxMem=   671088640 cpu:               5.5 elap:               2.8
 (Enter /shared/centos7/gaussian/g16/l101.exe)
 ------------------------------
 Gaussian input prepared by ASE
 ------------------------------
 Symbolic Z-matrix:
 Charge =  0 Multiplicity = 1
 C                     1.58175  -0.91734   0.6428 
 C                     0.14476  -0.54934   0.78976 
 C                    -0.09428   0.93587   0.6802 
 C                     2.1865   -0.43864  -0.63397 
 C                    -1.54661   1.3249    0.53498 
 C                     3.65659  -0.51605  -0.68355 
 C                    -2.40001   0.96169   1.7223 
 H                     1.85691   0.62512  -0.80402 
 H                     1.75731  -1.02163  -1.48349 
 H                     1.68456  -2.02107   0.7121 
 H                     2.15251  -0.5061    1.50057 
 H                    -0.22697  -0.91345   1.76028 
 H                    -0.45216  -1.07594   0.0154 
 H                     0.47198   1.31652  -0.18674 
 H                     0.33304   1.44063   1.57113 
 H                    -1.60657   2.43234   0.36914 
 H                    -1.96647   0.85432  -0.3703 
 H                     4.01278  -1.55544  -0.55445 
 H                     4.04521  -0.14464  -1.67781 
 H                     4.12495   0.10322   0.11057 
 H                    -2.03021   1.42934   2.63561 
 H                    -2.4154   -0.15213   1.8805 
 H                    -3.46359   1.30021   1.56081 
 
 ITRead=  0  0  0  0  0  0  0  0  0  0  0  0  0  0  0  0  0  0  0  0
 ITRead=  0  0  0
 MicOpt= -1 -1 -1 -1 -1 -1 -1 -1 -1 -1 -1 -1 -1 -1 -1 -1 -1 -1 -1 -1
 MicOpt= -1 -1 -1
 NAtoms=     23 NQM=       23 NQMF=       0 NMMI=      0 NMMIF=      0
                NMic=       0 NMicF=      0.
                    Isotopes and Nuclear Properties:
 (Nuclear quadrupole moments (NQMom) in fm**2, nuclear magnetic moments (NMagM)
  in nuclear magnetons)

  Atom         1           2           3           4           5           6           7           8           9          10
 IAtWgt=          12          12          12          12          12          12          12           1           1           1
 AtmWgt=  12.0000000  12.0000000  12.0000000  12.0000000  12.0000000  12.0000000  12.0000000   1.0078250   1.0078250   1.0078250
 NucSpn=           0           0           0           0           0           0           0           1           1           1
 AtZEff=  -0.0000000  -0.0000000  -0.0000000  -0.0000000  -0.0000000  -0.0000000  -0.0000000  -0.0000000  -0.0000000  -0.0000000
 NQMom=    0.0000000   0.0000000   0.0000000   0.0000000   0.0000000   0.0000000   0.0000000   0.0000000   0.0000000   0.0000000
 NMagM=    0.0000000   0.0000000   0.0000000   0.0000000   0.0000000   0.0000000   0.0000000   2.7928460   2.7928460   2.7928460
 AtZNuc=   6.0000000   6.0000000   6.0000000   6.0000000   6.0000000   6.0000000   6.0000000   1.0000000   1.0000000   1.0000000

  Atom        11          12          13          14          15          16          17          18          19          20
 IAtWgt=           1           1           1           1           1           1           1           1           1           1
 AtmWgt=   1.0078250   1.0078250   1.0078250   1.0078250   1.0078250   1.0078250   1.0078250   1.0078250   1.0078250   1.0078250
 NucSpn=           1           1           1           1           1           1           1           1           1           1
 AtZEff=  -0.0000000  -0.0000000  -0.0000000  -0.0000000  -0.0000000  -0.0000000  -0.0000000  -0.0000000  -0.0000000  -0.0000000
 NQMom=    0.0000000   0.0000000   0.0000000   0.0000000   0.0000000   0.0000000   0.0000000   0.0000000   0.0000000   0.0000000
 NMagM=    2.7928460   2.7928460   2.7928460   2.7928460   2.7928460   2.7928460   2.7928460   2.7928460   2.7928460   2.7928460
 AtZNuc=   1.0000000   1.0000000   1.0000000   1.0000000   1.0000000   1.0000000   1.0000000   1.0000000   1.0000000   1.0000000

  Atom        21          22          23
 IAtWgt=           1           1           1
 AtmWgt=   1.0078250   1.0078250   1.0078250
 NucSpn=           1           1           1
 AtZEff=  -0.0000000  -0.0000000  -0.0000000
 NQMom=    0.0000000   0.0000000   0.0000000
 NMagM=    2.7928460   2.7928460   2.7928460
 AtZNuc=   1.0000000   1.0000000   1.0000000
 Leave Link  101 at Sun Sep 29 12:37:41 2019, MaxMem=   671088640 cpu:               1.8 elap:               0.9
 (Enter /shared/centos7/gaussian/g16/l103.exe)

 GradGradGradGradGradGradGradGradGradGradGradGradGradGradGradGradGradGrad
 Berny optimization.
 Initialization pass.
                           ----------------------------
                           !    Initial Parameters    !
                           ! (Angstroms and Degrees)  !
 --------------------------                            --------------------------
 ! Name  Definition              Value          Derivative Info.                !
 --------------------------------------------------------------------------------
 ! R1    R(1,2)                  1.4906         calculate D2E/DX2 analytically  !
 ! R2    R(1,4)                  1.4917         calculate D2E/DX2 analytically  !
 ! R3    R(1,10)                 1.1107         calculate D2E/DX2 analytically  !
 ! R4    R(1,11)                 1.1093         calculate D2E/DX2 analytically  !
 ! R5    R(2,3)                  1.5083         calculate D2E/DX2 analytically  !
 ! R6    R(2,12)                 1.1012         calculate D2E/DX2 analytically  !
 ! R7    R(2,13)                 1.1105         calculate D2E/DX2 analytically  !
 ! R8    R(3,5)                  1.5105         calculate D2E/DX2 analytically  !
 ! R9    R(3,14)                 1.1032         calculate D2E/DX2 analytically  !
 ! R10   R(3,15)                 1.1096         calculate D2E/DX2 analytically  !
 ! R11   R(4,6)                  1.473          calculate D2E/DX2 analytically  !
 ! R12   R(4,8)                  1.1266         calculate D2E/DX2 analytically  !
 ! R13   R(4,9)                  1.1161         calculate D2E/DX2 analytically  !
 ! R14   R(5,7)                  1.5066         calculate D2E/DX2 analytically  !
 ! R15   R(5,16)                 1.1214         calculate D2E/DX2 analytically  !
 ! R16   R(5,17)                 1.1033         calculate D2E/DX2 analytically  !
 ! R17   R(6,18)                 1.1063         calculate D2E/DX2 analytically  !
 ! R18   R(6,19)                 1.1303         calculate D2E/DX2 analytically  !
 ! R19   R(6,20)                 1.1106         calculate D2E/DX2 analytically  !
 ! R20   R(7,21)                 1.0907         calculate D2E/DX2 analytically  !
 ! R21   R(7,22)                 1.1251         calculate D2E/DX2 analytically  !
 ! R22   R(7,23)                 1.1278         calculate D2E/DX2 analytically  !
 ! A1    A(2,1,4)              113.3279         calculate D2E/DX2 analytically  !
 ! A2    A(2,1,10)             109.173          calculate D2E/DX2 analytically  !
 ! A3    A(2,1,11)             109.1616         calculate D2E/DX2 analytically  !
 ! A4    A(4,1,10)             109.5597         calculate D2E/DX2 analytically  !
 ! A5    A(4,1,11)             109.5287         calculate D2E/DX2 analytically  !
 ! A6    A(10,1,11)            105.8144         calculate D2E/DX2 analytically  !
 ! A7    A(1,2,3)              112.8749         calculate D2E/DX2 analytically  !
 ! A8    A(1,2,12)             109.31           calculate D2E/DX2 analytically  !
 ! A9    A(1,2,13)             109.4121         calculate D2E/DX2 analytically  !
 ! A10   A(3,2,12)             109.6393         calculate D2E/DX2 analytically  !
 ! A11   A(3,2,13)             109.3356         calculate D2E/DX2 analytically  !
 ! A12   A(12,2,13)            106.0391         calculate D2E/DX2 analytically  !
 ! A13   A(2,3,5)              114.3911         calculate D2E/DX2 analytically  !
 ! A14   A(2,3,14)             108.3897         calculate D2E/DX2 analytically  !
 ! A15   A(2,3,15)             109.1832         calculate D2E/DX2 analytically  !
 ! A16   A(5,3,14)             109.2132         calculate D2E/DX2 analytically  !
 ! A17   A(5,3,15)             109.2881         calculate D2E/DX2 analytically  !
 ! A18   A(14,3,15)            106.0421         calculate D2E/DX2 analytically  !
 ! A19   A(1,4,6)              114.6186         calculate D2E/DX2 analytically  !
 ! A20   A(1,4,8)              108.2769         calculate D2E/DX2 analytically  !
 ! A21   A(1,4,9)              109.1447         calculate D2E/DX2 analytically  !
 ! A22   A(6,4,8)              109.6665         calculate D2E/DX2 analytically  !
 ! A23   A(6,4,9)              109.3125         calculate D2E/DX2 analytically  !
 ! A24   A(8,4,9)              105.4159         calculate D2E/DX2 analytically  !
 ! A25   A(3,5,7)              114.0011         calculate D2E/DX2 analytically  !
 ! A26   A(3,5,16)             108.661          calculate D2E/DX2 analytically  !
 ! A27   A(3,5,17)             109.5679         calculate D2E/DX2 analytically  !
 ! A28   A(7,5,16)             108.925          calculate D2E/DX2 analytically  !
 ! A29   A(7,5,17)             109.1623         calculate D2E/DX2 analytically  !
 ! A30   A(16,5,17)            106.2319         calculate D2E/DX2 analytically  !
 ! A31   A(4,6,18)             111.5183         calculate D2E/DX2 analytically  !
 ! A32   A(4,6,19)             110.824          calculate D2E/DX2 analytically  !
 ! A33   A(4,6,20)             111.563          calculate D2E/DX2 analytically  !
 ! A34   A(18,6,19)            107.4982         calculate D2E/DX2 analytically  !
 ! A35   A(18,6,20)            107.7372         calculate D2E/DX2 analytically  !
 ! A36   A(19,6,20)            107.5026         calculate D2E/DX2 analytically  !
 ! A37   A(5,7,21)             111.3762         calculate D2E/DX2 analytically  !
 ! A38   A(5,7,22)             110.9291         calculate D2E/DX2 analytically  !
 ! A39   A(5,7,23)             110.4252         calculate D2E/DX2 analytically  !
 ! A40   A(21,7,22)            108.1413         calculate D2E/DX2 analytically  !
 ! A41   A(21,7,23)            108.117          calculate D2E/DX2 analytically  !
 ! A42   A(22,7,23)            107.7213         calculate D2E/DX2 analytically  !
 ! D1    D(4,1,2,3)            -56.4275         calculate D2E/DX2 analytically  !
 ! D2    D(4,1,2,12)          -178.7281         calculate D2E/DX2 analytically  !
 ! D3    D(4,1,2,13)            65.5575         calculate D2E/DX2 analytically  !
 ! D4    D(10,1,2,3)          -178.836          calculate D2E/DX2 analytically  !
 ! D5    D(10,1,2,12)           58.8635         calculate D2E/DX2 analytically  !
 ! D6    D(10,1,2,13)          -56.8509         calculate D2E/DX2 analytically  !
 ! D7    D(11,1,2,3)            65.9328         calculate D2E/DX2 analytically  !
 ! D8    D(11,1,2,12)          -56.3678         calculate D2E/DX2 analytically  !
 ! D9    D(11,1,2,13)         -172.0822         calculate D2E/DX2 analytically  !
 ! D10   D(2,1,4,6)            167.0247         calculate D2E/DX2 analytically  !
 ! D11   D(2,1,4,8)             44.2591         calculate D2E/DX2 analytically  !
 ! D12   D(2,1,4,9)            -70.008          calculate D2E/DX2 analytically  !
 ! D13   D(10,1,4,6)           -70.7819         calculate D2E/DX2 analytically  !
 ! D14   D(10,1,4,8)           166.4526         calculate D2E/DX2 analytically  !
 ! D15   D(10,1,4,9)            52.1855         calculate D2E/DX2 analytically  !
 ! D16   D(11,1,4,6)            44.8686         calculate D2E/DX2 analytically  !
 ! D17   D(11,1,4,8)           -77.897          calculate D2E/DX2 analytically  !
 ! D18   D(11,1,4,9)           167.8359         calculate D2E/DX2 analytically  !
 ! D19   D(1,2,3,5)            167.8913         calculate D2E/DX2 analytically  !
 ! D20   D(1,2,3,14)            45.7827         calculate D2E/DX2 analytically  !
 ! D21   D(1,2,3,15)           -69.3048         calculate D2E/DX2 analytically  !
 ! D22   D(12,2,3,5)           -69.9929         calculate D2E/DX2 analytically  !
 ! D23   D(12,2,3,14)          167.8984         calculate D2E/DX2 analytically  !
 ! D24   D(12,2,3,15)           52.811          calculate D2E/DX2 analytically  !
 ! D25   D(13,2,3,5)            45.8633         calculate D2E/DX2 analytically  !
 ! D26   D(13,2,3,14)          -76.2454         calculate D2E/DX2 analytically  !
 ! D27   D(13,2,3,15)          168.6672         calculate D2E/DX2 analytically  !
 ! D28   D(2,3,5,7)             63.3777         calculate D2E/DX2 analytically  !
 ! D29   D(2,3,5,16)          -174.9474         calculate D2E/DX2 analytically  !
 ! D30   D(2,3,5,17)           -59.2788         calculate D2E/DX2 analytically  !
 ! D31   D(14,3,5,7)          -174.9643         calculate D2E/DX2 analytically  !
 ! D32   D(14,3,5,16)          -53.2895         calculate D2E/DX2 analytically  !
 ! D33   D(14,3,5,17)           62.3791         calculate D2E/DX2 analytically  !
 ! D34   D(15,3,5,7)           -59.3693         calculate D2E/DX2 analytically  !
 ! D35   D(15,3,5,16)           62.3055         calculate D2E/DX2 analytically  !
 ! D36   D(15,3,5,17)          177.9741         calculate D2E/DX2 analytically  !
 ! D37   D(1,4,6,18)            59.938          calculate D2E/DX2 analytically  !
 ! D38   D(1,4,6,19)           179.6574         calculate D2E/DX2 analytically  !
 ! D39   D(1,4,6,20)           -60.588          calculate D2E/DX2 analytically  !
 ! D40   D(8,4,6,18)          -178.0495         calculate D2E/DX2 analytically  !
 ! D41   D(8,4,6,19)           -58.3301         calculate D2E/DX2 analytically  !
 ! D42   D(8,4,6,20)            61.4244         calculate D2E/DX2 analytically  !
 ! D43   D(9,4,6,18)           -62.9389         calculate D2E/DX2 analytically  !
 ! D44   D(9,4,6,19)            56.7805         calculate D2E/DX2 analytically  !
 ! D45   D(9,4,6,20)           176.535          calculate D2E/DX2 analytically  !
 ! D46   D(3,5,7,21)            58.5127         calculate D2E/DX2 analytically  !
 ! D47   D(3,5,7,22)           -61.9966         calculate D2E/DX2 analytically  !
 ! D48   D(3,5,7,23)           178.6514         calculate D2E/DX2 analytically  !
 ! D49   D(16,5,7,21)          -63.0161         calculate D2E/DX2 analytically  !
 ! D50   D(16,5,7,22)          176.4746         calculate D2E/DX2 analytically  !
 ! D51   D(16,5,7,23)           57.1226         calculate D2E/DX2 analytically  !
 ! D52   D(17,5,7,21)         -178.6093         calculate D2E/DX2 analytically  !
 ! D53   D(17,5,7,22)           60.8814         calculate D2E/DX2 analytically  !
 ! D54   D(17,5,7,23)          -58.4706         calculate D2E/DX2 analytically  !
 --------------------------------------------------------------------------------
 Trust Radius=3.00D-01 FncErr=1.00D-07 GrdErr=1.00D-06 EigMax=2.50D+02 EigMin=1.00D-04
 Number of steps in this run=    138 maximum allowed number of steps=    138.
 GradGradGradGradGradGradGradGradGradGradGradGradGradGradGradGradGradGrad

 Leave Link  103 at Sun Sep 29 12:37:42 2019, MaxMem=   671088640 cpu:               1.4 elap:               0.7
 (Enter /shared/centos7/gaussian/g16/l202.exe)
                          Input orientation:                          
 ---------------------------------------------------------------------
 Center     Atomic      Atomic             Coordinates (Angstroms)
 Number     Number       Type             X           Y           Z
 ---------------------------------------------------------------------
      1          6           0        1.581753   -0.917342    0.642798
      2          6           0        0.144763   -0.549337    0.789756
      3          6           0       -0.094279    0.935870    0.680202
      4          6           0        2.186504   -0.438643   -0.633974
      5          6           0       -1.546611    1.324900    0.534981
      6          6           0        3.656585   -0.516053   -0.683547
      7          6           0       -2.400007    0.961694    1.722298
      8          1           0        1.856907    0.625117   -0.804016
      9          1           0        1.757311   -1.021630   -1.483489
     10          1           0        1.684563   -2.021065    0.712095
     11          1           0        2.152507   -0.506101    1.500566
     12          1           0       -0.226974   -0.913451    1.760280
     13          1           0       -0.452158   -1.075943    0.015401
     14          1           0        0.471976    1.316519   -0.186738
     15          1           0        0.333041    1.440629    1.571134
     16          1           0       -1.606571    2.432340    0.369143
     17          1           0       -1.966471    0.854318   -0.370298
     18          1           0        4.012785   -1.555444   -0.554446
     19          1           0        4.045213   -0.144644   -1.677811
     20          1           0        4.124952    0.103224    0.110569
     21          1           0       -2.030208    1.429344    2.635605
     22          1           0       -2.415395   -0.152126    1.880502
     23          1           0       -3.463593    1.300210    1.560814
 ---------------------------------------------------------------------
                    Distance matrix (angstroms):
                    1          2          3          4          5
     1  C    0.000000
     2  C    1.490625   0.000000
     3  C    2.498975   1.508304   0.000000
     4  C    1.491652   2.491579   2.969565   0.000000
     5  C    3.850447   2.537405   1.510531   4.291002   0.000000
     6  C    2.495026   3.808493   4.246984   1.472952   5.652183
     7  C    4.533267   3.103016   2.530418   5.343132   1.506627
     8  H    2.132643   2.617420   2.471153   1.126559   3.723781
     9  H    2.136069   2.826838   3.455683   1.116134   4.527287
    10  H    1.110665   2.131431   3.450907   2.137267   4.654819
    11  H    1.109344   2.130294   2.792906   2.135877   4.238914
    12  H    2.126094   1.101220   2.145732   3.432605   2.872807
    13  H    2.134380   1.110520   2.148820   2.791125   2.689208
    14  H    2.628663   2.131203   1.103233   2.494037   2.143746
    15  H    2.825087   2.146151   1.109570   3.439403   2.149441
    16  H    4.632566   3.483459   2.150165   4.861709   1.121392
    17  H    4.093292   2.788061   2.148325   4.357577   1.103295
    18  H    2.783969   4.216719   4.959735   2.142165   6.355322
    19  H    3.471444   4.633160   4.884990   2.151936   6.190679
    20  H    2.791538   4.090114   4.338167   2.146053   5.817151
    21  H    4.745996   3.471720   2.795522   5.653335   2.158100
    22  H    4.253782   2.811034   2.830554   5.251872   2.178719
    23  H    5.587110   4.127419   3.501499   6.305894   2.174341
                    6          7          8          9         10
     6  C    0.000000
     7  C    6.682375   0.000000
     8  H    2.134391   4.961539   0.000000
     9  H    2.121970   5.611946   1.784203   0.000000
    10  H    2.846358   5.157623   3.054600   2.413452   0.000000
    11  H    2.651924   4.788420   2.584209   3.053937   1.770812
    12  H    4.605676   2.870485   3.644910   3.804093   2.445296
    13  H    4.205208   3.295387   2.982755   2.670463   2.438077
    14  H    3.707678   3.466787   1.666463   2.966578   3.663023
    15  H    4.467453   2.778810   2.937442   4.173965   3.814169
    16  H    6.123887   2.150203   4.078974   5.165061   5.548153
    17  H    5.796102   2.139729   3.854719   4.315661   4.771735
    18  H    1.106291   7.255581   3.076515   2.497046   2.691012
    19  H    1.130281   7.370589   2.478857   2.457918   3.847762
    20  H    1.110627   6.775672   2.500574   3.067905   3.290887
    21  H    6.865928   1.090678   5.252374   6.108969   5.422614
    22  H    6.601192   1.125104   5.105223   5.429912   4.654865
    23  H    7.683287   1.127778   5.861389   6.474299   6.185038
                   11         12         13         14         15
    11  H    0.000000
    12  H    2.428027   0.000000
    13  H    3.052002   1.766838   0.000000
    14  H    2.998853   3.041739   2.572694   0.000000
    15  H    2.665557   2.427156   3.061042   1.767716   0.000000
    16  H    4.903592   3.877225   3.710236   2.423720   2.488045
    17  H    4.724071   3.269590   2.483508   2.488644   3.066052
    18  H    2.963921   4.872953   4.526628   4.573916   5.199525
    19  H    3.716863   5.537428   4.894960   4.138395   5.181597
    20  H    2.488757   4.763868   4.727518   3.860662   4.277907
    21  H    4.746511   3.083267   3.953754   3.773497   2.591944
    22  H    4.597323   2.320185   2.861178   3.842826   3.191626
    23  H    5.899742   3.926294   4.135594   4.306148   3.799244
                   16         17         18         19         20
    16  H    0.000000
    17  H    1.779454   0.000000
    18  H    6.952165   6.449214   0.000000
    19  H    6.540147   6.232805   1.803706   0.000000
    20  H    6.192091   6.156363   1.790532   1.807235   0.000000
    21  H    2.514423   3.061073   7.456752   7.615362   6.783833
    22  H    3.101269   2.506105   7.015680   7.375710   6.780413
    23  H    2.479985   2.483824   8.278001   8.304122   7.818056
                   21         22         23
    21  H    0.000000
    22  H    1.794324   0.000000
    23  H    1.796231   1.819395   0.000000
 Stoichiometry    C7H16
 Framework group  C1[X(C7H16)]
 Deg. of freedom    63
 Full point group                 C1      NOp   1
 Largest Abelian subgroup         C1      NOp   1
 Largest concise Abelian subgroup C1      NOp   1
                         Standard orientation:                         
 ---------------------------------------------------------------------
 Center     Atomic      Atomic             Coordinates (Angstroms)
 Number     Number       Type             X           Y           Z
 ---------------------------------------------------------------------
      1          6           0       -1.217489    0.882264    0.098253
      2          6           0        0.232921    0.772676   -0.227728
      3          6           0        0.866829   -0.476420    0.331649
      4          6           0       -2.015768   -0.292447   -0.357631
      5          6           0        2.245757   -0.772181   -0.209448
      6          6           0       -3.376660   -0.363730    0.201367
      7          6           0        3.274765    0.274679    0.129890
      8          1           0       -1.448078   -1.229137   -0.094046
      9          1           0       -2.074461   -0.284821   -1.472194
     10          1           0       -1.625097    1.808810   -0.358852
     11          1           0       -1.335906    1.008366    1.194027
     12          1           0        0.760572    1.659525    0.156680
     13          1           0        0.365826    0.790441   -1.330123
     14          1           0        0.201849   -1.330199    0.117204
     15          1           0        0.916324   -0.396449    1.437226
     16          1           0        2.585676   -1.761052    0.195657
     17          1           0        2.195484   -0.888712   -1.305419
     18          1           0       -3.973676    0.527474   -0.069198
     19          1           0       -3.924720   -1.271524   -0.189884
     20          1           0       -3.359495   -0.435814    1.309519
     21          1           0        3.371670    0.401840    1.208787
     22          1           0        2.998245    1.269651   -0.316682
     23          1           0        4.283659   -0.017448   -0.280817
 ---------------------------------------------------------------------
 Rotational constants (GHZ):           7.5851157           0.9610913           0.9070475
 Leave Link  202 at Sun Sep 29 12:37:44 2019, MaxMem=   671088640 cpu:               3.9 elap:               2.0
 (Enter /shared/centos7/gaussian/g16/l301.exe)
 Standard basis: CC-pVTZ (5D, 7F)
 Ernie: Thresh=  0.10000D-02 Tol=  0.10000D-05 Strict=F.
 Ernie:  21 primitive shells out of 310 were deleted.
 There are   485 symmetry adapted cartesian basis functions of A   symmetry.
 There are   434 symmetry adapted basis functions of A   symmetry.
   434 basis functions,   636 primitive gaussians,   485 cartesian basis functions
    29 alpha electrons       29 beta electrons
       nuclear repulsion energy       320.6816675266 Hartrees.
 IExCor= 4336 DFT=T Ex+Corr=M062X ExCW=0 ScaHFX=  0.540000
 ScaDFX=  1.000000  1.000000  1.000000  1.000000 ScalE2=  1.000000  1.000000
 IRadAn=      5 IRanWt=     -1 IRanGd=            0 ICorTp=0 IEmpDi=  4
 NAtoms=   23 NActive=   23 NUniq=   23 SFac= 1.00D+00 NAtFMM=   60 NAOKFM=F Big=F
 Integral buffers will be    131072 words long.
 Raffenetti 2 integral format.
 Two-electron integral symmetry is turned on.
 Leave Link  301 at Sun Sep 29 12:37:45 2019, MaxMem=   671088640 cpu:               1.5 elap:               0.8
 (Enter /shared/centos7/gaussian/g16/l302.exe)
 NPDir=0 NMtPBC=     1 NCelOv=     1 NCel=       1 NClECP=     1 NCelD=      1
         NCelK=      1 NCelE2=     1 NClLst=     1 CellRange=     0.0.
 One-electron integrals computed using PRISM.
 One-electron integral symmetry used in STVInt
 NBasis=   434 RedAO= T EigKep=  2.64D-04  NBF=   434
 NBsUse=   434 1.00D-06 EigRej= -1.00D+00 NBFU=   434
 Precomputing XC quadrature grid using
 IXCGrd= 4 IRadAn=           5 IRanWt=          -1 IRanGd=           0 AccXCQ= 0.00D+00.
 Generated NRdTot=       0 NPtTot=           0 NUsed=           0 NTot=          32
 NSgBfM=   485   485   485   485   485 MxSgAt=    23 MxSgA2=    23.
 Leave Link  302 at Sun Sep 29 12:38:53 2019, MaxMem=   671088640 cpu:             137.8 elap:              68.9
 (Enter /shared/centos7/gaussian/g16/l303.exe)
 DipDrv:  MaxL=1.
 Leave Link  303 at Sun Sep 29 12:38:57 2019, MaxMem=   671088640 cpu:               7.5 elap:               3.8
 (Enter /shared/centos7/gaussian/g16/l401.exe)
 ExpMin= 1.03D-01 ExpMax= 8.24D+03 ExpMxC= 2.81D+02 IAcc=3 IRadAn=         5 AccDes= 0.00D+00
 Harris functional with IExCor= 1009 and IRadAn=       5 diagonalized for initial guess.
 HarFok:  IExCor= 1009 AccDes= 0.00D+00 IRadAn=         5 IDoV= 1 UseB2=F ITyADJ=14
 ICtDFT=  3500011 ScaDFX=  1.000000  1.000000  1.000000  1.000000
 FoFCou: FMM=F IPFlag=           0 FMFlag=      100000 FMFlg1=           0
         NFxFlg=           0 DoJE=T BraDBF=F KetDBF=T FulRan=T
         wScrn=  0.000000 ICntrl=       500 IOpCl=  0 I1Cent=   200000004 NGrid=           0
         NMat0=    1 NMatS0=      1 NMatT0=    0 NMatD0=    1 NMtDS0=    0 NMtDT0=    0
 Petite list used in FoFCou.
 Harris En= -276.332705971609    
 JPrj=0 DoOrth=F DoCkMO=F.
 Leave Link  401 at Sun Sep 29 12:39:42 2019, MaxMem=   671088640 cpu:              88.6 elap:              44.3
 (Enter /shared/centos7/gaussian/g16/l502.exe)
 Integral symmetry usage will be decided dynamically.
 Closed shell SCF:
 Using DIIS extrapolation, IDIIS=  1040.
 NGot=   671088640 LenX=   670604095 LenY=   670368385
 Requested convergence on RMS density matrix=1.00D-08 within 900 cycles.
 Requested convergence on MAX density matrix=1.00D-06.
 Requested convergence on             energy=1.00D-06.
 No special actions if energy rises.
 Fock matrices will be formed incrementally for  20 cycles.
 Integral accuracy reduced to 1.0D-05 until final iterations.

 Cycle   1  Pass 0  IDiag  1:
 FoFJK:  IHMeth= 1 ICntrl=       0 DoSepK=F KAlg= 0 I1Cent=           0 FoldK=F
 IRaf= 910000000 NMat=       1 IRICut=       1 DoRegI=T DoRafI=F ISym2E= 0 IDoP0=0 IntGTp=1.
 FoFCou: FMM=F IPFlag=           0 FMFlag=      100000 FMFlg1=           0
         NFxFlg=           0 DoJE=F BraDBF=F KetDBF=F FulRan=T
         wScrn=  0.000000 ICntrl=         0 IOpCl=  0 I1Cent=           0 NGrid=           0
         NMat0=    1 NMatS0=      1 NMatT0=    0 NMatD0=    1 NMtDS0=    0 NMtDT0=    0
 Symmetry not used in FoFCou.
 E= -275.965648395895    
 DIIS: error= 2.57D-02 at cycle   1 NSaved=   1.
 NSaved= 1 IEnMin= 1 EnMin= -275.965648395895     IErMin= 1 ErrMin= 2.57D-02
 ErrMax= 2.57D-02  0.00D+00 EMaxC= 1.00D-01 BMatC= 3.73D-01 BMatP= 3.73D-01
 IDIUse=3 WtCom= 7.43D-01 WtEn= 2.57D-01
 Coeff-Com:  0.100D+01
 Coeff-En:   0.100D+01
 Coeff:      0.100D+01
 Gap=     0.368 Goal=   None    Shift=    0.000
 GapD=    0.368 DampG=1.000 DampE=0.500 DampFc=0.5000 IDamp=-1.
 Damping current iteration by 5.00D-01
 RMSDP=1.87D-03 MaxDP=6.70D-02              OVMax= 1.75D-01

 Cycle   2  Pass 0  IDiag  1:
 RMSU=  9.32D-04    CP:  9.90D-01
 E= -276.145970339356     Delta-E=       -0.180321943462 Rises=F Damp=T
 DIIS: error= 4.16D-03 at cycle   2 NSaved=   2.
 NSaved= 2 IEnMin= 2 EnMin= -276.145970339356     IErMin= 2 ErrMin= 4.16D-03
 ErrMax= 4.16D-03  0.00D+00 EMaxC= 1.00D-01 BMatC= 1.77D-02 BMatP= 3.73D-01
 IDIUse=3 WtCom= 9.58D-01 WtEn= 4.16D-02
 Coeff-Com: -0.615D-01 0.106D+01
 Coeff-En:   0.000D+00 0.100D+01
 Coeff:     -0.589D-01 0.106D+01
 Gap=     0.463 Goal=   None    Shift=    0.000
 RMSDP=5.04D-04 MaxDP=1.60D-02 DE=-1.80D-01 OVMax= 8.78D-02

 Cycle   3  Pass 0  IDiag  1:
 RMSU=  4.93D-04    CP:  9.96D-01  8.98D-01
 E= -276.323580296128     Delta-E=       -0.177609956772 Rises=F Damp=F
 DIIS: error= 1.90D-03 at cycle   3 NSaved=   3.
 NSaved= 3 IEnMin= 3 EnMin= -276.323580296128     IErMin= 3 ErrMin= 1.90D-03
 ErrMax= 1.90D-03  0.00D+00 EMaxC= 1.00D-01 BMatC= 1.81D-03 BMatP= 1.77D-02
 IDIUse=3 WtCom= 9.81D-01 WtEn= 1.90D-02
 Coeff-Com: -0.473D-01 0.201D+00 0.847D+00
 Coeff-En:   0.000D+00 0.000D+00 0.100D+01
 Coeff:     -0.464D-01 0.197D+00 0.850D+00
 Gap=     0.420 Goal=   None    Shift=    0.000
 RMSDP=7.58D-05 MaxDP=2.72D-03 DE=-1.78D-01 OVMax= 8.24D-03

 Cycle   4  Pass 0  IDiag  1:
 RMSU=  5.90D-05    CP:  9.95D-01  9.42D-01  9.56D-01
 E= -276.325169241947     Delta-E=       -0.001588945819 Rises=F Damp=F
 DIIS: error= 5.83D-04 at cycle   4 NSaved=   4.
 NSaved= 4 IEnMin= 4 EnMin= -276.325169241947     IErMin= 4 ErrMin= 5.83D-04
 ErrMax= 5.83D-04  0.00D+00 EMaxC= 1.00D-01 BMatC= 2.04D-04 BMatP= 1.81D-03
 IDIUse=3 WtCom= 9.94D-01 WtEn= 5.83D-03
 Coeff-Com: -0.126D-01 0.348D-01 0.291D+00 0.687D+00
 Coeff-En:   0.000D+00 0.000D+00 0.000D+00 0.100D+01
 Coeff:     -0.126D-01 0.346D-01 0.289D+00 0.689D+00
 Gap=     0.421 Goal=   None    Shift=    0.000
 RMSDP=2.69D-05 MaxDP=1.29D-03 DE=-1.59D-03 OVMax= 2.58D-03

 Cycle   5  Pass 0  IDiag  1:
 RMSU=  1.76D-05    CP:  9.95D-01  9.34D-01  9.84D-01  7.80D-01
 E= -276.325350694939     Delta-E=       -0.000181452992 Rises=F Damp=F
 DIIS: error= 1.41D-04 at cycle   5 NSaved=   5.
 NSaved= 5 IEnMin= 5 EnMin= -276.325350694939     IErMin= 5 ErrMin= 1.41D-04
 ErrMax= 1.41D-04  0.00D+00 EMaxC= 1.00D-01 BMatC= 1.71D-05 BMatP= 2.04D-04
 IDIUse=3 WtCom= 9.99D-01 WtEn= 1.41D-03
 Coeff-Com: -0.914D-03-0.642D-03 0.480D-01 0.258D+00 0.696D+00
 Coeff-En:   0.000D+00 0.000D+00 0.000D+00 0.000D+00 0.100D+01
 Coeff:     -0.912D-03-0.641D-03 0.479D-01 0.258D+00 0.696D+00
 Gap=     0.421 Goal=   None    Shift=    0.000
 RMSDP=6.17D-06 MaxDP=3.33D-04 DE=-1.81D-04 OVMax= 7.03D-04

 Initial convergence to 1.0D-05 achieved.  Increase integral accuracy.
 Cycle   6  Pass 1  IDiag  1:
 E= -276.325385159565     Delta-E=       -0.000034464626 Rises=F Damp=F
 DIIS: error= 4.40D-05 at cycle   1 NSaved=   1.
 NSaved= 1 IEnMin= 1 EnMin= -276.325385159565     IErMin= 1 ErrMin= 4.40D-05
 ErrMax= 4.40D-05  0.00D+00 EMaxC= 1.00D-01 BMatC= 1.25D-06 BMatP= 1.25D-06
 IDIUse=1 WtCom= 1.00D+00 WtEn= 0.00D+00
 Coeff-Com:  0.100D+01
 Coeff:      0.100D+01
 Gap=     0.421 Goal=   None    Shift=    0.000
 RMSDP=6.17D-06 MaxDP=3.33D-04 DE=-3.45D-05 OVMax= 2.37D-04

 Cycle   7  Pass 1  IDiag  1:
 RMSU=  1.71D-05    CP:  1.00D+00
 E= -276.325385850774     Delta-E=       -0.000000691209 Rises=F Damp=F
 DIIS: error= 2.57D-05 at cycle   2 NSaved=   2.
 NSaved= 2 IEnMin= 2 EnMin= -276.325385850774     IErMin= 2 ErrMin= 2.57D-05
 ErrMax= 2.57D-05  0.00D+00 EMaxC= 1.00D-01 BMatC= 3.04D-07 BMatP= 1.25D-06
 IDIUse=1 WtCom= 1.00D+00 WtEn= 0.00D+00
 Coeff-Com:  0.277D+00 0.723D+00
 Coeff:      0.277D+00 0.723D+00
 Gap=     0.421 Goal=   None    Shift=    0.000
 RMSDP=1.15D-06 MaxDP=4.33D-05 DE=-6.91D-07 OVMax= 1.17D-04

 Cycle   8  Pass 1  IDiag  1:
 RMSU=  1.07D-06    CP:  1.00D+00  1.03D+00
 E= -276.325386084374     Delta-E=       -0.000000233600 Rises=F Damp=F
 DIIS: error= 1.18D-05 at cycle   3 NSaved=   3.
 NSaved= 3 IEnMin= 3 EnMin= -276.325386084374     IErMin= 3 ErrMin= 1.18D-05
 ErrMax= 1.18D-05  0.00D+00 EMaxC= 1.00D-01 BMatC= 6.27D-08 BMatP= 3.04D-07
 IDIUse=1 WtCom= 1.00D+00 WtEn= 0.00D+00
 Coeff-Com: -0.710D-02 0.304D+00 0.703D+00
 Coeff:     -0.710D-02 0.304D+00 0.703D+00
 Gap=     0.421 Goal=   None    Shift=    0.000
 RMSDP=4.43D-07 MaxDP=1.56D-05 DE=-2.34D-07 OVMax= 4.18D-05

 Cycle   9  Pass 1  IDiag  1:
 RMSU=  2.75D-07    CP:  1.00D+00  1.04D+00  7.55D-01
 E= -276.325386144578     Delta-E=       -0.000000060204 Rises=F Damp=F
 DIIS: error= 1.44D-06 at cycle   4 NSaved=   4.
 NSaved= 4 IEnMin= 4 EnMin= -276.325386144578     IErMin= 4 ErrMin= 1.44D-06
 ErrMax= 1.44D-06  0.00D+00 EMaxC= 1.00D-01 BMatC= 1.05D-09 BMatP= 6.27D-08
 IDIUse=1 WtCom= 1.00D+00 WtEn= 0.00D+00
 Coeff-Com: -0.109D-01 0.664D-01 0.205D+00 0.740D+00
 Coeff:     -0.109D-01 0.664D-01 0.205D+00 0.740D+00
 Gap=     0.421 Goal=   None    Shift=    0.000
 RMSDP=7.01D-08 MaxDP=1.84D-06 DE=-6.02D-08 OVMax= 6.38D-06

 Cycle  10  Pass 1  IDiag  1:
 RMSU=  6.56D-08    CP:  1.00D+00  1.04D+00  7.64D-01  9.94D-01
 E= -276.325386145666     Delta-E=       -0.000000001088 Rises=F Damp=F
 DIIS: error= 2.95D-07 at cycle   5 NSaved=   5.
 NSaved= 5 IEnMin= 5 EnMin= -276.325386145666     IErMin= 5 ErrMin= 2.95D-07
 ErrMax= 2.95D-07  0.00D+00 EMaxC= 1.00D-01 BMatC= 4.30D-11 BMatP= 1.05D-09
 IDIUse=1 WtCom= 1.00D+00 WtEn= 0.00D+00
 Coeff-Com: -0.391D-03-0.184D-01-0.384D-01 0.606D-01 0.997D+00
 Coeff:     -0.391D-03-0.184D-01-0.384D-01 0.606D-01 0.997D+00
 Gap=     0.421 Goal=   None    Shift=    0.000
 RMSDP=2.70D-08 MaxDP=7.12D-07 DE=-1.09D-09 OVMax= 2.00D-06

 Cycle  11  Pass 1  IDiag  1:
 RMSU=  1.45D-08    CP:  1.00D+00  1.04D+00  7.66D-01  1.07D+00  1.08D+00
 E= -276.325386145726     Delta-E=       -0.000000000060 Rises=F Damp=F
 DIIS: error= 1.05D-07 at cycle   6 NSaved=   6.
 NSaved= 6 IEnMin= 6 EnMin= -276.325386145726     IErMin= 6 ErrMin= 1.05D-07
 ErrMax= 1.05D-07  0.00D+00 EMaxC= 1.00D-01 BMatC= 9.58D-12 BMatP= 4.30D-11
 IDIUse=1 WtCom= 1.00D+00 WtEn= 0.00D+00
 Coeff-Com:  0.427D-03-0.113D-01-0.272D-01-0.148D-01 0.425D+00 0.627D+00
 Coeff:      0.427D-03-0.113D-01-0.272D-01-0.148D-01 0.425D+00 0.627D+00
 Gap=     0.421 Goal=   None    Shift=    0.000
 RMSDP=4.82D-09 MaxDP=2.31D-07 DE=-6.00D-11 OVMax= 4.92D-07

 SCF Done:  E(RM062X) =  -276.325386146     A.U. after   11 cycles
            NFock= 11  Conv=0.48D-08     -V/T= 2.0068
 KE= 2.744637559524D+02 PE=-1.279754236253D+03 EE= 4.082834266278D+02
 Leave Link  502 at Sun Sep 29 12:53:53 2019, MaxMem=   671088640 cpu:            1702.2 elap:             851.2
 (Enter /shared/centos7/gaussian/g16/l801.exe)
 DoSCS=F DFT=T ScalE2(SS,OS)=  1.000000  1.000000
 Range of M.O.s used for correlation:     1   434
 NBasis=   434 NAE=    29 NBE=    29 NFC=     0 NFV=     0
 NROrb=    434 NOA=    29 NOB=    29 NVA=   405 NVB=   405

 **** Warning!!: The largest alpha MO coefficient is  0.12450721D+02

 Leave Link  801 at Sun Sep 29 12:53:54 2019, MaxMem=   671088640 cpu:               1.6 elap:               0.8
 (Enter /shared/centos7/gaussian/g16/l1101.exe)
 Using compressed storage, NAtomX=    23.
 Will process     24 centers per pass.
 Leave Link 1101 at Sun Sep 29 12:54:28 2019, MaxMem=   671088640 cpu:              69.0 elap:              34.5
 (Enter /shared/centos7/gaussian/g16/l1102.exe)
 Symmetrizing basis deriv contribution to polar:
 IMax=3 JMax=2 DiffMx= 0.00D+00
 Leave Link 1102 at Sun Sep 29 12:54:31 2019, MaxMem=   671088640 cpu:               4.8 elap:               2.4
 (Enter /shared/centos7/gaussian/g16/l1110.exe)
 Forming Gx(P) for the SCF density, NAtomX=    23.
 Integral derivatives from FoFJK, PRISM(SPDF).
 Do as many integral derivatives as possible in FoFJK.
 G2DrvN: MDV=     671086848.
 G2DrvN: will do    24 centers at a time, making    1 passes.
 Calling FoFCou, ICntrl=  3107 FMM=F I1Cent=   0 AccDes= 0.00D+00.
 FoFJK:  IHMeth= 1 ICntrl=    3107 DoSepK=F KAlg= 0 I1Cent=           0 FoldK=F
 IRaf=         0 NMat=       1 IRICut=       1 DoRegI=T DoRafI=F ISym2E= 0 IDoP0=0 IntGTp=1.
 FoFCou: FMM=F IPFlag=           0 FMFlag=      100000 FMFlg1=           0
         NFxFlg=           0 DoJE=F BraDBF=F KetDBF=F FulRan=T
         wScrn=  0.000000 ICntrl=      3107 IOpCl=  0 I1Cent=           0 NGrid=           0
         NMat0=    1 NMatS0=      1 NMatT0=    0 NMatD0=    1 NMtDS0=    0 NMtDT0=    0
 Symmetry not used in FoFCou.
 End of G2Drv F.D. properties file   721 does not exist.
 End of G2Drv F.D. properties file   722 does not exist.
 End of G2Drv F.D. properties file   788 does not exist.
 Leave Link 1110 at Sun Sep 29 13:31:28 2019, MaxMem=   671088640 cpu:            4434.6 elap:            2217.5
 (Enter /shared/centos7/gaussian/g16/l1002.exe)
 Minotr:  Closed shell wavefunction.
          IDoAtm=11111111111111111111111
          Direct CPHF calculation.
          Differentiating once with respect to nuclear coordinates.
          Requested convergence is 1.0D-08 RMS, and 1.0D-07 maximum.
          Secondary convergence is 1.0D-12 RMS, and 1.0D-12 maximum.
          NewPWx=T KeepS1=F KeepF1=F KeepIn=T MapXYZ=F SortEE=F KeepMc=T.
         6946 words used for storage of precomputed grid.
 Two-electron integrals replicated using symmetry.
          MDV=     671088640 using IRadAn=       1.
          Solving linear equations simultaneously, MaxMat=     380.
 FoF2E skips out because all densities are zero.
 CalDSu exits because no D1Ps are significant.
 FoFJK:  IHMeth= 1 ICntrl=       0 DoSepK=F KAlg= 0 I1Cent=           0 FoldK=F
 IRaf= 890000000 NMat=      69 IRICut=     172 DoRegI=T DoRafI=T ISym2E= 2 IDoP0=3 IntGTp=3.
 FoFCou: FMM=F IPFlag=           0 FMFlag=      100000 FMFlg1=           0
         NFxFlg=           0 DoJE=F BraDBF=F KetDBF=F FulRan=T
         wScrn=  0.000000 ICntrl=         0 IOpCl=  0 I1Cent=           0 NGrid=           0
         NMat0=   69 NMatS0=     69 NMatT0=    0 NMatD0=   69 NMtDS0=    0 NMtDT0=    0
 Integrals replicated using symmetry in FoFCou.
 Raff kept on since  85.27% of shell-pairs survive, threshold=   0.20 IRatSp=85.
          There are    72 degrees of freedom in the 1st order CPHF.  IDoFFX=6 NUNeed=     0.
     66 vectors produced by pass  0 Test12= 1.63D-14 1.39D-09 XBig12= 5.50D-02 3.82D-02.
 AX will form    66 AO Fock derivatives at one time.
     66 vectors produced by pass  1 Test12= 1.63D-14 1.39D-09 XBig12= 3.47D-03 7.29D-03.
     66 vectors produced by pass  2 Test12= 1.63D-14 1.39D-09 XBig12= 5.15D-05 9.99D-04.
     66 vectors produced by pass  3 Test12= 1.63D-14 1.39D-09 XBig12= 4.16D-07 8.81D-05.
     66 vectors produced by pass  4 Test12= 1.63D-14 1.39D-09 XBig12= 2.14D-09 4.55D-06.
     66 vectors produced by pass  5 Test12= 1.63D-14 1.39D-09 XBig12= 1.09D-11 4.23D-07.
     23 vectors produced by pass  6 Test12= 1.63D-14 1.39D-09 XBig12= 4.07D-14 2.83D-08.
      1 vectors produced by pass  7 Test12= 1.63D-14 1.39D-09 XBig12= 1.26D-16 1.45D-09.
 InvSVY:  IOpt=1 It=  1 EMax= 4.16D-16
 Solved reduced A of dimension   420 with    72 vectors.
 End of Minotr F.D. properties file   721 does not exist.
 End of Minotr F.D. properties file   722 does not exist.
 End of Minotr F.D. properties file   788 does not exist.
 Leave Link 1002 at Sun Sep 29 14:35:21 2019, MaxMem=   671088640 cpu:            7664.6 elap:            3832.8
 (Enter /shared/centos7/gaussian/g16/l601.exe)
 Copying SCF densities to generalized density rwf, IOpCl= 0 IROHF=0.

 **********************************************************************

            Population analysis using the SCF density.

 **********************************************************************

 Orbital symmetries:
       Occupied  (A) (A) (A) (A) (A) (A) (A) (A) (A) (A) (A) (A)
                 (A) (A) (A) (A) (A) (A) (A) (A) (A) (A) (A) (A)
                 (A) (A) (A) (A) (A)
       Virtual   (A) (A) (A) (A) (A) (A) (A) (A) (A) (A) (A) (A)
                 (A) (A) (A) (A) (A) (A) (A) (A) (A) (A) (A) (A)
                 (A) (A) (A) (A) (A) (A) (A) (A) (A) (A) (A) (A)
                 (A) (A) (A) (A) (A) (A) (A) (A) (A) (A) (A) (A)
                 (A) (A) (A) (A) (A) (A) (A) (A) (A) (A) (A) (A)
                 (A) (A) (A) (A) (A) (A) (A) (A) (A) (A) (A) (A)
                 (A) (A) (A) (A) (A) (A) (A) (A) (A) (A) (A) (A)
                 (A) (A) (A) (A) (A) (A) (A) (A) (A) (A) (A) (A)
                 (A) (A) (A) (A) (A) (A) (A) (A) (A) (A) (A) (A)
                 (A) (A) (A) (A) (A) (A) (A) (A) (A) (A) (A) (A)
                 (A) (A) (A) (A) (A) (A) (A) (A) (A) (A) (A) (A)
                 (A) (A) (A) (A) (A) (A) (A) (A) (A) (A) (A) (A)
                 (A) (A) (A) (A) (A) (A) (A) (A) (A) (A) (A) (A)
                 (A) (A) (A) (A) (A) (A) (A) (A) (A) (A) (A) (A)
                 (A) (A) (A) (A) (A) (A) (A) (A) (A) (A) (A) (A)
                 (A) (A) (A) (A) (A) (A) (A) (A) (A) (A) (A) (A)
                 (A) (A) (A) (A) (A) (A) (A) (A) (A) (A) (A) (A)
                 (A) (A) (A) (A) (A) (A) (A) (A) (A) (A) (A) (A)
                 (A) (A) (A) (A) (A) (A) (A) (A) (A) (A) (A) (A)
                 (A) (A) (A) (A) (A) (A) (A) (A) (A) (A) (A) (A)
                 (A) (A) (A) (A) (A) (A) (A) (A) (A) (A) (A) (A)
                 (A) (A) (A) (A) (A) (A) (A) (A) (A) (A) (A) (A)
                 (A) (A) (A) (A) (A) (A) (A) (A) (A) (A) (A) (A)
                 (A) (A) (A) (A) (A) (A) (A) (A) (A) (A) (A) (A)
                 (A) (A) (A) (A) (A) (A) (A) (A) (A) (A) (A) (A)
                 (A) (A) (A) (A) (A) (A) (A) (A) (A) (A) (A) (A)
                 (A) (A) (A) (A) (A) (A) (A) (A) (A) (A) (A) (A)
                 (A) (A) (A) (A) (A) (A) (A) (A) (A) (A) (A) (A)
                 (A) (A) (A) (A) (A) (A) (A) (A) (A) (A) (A) (A)
                 (A) (A) (A) (A) (A) (A) (A) (A) (A) (A) (A) (A)
                 (A) (A) (A) (A) (A) (A) (A) (A) (A) (A) (A) (A)
                 (A) (A) (A) (A) (A) (A) (A) (A) (A) (A) (A) (A)
                 (A) (A) (A) (A) (A) (A) (A) (A) (A) (A) (A) (A)
                 (A) (A) (A) (A) (A) (A) (A) (A) (A)
 The electronic state is 1-A.
 Alpha  occ. eigenvalues --  -10.52838 -10.52526 -10.52465 -10.52415 -10.52388
 Alpha  occ. eigenvalues --  -10.52370 -10.52324  -0.92366  -0.88232  -0.82805
 Alpha  occ. eigenvalues --   -0.76205  -0.70344  -0.66154  -0.63100  -0.54324
 Alpha  occ. eigenvalues --   -0.53064  -0.52246  -0.49098  -0.48012  -0.46845
 Alpha  occ. eigenvalues --   -0.44683  -0.43447  -0.40833  -0.40229  -0.39662
 Alpha  occ. eigenvalues --   -0.37818  -0.37145  -0.37030  -0.34989
 Alpha virt. eigenvalues --    0.07107   0.07726   0.08423   0.08822   0.10973
 Alpha virt. eigenvalues --    0.12266   0.12557   0.13796   0.14126   0.15060
 Alpha virt. eigenvalues --    0.15480   0.16628   0.17831   0.18021   0.18316
 Alpha virt. eigenvalues --    0.21444   0.21859   0.22929   0.24355   0.26476
 Alpha virt. eigenvalues --    0.27179   0.27894   0.29113   0.29422   0.29980
 Alpha virt. eigenvalues --    0.30863   0.32759   0.33352   0.35714   0.36748
 Alpha virt. eigenvalues --    0.38953   0.39921   0.42032   0.42534   0.44543
 Alpha virt. eigenvalues --    0.45569   0.45969   0.46042   0.47161   0.47921
 Alpha virt. eigenvalues --    0.48606   0.49355   0.50261   0.50853   0.51175
 Alpha virt. eigenvalues --    0.51488   0.52068   0.52732   0.52942   0.53251
 Alpha virt. eigenvalues --    0.53757   0.54745   0.55873   0.56776   0.58455
 Alpha virt. eigenvalues --    0.59134   0.60975   0.61013   0.64006   0.64756
 Alpha virt. eigenvalues --    0.66305   0.69360   0.71897   0.73417   0.76352
 Alpha virt. eigenvalues --    0.76630   0.77741   0.79446   0.81808   0.83320
 Alpha virt. eigenvalues --    0.84025   0.86039   0.86647   0.90087   0.90457
 Alpha virt. eigenvalues --    0.90778   0.92215   0.94390   0.94627   0.95476
 Alpha virt. eigenvalues --    0.96381   1.00093   1.02924   1.04324   1.05264
 Alpha virt. eigenvalues --    1.05679   1.07240   1.07915   1.09001   1.10767
 Alpha virt. eigenvalues --    1.11421   1.12413   1.13203   1.14109   1.15178
 Alpha virt. eigenvalues --    1.15890   1.17347   1.18169   1.20196   1.20865
 Alpha virt. eigenvalues --    1.20958   1.22298   1.22392   1.23075   1.24104
 Alpha virt. eigenvalues --    1.24449   1.25865   1.26568   1.27233   1.28598
 Alpha virt. eigenvalues --    1.29177   1.31068   1.31357   1.32032   1.32683
 Alpha virt. eigenvalues --    1.32816   1.35405   1.35842   1.36864   1.37915
 Alpha virt. eigenvalues --    1.38423   1.39774   1.41544   1.42803   1.42915
 Alpha virt. eigenvalues --    1.44566   1.45439   1.47493   1.48692   1.49992
 Alpha virt. eigenvalues --    1.50913   1.52970   1.54024   1.54687   1.55543
 Alpha virt. eigenvalues --    1.58819   1.59836   1.60943   1.61854   1.62611
 Alpha virt. eigenvalues --    1.64465   1.66900   1.67510   1.71372   1.73790
 Alpha virt. eigenvalues --    1.77822   1.83305   1.85857   1.91733   2.24964
 Alpha virt. eigenvalues --    2.28010   2.29953   2.31904   2.33127   2.35060
 Alpha virt. eigenvalues --    2.38039   2.38471   2.40684   2.42429   2.44118
 Alpha virt. eigenvalues --    2.45504   2.46658   2.48148   2.49675   2.50233
 Alpha virt. eigenvalues --    2.52966   2.55240   2.55475   2.57839   2.59363
 Alpha virt. eigenvalues --    2.60108   2.61477   2.63266   2.64699   2.65686
 Alpha virt. eigenvalues --    2.66784   2.67941   2.69912   2.70114   2.71931
 Alpha virt. eigenvalues --    2.74172   2.74898   2.76023   2.76198   2.77003
 Alpha virt. eigenvalues --    2.80554   2.81457   2.82296   2.83617   2.84533
 Alpha virt. eigenvalues --    2.85074   2.88169   2.89103   2.90763   2.91360
 Alpha virt. eigenvalues --    2.92773   2.93484   2.94312   2.95272   2.97086
 Alpha virt. eigenvalues --    3.01163   3.02574   3.03464   3.04188   3.04762
 Alpha virt. eigenvalues --    3.05672   3.06218   3.07294   3.08433   3.09237
 Alpha virt. eigenvalues --    3.09800   3.10264   3.12102   3.12365   3.12950
 Alpha virt. eigenvalues --    3.15025   3.15306   3.16367   3.16752   3.17874
 Alpha virt. eigenvalues --    3.18990   3.19578   3.20789   3.21723   3.22161
 Alpha virt. eigenvalues --    3.22361   3.24905   3.25144   3.28647   3.29742
 Alpha virt. eigenvalues --    3.30550   3.32255   3.32990   3.34812   3.35737
 Alpha virt. eigenvalues --    3.35976   3.37354   3.38708   3.40123   3.40762
 Alpha virt. eigenvalues --    3.41481   3.41817   3.44128   3.44997   3.46295
 Alpha virt. eigenvalues --    3.48574   3.49365   3.50124   3.51834   3.52952
 Alpha virt. eigenvalues --    3.55585   3.56112   3.56816   3.57667   3.59746
 Alpha virt. eigenvalues --    3.61575   3.62039   3.64313   3.66122   3.67781
 Alpha virt. eigenvalues --    3.70243   3.70533   3.70996   3.74223   3.75391
 Alpha virt. eigenvalues --    3.76519   3.77467   3.78995   3.79455   3.79999
 Alpha virt. eigenvalues --    3.81058   3.81393   3.82583   3.83381   3.84697
 Alpha virt. eigenvalues --    3.85636   3.86262   3.87548   3.87644   3.88472
 Alpha virt. eigenvalues --    3.89858   3.91182   3.92186   3.93925   3.94548
 Alpha virt. eigenvalues --    3.96050   3.96641   3.97214   3.98273   4.00228
 Alpha virt. eigenvalues --    4.01107   4.02120   4.03096   4.04709   4.05078
 Alpha virt. eigenvalues --    4.06753   4.07285   4.08155   4.09376   4.10359
 Alpha virt. eigenvalues --    4.11759   4.12943   4.14425   4.14917   4.15518
 Alpha virt. eigenvalues --    4.17433   4.18430   4.20707   4.22992   4.23998
 Alpha virt. eigenvalues --    4.24374   4.25635   4.25983   4.26452   4.28565
 Alpha virt. eigenvalues --    4.31987   4.33089   4.35002   4.35610   4.36403
 Alpha virt. eigenvalues --    4.37746   4.40064   4.40893   4.41553   4.45173
 Alpha virt. eigenvalues --    4.50871   4.52387   4.52807   4.56649   4.57088
 Alpha virt. eigenvalues --    4.58903   4.61314   4.64262   4.64716   4.66813
 Alpha virt. eigenvalues --    4.70728   4.71024   4.72773   4.73307   4.75260
 Alpha virt. eigenvalues --    4.77188   4.78402   4.78980   4.80288   4.80522
 Alpha virt. eigenvalues --    4.82698   4.83934   4.84616   4.87140   4.88600
 Alpha virt. eigenvalues --    4.90753   4.92743   4.94474   4.95725   4.95979
 Alpha virt. eigenvalues --    5.01252   5.03110   5.03387   5.04754   5.10550
 Alpha virt. eigenvalues --    5.12158   5.14776   5.15897   5.17045   5.19202
 Alpha virt. eigenvalues --    5.20866   5.22825   5.25361   5.25859   5.27230
 Alpha virt. eigenvalues --    5.29127   5.30633   5.33850   5.35508   5.36095
 Alpha virt. eigenvalues --    5.37265   5.40947   5.42485   5.43710   5.46271
 Alpha virt. eigenvalues --    5.46739   5.48272   5.50441   5.52773   5.57064
 Alpha virt. eigenvalues --    5.59309   5.61712   5.66587   5.69120   5.79597
 Alpha virt. eigenvalues --    5.81713   5.82247   5.82803   5.87956   5.91648
 Alpha virt. eigenvalues --    5.93745   5.98478   6.04116  12.12422  12.46804
 Alpha virt. eigenvalues --   12.72438  13.01586  13.24548  13.43647  13.65553
          Condensed to atoms (all electrons):
               1          2          3          4          5          6
     1  C    5.045352   0.344510  -0.051479   0.316880   0.004767  -0.055683
     2  C    0.344510   5.091990   0.297751  -0.054400  -0.048047   0.006396
     3  C   -0.051479   0.297751   5.136462  -0.021287   0.325473   0.000712
     4  C    0.316880  -0.054400  -0.021287   5.075939   0.000893   0.318957
     5  C    0.004767  -0.048047   0.325473   0.000893   5.015517  -0.000036
     6  C   -0.055683   0.006396   0.000712   0.318957  -0.000036   4.936672
     7  C    0.000251   0.001627  -0.056270  -0.000095   0.309865   0.000002
     8  H   -0.048056  -0.004562  -0.009080   0.419474   0.001045  -0.044389
     9  H   -0.048308  -0.000076  -0.000442   0.399822  -0.000010  -0.030794
    10  H    0.411346  -0.038302   0.009180  -0.042951  -0.000386  -0.002888
    11  H    0.412485  -0.043906  -0.005817  -0.054049   0.000337  -0.002694
    12  H   -0.036825   0.413614  -0.039076   0.009160  -0.005669  -0.000372
    13  H   -0.033022   0.402439  -0.056813  -0.005395   0.001187   0.000238
    14  H   -0.005675  -0.042466   0.427142  -0.011296  -0.046233   0.001060
    15  H    0.001941  -0.053996   0.399550  -0.000254  -0.027768  -0.000005
    16  H   -0.000346   0.009682  -0.049155   0.000013   0.417502  -0.000000
    17  H    0.000269  -0.009024  -0.041537  -0.000008   0.409584  -0.000006
    18  H   -0.004201   0.000291  -0.000094  -0.046790   0.000004   0.405097
    19  H    0.009739  -0.000657   0.000067  -0.044178  -0.000003   0.406614
    20  H   -0.007024   0.000083  -0.000019  -0.048019  -0.000011   0.409559
    21  H   -0.000075  -0.002906   0.001018  -0.000000  -0.048079  -0.000000
    22  H    0.000551   0.006074  -0.008264  -0.000031  -0.040914   0.000001
    23  H    0.000007  -0.000202   0.008595   0.000006  -0.039275  -0.000000
               7          8          9         10         11         12
     1  C    0.000251  -0.048056  -0.048308   0.411346   0.412485  -0.036825
     2  C    0.001627  -0.004562  -0.000076  -0.038302  -0.043906   0.413614
     3  C   -0.056270  -0.009080  -0.000442   0.009180  -0.005817  -0.039076
     4  C   -0.000095   0.419474   0.399822  -0.042951  -0.054049   0.009160
     5  C    0.309865   0.001045  -0.000010  -0.000386   0.000337  -0.005669
     6  C    0.000002  -0.044389  -0.030794  -0.002888  -0.002694  -0.000372
     7  C    4.977800  -0.000114   0.000013   0.000019  -0.000058   0.000483
     8  H   -0.000114   0.620910  -0.042494   0.008029  -0.003709  -0.000352
     9  H    0.000013  -0.042494   0.604452  -0.010329   0.009087  -0.000011
    10  H    0.000019   0.008029  -0.010329   0.581319  -0.033545  -0.006707
    11  H   -0.000058  -0.003709   0.009087  -0.033545   0.589376  -0.007537
    12  H    0.000483  -0.000352  -0.000011  -0.006707  -0.007537   0.571100
    13  H   -0.002306   0.000041   0.002735  -0.007238   0.008746  -0.034365
    14  H    0.008695  -0.011540   0.001830  -0.000439   0.000696   0.006687
    15  H   -0.007292   0.001430   0.000006   0.000009   0.002455  -0.007881
    16  H   -0.042306   0.000156  -0.000004   0.000029   0.000021  -0.000473
    17  H   -0.043988   0.000312  -0.000002   0.000016  -0.000026   0.000540
    18  H   -0.000000   0.009923  -0.007939   0.003488  -0.000802  -0.000047
    19  H    0.000000  -0.007090  -0.006522  -0.000310   0.000098   0.000029
    20  H    0.000001  -0.008349   0.008826  -0.000054   0.004125   0.000012
    21  H    0.402687   0.000010  -0.000001   0.000004  -0.000008   0.000667
    22  H    0.402865   0.000002   0.000001   0.000029   0.000041  -0.005547
    23  H    0.404644   0.000004  -0.000001  -0.000001  -0.000002   0.000131
              13         14         15         16         17         18
     1  C   -0.033022  -0.005675   0.001941  -0.000346   0.000269  -0.004201
     2  C    0.402439  -0.042466  -0.053996   0.009682  -0.009024   0.000291
     3  C   -0.056813   0.427142   0.399550  -0.049155  -0.041537  -0.000094
     4  C   -0.005395  -0.011296  -0.000254   0.000013  -0.000008  -0.046790
     5  C    0.001187  -0.046233  -0.027768   0.417502   0.409584   0.000004
     6  C    0.000238   0.001060  -0.000005  -0.000000  -0.000006   0.405097
     7  C   -0.002306   0.008695  -0.007292  -0.042306  -0.043988  -0.000000
     8  H    0.000041  -0.011540   0.001430   0.000156   0.000312   0.009923
     9  H    0.002735   0.001830   0.000006  -0.000004  -0.000002  -0.007939
    10  H   -0.007238  -0.000439   0.000009   0.000029   0.000016   0.003488
    11  H    0.008746   0.000696   0.002455   0.000021  -0.000026  -0.000802
    12  H   -0.034365   0.006687  -0.007881  -0.000473   0.000540  -0.000047
    13  H    0.580149  -0.001564   0.008305   0.000236   0.003235   0.000021
    14  H   -0.001564   0.574486  -0.033590  -0.007617  -0.005600  -0.000231
    15  H    0.008305  -0.033590   0.576197  -0.005049   0.007994   0.000020
    16  H    0.000236  -0.007617  -0.005049   0.599968  -0.033701   0.000000
    17  H    0.003235  -0.005600   0.007994  -0.033701   0.590288   0.000001
    18  H    0.000021  -0.000231   0.000020   0.000000   0.000001   0.602039
    19  H    0.000014   0.000195  -0.000004   0.000000  -0.000000  -0.031250
    20  H   -0.000024   0.000373  -0.000004  -0.000000   0.000000  -0.039246
    21  H    0.000294   0.000029   0.003768  -0.005644   0.008173   0.000000
    22  H    0.000532  -0.000413   0.000316   0.007851  -0.006157   0.000000
    23  H   -0.000164  -0.000391  -0.000059  -0.007097  -0.005100   0.000000
              19         20         21         22         23
     1  C    0.009739  -0.007024  -0.000075   0.000551   0.000007
     2  C   -0.000657   0.000083  -0.002906   0.006074  -0.000202
     3  C    0.000067  -0.000019   0.001018  -0.008264   0.008595
     4  C   -0.044178  -0.048019  -0.000000  -0.000031   0.000006
     5  C   -0.000003  -0.000011  -0.048079  -0.040914  -0.039275
     6  C    0.406614   0.409559  -0.000000   0.000001  -0.000000
     7  C    0.000000   0.000001   0.402687   0.402865   0.404644
     8  H   -0.007090  -0.008349   0.000010   0.000002   0.000004
     9  H   -0.006522   0.008826  -0.000001   0.000001  -0.000001
    10  H   -0.000310  -0.000054   0.000004   0.000029  -0.000001
    11  H    0.000098   0.004125  -0.000008   0.000041  -0.000002
    12  H    0.000029   0.000012   0.000667  -0.005547   0.000131
    13  H    0.000014  -0.000024   0.000294   0.000532  -0.000164
    14  H    0.000195   0.000373   0.000029  -0.000413  -0.000391
    15  H   -0.000004  -0.000004   0.003768   0.000316  -0.000059
    16  H    0.000000  -0.000000  -0.005644   0.007851  -0.007097
    17  H   -0.000000   0.000000   0.008173  -0.006157  -0.005100
    18  H   -0.031250  -0.039246   0.000000   0.000000   0.000000
    19  H    0.600628  -0.031132   0.000000   0.000000   0.000000
    20  H   -0.031132   0.605428  -0.000000  -0.000000  -0.000000
    21  H    0.000000  -0.000000   0.588291  -0.039077  -0.029390
    22  H    0.000000  -0.000000  -0.039077   0.601349  -0.030012
    23  H    0.000000  -0.000000  -0.029390  -0.030012   0.589815
 Mulliken charges:
               1
     1  C   -0.257402
     2  C   -0.275912
     3  C   -0.266617
     4  C   -0.212392
     5  C   -0.229743
     6  C   -0.348443
     7  C   -0.356522
     8  H    0.118399
     9  H    0.120159
    10  H    0.129682
    11  H    0.124687
    12  H    0.142442
    13  H    0.132720
    14  H    0.145863
    15  H    0.133913
    16  H    0.115936
    17  H    0.124740
    18  H    0.109718
    19  H    0.103761
    20  H    0.105476
    21  H    0.120239
    22  H    0.110805
    23  H    0.108491
 Sum of Mulliken charges =  -0.00000
 Mulliken charges with hydrogens summed into heavy atoms:
               1
     1  C   -0.003033
     2  C   -0.000751
     3  C    0.013159
     4  C    0.026166
     5  C    0.010933
     6  C   -0.029487
     7  C   -0.016986
 APT charges:
               1
     1  C   -0.741091
     2  C   -0.647965
     3  C   -0.464331
     4  C   -0.314513
     5  C   -0.715890
     6  C   -1.481527
     7  C   -1.290198
     8  H    0.179132
     9  H    0.342089
    10  H    0.413565
    11  H    0.313276
    12  H    0.379857
    13  H    0.313392
    14  H    0.276609
    15  H    0.320448
    16  H    0.437429
    17  H    0.312589
    18  H    0.441964
    19  H    0.490031
    20  H    0.291063
    21  H    0.329756
    22  H    0.196631
    23  H    0.617684
 Sum of APT charges =  -0.00000
 APT charges with hydrogens summed into heavy atoms:
               1
     1  C   -0.014251
     2  C    0.045283
     3  C    0.132727
     4  C    0.206709
     5  C    0.034129
     6  C   -0.258469
     7  C   -0.146127
 Electronic spatial extent (au):  <R**2>=           1378.9030
 Charge=              0.0000 electrons
 Dipole moment (field-independent basis, Debye):
    X=              0.0148    Y=             -0.0407    Z=             -0.0408  Tot=              0.0595
 Quadrupole moment (field-independent basis, Debye-Ang):
   XX=            -50.6215   YY=            -49.0254   ZZ=            -48.5960
   XY=             -0.3476   XZ=              0.4634   YZ=             -0.1714
 Traceless Quadrupole moment (field-independent basis, Debye-Ang):
   XX=             -1.2072   YY=              0.3889   ZZ=              0.8183
   XY=             -0.3476   XZ=              0.4634   YZ=             -0.1714
 Octapole moment (field-independent basis, Debye-Ang**2):
  XXX=              2.8417  YYY=             -0.1736  ZZZ=              0.5671  XYY=             -1.0296
  XXY=             -1.4994  XXZ=             -2.0635  XZZ=              0.2567  YZZ=              0.2858
  YYZ=             -0.4105  XYZ=              0.2063
 Hexadecapole moment (field-independent basis, Debye-Ang**3):
 XXXX=          -1650.0156 YYYY=           -220.9111 ZZZZ=           -122.8132 XXXY=            -13.0263
 XXXZ=              4.3420 YYYX=              0.1745 YYYZ=             -1.6237 ZZZX=              0.8888
 ZZZY=              0.3567 XXYY=           -305.8527 XXZZ=           -289.4183 YYZZ=            -60.1333
 XXYZ=             -0.6062 YYXZ=              3.0153 ZZXY=             -0.3505
 N-N= 3.206816675266D+02 E-N=-1.279754197758D+03  KE= 2.744637559524D+02
  Exact polarizability:   0.000   0.000   0.000   0.000   0.000   0.000
 Approx polarizability:  99.310  -0.792  98.612   0.144  -0.132  99.771
 No NMR shielding tensors so no spin-rotation constants.
 Leave Link  601 at Sun Sep 29 14:35:53 2019, MaxMem=   671088640 cpu:              64.8 elap:              32.4
 (Enter /shared/centos7/gaussian/g16/l701.exe)
 SCFChk:  SCF convergence  4.82D-09 required  1.00D-08
 ... and contract with generalized density number  0.
 Compute integral second derivatives.
 Entering OneElI...
 Calculate overlap and kinetic energy integrals
    NBasis = 485  MinDer = 2  MaxDer = 2
 Requested accuracy = 0.1000D-12
 PrmmSu-InSpLW:  IPartL=    0 NPrtUS=   20 NPrtUL=    1 DoSpLW=F IThBeg=    0 IThEnd=   19 NThAct=   20.
 PrsmSu:  NPrtUS=  20 ThrOK=T IAlg=1 NPAlg=1 LenDen=           0 ISkipM=0 DoSpLW=F IThBeg=    0 IThEnd=   19.
 Prism:   IPart=     0 DynPar=F LinDyn=F Incr=           6.
 PRISM was handed    33208023 working-precision words and 13442 shell-pairs
 PRISM was handed    33208023 working-precision words and 13442 shell-pairs
 PRISM was handed    33208023 working-precision words and 13442 shell-pairs
 PRISM was handed    33208023 working-precision words and 13442 shell-pairs
 PRISM was handed    33208023 working-precision words and 13442 shell-pairs
 PRISM was handed    33208023 working-precision words and 13442 shell-pairs
 PRISM was handed    33208023 working-precision words and 13442 shell-pairs
 PRISM was handed    33208023 working-precision words and 13442 shell-pairs
 PRISM was handed    33208023 working-precision words and 13442 shell-pairs
 PRISM was handed    33208023 working-precision words and 13442 shell-pairs
 PRISM was handed    33208023 working-precision words and 13442 shell-pairs
 PRISM was handed    33208023 working-precision words and 13442 shell-pairs
 PRISM was handed    33208023 working-precision words and 13442 shell-pairs
 PRISM was handed    33208023 working-precision words and 13442 shell-pairs
 PRISM was handed    33208023 working-precision words and 13442 shell-pairs
 IPart=  0 NShTot=         706 NBatch=          80 AvBLen=         8.8
 PRISM was handed    33208023 working-precision words and 13442 shell-pairs
 PRISM was handed    33208023 working-precision words and 13442 shell-pairs
 IPart=  2 NShTot=         701 NBatch=          78 AvBLen=         9.0
 IPart= 18 NShTot=         642 NBatch=          47 AvBLen=        13.7
 IPart= 16 NShTot=         650 NBatch=          49 AvBLen=        13.3
 IPart= 17 NShTot=         647 NBatch=          49 AvBLen=        13.2
 IPart= 14 NShTot=         659 NBatch=          53 AvBLen=        12.4
 PRISM was handed    33208023 working-precision words and 13442 shell-pairs
 PRISM was handed    33208023 working-precision words and 13442 shell-pairs
 PRISM was handed    33208023 working-precision words and 13442 shell-pairs
 IPart=  6 NShTot=         684 NBatch=          68 AvBLen=        10.1
 IPart= 11 NShTot=         666 NBatch=          56 AvBLen=        11.9
 IPart=  9 NShTot=         671 NBatch=          57 AvBLen=        11.8
 IPart=  3 NShTot=         698 NBatch=          77 AvBLen=         9.1
 IPart=  1 NShTot=         703 NBatch=          78 AvBLen=         9.0
 IPart=  8 NShTot=         673 NBatch=          59 AvBLen=        11.4
 IPart=  7 NShTot=         676 NBatch=          60 AvBLen=        11.3
 IPart= 15 NShTot=         657 NBatch=          53 AvBLen=        12.4
 IPart= 12 NShTot=         664 NBatch=          54 AvBLen=        12.3
 IPart= 10 NShTot=         667 NBatch=          56 AvBLen=        11.9
 IPart=  4 NShTot=         691 NBatch=          72 AvBLen=         9.6
 IPart=  5 NShTot=         685 NBatch=          69 AvBLen=         9.9
 IPart= 19 NShTot=         642 NBatch=          47 AvBLen=        13.7
 IPart= 13 NShTot=         660 NBatch=          53 AvBLen=        12.5
 PrSmSu:  NxtVal=            121.
 Entering OneElI...
 Calculate potential energy integrals
    NBasis = 485  MinDer = 2  MaxDer = 2
 Requested accuracy = 0.1000D-12
 PrmmSu-InSpLW:  IPartL=    0 NPrtUS=   20 NPrtUL=    1 DoSpLW=F IThBeg=    0 IThEnd=   19 NThAct=   20.
 PrsmSu:  NPrtUS=  20 ThrOK=T IAlg=1 NPAlg=1 LenDen=           0 ISkipM=0 DoSpLW=F IThBeg=    0 IThEnd=   19.
 Prism:   IPart=     0 DynPar=F LinDyn=F Incr=         136.
 PRISM was handed    33271862 working-precision words and 11836 shell-pairs
 PRISM was handed    33271862 working-precision words and 11836 shell-pairs
 PRISM was handed    33271862 working-precision words and 11836 shell-pairs
 PRISM was handed    33271862 working-precision words and 11836 shell-pairs
 PRISM was handed    33271862 working-precision words and 11836 shell-pairs
 PRISM was handed    33271862 working-precision words and 11836 shell-pairs
 PRISM was handed    33271862 working-precision words and 11836 shell-pairs
 PRISM was handed    33271862 working-precision words and 11836 shell-pairs
 PRISM was handed    33271862 working-precision words and 11836 shell-pairs
 PRISM was handed    33271862 working-precision words and 11836 shell-pairs
 PRISM was handed    33271862 working-precision words and 11836 shell-pairs
 PRISM was handed    33271862 working-precision words and 11836 shell-pairs
 PRISM was handed    33271862 working-precision words and 11836 shell-pairs
 PRISM was handed    33271862 working-precision words and 11836 shell-pairs
 PRISM was handed    33271862 working-precision words and 11836 shell-pairs
 PRISM was handed    33271862 working-precision words and 11836 shell-pairs
 PRISM was handed    33271862 working-precision words and 11836 shell-pairs
 PRISM was handed    33271862 working-precision words and 11836 shell-pairs
 PRISM was handed    33271862 working-precision words and 11836 shell-pairs
 PRISM was handed    33271862 working-precision words and 11836 shell-pairs
 IPart= 11 NShTot=       13547 NBatch=         590 AvBLen=        23.0
 IPart= 16 NShTot=       13110 NBatch=         571 AvBLen=        23.0
 IPart=  1 NShTot=       14191 NBatch=         619 AvBLen=        22.9
 IPart=  8 NShTot=       13662 NBatch=         595 AvBLen=        23.0
 IPart= 17 NShTot=       13041 NBatch=         568 AvBLen=        23.0
 IPart= 18 NShTot=       13018 NBatch=         567 AvBLen=        23.0
 IPart=  2 NShTot=       14145 NBatch=         617 AvBLen=        22.9
 IPart=  9 NShTot=       13662 NBatch=         595 AvBLen=        23.0
 IPart=  6 NShTot=       13846 NBatch=         603 AvBLen=        23.0
 IPart= 13 NShTot=       13317 NBatch=         580 AvBLen=        23.0
 IPart= 12 NShTot=       13409 NBatch=         584 AvBLen=        23.0
 IPart= 19 NShTot=       12949 NBatch=         564 AvBLen=        23.0
 IPart= 10 NShTot=       13639 NBatch=         594 AvBLen=        23.0
 IPart=  0 NShTot=       14260 NBatch=         622 AvBLen=        22.9
 IPart=  7 NShTot=       13685 NBatch=         596 AvBLen=        23.0
 IPart=  4 NShTot=       14099 NBatch=         615 AvBLen=        22.9
 IPart=  3 NShTot=       14122 NBatch=         616 AvBLen=        22.9
 IPart= 15 NShTot=       13202 NBatch=         575 AvBLen=        23.0
 IPart= 14 NShTot=       13294 NBatch=         579 AvBLen=        23.0
 IPart=  5 NShTot=       14030 NBatch=         611 AvBLen=        23.0
 PrSmSu:  NxtVal=           2721.
 Polarizability after L701:
                1             2             3 
      1  0.000000D+00
      2  0.000000D+00  0.000000D+00
      3  0.000000D+00  0.000000D+00  0.000000D+00
 Dipole Derivatives after L701:
                 1             2             3             4             5 
      1  -0.497041D+00  0.848164D+00  0.349723D+00 -0.338360D+00 -0.371290D+00
      2   0.377993D+00 -0.923772D+00 -0.925746D-01 -0.458411D+00 -0.821731D+00
      3  -0.161681D-01  0.964994D-01 -0.802461D+00 -0.407540D-02 -0.672131D-01
                 6             7             8             9            10 
      1   0.508986D-01  0.269972D-03  0.799780D-01 -0.485027D+00  0.416773D+00
      2   0.800564D-01 -0.400541D+00 -0.605655D+00  0.274812D-01  0.269001D+00
      3  -0.783805D+00 -0.465194D-01 -0.138263D-01 -0.787606D+00 -0.797237D-01
                11            12            13            14            15 
      1  -0.725875D+00 -0.991523D+00 -0.403961D+00  0.141934D+01  0.656466D+00
      2  -0.590831D+00  0.332760D-01  0.344418D+00 -0.907505D+00 -0.868311D-01
      3  -0.123921D-01 -0.769480D+00 -0.383995D-01  0.337667D-01 -0.836205D+00
                16            17            18            19            20 
      1  -0.248224D+01 -0.109138D+00  0.546225D+00 -0.207971D+01 -0.111356D+01
      2  -0.186200D+00 -0.980982D+00  0.744341D-01  0.132761D+00 -0.831849D+00
      3  -0.549827D-01  0.113427D-01 -0.981359D+00  0.214692D-01  0.425260D-01
                21            22            23            24            25 
      1  -0.312503D+00 -0.116303D+00  0.433064D+00 -0.827460D-01  0.204299D+00
      2   0.697461D-01 -0.264469D+00  0.517618D+00 -0.122425D+00  0.168047D-01
      3  -0.959032D+00 -0.237915D-03 -0.200154D-02  0.136082D+00  0.637004D-01
                26            27            28            29            30 
      1   0.172172D-01  0.709667D+00  0.341277D+00 -0.476936D+00  0.269657D+00
      2   0.144904D+00  0.747629D-01 -0.225589D+00  0.690240D+00 -0.303898D+00
      3  -0.148773D-01  0.677064D+00  0.604340D-01 -0.124404D+00  0.209178D+00
                31            32            33            34            35 
      1   0.177846D+00 -0.654117D-01 -0.447260D+00  0.315537D+00  0.223379D+00
      2  -0.184796D-01  0.177405D+00  0.330878D+00  0.308416D+00  0.643384D+00
      3  -0.372096D-01  0.587760D-01  0.584577D+00  0.414043D-01  0.696927D-01
                36            37            38            39            40 
      1   0.103347D+00  0.148752D+00 -0.483474D-02 -0.114842D+00  0.150231D+00
      2   0.224979D+00  0.142578D-01  0.151707D+00 -0.252020D+00  0.356276D+00
      3   0.180651D+00 -0.467455D-01 -0.206631D-01  0.639715D+00 -0.106733D-01
                41            42            43            44            45 
      1  -0.503802D-01  0.981471D-02  0.138429D+00  0.543071D-02  0.334283D+00
      2   0.547229D+00  0.114443D+00 -0.197729D-01  0.140301D+00 -0.119790D+00
      3  -0.104626D-01  0.132368D+00  0.445825D-01  0.428322D-01  0.682615D+00
                46            47            48            49            50 
      1   0.449185D+00 -0.810436D+00  0.334251D+00  0.136848D+00 -0.765331D-01
      2  -0.200411D+00  0.703040D+00 -0.252666D+00  0.174618D-01  0.158887D+00
      3   0.288082D-01 -0.891194D-01  0.160063D+00  0.160011D-01  0.415324D-01
                51            52            53            54            55 
      1  -0.756404D+00  0.877104D+00 -0.112256D+01  0.299809D+00  0.795263D+00
      2   0.300150D+00 -0.138094D+00  0.315845D+00 -0.795975D-01  0.238970D+00
      3   0.642033D+00  0.206166D-01 -0.584515D-01  0.132943D+00  0.353134D-01
                56            57            58            59            60 
      1   0.118027D+01  0.500139D+00  0.123137D+00  0.537116D-01 -0.112949D+01
      2   0.532690D+00  0.197179D+00 -0.104752D-01  0.103426D+00 -0.161641D+00
      3   0.912861D-01  0.142139D+00  0.201614D-01 -0.389896D-01  0.646626D+00
                61            62            63            64            65 
      1   0.220142D+00  0.198450D+00  0.112626D+01 -0.152090D+00  0.925815D+00
      2   0.201027D-01  0.140767D+00  0.122193D+00 -0.149150D+00  0.567781D+00
      3   0.459841D-01  0.540355D-01  0.628359D+00  0.553254D-01 -0.137351D+00
                66            67            68            69 
      1  -0.348554D+00  0.157461D+01 -0.457859D+00 -0.622193D+00
      2  -0.199022D+00 -0.248713D-01  0.127103D+00  0.208859D-01
      3   0.174201D+00 -0.119065D+00  0.474620D-01  0.151334D+00
 Hessian after L701:
                1             2             3             4             5 
      1  0.144330D+02
      2 -0.477669D+00  0.169992D+02
      3 -0.824728D-01 -0.256427D+00  0.180062D+02
      4 -0.243789D+01 -0.290292D+00 -0.795989D+00  0.144860D+02
      5 -0.304937D+00 -0.641959D+01  0.647799D-01  0.668864D+00  0.170479D+02
      6 -0.799833D+00  0.688160D-01 -0.619767D+01 -0.160375D+00  0.298550D+00
      7  0.270839D+00 -0.254354D+00  0.137496D+00 -0.521018D+01 -0.169702D+01
      8 -0.252713D+00  0.827865D-01 -0.102995D+00 -0.166198D+01 -0.332291D+01
      9  0.580419D-01 -0.727734D-01 -0.110778D+00  0.685902D+00 -0.992453D+00
     10 -0.474343D+01  0.197468D+01  0.674569D+00  0.334280D+00  0.238127D+00
     11  0.190144D+01 -0.379369D+01  0.781698D+00  0.230800D+00  0.500670D-01
     12  0.676149D+00  0.790496D+00 -0.590978D+01  0.189346D-01  0.400297D-01
     13  0.174217D+00 -0.131342D+00 -0.275591D-01  0.274480D+00 -0.235203D+00
     14 -0.131791D+00 -0.520113D-01  0.194584D-01 -0.266686D+00  0.665937D-01
     15 -0.253772D-01  0.187490D-01 -0.125707D+00  0.105068D+00 -0.985356D-01
     16  0.228576D+00  0.173037D+00 -0.145863D-02  0.222065D+00  0.104355D+00
     17  0.275675D+00  0.118970D-01  0.156577D-01  0.109746D+00 -0.101432D+00
     18  0.418074D-01  0.477069D-01 -0.141451D+00 -0.435529D-01 -0.158766D-01
     19  0.105764D+00 -0.650110D-02  0.108000D-01  0.314571D+00 -0.316323D-01
     20 -0.362678D-01 -0.720247D-01 -0.345922D-02 -0.150683D+00 -0.202181D+00
     21 -0.528437D-02  0.217965D-02 -0.721267D-01  0.333433D-01 -0.118757D-02
     22  0.136197D+00 -0.111408D+00  0.553816D-02  0.104333D-01 -0.121612D-03
     23 -0.411091D-01 -0.104276D+00 -0.621483D-01  0.447041D-01 -0.486218D-02
     24  0.897823D-02 -0.632409D-01  0.112575D+00 -0.741752D-02 -0.814855D-02
     25  0.796942D-01 -0.812635D-01 -0.808577D-01  0.262269D-01  0.208155D-01
     26 -0.568534D-01 -0.895838D-02 -0.131354D+00  0.215877D-01 -0.233733D-01
     27 -0.441159D-01 -0.136961D+00  0.601744D-01  0.503168D-01  0.149759D-01
     28 -0.394048D+01 -0.830953D+00  0.362622D+00 -0.653592D-01  0.458610D-01
     29 -0.840054D+00 -0.246149D+01 -0.807182D+00  0.461339D-01  0.102413D+00
     30  0.351057D+00 -0.775564D+00 -0.388723D+01  0.182603D-01 -0.381955D-01
     31 -0.441172D+01 -0.728206D-01 -0.345351D+00 -0.577357D-01 -0.114382D-01
     32 -0.778016D-01 -0.431732D+01  0.476095D+00  0.146932D-01  0.107114D+00
     33 -0.299073D+00  0.375203D+00 -0.181908D+01  0.109046D+00  0.259937D-01
     34 -0.662576D-01 -0.199376D-01  0.129155D-01 -0.392012D+01  0.102637D+01
     35 -0.200786D-01  0.113594D+00  0.297929D-01  0.111677D+01 -0.278201D+01
     36  0.267964D-01  0.328558D-01  0.783822D-01  0.380703D+00  0.620931D+00
     37 -0.609600D-01  0.370787D-01  0.840082D-01 -0.446247D+01  0.586144D-01
     38  0.158230D-01  0.576789D-01 -0.119918D-01  0.698040D-01 -0.442387D+01
     39  0.540390D-01 -0.333009D-01  0.996768D-01 -0.335000D+00 -0.137256D+00
     40  0.518806D-02  0.851973D-02 -0.374298D-02  0.137456D+00  0.882526D-01
     41 -0.354332D-01 -0.136123D-01 -0.223690D-02  0.263517D-01 -0.829218D-01
     42 -0.715783D-02  0.132504D-01 -0.168271D-01  0.130493D-01  0.728145D-01
     43  0.222115D-01 -0.327859D-01  0.415762D-01  0.125147D+00  0.713613D-01
     44 -0.323142D-01 -0.197949D-01 -0.204546D-01  0.611974D-01 -0.801767D-03
     45  0.610083D-01 -0.279602D-01  0.107471D-01 -0.547751D-01  0.186725D+00
     46  0.549544D-02 -0.411543D-02  0.239488D-02  0.544452D-01 -0.112976D+00
     47 -0.147949D-01 -0.674810D-03 -0.482681D-02 -0.132949D+00  0.794358D-01
     48  0.337559D-02 -0.183103D-02 -0.515625D-02  0.277609D-01 -0.249118D-01
     49  0.141999D-01 -0.115366D-01 -0.977026D-02 -0.675629D-02  0.151902D-01
[...]
     56  0.136619D-02  0.300411D-02  0.706327D-03 -0.438651D-02 -0.588715D-03
     57 -0.310766D-03 -0.138365D-03  0.111483D-03 -0.175464D-02  0.174895D-03
     58 -0.230463D-03  0.890265D-03  0.635465D-03 -0.287302D-02  0.552474D-02
     59 -0.413149D-05  0.686643D-03 -0.813494D-03 -0.125214D-02 -0.181015D-02
     60 -0.164639D-02 -0.347029D-02 -0.141541D-02  0.578989D-02 -0.197165D-02
     61  0.424699D-02  0.424165D-02 -0.145546D-02  0.892088D-02  0.547044D-02
     62 -0.198937D-02 -0.389284D-03 -0.279896D-02  0.158522D-03  0.503957D-02
     63 -0.378921D-02  0.687430D-02 -0.162708D-02  0.101943D-01  0.831148D-02
     64  0.612249D-02  0.733085D-02  0.199967D-02  0.863449D-02 -0.178938D-02
     65 -0.363536D-02  0.668018D-02 -0.516409D-02  0.973733D-02  0.535856D-02
     66  0.874224D-02  0.365289D-02  0.700531D-03 -0.484712D-02 -0.174128D-02
     67 -0.362107D-02  0.176498D-02 -0.121377D-02  0.690020D-02  0.424315D-03
     68  0.165017D-02 -0.924503D-03 -0.806960D-03 -0.182542D-02 -0.346279D-02
     69 -0.139240D-02 -0.721623D-04  0.257193D-03 -0.207476D-02 -0.189564D-02
               41            42            43            44            45 
     41  0.269808D+01
     42 -0.252180D+00  0.463151D+01
     43 -0.919539D-01 -0.140488D+00  0.416703D+01
     44  0.295739D-01 -0.174243D+00 -0.296373D-01  0.448810D+01
     45 -0.186450D+00 -0.951802D-01 -0.388323D-01  0.124967D-01  0.153073D+01
     46  0.129947D-01 -0.388575D-04 -0.976979D-02  0.158806D-01  0.138620D-01
     47  0.131547D-01 -0.162379D-02  0.167271D-01 -0.659715D-03 -0.560701D-02
     48  0.235462D-02  0.189601D-01  0.157680D-01 -0.127750D-01 -0.157348D-02
     49 -0.824854D-02  0.269643D-01 -0.114794D-01 -0.603178D-02 -0.532894D-01
     50  0.124727D-01  0.482829D-02 -0.959433D-02 -0.244920D-01  0.253022D-01
     51 -0.560496D-03 -0.399084D-02 -0.489082D-01  0.177546D-01  0.101261D+00
     52 -0.347582D-02 -0.927438D-03  0.279055D-02 -0.624880D-03  0.448012D-02
     53  0.302746D-02  0.704710D-03 -0.181809D-02 -0.579157D-03 -0.341830D-02
     54 -0.712182D-03 -0.701227D-03  0.122353D-02 -0.155269D-03  0.781384D-03
     55 -0.422563D-02 -0.331479D-03  0.223981D-02  0.700263D-03  0.412853D-02
     56 -0.508704D-02 -0.478402D-03  0.182193D-02 -0.290276D-03  0.370185D-02
     57 -0.147291D-02 -0.227328D-02  0.141020D-02  0.390694D-03  0.145155D-02
     58 -0.532654D-02 -0.392974D-02  0.307546D-02  0.131111D-03  0.258650D-02
     59 -0.206252D-02  0.809461D-03  0.219793D-03 -0.145416D-02  0.300466D-03
     60  0.651304D-02  0.426521D-03 -0.261739D-02 -0.203266D-03 -0.543859D-02
     61  0.527159D-02  0.257186D-02  0.309724D-01  0.159407D-01 -0.158116D-01
     62  0.131352D-02  0.166429D-02  0.158945D-01 -0.108401D-01 -0.556318D-02
     63  0.676617D-02  0.691350D-03  0.342976D-02  0.139497D-02 -0.229898D-01
     64 -0.830491D-03  0.149528D-03  0.177176D-02  0.481055D-02 -0.687396D-02
     65  0.538607D-02  0.588567D-03  0.749251D-02  0.214262D-02 -0.147387D-01
     66 -0.219887D-02 -0.955008D-03 -0.632566D-02 -0.531426D-02  0.622782D-02
     67  0.429256D-02  0.170230D-02  0.489079D-02  0.265584D-03 -0.108300D-01
     68 -0.102565D-02  0.585415D-03  0.864359D-04 -0.193629D-02  0.948902D-03
     69 -0.149560D-02 -0.146503D-03 -0.348747D-02 -0.119020D-03  0.347675D-02
               46            47            48            49            50 
     46  0.368531D+01
     47  0.848667D+00  0.172552D+01
     48 -0.274142D+00  0.695498D+00  0.374225D+01
     49  0.106326D+00  0.310691D-01 -0.623584D-01  0.413401D+01
     50  0.375211D-01  0.471028D-01  0.158714D+00  0.863697D-01  0.406085D+01
     51 -0.758531D-01  0.165557D+00 -0.135647D+00  0.495943D-01 -0.505557D+00
     52  0.178932D-02 -0.255708D-02  0.859252D-03  0.127245D-02 -0.737806D-03
     53 -0.167912D-02  0.207769D-02 -0.888435D-03 -0.100639D-02  0.137357D-03
     54  0.376306D-03 -0.607482D-03 -0.118560D-03 -0.358396D-04 -0.694528D-04
     55  0.202476D-02 -0.226030D-02  0.965864D-03  0.136635D-02 -0.206126D-03
     56  0.146279D-02 -0.242372D-02  0.854119D-03  0.100430D-02 -0.701893D-03
     57  0.798251D-03 -0.992129D-03  0.962292D-05  0.160149D-03 -0.721237D-04
     58  0.117492D-02 -0.134121D-02  0.175159D-03  0.721445D-03 -0.256211D-03
     59 -0.240775D-03 -0.354445D-03 -0.167008D-04 -0.343074D-04 -0.517634D-03
     60 -0.233035D-02  0.306770D-02 -0.129565D-02 -0.155830D-02  0.546045D-03
     61  0.649085D-02 -0.131246D-01 -0.596299D-02 -0.114964D-01  0.210855D-01
     62 -0.105352D-01 -0.173045D-01 -0.156285D-01  0.155463D-01 -0.530288D-02
     63 -0.692449D-02 -0.748647D-02  0.361782D-02  0.390072D-01  0.488294D-01
     64 -0.275895D-01  0.166099D-01 -0.384209D-02  0.832031D-02 -0.193656D-01
     65  0.474024D-02  0.113699D+00 -0.274774D-01 -0.132158D-01 -0.245299D-01
     66 -0.247490D-02 -0.285838D-01 -0.199737D-01 -0.518608D-02 -0.197545D-01
     67 -0.133406D-01 -0.238027D-01  0.409206D-02 -0.116487D-01 -0.934183D-02
     68 -0.268914D-01 -0.153902D-01  0.766677D-02 -0.995869D-02  0.346281D-02
     69  0.733051D-02  0.382862D-02  0.136887D-01 -0.117901D-01 -0.491466D-02
               51            52            53            54            55 
     51  0.155479D+01
     52 -0.292510D-02  0.264739D+01
     53  0.258215D-02  0.105525D+01  0.229103D+01
     54 -0.750948D-03 -0.308448D+00  0.292651D+00  0.362863D+01
     55 -0.292062D-02  0.107840D+00  0.441918D-02  0.106201D-01  0.271188D+01
     56 -0.268758D-02  0.123816D-01 -0.189179D+00 -0.266377D-01 -0.106341D+01
     57 -0.131605D-02  0.105809D-01 -0.988158D-02  0.929844D-01 -0.426398D+00
     58 -0.167176D-02  0.900763D-01  0.542983D-01 -0.991848D-01  0.695759D-01
     59 -0.700181D-04  0.798486D-01  0.216501D-01  0.181247D+00 -0.407229D-01
     60  0.374854D-02 -0.127640D+00  0.169068D+00 -0.990770D-01 -0.889485D-01
     61  0.493543D-01  0.122524D-02 -0.829854D-03  0.378631D-03  0.104704D-02
     62  0.495696D-01  0.311820D-03 -0.552199D-03  0.761312D-04  0.568933D-03
     63  0.809951D-01  0.223803D-02 -0.189875D-02  0.418969D-03  0.202259D-02
     64 -0.107112D-01  0.520113D-03 -0.104372D-03  0.314751D-04  0.338748D-03
     65 -0.120118D-01  0.229350D-02 -0.211134D-02  0.462217D-03  0.229230D-02
     66  0.415237D-02 -0.915101D-03  0.691659D-03 -0.515923D-03 -0.768974D-03
     67 -0.282430D-02  0.243092D-02 -0.214186D-02  0.525410D-03  0.228012D-02
     68 -0.658310D-02 -0.619435D-03  0.335227D-03 -0.123450D-03 -0.317020D-03
     69  0.172894D-02 -0.728670D-03  0.672252D-03 -0.366714D-03 -0.675622D-03
               56            57            58            59            60 
     56  0.203203D+01
     57 -0.528030D+00  0.329307D+01
     58 -0.274974D-01 -0.734281D-01  0.363223D+01
     59  0.426217D-01 -0.127854D+00 -0.993453D-01  0.365279D+01
     60 -0.115682D+00 -0.104940D+00  0.258773D+00  0.151593D+00  0.139937D+01
     61  0.102271D-02  0.514210D-03  0.838832D-03  0.240776D-03 -0.129239D-02
     62  0.286806D-03  0.264164D-03  0.283043D-03 -0.308228D-03 -0.561296D-03
     63  0.219575D-02  0.794135D-03  0.950950D-03  0.260271D-03 -0.283177D-02
     64  0.291012D-03  0.326475D-04  0.359088D-03  0.194878D-03 -0.382033D-03
     65  0.223773D-02  0.886133D-03  0.113209D-02  0.959199D-04 -0.296646D-02
     66 -0.868757D-03 -0.589909D-03 -0.593175D-03 -0.253469D-03  0.101129D-02
     67  0.239455D-02  0.940322D-03  0.113289D-02  0.226111D-03 -0.311302D-02
     68 -0.628059D-03 -0.173407D-03 -0.161095D-03 -0.290633D-03  0.636520D-03
     69 -0.732379D-03 -0.499572D-03 -0.415221D-03 -0.790218D-04  0.893389D-03
               61            62            63            64            65 
     61  0.356125D+01
     62 -0.570736D-01  0.378286D+01
     63 -0.398811D+00 -0.466885D+00  0.169197D+01
     64  0.124256D+00  0.303895D-01 -0.560260D-01  0.354274D+01
     65  0.549083D-01  0.523608D-01  0.194586D+00  0.308812D+00  0.170165D+01
     66 -0.974386D-01  0.190154D+00 -0.171394D+00 -0.711068D-01  0.799755D+00
     67  0.344390D-01  0.335462D-01  0.126372D+00 -0.393432D-01  0.148022D+00
     68  0.268493D-01  0.715716D-01 -0.494088D-01  0.140614D+00 -0.458418D-01
     69  0.127252D+00 -0.611690D-01 -0.986977D-01 -0.191084D-01  0.352361D-02
               66            67            68            69 
     66  0.351862D+01
     67 -0.674583D-02  0.137510D+01
     68 -0.948279D-02  0.433647D+00  0.344303D+01
     69  0.958894D-01  0.724585D+00 -0.130815D+00  0.322366D+01
 Leave Link  701 at Sun Sep 29 14:36:16 2019, MaxMem=   671088640 cpu:              44.3 elap:              22.2
 (Enter /shared/centos7/gaussian/g16/l702.exe)
 L702 exits ... SP integral derivatives will be done elsewhere.
 Leave Link  702 at Sun Sep 29 14:36:17 2019, MaxMem=   671088640 cpu:               2.0 elap:               1.0
 (Enter /shared/centos7/gaussian/g16/l703.exe)
 Integral derivatives from FoFJK, PRISM(SPDF).
 Compute integral second derivatives, UseDBF=F ICtDFT=           0.
 ICntrl=    100147.
 Calling FoFJK, ICntrl=    100147 FMM=F ISym2X=0 I1Cent= 0 IOpClX= 0 NMat=1 NMatS=1 NMatT=0.
 FoFJK:  IHMeth= 1 ICntrl=  100147 DoSepK=F KAlg= 0 I1Cent=           0 FoldK=F
 IRaf=         0 NMat=       1 IRICut=       1 DoRegI=T DoRafI=F ISym2E= 0 IDoP0=0 IntGTp=1.
 FoFCou: FMM=F IPFlag=           0 FMFlag=      100000 FMFlg1=         800
         NFxFlg=           0 DoJE=F BraDBF=F KetDBF=F FulRan=T
         wScrn=  0.000000 ICntrl=    100147 IOpCl=  0 I1Cent=           0 NGrid=           0
         NMat0=    1 NMatS0=      1 NMatT0=    0 NMatD0=    1 NMtDS0=    0 NMtDT0=    0
 Symmetry not used in FoFCou.
 FoFCou:  KetSym=F NOpSet=  1 NOpAb=1 NOp=  1.
 FoFCou:  CnvScl= 1.00D+00 Thresh= 1.00D-08 IAcrcy=      12.
 PrismS was handed   670013661 working-precision words and 12436 shell-pairs
 FoFCou: LinMIO=F DoNuc=F BraDBF=F KetDBF=F HaveP=T PDBF=F HaveZ=T HaveW=F
         NIJTC =      10 NIJTAt=       0 NIJTCD=       0 NIJTT =      10
         IJTBeg=       1 IJTEnd=      10 KLTBeg=       1 KLTEnd=      10
         IPTBeg=       1 IPTEnd=      10 IPTBCv=       1 IPTECv=      10
         IZTBeg=       1 IZTEnd=      10 IZTBCv=       1 IZTECv=      10
         IWTBeg=      11 IWTEnd=      10 IWTBCv=      11 IWTECv=      10
         INTBeg=       1 INTEnd=       0 IFTBCv=       1 IFTECv=      10
 NCel replicated for PrismC:     1
 CoulSu-InSpLW:  IPartL=    0 NPrtUS=   20 NPrtUL=    1 DoSpLW=F IThBeg=    0 IThEnd=   19 NThAct=   20.
 CoulSu:  IncDef=  1024 NBBP=       77333266 NTPThr=   100 NPartT=   20 Incr=        1024 LDynOK=F GPUOK=T.
 CoulSu:  NPrtUS=  20 ThrOK=T IAlg=1 NPAlg=1 LenDen=           0 LWGrdD=           0 DoCopy=F ISkipM=0
          DoSpLW=F IThBeg=    0 IThEnd=   19.
 Enter PrismC:  IPart=  0 JobTyp=22 DoJE=F Cont=F.
 PrismC:  IPart=     0 DynPar=T LinDyn=F Incr=        1024 UseFst=F UseS4=T ISplat=2.
 PrismC was handed    33274064 working-precision words and 12436 shell-pairs
 Enter PrismC:  IPart=  4 JobTyp=22 DoJE=F Cont=F.
 PrismC:  IPart=     4 DynPar=T LinDyn=F Incr=        1024 UseFst=F UseS4=T ISplat=2.
 PrismC was handed    33274064 working-precision words and 12436 shell-pairs
 Enter PrismC:  IPart= 14 JobTyp=22 DoJE=F Cont=F.
 Enter PrismC:  IPart= 10 JobTyp=22 DoJE=F Cont=F.
 PrismC:  IPart=    14 DynPar=T LinDyn=F Incr=        1024 UseFst=F UseS4=T ISplat=2.
 PrismC was handed    33274064 working-precision words and 12436 shell-pairs
 PrismC:  IPart=    10 DynPar=T LinDyn=F Incr=        1024 UseFst=F UseS4=T ISplat=2.
 PrismC was handed    33274064 working-precision words and 12436 shell-pairs
 Enter PrismC:  IPart= 17 JobTyp=22 DoJE=F Cont=F.
 PrismC:  IPart=    17 DynPar=T LinDyn=F Incr=        1024 UseFst=F UseS4=T ISplat=2.
 PrismC was handed    33274064 working-precision words and 12436 shell-pairs
 Enter PrismC:  IPart= 15 JobTyp=22 DoJE=F Cont=F.
 PrismC:  IPart=    15 DynPar=T LinDyn=F Incr=        1024 UseFst=F UseS4=T ISplat=2.
 PrismC was handed    33274064 working-precision words and 12436 shell-pairs
 Enter PrismC:  IPart= 18 JobTyp=22 DoJE=F Cont=F.
 Enter PrismC:  IPart= 11 JobTyp=22 DoJE=F Cont=F.
 PrismC:  IPart=    18 DynPar=T LinDyn=F Incr=        1024 UseFst=F UseS4=T ISplat=2.
 PrismC was handed    33274064 working-precision words and 12436 shell-pairs
 PrismC:  IPart=    11 DynPar=T LinDyn=F Incr=        1024 UseFst=F UseS4=T ISplat=2.
 PrismC was handed    33274064 working-precision words and 12436 shell-pairs
 Enter PrismC:  IPart= 12 JobTyp=22 DoJE=F Cont=F.
 Enter PrismC:  IPart=  7 JobTyp=22 DoJE=F Cont=F.
 PrismC:  IPart=     7 DynPar=T LinDyn=F Incr=        1024 UseFst=F UseS4=T ISplat=2.
 PrismC was handed    33274064 working-precision words and 12436 shell-pairs
 PrismC:  IPart=    12 DynPar=T LinDyn=F Incr=        1024 UseFst=F UseS4=T ISplat=2.
 PrismC was handed    33274064 working-precision words and 12436 shell-pairs
 Enter PrismC:  IPart=  5 JobTyp=22 DoJE=F Cont=F.
 PrismC:  IPart=     5 DynPar=T LinDyn=F Incr=        1024 UseFst=F UseS4=T ISplat=2.
 PrismC was handed    33274064 working-precision words and 12436 shell-pairs
 Enter PrismC:  IPart= 13 JobTyp=22 DoJE=F Cont=F.
 PrismC:  IPart=    13 DynPar=T LinDyn=F Incr=        1024 UseFst=F UseS4=T ISplat=2.
 PrismC was handed    33274064 working-precision words and 12436 shell-pairs
 Enter PrismC:  IPart=  6 JobTyp=22 DoJE=F Cont=F.
 PrismC:  IPart=     6 DynPar=T LinDyn=F Incr=        1024 UseFst=F UseS4=T ISplat=2.
 PrismC was handed    33274064 working-precision words and 12436 shell-pairs
 Enter PrismC:  IPart=  9 JobTyp=22 DoJE=F Cont=F.
 PrismC:  IPart=     9 DynPar=T LinDyn=F Incr=        1024 UseFst=F UseS4=T ISplat=2.
 PrismC was handed    33274064 working-precision words and 12436 shell-pairs
 Enter PrismC:  IPart=  3 JobTyp=22 DoJE=F Cont=F.
 PrismC:  IPart=     3 DynPar=T LinDyn=F Incr=        1024 UseFst=F UseS4=T ISplat=2.
 PrismC was handed    33274064 working-precision words and 12436 shell-pairs
 Enter PrismC:  IPart= 19 JobTyp=22 DoJE=F Cont=F.
 PrismC:  IPart=    19 DynPar=T LinDyn=F Incr=        1024 UseFst=F UseS4=T ISplat=2.
 PrismC was handed    33274064 working-precision words and 12436 shell-pairs
 Enter PrismC:  IPart=  2 JobTyp=22 DoJE=F Cont=F.
 PrismC:  IPart=     2 DynPar=T LinDyn=F Incr=        1024 UseFst=F UseS4=T ISplat=2.
 PrismC was handed    33274064 working-precision words and 12436 shell-pairs
 Enter PrismC:  IPart= 16 JobTyp=22 DoJE=F Cont=F.
 PrismC:  IPart=    16 DynPar=T LinDyn=F Incr=        1024 UseFst=F UseS4=T ISplat=2.
 PrismC was handed    33274064 working-precision words and 12436 shell-pairs
 Enter PrismC:  IPart=  1 JobTyp=22 DoJE=F Cont=F.
 PrismC:  IPart=     1 DynPar=T LinDyn=F Incr=        1024 UseFst=F UseS4=T ISplat=2.
 PrismC was handed    33274064 working-precision words and 12436 shell-pairs
 Enter PrismC:  IPart=  8 JobTyp=22 DoJE=F Cont=F.
 PrismC:  IPart=     8 DynPar=T LinDyn=F Incr=        1024 UseFst=F UseS4=T ISplat=2.
 PrismC was handed    33274064 working-precision words and 12436 shell-pairs
 IPart=  1 NShTot=     1905775 NShNF=     1905775 NShFF=           0 MinMC=       7
           NShCPU=     1905775 NBCPU=       72890 AvBCPU=        26.1
           NShGPU=           0 NBGPU=           0 AvBGPU=         0.0
 IPart= 11 NShTot=     1923638 NShNF=     1923638 NShFF=           0 MinMC=       7
           NShCPU=     1923638 NBCPU=       73864 AvBCPU=        26.0
           NShGPU=           0 NBGPU=           0 AvBGPU=         0.0
 IPart= 17 NShTot=     1913429 NShNF=     1913429 NShFF=           0 MinMC=       7
           NShCPU=     1913429 NBCPU=       74137 AvBCPU=        25.8
           NShGPU=           0 NBGPU=           0 AvBGPU=         0.0
 IPart= 19 NShTot=     1933087 NShNF=     1933087 NShFF=           0 MinMC=       7
           NShCPU=     1933087 NBCPU=       74047 AvBCPU=        26.1
           NShGPU=           0 NBGPU=           0 AvBGPU=         0.0
 IPart= 16 NShTot=     1903349 NShNF=     1903349 NShFF=           0 MinMC=       7
           NShCPU=     1903349 NBCPU=       72794 AvBCPU=        26.1
           NShGPU=           0 NBGPU=           0 AvBGPU=         0.0
 IPart=  0 NShTot=     1906542 NShNF=     1906542 NShFF=           0 MinMC=       7
           NShCPU=     1906542 NBCPU=       73641 AvBCPU=        25.9
           NShGPU=           0 NBGPU=           0 AvBGPU=         0.0
 IPart=  8 NShTot=     1894148 NShNF=     1894148 NShFF=           0 MinMC=       7
           NShCPU=     1894148 NBCPU=       73465 AvBCPU=        25.8
           NShGPU=           0 NBGPU=           0 AvBGPU=         0.0
 IPart=  7 NShTot=     1924464 NShNF=     1924464 NShFF=           0 MinMC=       7
           NShCPU=     1924464 NBCPU=       73417 AvBCPU=        26.2
           NShGPU=           0 NBGPU=           0 AvBGPU=         0.0
 IPart= 10 NShTot=     1898831 NShNF=     1898831 NShFF=           0 MinMC=       7
           NShCPU=     1898831 NBCPU=       73291 AvBCPU=        25.9
           NShGPU=           0 NBGPU=           0 AvBGPU=         0.0
 IPart= 18 NShTot=     1886451 NShNF=     1886451 NShFF=           0 MinMC=       7
           NShCPU=     1886451 NBCPU=       72845 AvBCPU=        25.9
           NShGPU=           0 NBGPU=           0 AvBGPU=         0.0
 IPart=  3 NShTot=     1878582 NShNF=     1878582 NShFF=           0 MinMC=       7
           NShCPU=     1878582 NBCPU=       73070 AvBCPU=        25.7
           NShGPU=           0 NBGPU=           0 AvBGPU=         0.0
 IPart= 12 NShTot=     1898873 NShNF=     1898873 NShFF=           0 MinMC=       7
           NShCPU=     1898873 NBCPU=       73424 AvBCPU=        25.9
           NShGPU=           0 NBGPU=           0 AvBGPU=         0.0
 IPart=  6 NShTot=     1883762 NShNF=     1883762 NShFF=           0 MinMC=       7
           NShCPU=     1883762 NBCPU=       72853 AvBCPU=        25.9
           NShGPU=           0 NBGPU=           0 AvBGPU=         0.0
 IPart= 14 NShTot=     1893403 NShNF=     1893403 NShFF=           0 MinMC=       7
           NShCPU=     1893403 NBCPU=       72864 AvBCPU=        26.0
           NShGPU=           0 NBGPU=           0 AvBGPU=         0.0
 IPart=  5 NShTot=     1924054 NShNF=     1924054 NShFF=           0 MinMC=       7
           NShCPU=     1924054 NBCPU=       73839 AvBCPU=        26.1
           NShGPU=           0 NBGPU=           0 AvBGPU=         0.0
 IPart=  2 NShTot=     1919987 NShNF=     1919987 NShFF=           0 MinMC=       7
           NShCPU=     1919987 NBCPU=       73761 AvBCPU=        26.0
           NShGPU=           0 NBGPU=           0 AvBGPU=         0.0
 IPart= 13 NShTot=     1918314 NShNF=     1918314 NShFF=           0 MinMC=       7
           NShCPU=     1918314 NBCPU=       73744 AvBCPU=        26.0
           NShGPU=           0 NBGPU=           0 AvBGPU=         0.0
 IPart=  4 NShTot=     1888964 NShNF=     1888964 NShFF=           0 MinMC=       7
           NShCPU=     1888964 NBCPU=       73404 AvBCPU=        25.7
           NShGPU=           0 NBGPU=           0 AvBGPU=         0.0
 IPart=  9 NShTot=     1918343 NShNF=     1918343 NShFF=           0 MinMC=       7
           NShCPU=     1918343 NBCPU=       73565 AvBCPU=        26.1
           NShGPU=           0 NBGPU=           0 AvBGPU=         0.0
 IPart= 15 NShTot=     1917107 NShNF=     1917107 NShFF=           0 MinMC=       7
           NShCPU=     1917107 NBCPU=       74355 AvBCPU=        25.8
           NShGPU=           0 NBGPU=           0 AvBGPU=         0.0
 CoulSu:  NxtVal=       83682305 LenVP=       33274065 MinMC=       7.
 ReadGW:  IGet=0 IStart=           1 Next=           1 LGW=           0.
 Remaining memory in FofDFT      639.77 Mw
 CkSvGd:  ISavGI=        -1 IRadAn=       5 IRASav=       5 ISavGd=        -1.
 CalDSu-InSpLW:  IPartL=    0 NPrtUS=   20 NPrtUL=    1 DoSpLW=F IThBeg=    0 IThEnd=   19 NThAct=   20.
 CalDSu:  NPrtUS=  20 ThrOK=T IAlg=1 NPAlg=2 DoDPD=T LenP=      117855 LenD1P=             0 GPUOK=F
          ISkipM=0 DoSpLW=F IThBeg=    0 IThEnd=   19.
 IPart=  0 IRanGd=          0 ScrnBf=T ScrnGd=T RCrit=4.00D+00 DoMicB=T.
