 Entering Gaussian System, Link 0=g16
 Input=verytight/species/CCCCCCC/conformers/CCCCCCC_126.com
 Output=verytight/species/CCCCCCC/conformers/CCCCCCC_126.log
 Initial command:
 /shared/centos7/gaussian/g16/l1.exe "/scratch/harms.n/gauss_scrdir/Gau-3277.inp" -scrdir="/scratch/harms.n/gauss_scrdir/"
 Entering Link 1 = /shared/centos7/gaussian/g16/l1.exe PID=      3278.
  
 Copyright (c) 1988,1990,1992,1993,1995,1998,2003,2009,2016,
            Gaussian, Inc.  All Rights Reserved.
  
 This is part of the Gaussian(R) 16 program.  It is based on
 the Gaussian(R) 09 system (copyright 2009, Gaussian, Inc.),
 the Gaussian(R) 03 system (copyright 2003, Gaussian, Inc.),
 the Gaussian(R) 98 system (copyright 1998, Gaussian, Inc.),
 the Gaussian(R) 94 system (copyright 1995, Gaussian, Inc.),
 the Gaussian 92(TM) system (copyright 1992, Gaussian, Inc.),
 the Gaussian 90(TM) system (copyright 1990, Gaussian, Inc.),
 the Gaussian 88(TM) system (copyright 1988, Gaussian, Inc.),
 the Gaussian 86(TM) system (copyright 1986, Carnegie Mellon
 University), and the Gaussian 82(TM) system (copyright 1983,
 Carnegie Mellon University). Gaussian is a federally registered
 trademark of Gaussian, Inc.
  
 This software contains proprietary and confidential information,
 including trade secrets, belonging to Gaussian, Inc.
  
 This software is provided under written license and may be
 used, copied, transmitted, or stored only in accord with that
 written license.
  
 The following legend is applicable only to US Government
 contracts under FAR:
  
                    RESTRICTED RIGHTS LEGEND
  
 Use, reproduction and disclosure by the US Government is
 subject to restrictions as set forth in subparagraphs (a)
 and (c) of the Commercial Computer Software - Restricted
 Rights clause in FAR 52.227-19.
  
 Gaussian, Inc.
 340 Quinnipiac St., Bldg. 40, Wallingford CT 06492
  
  
 ---------------------------------------------------------------
 Warning -- This program may not be used in any manner that
 competes with the business of Gaussian, Inc. or will provide
 assistance to any competitor of Gaussian, Inc.  The licensee
 of this program is prohibited from giving any competitor of
 Gaussian, Inc. access to this program.  By using this program,
 the user acknowledges that Gaussian, Inc. is engaged in the
 business of creating and licensing software in the field of
 computational chemistry and represents and warrants to the
 licensee that it is not a competitor of Gaussian, Inc. and that
 it will not use this program in any manner prohibited above.
 ---------------------------------------------------------------
  

 Cite this work as:
 Gaussian 16, Revision A.03,
 M. J. Frisch, G. W. Trucks, H. B. Schlegel, G. E. Scuseria, 
 M. A. Robb, J. R. Cheeseman, G. Scalmani, V. Barone, 
 G. A. Petersson, H. Nakatsuji, X. Li, M. Caricato, A. V. Marenich, 
 J. Bloino, B. G. Janesko, R. Gomperts, B. Mennucci, H. P. Hratchian, 
 J. V. Ortiz, A. F. Izmaylov, J. L. Sonnenberg, D. Williams-Young, 
 F. Ding, F. Lipparini, F. Egidi, J. Goings, B. Peng, A. Petrone, 
 T. Henderson, D. Ranasinghe, V. G. Zakrzewski, J. Gao, N. Rega, 
 G. Zheng, W. Liang, M. Hada, M. Ehara, K. Toyota, R. Fukuda, 
 J. Hasegawa, M. Ishida, T. Nakajima, Y. Honda, O. Kitao, H. Nakai, 
 T. Vreven, K. Throssell, J. A. Montgomery, Jr., J. E. Peralta, 
 F. Ogliaro, M. J. Bearpark, J. J. Heyd, E. N. Brothers, K. N. Kudin, 
 V. N. Staroverov, T. A. Keith, R. Kobayashi, J. Normand, 
 K. Raghavachari, A. P. Rendell, J. C. Burant, S. S. Iyengar, 
 J. Tomasi, M. Cossi, J. M. Millam, M. Klene, C. Adamo, R. Cammi, 
 J. W. Ochterski, R. L. Martin, K. Morokuma, O. Farkas, 
 J. B. Foresman, and D. J. Fox, Gaussian, Inc., Wallingford CT, 2016.
 
 ******************************************
 Gaussian 16:  EM64L-G16RevA.03 25-Dec-2016
                29-Sep-2019 
 ******************************************
 %nprocshared=20
 Will use up to   20 processors via shared memory.
 %mem=5GB
 ----------------------------------------------------------------------
 #p m062x/cc-pVTZ opt=(calcfc,maxcycles=900,Tight) freq IOP(7/33=1,2/16
 =3) scf=(maxcycle=900)
 ----------------------------------------------------------------------
 1/6=900,7=10,10=4,18=20,19=15,26=3,38=1/1,3;
 2/9=110,12=2,16=3,17=6,18=5,40=1/2;
 3/5=16,6=1,11=2,25=1,30=1,71=2,74=-55,140=1/1,2,3;
 4//1;
 5/5=2,7=900,38=5/2;
 8/6=4,10=90,11=11/1;
 11/6=1,8=1,9=11,15=111,16=1/1,2,10;
 10/6=1,13=1/2;
 6/7=2,8=2,9=2,10=2,28=1/1;
 7/10=1,18=20,25=1,33=1/1,2,3,16;
 1/6=900,7=10,10=4,18=20,19=15,26=3/3(2);
 2/9=110,16=3/2;
 99//99;
 2/9=110,16=3/2;
 3/5=16,6=1,11=2,25=1,30=1,71=1,74=-55/1,2,3;
 4/5=5,16=3,69=1/1;
 5/5=2,7=900,38=5/2;
 7/33=1/1,2,3,16;
 1/6=900,7=10,18=20,19=15,26=3/3(-5);
 2/9=110,16=3/2;
 6/7=2,8=2,9=2,10=2,19=2,28=1/1;
 99/9=1/99;
 Leave Link    1 at Sun Sep 29 13:34:51 2019, MaxMem=   671088640 cpu:               3.8 elap:               1.9
 (Enter /shared/centos7/gaussian/g16/l101.exe)
 ------------------------------
 Gaussian input prepared by ASE
 ------------------------------
 Symbolic Z-matrix:
 Charge =  0 Multiplicity = 1
 C                     1.03168  -0.94532   0.5218 
 C                    -0.24631  -0.1815    0.44911 
 C                    -0.94125  -0.2434   -0.88813 
 C                     2.07787  -0.50868  -0.44766 
 C                    -1.29816  -1.63858  -1.34396 
 C                     2.50188   0.89488  -0.30692 
 C                    -2.22137  -2.3762   -0.40933 
 H                     1.70249  -0.67699  -1.49643 
 H                     2.96736  -1.17379  -0.33729 
 H                     0.82346  -2.02397   0.35834 
 H                     1.43347  -0.86779   1.55292 
 H                    -0.05678   0.87481   0.69605 
 H                    -0.93511  -0.5617    1.23286 
 H                    -0.29892   0.22354  -1.65397 
 H                    -1.86294   0.37236  -0.83829 
 H                    -1.78103  -1.57407  -2.354 
 H                    -0.3755   -2.22818  -1.47941 
 H                     2.93725   1.08975   0.69126 
 H                     3.28677   1.15507  -1.0775 
 H                     1.64999   1.59359  -0.44685 
 H                    -3.16686  -1.84671  -0.28569 
 H                    -1.75344  -2.49898   0.60645 
 H                    -2.44657  -3.40602  -0.81013 
 
 ITRead=  0  0  0  0  0  0  0  0  0  0  0  0  0  0  0  0  0  0  0  0
 ITRead=  0  0  0
 MicOpt= -1 -1 -1 -1 -1 -1 -1 -1 -1 -1 -1 -1 -1 -1 -1 -1 -1 -1 -1 -1
 MicOpt= -1 -1 -1
 NAtoms=     23 NQM=       23 NQMF=       0 NMMI=      0 NMMIF=      0
                NMic=       0 NMicF=      0.
                    Isotopes and Nuclear Properties:
 (Nuclear quadrupole moments (NQMom) in fm**2, nuclear magnetic moments (NMagM)
  in nuclear magnetons)

  Atom         1           2           3           4           5           6           7           8           9          10
 IAtWgt=          12          12          12          12          12          12          12           1           1           1
 AtmWgt=  12.0000000  12.0000000  12.0000000  12.0000000  12.0000000  12.0000000  12.0000000   1.0078250   1.0078250   1.0078250
 NucSpn=           0           0           0           0           0           0           0           1           1           1
 AtZEff=  -0.0000000  -0.0000000  -0.0000000  -0.0000000  -0.0000000  -0.0000000  -0.0000000  -0.0000000  -0.0000000  -0.0000000
 NQMom=    0.0000000   0.0000000   0.0000000   0.0000000   0.0000000   0.0000000   0.0000000   0.0000000   0.0000000   0.0000000
 NMagM=    0.0000000   0.0000000   0.0000000   0.0000000   0.0000000   0.0000000   0.0000000   2.7928460   2.7928460   2.7928460
 AtZNuc=   6.0000000   6.0000000   6.0000000   6.0000000   6.0000000   6.0000000   6.0000000   1.0000000   1.0000000   1.0000000

  Atom        11          12          13          14          15          16          17          18          19          20
 IAtWgt=           1           1           1           1           1           1           1           1           1           1
 AtmWgt=   1.0078250   1.0078250   1.0078250   1.0078250   1.0078250   1.0078250   1.0078250   1.0078250   1.0078250   1.0078250
 NucSpn=           1           1           1           1           1           1           1           1           1           1
 AtZEff=  -0.0000000  -0.0000000  -0.0000000  -0.0000000  -0.0000000  -0.0000000  -0.0000000  -0.0000000  -0.0000000  -0.0000000
 NQMom=    0.0000000   0.0000000   0.0000000   0.0000000   0.0000000   0.0000000   0.0000000   0.0000000   0.0000000   0.0000000
 NMagM=    2.7928460   2.7928460   2.7928460   2.7928460   2.7928460   2.7928460   2.7928460   2.7928460   2.7928460   2.7928460
 AtZNuc=   1.0000000   1.0000000   1.0000000   1.0000000   1.0000000   1.0000000   1.0000000   1.0000000   1.0000000   1.0000000

  Atom        21          22          23
 IAtWgt=           1           1           1
 AtmWgt=   1.0078250   1.0078250   1.0078250
 NucSpn=           1           1           1
 AtZEff=  -0.0000000  -0.0000000  -0.0000000
 NQMom=    0.0000000   0.0000000   0.0000000
 NMagM=    2.7928460   2.7928460   2.7928460
 AtZNuc=   1.0000000   1.0000000   1.0000000
 Leave Link  101 at Sun Sep 29 13:34:55 2019, MaxMem=   671088640 cpu:               6.9 elap:               3.5
 (Enter /shared/centos7/gaussian/g16/l103.exe)

 GradGradGradGradGradGradGradGradGradGradGradGradGradGradGradGradGradGrad
 Berny optimization.
 Initialization pass.
                           ----------------------------
                           !    Initial Parameters    !
                           ! (Angstroms and Degrees)  !
 --------------------------                            --------------------------
 ! Name  Definition              Value          Derivative Info.                !
 --------------------------------------------------------------------------------
 ! R1    R(1,2)                  1.4906         calculate D2E/DX2 analytically  !
 ! R2    R(1,4)                  1.4917         calculate D2E/DX2 analytically  !
 ! R3    R(1,10)                 1.1107         calculate D2E/DX2 analytically  !
 ! R4    R(1,11)                 1.1093         calculate D2E/DX2 analytically  !
 ! R5    R(2,3)                  1.5083         calculate D2E/DX2 analytically  !
 ! R6    R(2,12)                 1.1012         calculate D2E/DX2 analytically  !
 ! R7    R(2,13)                 1.1105         calculate D2E/DX2 analytically  !
 ! R8    R(3,5)                  1.5105         calculate D2E/DX2 analytically  !
 ! R9    R(3,14)                 1.1032         calculate D2E/DX2 analytically  !
 ! R10   R(3,15)                 1.1096         calculate D2E/DX2 analytically  !
 ! R11   R(4,6)                  1.473          calculate D2E/DX2 analytically  !
 ! R12   R(4,8)                  1.1266         calculate D2E/DX2 analytically  !
 ! R13   R(4,9)                  1.1161         calculate D2E/DX2 analytically  !
 ! R14   R(5,7)                  1.5066         calculate D2E/DX2 analytically  !
 ! R15   R(5,16)                 1.1214         calculate D2E/DX2 analytically  !
 ! R16   R(5,17)                 1.1033         calculate D2E/DX2 analytically  !
 ! R17   R(6,18)                 1.1063         calculate D2E/DX2 analytically  !
 ! R18   R(6,19)                 1.1303         calculate D2E/DX2 analytically  !
 ! R19   R(6,20)                 1.1106         calculate D2E/DX2 analytically  !
 ! R20   R(7,21)                 1.0907         calculate D2E/DX2 analytically  !
 ! R21   R(7,22)                 1.1251         calculate D2E/DX2 analytically  !
 ! R22   R(7,23)                 1.1278         calculate D2E/DX2 analytically  !
 ! A1    A(2,1,4)              114.8109         calculate D2E/DX2 analytically  !
 ! A2    A(2,1,10)             109.2529         calculate D2E/DX2 analytically  !
 ! A3    A(2,1,11)             108.6656         calculate D2E/DX2 analytically  !
 ! A4    A(4,1,10)             108.6702         calculate D2E/DX2 analytically  !
 ! A5    A(4,1,11)             109.2455         calculate D2E/DX2 analytically  !
 ! A6    A(10,1,11)            105.8167         calculate D2E/DX2 analytically  !
 ! A7    A(1,2,3)              114.6597         calculate D2E/DX2 analytically  !
 ! A8    A(1,2,12)             109.4521         calculate D2E/DX2 analytically  !
 ! A9    A(1,2,13)             108.7791         calculate D2E/DX2 analytically  !
 ! A10   A(3,2,12)             108.51           calculate D2E/DX2 analytically  !
 ! A11   A(3,2,13)             109.0189         calculate D2E/DX2 analytically  !
 ! A12   A(12,2,13)            106.0752         calculate D2E/DX2 analytically  !
 ! A13   A(2,3,5)              114.4758         calculate D2E/DX2 analytically  !
 ! A14   A(2,3,14)             109.2579         calculate D2E/DX2 analytically  !
 ! A15   A(2,3,15)             108.6707         calculate D2E/DX2 analytically  !
 ! A16   A(5,3,14)             108.6032         calculate D2E/DX2 analytically  !
 ! A17   A(5,3,15)             109.26           calculate D2E/DX2 analytically  !
 ! A18   A(14,3,15)            106.2565         calculate D2E/DX2 analytically  !
 ! A19   A(1,4,6)              114.7543         calculate D2E/DX2 analytically  !
 ! A20   A(1,4,8)              109.1242         calculate D2E/DX2 analytically  !
 ! A21   A(1,4,9)              108.6776         calculate D2E/DX2 analytically  !
 ! A22   A(6,4,8)              109.1012         calculate D2E/DX2 analytically  !
 ! A23   A(6,4,9)              109.206          calculate D2E/DX2 analytically  !
 ! A24   A(8,4,9)              105.5795         calculate D2E/DX2 analytically  !
 ! A25   A(3,5,7)              114.1911         calculate D2E/DX2 analytically  !
 ! A26   A(3,5,16)             108.6877         calculate D2E/DX2 analytically  !
 ! A27   A(3,5,17)             109.4537         calculate D2E/DX2 analytically  !
 ! A28   A(7,5,16)             108.8474         calculate D2E/DX2 analytically  !
 ! A29   A(7,5,17)             109.0853         calculate D2E/DX2 analytically  !
 ! A30   A(16,5,17)            106.2758         calculate D2E/DX2 analytically  !
 ! A31   A(4,6,18)             111.5523         calculate D2E/DX2 analytically  !
 ! A32   A(4,6,19)             110.7387         calculate D2E/DX2 analytically  !
 ! A33   A(4,6,20)             111.508          calculate D2E/DX2 analytically  !
 ! A34   A(18,6,19)            107.5361         calculate D2E/DX2 analytically  !
 ! A35   A(18,6,20)            107.7416         calculate D2E/DX2 analytically  !
 ! A36   A(19,6,20)            107.5733         calculate D2E/DX2 analytically  !
 ! A37   A(5,7,21)             111.3365         calculate D2E/DX2 analytically  !
 ! A38   A(5,7,22)             111.0169         calculate D2E/DX2 analytically  !
 ! A39   A(5,7,23)             110.4235         calculate D2E/DX2 analytically  !
 ! A40   A(21,7,22)            108.1299         calculate D2E/DX2 analytically  !
 ! A41   A(21,7,23)            108.0883         calculate D2E/DX2 analytically  !
 ! A42   A(22,7,23)            107.713          calculate D2E/DX2 analytically  !
 ! D1    D(4,1,2,3)             59.7047         calculate D2E/DX2 analytically  !
 ! D2    D(4,1,2,12)           -62.4778         calculate D2E/DX2 analytically  !
 ! D3    D(4,1,2,13)          -177.9618         calculate D2E/DX2 analytically  !
 ! D4    D(10,1,2,3)           -62.6414         calculate D2E/DX2 analytically  !
 ! D5    D(10,1,2,12)          175.1761         calculate D2E/DX2 analytically  !
 ! D6    D(10,1,2,13)           59.6921         calculate D2E/DX2 analytically  !
 ! D7    D(11,1,2,3)          -177.6482         calculate D2E/DX2 analytically  !
 ! D8    D(11,1,2,12)           60.1694         calculate D2E/DX2 analytically  !
 ! D9    D(11,1,2,13)          -55.3147         calculate D2E/DX2 analytically  !
 ! D10   D(2,1,4,6)             59.9702         calculate D2E/DX2 analytically  !
 ! D11   D(2,1,4,8)            -62.801          calculate D2E/DX2 analytically  !
 ! D12   D(2,1,4,9)           -177.4644         calculate D2E/DX2 analytically  !
 ! D13   D(10,1,4,6)          -177.3695         calculate D2E/DX2 analytically  !
 ! D14   D(10,1,4,8)            59.8593         calculate D2E/DX2 analytically  !
 ! D15   D(10,1,4,9)           -54.8041         calculate D2E/DX2 analytically  !
 ! D16   D(11,1,4,6)           -62.3642         calculate D2E/DX2 analytically  !
 ! D17   D(11,1,4,8)           174.8646         calculate D2E/DX2 analytically  !
 ! D18   D(11,1,4,9)            60.2012         calculate D2E/DX2 analytically  !
 ! D19   D(1,2,3,5)             58.7693         calculate D2E/DX2 analytically  !
 ! D20   D(1,2,3,14)           -63.2582         calculate D2E/DX2 analytically  !
 ! D21   D(1,2,3,15)          -178.7931         calculate D2E/DX2 analytically  !
 ! D22   D(12,2,3,5)          -178.5384         calculate D2E/DX2 analytically  !
 ! D23   D(12,2,3,14)           59.4341         calculate D2E/DX2 analytically  !
 ! D24   D(12,2,3,15)          -56.1007         calculate D2E/DX2 analytically  !
 ! D25   D(13,2,3,5)           -63.4341         calculate D2E/DX2 analytically  !
 ! D26   D(13,2,3,14)          174.5383         calculate D2E/DX2 analytically  !
 ! D27   D(13,2,3,15)           59.0035         calculate D2E/DX2 analytically  !
 ! D28   D(2,3,5,7)             59.8218         calculate D2E/DX2 analytically  !
 ! D29   D(2,3,5,16)          -178.4556         calculate D2E/DX2 analytically  !
 ! D30   D(2,3,5,17)           -62.7822         calculate D2E/DX2 analytically  !
 ! D31   D(14,3,5,7)          -177.7942         calculate D2E/DX2 analytically  !
 ! D32   D(14,3,5,16)          -56.0716         calculate D2E/DX2 analytically  !
 ! D33   D(14,3,5,17)           59.6018         calculate D2E/DX2 analytically  !
 ! D34   D(15,3,5,7)           -62.2952         calculate D2E/DX2 analytically  !
 ! D35   D(15,3,5,16)           59.4274         calculate D2E/DX2 analytically  !
 ! D36   D(15,3,5,17)          175.1009         calculate D2E/DX2 analytically  !
 ! D37   D(1,4,6,18)            60.753          calculate D2E/DX2 analytically  !
 ! D38   D(1,4,6,19)          -179.5144         calculate D2E/DX2 analytically  !
 ! D39   D(1,4,6,20)           -59.7643         calculate D2E/DX2 analytically  !
 ! D40   D(8,4,6,18)          -176.4634         calculate D2E/DX2 analytically  !
 ! D41   D(8,4,6,19)           -56.7308         calculate D2E/DX2 analytically  !
 ! D42   D(8,4,6,20)            63.0194         calculate D2E/DX2 analytically  !
 ! D43   D(9,4,6,18)           -61.5269         calculate D2E/DX2 analytically  !
 ! D44   D(9,4,6,19)            58.2057         calculate D2E/DX2 analytically  !
 ! D45   D(9,4,6,20)           177.9558         calculate D2E/DX2 analytically  !
 ! D46   D(3,5,7,21)            59.8408         calculate D2E/DX2 analytically  !
 ! D47   D(3,5,7,22)           -60.6868         calculate D2E/DX2 analytically  !
 ! D48   D(3,5,7,23)           179.9162         calculate D2E/DX2 analytically  !
 ! D49   D(16,5,7,21)          -61.7939         calculate D2E/DX2 analytically  !
 ! D50   D(16,5,7,22)          177.6785         calculate D2E/DX2 analytically  !
 ! D51   D(16,5,7,23)           58.2815         calculate D2E/DX2 analytically  !
 ! D52   D(17,5,7,21)         -177.3547         calculate D2E/DX2 analytically  !
 ! D53   D(17,5,7,22)           62.1177         calculate D2E/DX2 analytically  !
 ! D54   D(17,5,7,23)          -57.2793         calculate D2E/DX2 analytically  !
 --------------------------------------------------------------------------------
 Trust Radius=3.00D-01 FncErr=1.00D-07 GrdErr=1.00D-06 EigMax=2.50D+02 EigMin=1.00D-04
 Number of steps in this run=    138 maximum allowed number of steps=    138.
 GradGradGradGradGradGradGradGradGradGradGradGradGradGradGradGradGradGrad

 Leave Link  103 at Sun Sep 29 13:34:55 2019, MaxMem=   671088640 cpu:               1.5 elap:               0.8
 (Enter /shared/centos7/gaussian/g16/l202.exe)
                          Input orientation:                          
 ---------------------------------------------------------------------
 Center     Atomic      Atomic             Coordinates (Angstroms)
 Number     Number       Type             X           Y           Z
 ---------------------------------------------------------------------
      1          6           0        1.031681   -0.945316    0.521803
      2          6           0       -0.246310   -0.181499    0.449110
      3          6           0       -0.941251   -0.243397   -0.888129
      4          6           0        2.077867   -0.508678   -0.447665
      5          6           0       -1.298157   -1.638582   -1.343957
      6          6           0        2.501885    0.894884   -0.306918
      7          6           0       -2.221374   -2.376196   -0.409333
      8          1           0        1.702493   -0.676987   -1.496427
      9          1           0        2.967364   -1.173786   -0.337293
     10          1           0        0.823461   -2.023974    0.358344
     11          1           0        1.433474   -0.867795    1.552918
     12          1           0       -0.056776    0.874808    0.696046
     13          1           0       -0.935107   -0.561703    1.232857
     14          1           0       -0.298923    0.223541   -1.653967
     15          1           0       -1.862939    0.372356   -0.838290
     16          1           0       -1.781034   -1.574070   -2.354001
     17          1           0       -0.375504   -2.228177   -1.479413
     18          1           0        2.937254    1.089751    0.691261
     19          1           0        3.286770    1.155069   -1.077498
     20          1           0        1.649995    1.593593   -0.446849
     21          1           0       -3.166857   -1.846712   -0.285694
     22          1           0       -1.753439   -2.498983    0.606453
     23          1           0       -2.446574   -3.406018   -0.810128
 ---------------------------------------------------------------------
                    Distance matrix (angstroms):
                    1          2          3          4          5
     1  C    0.000000
     2  C    1.490625   0.000000
     3  C    2.524493   1.508304   0.000000
     4  C    1.491652   2.512579   3.062590   0.000000
     5  C    3.064282   2.538614   1.510531   3.671180   0.000000
     6  C    2.496920   3.046761   3.672693   1.472952   4.683398
     7  C    3.673799   3.074816   2.533139   4.687491   1.506627
     8  H    2.143651   2.797938   2.747255   1.126559   3.154649
     9  H    2.130050   3.454094   4.055406   1.116134   4.407276
    10  H    1.110665   2.132454   2.799707   2.125866   2.747293
    11  H    1.109344   2.123927   3.462355   2.132262   4.055589
    12  H    2.127899   1.101220   2.131264   2.789052   3.466953
    13  H    2.126268   1.110520   2.144747   3.450360   2.816282
    14  H    2.805479   2.142372   1.103233   2.764135   2.135902
    15  H    3.459038   2.139543   1.109570   4.056941   2.149081
    16  H    4.071480   3.485980   2.150513   4.433993   1.121392
    17  H    2.762385   2.815099   2.146868   3.168629   1.103295
    18  H    2.793102   3.436538   4.394833   2.142586   5.433656
    19  H    3.472004   4.074261   4.457323   2.150858   5.375597
    20  H    2.786873   2.747666   3.206839   2.145372   4.465799
    21  H    4.369473   3.441288   2.808357   5.415136   2.157609
    22  H    3.190289   2.768921   2.825083   4.444253   2.179832
    23  H    4.464006   4.101751   3.503463   5.384842   2.174319
                    6          7          8          9         10
     6  C    0.000000
     7  C    5.746271   0.000000
     8  H    2.127143   4.412008   0.000000
     9  H    2.120610   5.326724   1.786141   0.000000
    10  H    3.432114   3.159812   2.455045   2.408952   0.000000
    11  H    2.776243   4.414025   3.067129   2.453436   1.770839
    12  H    2.748287   4.059110   3.210924   3.796045   3.048245
    13  H    4.038002   2.764717   3.797264   4.250800   2.448586
    14  H    3.179586   3.464616   2.200326   3.788771   3.218767
    15  H    4.427988   2.804821   3.774463   5.096409   3.793557
    16  H    5.350670   2.149195   3.697992   5.174420   3.787166
    17  H    4.405408   2.138743   2.593173   3.686590   2.203763
    18  H    1.106291   6.311540   3.071152   2.486449   3.778126
    19  H    1.130281   6.576924   2.458021   2.464445   4.270345
    20  H    1.110627   5.545100   2.501980   3.066896   3.797141
    21  H    6.296938   1.090678   5.152155   6.171237   4.045843
    22  H    5.519090   1.125104   4.436805   4.993275   2.632035
    23  H    6.575577   1.127778   5.013319   5.875131   3.737446
                   11         12         13         14         15
    11  H    0.000000
    12  H    2.447803   0.000000
    13  H    2.409628   1.767256   0.000000
    14  H    3.804776   2.450580   3.058609   0.000000
    15  H    4.257016   2.422574   2.454178   1.770204   0.000000
    16  H    5.108414   4.274675   3.821784   2.432715   2.468332
    17  H    3.783923   3.802989   3.232136   2.459116   3.063703
    18  H    2.614535   3.001740   4.244503   4.089407   5.088815
    19  H    3.800760   3.795169   5.109725   3.749301   5.214342
    20  H    3.178739   2.176218   3.761577   2.670666   3.739699
    21  H    5.049932   4.247715   2.989641   3.792514   2.632457
    22  H    3.703105   3.777454   2.194335   3.825865   3.216187
    23  H    5.203972   5.128856   3.814243   4.300949   3.823288
                   16         17         18         19         20
    16  H    0.000000
    17  H    1.779964   0.000000
    18  H    6.215448   5.166704   0.000000
    19  H    5.895786   5.002014   1.804144   0.000000
    20  H    5.044132   4.446882   1.790583   1.808053   0.000000
    21  H    2.504543   3.059761   6.843787   7.161490   5.921463
    22  H    3.101694   2.514534   5.906675   6.449147   5.426047
    23  H    2.486467   2.474790   7.172984   7.331182   6.473790
                   21         22         23
    21  H    0.000000
    22  H    1.794194   0.000000
    23  H    1.795905   1.819299   0.000000
 Stoichiometry    C7H16
 Framework group  C1[X(C7H16)]
 Deg. of freedom    63
 Full point group                 C1      NOp   1
 Largest Abelian subgroup         C1      NOp   1
 Largest concise Abelian subgroup C1      NOp   1
                         Standard orientation:                         
 ---------------------------------------------------------------------
 Center     Atomic      Atomic             Coordinates (Angstroms)
 Number     Number       Type             X           Y           Z
 ---------------------------------------------------------------------
      1          6           0        0.785251   -0.981886    0.203198
      2          6           0        0.010617   -0.014087    1.031009
      3          6           0       -0.782779    0.996231    0.240590
      4          6           0        1.794349   -0.362342   -0.703947
      5          6           0       -1.797809    0.395262   -0.702943
      6          6           0        2.835718    0.425064   -0.021943
      7          6           0       -2.843041   -0.453174   -0.026503
      8          1           0        1.265276    0.294573   -1.450727
      9          1           0        2.278320   -1.169197   -1.304373
     10          1           0        0.081790   -1.586535   -0.407637
     11          1           0        1.293229   -1.700165    0.878977
     12          1           0        0.696939    0.527067    1.700934
     13          1           0       -0.680070   -0.580605    1.690755
     14          1           0       -0.090450    1.626960   -0.342493
     15          1           0       -1.299426    1.675532    0.949653
     16          1           0       -2.308432    1.225408   -1.257598
     17          1           0       -1.278052   -0.211246   -1.464035
     18          1           0        3.423944   -0.198423    0.677437
     19          1           0        3.556420    0.869251   -0.770823
     20          1           0        2.396962    1.263608    0.559288
     21          1           0       -3.412165    0.124666    0.702727
     22          1           0       -2.371977   -1.324159    0.507673
     23          1           0       -3.566143   -0.867144   -0.786527
 ---------------------------------------------------------------------
 Rotational constants (GHZ):           5.3175942           1.2373648           1.2161271
 Leave Link  202 at Sun Sep 29 13:34:57 2019, MaxMem=   671088640 cpu:               3.5 elap:               1.8
 (Enter /shared/centos7/gaussian/g16/l301.exe)
 Standard basis: CC-pVTZ (5D, 7F)
 Ernie: Thresh=  0.10000D-02 Tol=  0.10000D-05 Strict=F.
 Ernie:  21 primitive shells out of 310 were deleted.
 There are   485 symmetry adapted cartesian basis functions of A   symmetry.
 There are   434 symmetry adapted basis functions of A   symmetry.
   434 basis functions,   636 primitive gaussians,   485 cartesian basis functions
    29 alpha electrons       29 beta electrons
       nuclear repulsion energy       331.3495396492 Hartrees.
 IExCor= 4336 DFT=T Ex+Corr=M062X ExCW=0 ScaHFX=  0.540000
 ScaDFX=  1.000000  1.000000  1.000000  1.000000 ScalE2=  1.000000  1.000000
 IRadAn=      5 IRanWt=     -1 IRanGd=            0 ICorTp=0 IEmpDi=  4
 NAtoms=   23 NActive=   23 NUniq=   23 SFac= 1.00D+00 NAtFMM=   60 NAOKFM=F Big=F
 Integral buffers will be    131072 words long.
 Raffenetti 2 integral format.
 Two-electron integral symmetry is turned on.
 Leave Link  301 at Sun Sep 29 13:34:58 2019, MaxMem=   671088640 cpu:               1.4 elap:               0.7
 (Enter /shared/centos7/gaussian/g16/l302.exe)
 NPDir=0 NMtPBC=     1 NCelOv=     1 NCel=       1 NClECP=     1 NCelD=      1
         NCelK=      1 NCelE2=     1 NClLst=     1 CellRange=     0.0.
 One-electron integrals computed using PRISM.
 One-electron integral symmetry used in STVInt
 NBasis=   434 RedAO= T EigKep=  2.54D-04  NBF=   434
 NBsUse=   434 1.00D-06 EigRej= -1.00D+00 NBFU=   434
 Precomputing XC quadrature grid using
 IXCGrd= 4 IRadAn=           5 IRanWt=          -1 IRanGd=           0 AccXCQ= 0.00D+00.
 Generated NRdTot=       0 NPtTot=           0 NUsed=           0 NTot=          32
 NSgBfM=   485   485   485   485   485 MxSgAt=    23 MxSgA2=    23.
 Leave Link  302 at Sun Sep 29 13:36:08 2019, MaxMem=   671088640 cpu:             140.4 elap:              70.2
 (Enter /shared/centos7/gaussian/g16/l303.exe)
 DipDrv:  MaxL=1.
 Leave Link  303 at Sun Sep 29 13:36:14 2019, MaxMem=   671088640 cpu:              11.6 elap:               5.8
 (Enter /shared/centos7/gaussian/g16/l401.exe)
 ExpMin= 1.03D-01 ExpMax= 8.24D+03 ExpMxC= 2.81D+02 IAcc=3 IRadAn=         5 AccDes= 0.00D+00
 Harris functional with IExCor= 1009 and IRadAn=       5 diagonalized for initial guess.
 HarFok:  IExCor= 1009 AccDes= 0.00D+00 IRadAn=         5 IDoV= 1 UseB2=F ITyADJ=14
 ICtDFT=  3500011 ScaDFX=  1.000000  1.000000  1.000000  1.000000
 FoFCou: FMM=F IPFlag=           0 FMFlag=      100000 FMFlg1=           0
         NFxFlg=           0 DoJE=T BraDBF=F KetDBF=T FulRan=T
         wScrn=  0.000000 ICntrl=       500 IOpCl=  0 I1Cent=   200000004 NGrid=           0
         NMat0=    1 NMatS0=      1 NMatT0=    0 NMatD0=    1 NMtDS0=    0 NMtDT0=    0
 Petite list used in FoFCou.
 Harris En= -276.333299898389    
 JPrj=0 DoOrth=F DoCkMO=F.
 Leave Link  401 at Sun Sep 29 13:37:00 2019, MaxMem=   671088640 cpu:              91.4 elap:              45.7
 (Enter /shared/centos7/gaussian/g16/l502.exe)
 Integral symmetry usage will be decided dynamically.
 Closed shell SCF:
 Using DIIS extrapolation, IDIIS=  1040.
 NGot=   671088640 LenX=   670604095 LenY=   670368385
 Requested convergence on RMS density matrix=1.00D-08 within 900 cycles.
 Requested convergence on MAX density matrix=1.00D-06.
 Requested convergence on             energy=1.00D-06.
 No special actions if energy rises.
 Fock matrices will be formed incrementally for  20 cycles.
 Integral accuracy reduced to 1.0D-05 until final iterations.

 Cycle   1  Pass 0  IDiag  1:
 FoFJK:  IHMeth= 1 ICntrl=       0 DoSepK=F KAlg= 0 I1Cent=           0 FoldK=F
 IRaf= 940000000 NMat=       1 IRICut=       1 DoRegI=T DoRafI=F ISym2E= 0 IDoP0=0 IntGTp=1.
 FoFCou: FMM=F IPFlag=           0 FMFlag=      100000 FMFlg1=           0
         NFxFlg=           0 DoJE=F BraDBF=F KetDBF=F FulRan=T
         wScrn=  0.000000 ICntrl=         0 IOpCl=  0 I1Cent=           0 NGrid=           0
         NMat0=    1 NMatS0=      1 NMatT0=    0 NMatD0=    1 NMtDS0=    0 NMtDT0=    0
 Symmetry not used in FoFCou.
 E= -275.966935750627    
 DIIS: error= 3.66D-02 at cycle   1 NSaved=   1.
 NSaved= 1 IEnMin= 1 EnMin= -275.966935750627     IErMin= 1 ErrMin= 3.66D-02
 ErrMax= 3.66D-02  0.00D+00 EMaxC= 1.00D-01 BMatC= 3.78D-01 BMatP= 3.78D-01
 IDIUse=3 WtCom= 6.34D-01 WtEn= 3.66D-01
 Coeff-Com:  0.100D+01
 Coeff-En:   0.100D+01
 Coeff:      0.100D+01
 Gap=     0.361 Goal=   None    Shift=    0.000
 GapD=    0.361 DampG=1.000 DampE=0.500 DampFc=0.5000 IDamp=-1.
 Damping current iteration by 5.00D-01
 RMSDP=1.88D-03 MaxDP=6.18D-02              OVMax= 1.69D-01

 Cycle   2  Pass 0  IDiag  1:
 RMSU=  9.35D-04    CP:  9.89D-01
 E= -276.145048778999     Delta-E=       -0.178113028372 Rises=F Damp=T
 DIIS: error= 5.49D-03 at cycle   2 NSaved=   2.
 NSaved= 2 IEnMin= 2 EnMin= -276.145048778999     IErMin= 2 ErrMin= 5.49D-03
 ErrMax= 5.49D-03  0.00D+00 EMaxC= 1.00D-01 BMatC= 1.90D-02 BMatP= 3.78D-01
 IDIUse=3 WtCom= 9.45D-01 WtEn= 5.49D-02
 Coeff-Com: -0.402D-01 0.104D+01
 Coeff-En:   0.000D+00 0.100D+01
 Coeff:     -0.380D-01 0.104D+01
 Gap=     0.442 Goal=   None    Shift=    0.000
 RMSDP=5.63D-04 MaxDP=2.31D-02 DE=-1.78D-01 OVMax= 9.08D-02

 Cycle   3  Pass 0  IDiag  1:
 RMSU=  5.52D-04    CP:  9.97D-01  9.03D-01
 E= -276.327420021597     Delta-E=       -0.182371242598 Rises=F Damp=F
 DIIS: error= 3.37D-03 at cycle   3 NSaved=   3.
 NSaved= 3 IEnMin= 3 EnMin= -276.327420021597     IErMin= 3 ErrMin= 3.37D-03
 ErrMax= 3.37D-03  0.00D+00 EMaxC= 1.00D-01 BMatC= 2.98D-03 BMatP= 1.90D-02
 IDIUse=3 WtCom= 9.66D-01 WtEn= 3.37D-02
 Coeff-Com: -0.503D-01 0.250D+00 0.800D+00
 Coeff-En:   0.000D+00 0.000D+00 0.100D+01
 Coeff:     -0.486D-01 0.241D+00 0.807D+00
 Gap=     0.416 Goal=   None    Shift=    0.000
 RMSDP=1.19D-04 MaxDP=5.60D-03 DE=-1.82D-01 OVMax= 1.05D-02

 Cycle   4  Pass 0  IDiag  1:
 RMSU=  8.66D-05    CP:  9.96D-01  9.51D-01  8.78D-01
 E= -276.329981471567     Delta-E=       -0.002561449970 Rises=F Damp=F
 DIIS: error= 7.52D-04 at cycle   4 NSaved=   4.
 NSaved= 4 IEnMin= 4 EnMin= -276.329981471567     IErMin= 4 ErrMin= 7.52D-04
 ErrMax= 7.52D-04  0.00D+00 EMaxC= 1.00D-01 BMatC= 3.04D-04 BMatP= 2.98D-03
 IDIUse=3 WtCom= 9.92D-01 WtEn= 7.52D-03
 Coeff-Com: -0.137D-01 0.404D-01 0.279D+00 0.694D+00
 Coeff-En:   0.000D+00 0.000D+00 0.000D+00 0.100D+01
 Coeff:     -0.136D-01 0.401D-01 0.277D+00 0.696D+00
 Gap=     0.418 Goal=   None    Shift=    0.000
 RMSDP=3.65D-05 MaxDP=1.34D-03 DE=-2.56D-03 OVMax= 3.10D-03

 Cycle   5  Pass 0  IDiag  1:
 RMSU=  2.05D-05    CP:  9.96D-01  9.44D-01  9.17D-01  7.70D-01
 E= -276.330253993816     Delta-E=       -0.000272522249 Rises=F Damp=F
 DIIS: error= 2.75D-04 at cycle   5 NSaved=   5.
 NSaved= 5 IEnMin= 5 EnMin= -276.330253993816     IErMin= 5 ErrMin= 2.75D-04
 ErrMax= 2.75D-04  0.00D+00 EMaxC= 1.00D-01 BMatC= 2.44D-05 BMatP= 3.04D-04
 IDIUse=3 WtCom= 9.97D-01 WtEn= 2.75D-03
 Coeff-Com: -0.163D-02 0.480D-03 0.549D-01 0.270D+00 0.676D+00
 Coeff-En:   0.000D+00 0.000D+00 0.000D+00 0.000D+00 0.100D+01
 Coeff:     -0.163D-02 0.479D-03 0.547D-01 0.270D+00 0.677D+00
 Gap=     0.417 Goal=   None    Shift=    0.000
 RMSDP=7.44D-06 MaxDP=3.50D-04 DE=-2.73D-04 OVMax= 8.19D-04

 Initial convergence to 1.0D-05 achieved.  Increase integral accuracy.
 Cycle   6  Pass 1  IDiag  1:
 E= -276.330332015136     Delta-E=       -0.000078021321 Rises=F Damp=F
 DIIS: error= 5.82D-05 at cycle   1 NSaved=   1.
 NSaved= 1 IEnMin= 1 EnMin= -276.330332015136     IErMin= 1 ErrMin= 5.82D-05
 ErrMax= 5.82D-05  0.00D+00 EMaxC= 1.00D-01 BMatC= 1.54D-06 BMatP= 1.54D-06
 IDIUse=1 WtCom= 1.00D+00 WtEn= 0.00D+00
 Coeff-Com:  0.100D+01
 Coeff:      0.100D+01
 Gap=     0.418 Goal=   None    Shift=    0.000
 RMSDP=7.44D-06 MaxDP=3.50D-04 DE=-7.80D-05 OVMax= 2.11D-04

 Cycle   7  Pass 1  IDiag  1:
 RMSU=  1.03D-05    CP:  1.00D+00
 E= -276.330332710422     Delta-E=       -0.000000695285 Rises=F Damp=F
 DIIS: error= 2.61D-05 at cycle   2 NSaved=   2.
 NSaved= 2 IEnMin= 2 EnMin= -276.330332710422     IErMin= 2 ErrMin= 2.61D-05
 ErrMax= 2.61D-05  0.00D+00 EMaxC= 1.00D-01 BMatC= 2.30D-07 BMatP= 1.54D-06
 IDIUse=1 WtCom= 1.00D+00 WtEn= 0.00D+00
 Coeff-Com:  0.202D+00 0.798D+00
 Coeff:      0.202D+00 0.798D+00
 Gap=     0.418 Goal=   None    Shift=    0.000
 RMSDP=1.06D-06 MaxDP=4.48D-05 DE=-6.95D-07 OVMax= 1.10D-04

 Cycle   8  Pass 1  IDiag  1:
 RMSU=  1.05D-06    CP:  1.00D+00  1.02D+00
 E= -276.330332864631     Delta-E=       -0.000000154210 Rises=F Damp=F
 DIIS: error= 1.39D-05 at cycle   3 NSaved=   3.
 NSaved= 3 IEnMin= 3 EnMin= -276.330332864631     IErMin= 3 ErrMin= 1.39D-05
 ErrMax= 1.39D-05  0.00D+00 EMaxC= 1.00D-01 BMatC= 7.39D-08 BMatP= 2.30D-07
 IDIUse=1 WtCom= 1.00D+00 WtEn= 0.00D+00
 Coeff-Com: -0.707D-02 0.355D+00 0.652D+00
 Coeff:     -0.707D-02 0.355D+00 0.652D+00
 Gap=     0.418 Goal=   None    Shift=    0.000
 RMSDP=4.39D-07 MaxDP=1.67D-05 DE=-1.54D-07 OVMax= 4.65D-05

 Cycle   9  Pass 1  IDiag  1:
 RMSU=  2.87D-07    CP:  1.00D+00  1.03D+00  7.01D-01
 E= -276.330332935073     Delta-E=       -0.000000070442 Rises=F Damp=F
 DIIS: error= 2.07D-06 at cycle   4 NSaved=   4.
 NSaved= 4 IEnMin= 4 EnMin= -276.330332935073     IErMin= 4 ErrMin= 2.07D-06
 ErrMax= 2.07D-06  0.00D+00 EMaxC= 1.00D-01 BMatC= 1.04D-09 BMatP= 7.39D-08
 IDIUse=1 WtCom= 1.00D+00 WtEn= 0.00D+00
 Coeff-Com: -0.841D-02 0.768D-01 0.183D+00 0.748D+00
 Coeff:     -0.841D-02 0.768D-01 0.183D+00 0.748D+00
 Gap=     0.418 Goal=   None    Shift=    0.000
 RMSDP=7.53D-08 MaxDP=4.27D-06 DE=-7.04D-08 OVMax= 6.49D-06

 Cycle  10  Pass 1  IDiag  1:
 RMSU=  7.14D-08    CP:  1.00D+00  1.03D+00  7.18D-01  9.59D-01
 E= -276.330332936162     Delta-E=       -0.000000001088 Rises=F Damp=F
 DIIS: error= 6.93D-07 at cycle   5 NSaved=   5.
 NSaved= 5 IEnMin= 5 EnMin= -276.330332936162     IErMin= 5 ErrMin= 6.93D-07
 ErrMax= 6.93D-07  0.00D+00 EMaxC= 1.00D-01 BMatC= 7.17D-11 BMatP= 1.04D-09
 IDIUse=1 WtCom= 1.00D+00 WtEn= 0.00D+00
 Coeff-Com: -0.589D-03-0.233D-01-0.360D-01 0.122D+00 0.938D+00
 Coeff:     -0.589D-03-0.233D-01-0.360D-01 0.122D+00 0.938D+00
 Gap=     0.418 Goal=   None    Shift=    0.000
 RMSDP=3.26D-08 MaxDP=9.81D-07 DE=-1.09D-09 OVMax= 2.57D-06

 Cycle  11  Pass 1  IDiag  1:
 RMSU=  1.79D-08    CP:  1.00D+00  1.03D+00  7.19D-01  1.05D+00  9.98D-01
 E= -276.330332936233     Delta-E=       -0.000000000071 Rises=F Damp=F
 DIIS: error= 2.05D-07 at cycle   6 NSaved=   6.
 NSaved= 6 IEnMin= 6 EnMin= -276.330332936233     IErMin= 6 ErrMin= 2.05D-07
 ErrMax= 2.05D-07  0.00D+00 EMaxC= 1.00D-01 BMatC= 1.62D-11 BMatP= 7.17D-11
 IDIUse=1 WtCom= 1.00D+00 WtEn= 0.00D+00
 Coeff-Com:  0.281D-03-0.155D-01-0.282D-01 0.424D-02 0.428D+00 0.611D+00
 Coeff:      0.281D-03-0.155D-01-0.282D-01 0.424D-02 0.428D+00 0.611D+00
 Gap=     0.418 Goal=   None    Shift=    0.000
 RMSDP=6.15D-09 MaxDP=2.49D-07 DE=-7.12D-11 OVMax= 6.72D-07

 SCF Done:  E(RM062X) =  -276.330332936     A.U. after   11 cycles
            NFock= 11  Conv=0.62D-08     -V/T= 2.0069
 KE= 2.744461617137D+02 PE=-1.301060026119D+03 EE= 4.189339918198D+02
 Leave Link  502 at Sun Sep 29 13:52:12 2019, MaxMem=   671088640 cpu:            1824.0 elap:             912.1
 (Enter /shared/centos7/gaussian/g16/l801.exe)
 DoSCS=F DFT=T ScalE2(SS,OS)=  1.000000  1.000000
 Range of M.O.s used for correlation:     1   434
 NBasis=   434 NAE=    29 NBE=    29 NFC=     0 NFV=     0
 NROrb=    434 NOA=    29 NOB=    29 NVA=   405 NVB=   405

 **** Warning!!: The largest alpha MO coefficient is  0.10248402D+02

 Leave Link  801 at Sun Sep 29 13:52:13 2019, MaxMem=   671088640 cpu:               1.5 elap:               0.7
 (Enter /shared/centos7/gaussian/g16/l1101.exe)
 Using compressed storage, NAtomX=    23.
 Will process     24 centers per pass.
 Leave Link 1101 at Sun Sep 29 13:52:46 2019, MaxMem=   671088640 cpu:              67.2 elap:              33.6
 (Enter /shared/centos7/gaussian/g16/l1102.exe)
 Symmetrizing basis deriv contribution to polar:
 IMax=3 JMax=2 DiffMx= 0.00D+00
 Leave Link 1102 at Sun Sep 29 13:52:49 2019, MaxMem=   671088640 cpu:               5.1 elap:               2.6
 (Enter /shared/centos7/gaussian/g16/l1110.exe)
 Forming Gx(P) for the SCF density, NAtomX=    23.
 Integral derivatives from FoFJK, PRISM(SPDF).
 Do as many integral derivatives as possible in FoFJK.
 G2DrvN: MDV=     671086848.
 G2DrvN: will do    24 centers at a time, making    1 passes.
 Calling FoFCou, ICntrl=  3107 FMM=F I1Cent=   0 AccDes= 0.00D+00.
 FoFJK:  IHMeth= 1 ICntrl=    3107 DoSepK=F KAlg= 0 I1Cent=           0 FoldK=F
 IRaf=         0 NMat=       1 IRICut=       1 DoRegI=T DoRafI=F ISym2E= 0 IDoP0=0 IntGTp=1.
 FoFCou: FMM=F IPFlag=           0 FMFlag=      100000 FMFlg1=           0
         NFxFlg=           0 DoJE=F BraDBF=F KetDBF=F FulRan=T
         wScrn=  0.000000 ICntrl=      3107 IOpCl=  0 I1Cent=           0 NGrid=           0
         NMat0=    1 NMatS0=      1 NMatT0=    0 NMatD0=    1 NMtDS0=    0 NMtDT0=    0
 Symmetry not used in FoFCou.
 End of G2Drv F.D. properties file   721 does not exist.
 End of G2Drv F.D. properties file   722 does not exist.
 End of G2Drv F.D. properties file   788 does not exist.
 Leave Link 1110 at Sun Sep 29 14:33:44 2019, MaxMem=   671088640 cpu:            4909.7 elap:            2455.0
 (Enter /shared/centos7/gaussian/g16/l1002.exe)
 Minotr:  Closed shell wavefunction.
          IDoAtm=11111111111111111111111
          Direct CPHF calculation.
          Differentiating once with respect to nuclear coordinates.
          Requested convergence is 1.0D-08 RMS, and 1.0D-07 maximum.
          Secondary convergence is 1.0D-12 RMS, and 1.0D-12 maximum.
          NewPWx=T KeepS1=F KeepF1=F KeepIn=T MapXYZ=F SortEE=F KeepMc=T.
         6904 words used for storage of precomputed grid.
 Two-electron integrals replicated using symmetry.
          MDV=     671088640 using IRadAn=       1.
          Solving linear equations simultaneously, MaxMat=     380.
 FoF2E skips out because all densities are zero.
 CalDSu exits because no D1Ps are significant.
 FoFJK:  IHMeth= 1 ICntrl=       0 DoSepK=F KAlg= 0 I1Cent=           0 FoldK=F
 IRaf= 930000000 NMat=      69 IRICut=     172 DoRegI=T DoRafI=T ISym2E= 2 IDoP0=3 IntGTp=3.
 FoFCou: FMM=F IPFlag=           0 FMFlag=      100000 FMFlg1=           0
         NFxFlg=           0 DoJE=F BraDBF=F KetDBF=F FulRan=T
         wScrn=  0.000000 ICntrl=         0 IOpCl=  0 I1Cent=           0 NGrid=           0
         NMat0=   69 NMatS0=     69 NMatT0=    0 NMatD0=   69 NMtDS0=    0 NMtDT0=    0
 Integrals replicated using symmetry in FoFCou.
 Raff kept on since  88.62% of shell-pairs survive, threshold=   0.20 IRatSp=89.
          There are    72 degrees of freedom in the 1st order CPHF.  IDoFFX=6 NUNeed=     0.
     66 vectors produced by pass  0 Test12= 1.63D-14 1.39D-09 XBig12= 5.61D-02 3.91D-02.
 AX will form    66 AO Fock derivatives at one time.
     66 vectors produced by pass  1 Test12= 1.63D-14 1.39D-09 XBig12= 2.41D-03 5.30D-03.
     66 vectors produced by pass  2 Test12= 1.63D-14 1.39D-09 XBig12= 6.12D-05 9.52D-04.
     66 vectors produced by pass  3 Test12= 1.63D-14 1.39D-09 XBig12= 5.31D-07 9.53D-05.
     66 vectors produced by pass  4 Test12= 1.63D-14 1.39D-09 XBig12= 2.26D-09 5.62D-06.
     66 vectors produced by pass  5 Test12= 1.63D-14 1.39D-09 XBig12= 1.12D-11 3.54D-07.
     24 vectors produced by pass  6 Test12= 1.63D-14 1.39D-09 XBig12= 4.87D-14 2.66D-08.
 InvSVY:  IOpt=1 It=  1 EMax= 4.72D-16
 Solved reduced A of dimension   420 with    72 vectors.
 End of Minotr F.D. properties file   721 does not exist.
 End of Minotr F.D. properties file   722 does not exist.
 End of Minotr F.D. properties file   788 does not exist.
 Leave Link 1002 at Sun Sep 29 15:42:27 2019, MaxMem=   671088640 cpu:            8246.9 elap:            4123.6
 (Enter /shared/centos7/gaussian/g16/l601.exe)
 Copying SCF densities to generalized density rwf, IOpCl= 0 IROHF=0.

 **********************************************************************

            Population analysis using the SCF density.

 **********************************************************************

 Orbital symmetries:
       Occupied  (A) (A) (A) (A) (A) (A) (A) (A) (A) (A) (A) (A)
                 (A) (A) (A) (A) (A) (A) (A) (A) (A) (A) (A) (A)
                 (A) (A) (A) (A) (A)
       Virtual   (A) (A) (A) (A) (A) (A) (A) (A) (A) (A) (A) (A)
                 (A) (A) (A) (A) (A) (A) (A) (A) (A) (A) (A) (A)
                 (A) (A) (A) (A) (A) (A) (A) (A) (A) (A) (A) (A)
                 (A) (A) (A) (A) (A) (A) (A) (A) (A) (A) (A) (A)
                 (A) (A) (A) (A) (A) (A) (A) (A) (A) (A) (A) (A)
                 (A) (A) (A) (A) (A) (A) (A) (A) (A) (A) (A) (A)
                 (A) (A) (A) (A) (A) (A) (A) (A) (A) (A) (A) (A)
                 (A) (A) (A) (A) (A) (A) (A) (A) (A) (A) (A) (A)
                 (A) (A) (A) (A) (A) (A) (A) (A) (A) (A) (A) (A)
                 (A) (A) (A) (A) (A) (A) (A) (A) (A) (A) (A) (A)
                 (A) (A) (A) (A) (A) (A) (A) (A) (A) (A) (A) (A)
                 (A) (A) (A) (A) (A) (A) (A) (A) (A) (A) (A) (A)
                 (A) (A) (A) (A) (A) (A) (A) (A) (A) (A) (A) (A)
                 (A) (A) (A) (A) (A) (A) (A) (A) (A) (A) (A) (A)
                 (A) (A) (A) (A) (A) (A) (A) (A) (A) (A) (A) (A)
                 (A) (A) (A) (A) (A) (A) (A) (A) (A) (A) (A) (A)
                 (A) (A) (A) (A) (A) (A) (A) (A) (A) (A) (A) (A)
                 (A) (A) (A) (A) (A) (A) (A) (A) (A) (A) (A) (A)
                 (A) (A) (A) (A) (A) (A) (A) (A) (A) (A) (A) (A)
                 (A) (A) (A) (A) (A) (A) (A) (A) (A) (A) (A) (A)
                 (A) (A) (A) (A) (A) (A) (A) (A) (A) (A) (A) (A)
                 (A) (A) (A) (A) (A) (A) (A) (A) (A) (A) (A) (A)
                 (A) (A) (A) (A) (A) (A) (A) (A) (A) (A) (A) (A)
                 (A) (A) (A) (A) (A) (A) (A) (A) (A) (A) (A) (A)
                 (A) (A) (A) (A) (A) (A) (A) (A) (A) (A) (A) (A)
                 (A) (A) (A) (A) (A) (A) (A) (A) (A) (A) (A) (A)
                 (A) (A) (A) (A) (A) (A) (A) (A) (A) (A) (A) (A)
                 (A) (A) (A) (A) (A) (A) (A) (A) (A) (A) (A) (A)
                 (A) (A) (A) (A) (A) (A) (A) (A) (A) (A) (A) (A)
                 (A) (A) (A) (A) (A) (A) (A) (A) (A) (A) (A) (A)
                 (A) (A) (A) (A) (A) (A) (A) (A) (A) (A) (A) (A)
                 (A) (A) (A) (A) (A) (A) (A) (A) (A) (A) (A) (A)
                 (A) (A) (A) (A) (A) (A) (A) (A) (A) (A) (A) (A)
                 (A) (A) (A) (A) (A) (A) (A) (A) (A)
 The electronic state is 1-A.
 Alpha  occ. eigenvalues --  -10.52859 -10.52665 -10.52633 -10.52498 -10.52454
 Alpha  occ. eigenvalues --  -10.52327 -10.52227  -0.92566  -0.88076  -0.82282
 Alpha  occ. eigenvalues --   -0.76724  -0.71605  -0.65947  -0.60691  -0.55210
 Alpha  occ. eigenvalues --   -0.55076  -0.50612  -0.49815  -0.47506  -0.46872
 Alpha  occ. eigenvalues --   -0.44477  -0.43696  -0.41479  -0.39952  -0.39531
 Alpha  occ. eigenvalues --   -0.38646  -0.37006  -0.35872  -0.35622
 Alpha virt. eigenvalues --    0.06134   0.08241   0.08338   0.08749   0.11444
 Alpha virt. eigenvalues --    0.12240   0.12566   0.13792   0.14497   0.14976
 Alpha virt. eigenvalues --    0.15582   0.17231   0.17599   0.18402   0.19663
 Alpha virt. eigenvalues --    0.21864   0.21916   0.23550   0.24378   0.25354
 Alpha virt. eigenvalues --    0.25656   0.27857   0.29651   0.29951   0.30386
 Alpha virt. eigenvalues --    0.31668   0.32954   0.33345   0.34722   0.35829
 Alpha virt. eigenvalues --    0.36477   0.37976   0.41743   0.44914   0.45076
 Alpha virt. eigenvalues --    0.45277   0.45617   0.46467   0.46794   0.47073
 Alpha virt. eigenvalues --    0.48922   0.49396   0.50682   0.51150   0.51395
 Alpha virt. eigenvalues --    0.52086   0.52622   0.53301   0.53742   0.54208
 Alpha virt. eigenvalues --    0.55006   0.55275   0.56174   0.57294   0.57639
 Alpha virt. eigenvalues --    0.58145   0.59632   0.61732   0.62599   0.63788
 Alpha virt. eigenvalues --    0.65724   0.67135   0.67882   0.72440   0.77092
 Alpha virt. eigenvalues --    0.78081   0.78904   0.80922   0.82290   0.82975
 Alpha virt. eigenvalues --    0.83819   0.87327   0.88271   0.90869   0.92301
 Alpha virt. eigenvalues --    0.93959   0.95188   0.95971   0.97592   0.98752
 Alpha virt. eigenvalues --    1.00078   1.01217   1.01998   1.04194   1.05929
 Alpha virt. eigenvalues --    1.06190   1.06998   1.08519   1.08658   1.10036
 Alpha virt. eigenvalues --    1.12540   1.12995   1.13981   1.14652   1.15199
 Alpha virt. eigenvalues --    1.15400   1.16231   1.18494   1.18575   1.19007
 Alpha virt. eigenvalues --    1.20640   1.20762   1.22410   1.22823   1.23357
 Alpha virt. eigenvalues --    1.24774   1.25854   1.26782   1.27089   1.27560
 Alpha virt. eigenvalues --    1.28872   1.30797   1.31723   1.32318   1.32453
 Alpha virt. eigenvalues --    1.34218   1.35657   1.38785   1.39310   1.40574
 Alpha virt. eigenvalues --    1.41190   1.43023   1.43418   1.44237   1.44804
 Alpha virt. eigenvalues --    1.47303   1.48149   1.48568   1.49525   1.50169
 Alpha virt. eigenvalues --    1.51931   1.52625   1.53843   1.54635   1.54968
 Alpha virt. eigenvalues --    1.56317   1.56549   1.58600   1.61037   1.62430
 Alpha virt. eigenvalues --    1.66163   1.66685   1.71030   1.77179   1.79427
 Alpha virt. eigenvalues --    1.79634   1.83471   1.88865   1.92476   2.24511
 Alpha virt. eigenvalues --    2.26949   2.30009   2.33127   2.33337   2.34113
 Alpha virt. eigenvalues --    2.37911   2.40532   2.42866   2.43399   2.44973
 Alpha virt. eigenvalues --    2.46921   2.48163   2.50177   2.51950   2.53594
 Alpha virt. eigenvalues --    2.57214   2.58775   2.59589   2.60546   2.60928
 Alpha virt. eigenvalues --    2.61903   2.62872   2.65109   2.65271   2.66060
 Alpha virt. eigenvalues --    2.66710   2.68617   2.70215   2.70942   2.72033
 Alpha virt. eigenvalues --    2.72748   2.73000   2.74124   2.76442   2.80802
 Alpha virt. eigenvalues --    2.81417   2.81765   2.82740   2.83226   2.83561
 Alpha virt. eigenvalues --    2.84609   2.86069   2.86461   2.88792   2.91259
 Alpha virt. eigenvalues --    2.91586   2.94998   2.95706   2.97467   2.98123
 Alpha virt. eigenvalues --    3.00366   3.00903   3.03433   3.03583   3.04156
 Alpha virt. eigenvalues --    3.05855   3.06277   3.06629   3.08284   3.09032
 Alpha virt. eigenvalues --    3.10424   3.12127   3.12619   3.14665   3.15268
 Alpha virt. eigenvalues --    3.16209   3.16605   3.17521   3.18193   3.19115
 Alpha virt. eigenvalues --    3.19898   3.20256   3.21607   3.22191   3.22312
 Alpha virt. eigenvalues --    3.24656   3.25435   3.27492   3.30622   3.31108
 Alpha virt. eigenvalues --    3.33825   3.34330   3.34637   3.36453   3.36744
 Alpha virt. eigenvalues --    3.37135   3.38789   3.39486   3.41375   3.42254
 Alpha virt. eigenvalues --    3.43038   3.43440   3.44509   3.46334   3.46658
 Alpha virt. eigenvalues --    3.47794   3.49427   3.50147   3.50823   3.51379
 Alpha virt. eigenvalues --    3.55151   3.55646   3.56812   3.57260   3.63276
 Alpha virt. eigenvalues --    3.64116   3.65706   3.67284   3.68751   3.69195
 Alpha virt. eigenvalues --    3.70718   3.71503   3.72705   3.74777   3.75775
 Alpha virt. eigenvalues --    3.76918   3.77136   3.77458   3.77785   3.77942
 Alpha virt. eigenvalues --    3.79626   3.81448   3.81958   3.84228   3.85829
 Alpha virt. eigenvalues --    3.86007   3.86825   3.89358   3.89839   3.90018
 Alpha virt. eigenvalues --    3.90283   3.91294   3.92071   3.93282   3.94894
 Alpha virt. eigenvalues --    3.95334   3.96749   3.97551   3.99094   4.02331
 Alpha virt. eigenvalues --    4.02694   4.02987   4.03830   4.04297   4.04999
 Alpha virt. eigenvalues --    4.06863   4.07283   4.07380   4.09682   4.10409
 Alpha virt. eigenvalues --    4.10927   4.12776   4.15058   4.15515   4.16033
 Alpha virt. eigenvalues --    4.18327   4.18733   4.19278   4.23818   4.24875
 Alpha virt. eigenvalues --    4.25858   4.26701   4.27878   4.29801   4.33351
 Alpha virt. eigenvalues --    4.33803   4.35572   4.36022   4.37300   4.37720
 Alpha virt. eigenvalues --    4.38800   4.39322   4.40615   4.44133   4.44613
 Alpha virt. eigenvalues --    4.47761   4.48661   4.52636   4.53661   4.55255
 Alpha virt. eigenvalues --    4.55828   4.60479   4.62968   4.64170   4.68124
 Alpha virt. eigenvalues --    4.68275   4.70204   4.73085   4.74342   4.75075
 Alpha virt. eigenvalues --    4.77043   4.77374   4.77977   4.79027   4.80942
 Alpha virt. eigenvalues --    4.82303   4.84206   4.85768   4.86470   4.89848
 Alpha virt. eigenvalues --    4.90280   4.93765   4.95003   4.96060   4.98724
 Alpha virt. eigenvalues --    5.00588   5.04887   5.06457   5.09009   5.10993
 Alpha virt. eigenvalues --    5.12261   5.16480   5.18369   5.19000   5.21185
 Alpha virt. eigenvalues --    5.21440   5.23111   5.23796   5.24861   5.27248
 Alpha virt. eigenvalues --    5.28257   5.28407   5.31671   5.32267   5.33854
 Alpha virt. eigenvalues --    5.34921   5.36943   5.39253   5.41535   5.44124
 Alpha virt. eigenvalues --    5.44420   5.47370   5.49280   5.53001   5.57038
 Alpha virt. eigenvalues --    5.63267   5.66914   5.71773   5.72956   5.81551
 Alpha virt. eigenvalues --    5.82072   5.82661   5.83088   5.91038   5.91385
 Alpha virt. eigenvalues --    6.04422   6.05170   6.07292  12.27620  12.33667
 Alpha virt. eigenvalues --   12.70885  13.11423  13.24003  13.32758  13.50667
          Condensed to atoms (all electrons):
               1          2          3          4          5          6
     1  C    5.145809   0.285273  -0.064206   0.311587   0.014362  -0.062913
     2  C    0.285273   5.208013   0.289522  -0.059620  -0.058736   0.006397
     3  C   -0.064206   0.289522   5.141924   0.014067   0.312398  -0.006092
     4  C    0.311587  -0.059620   0.014067   5.064779  -0.008085   0.307735
     5  C    0.014362  -0.058736   0.312398  -0.008085   5.066196   0.000893
     6  C   -0.062913   0.006397  -0.006092   0.307735   0.000893   4.978286
     7  C   -0.006355   0.006649  -0.060865   0.000903   0.311083  -0.000036
     8  H   -0.037493  -0.013894   0.007252   0.405123  -0.001512  -0.046543
     9  H   -0.049369   0.010300  -0.000590   0.418617   0.000017  -0.041874
    10  H    0.418194  -0.039615  -0.010367  -0.052431   0.003980   0.009521
    11  H    0.418309  -0.053699   0.009696  -0.040655  -0.000406  -0.004987
    12  H   -0.036525   0.418338  -0.051737  -0.009188   0.009168   0.000771
    13  H   -0.052806   0.418166  -0.035891   0.009631  -0.008749  -0.000246
    14  H   -0.009687  -0.037925   0.415811   0.003707  -0.050969  -0.000125
    15  H    0.009325  -0.051356   0.417094  -0.000361  -0.038993  -0.000038
    16  H   -0.000574   0.009612  -0.047154   0.000024   0.416247   0.000003
    17  H    0.006666  -0.012686  -0.035963  -0.001235   0.404415  -0.000033
    18  H    0.002021  -0.004355   0.000673  -0.051454  -0.000039   0.406347
    19  H    0.009074  -0.000271   0.000058  -0.041585  -0.000004   0.405769
    20  H   -0.011342   0.008704  -0.001417  -0.041681  -0.000069   0.404631
    21  H    0.000700  -0.004143   0.002128  -0.000039  -0.048215   0.000001
    22  H   -0.001576   0.008046  -0.010329  -0.000062  -0.039496   0.000007
    23  H    0.000070  -0.000239   0.008277  -0.000007  -0.039289   0.000001
               7          8          9         10         11         12
     1  C   -0.006355  -0.037493  -0.049369   0.418194   0.418309  -0.036525
     2  C    0.006649  -0.013894   0.010300  -0.039615  -0.053699   0.418338
     3  C   -0.060865   0.007252  -0.000590  -0.010367   0.009696  -0.051737
     4  C    0.000903   0.405123   0.418617  -0.052431  -0.040655  -0.009188
     5  C    0.311083  -0.001512   0.000017   0.003980  -0.000406   0.009168
     6  C   -0.000036  -0.046543  -0.041874   0.009521  -0.004987   0.000771
     7  C    4.973725  -0.000034   0.000005  -0.000207  -0.000035  -0.000222
     8  H   -0.000034   0.606451  -0.034166  -0.007260   0.008717   0.000779
     9  H    0.000005  -0.034166   0.590371  -0.007392  -0.007236  -0.000508
    10  H   -0.000207  -0.007260  -0.007392   0.572337  -0.026442   0.008031
    11  H   -0.000035   0.008717  -0.007236  -0.026442   0.562998  -0.006028
    12  H   -0.000222   0.000779  -0.000508   0.008031  -0.006028   0.553696
    13  H    0.000639  -0.000544  -0.000253  -0.008377  -0.007186  -0.027255
    14  H    0.008960  -0.008818   0.000397   0.000461  -0.000559  -0.008074
    15  H   -0.004849   0.000350   0.000038  -0.000483  -0.000266  -0.006358
    16  H   -0.039846   0.000197  -0.000008   0.000390   0.000040  -0.000231
    17  H   -0.044329   0.001823   0.000189  -0.008512   0.000327  -0.000543
    18  H    0.000001   0.009424  -0.007742   0.000022   0.004337   0.001198
    19  H    0.000001  -0.006326  -0.007442  -0.000408  -0.000188   0.000087
    20  H    0.000007  -0.007890   0.008790  -0.000486   0.000004  -0.008283
    21  H    0.405461  -0.000004   0.000001  -0.000140   0.000003  -0.000201
    22  H    0.402027   0.000061  -0.000004   0.001960   0.000200   0.000432
    23  H    0.404728   0.000003  -0.000003   0.000081  -0.000006   0.000033
              13         14         15         16         17         18
     1  C   -0.052806  -0.009687   0.009325  -0.000574   0.006666   0.002021
     2  C    0.418166  -0.037925  -0.051356   0.009612  -0.012686  -0.004355
     3  C   -0.035891   0.415811   0.417094  -0.047154  -0.035963   0.000673
     4  C    0.009631   0.003707  -0.000361   0.000024  -0.001235  -0.051454
     5  C   -0.008749  -0.050969  -0.038993   0.416247   0.404415  -0.000039
     6  C   -0.000246  -0.000125  -0.000038   0.000003  -0.000033   0.406347
     7  C    0.000639   0.008960  -0.004849  -0.039846  -0.044329   0.000001
     8  H   -0.000544  -0.008818   0.000350   0.000197   0.001823   0.009424
     9  H   -0.000253   0.000397   0.000038  -0.000008   0.000189  -0.007742
    10  H   -0.008377   0.000461  -0.000483   0.000390  -0.008512   0.000022
    11  H   -0.007186  -0.000559  -0.000266   0.000040   0.000327   0.004337
    12  H   -0.027255  -0.008074  -0.006358  -0.000231  -0.000543   0.001198
    13  H    0.559041   0.007730  -0.005918  -0.000458   0.000760  -0.000213
    14  H    0.007730   0.567159  -0.026571  -0.006639  -0.006782  -0.000159
    15  H   -0.005918  -0.026571   0.560135  -0.006779   0.008108   0.000005
    16  H   -0.000458  -0.006639  -0.006779   0.589196  -0.034045   0.000001
    17  H    0.000760  -0.006782   0.008108  -0.034045   0.589527  -0.000003
    18  H   -0.000213  -0.000159   0.000005   0.000001  -0.000003   0.590616
    19  H    0.000038   0.000096  -0.000007  -0.000003   0.000002  -0.028406
    20  H    0.000420   0.001939   0.000159  -0.000003   0.000055  -0.039596
    21  H    0.001089   0.000004   0.003813  -0.006711   0.008564  -0.000000
    22  H   -0.008048  -0.000471   0.000089   0.008093  -0.007118   0.000001
    23  H    0.000109  -0.000372  -0.000163  -0.006691  -0.005342  -0.000000
              19         20         21         22         23
     1  C    0.009074  -0.011342   0.000700  -0.001576   0.000070
     2  C   -0.000271   0.008704  -0.004143   0.008046  -0.000239
     3  C    0.000058  -0.001417   0.002128  -0.010329   0.008277
     4  C   -0.041585  -0.041681  -0.000039  -0.000062  -0.000007
     5  C   -0.000004  -0.000069  -0.048215  -0.039496  -0.039289
     6  C    0.405769   0.404631   0.000001   0.000007   0.000001
     7  C    0.000001   0.000007   0.405461   0.402027   0.404728
     8  H   -0.006326  -0.007890  -0.000004   0.000061   0.000003
     9  H   -0.007442   0.008790   0.000001  -0.000004  -0.000003
    10  H   -0.000408  -0.000486  -0.000140   0.001960   0.000081
    11  H   -0.000188   0.000004   0.000003   0.000200  -0.000006
    12  H    0.000087  -0.008283  -0.000201   0.000432   0.000033
    13  H    0.000038   0.000420   0.001089  -0.008048   0.000109
    14  H    0.000096   0.001939   0.000004  -0.000471  -0.000372
    15  H   -0.000007   0.000159   0.003813   0.000089  -0.000163
    16  H   -0.000003  -0.000003  -0.006711   0.008093  -0.006691
    17  H    0.000002   0.000055   0.008564  -0.007118  -0.005342
    18  H   -0.028406  -0.039596  -0.000000   0.000001  -0.000000
    19  H    0.591050  -0.030859  -0.000000  -0.000000  -0.000000
    20  H   -0.030859   0.603042   0.000001  -0.000005  -0.000000
    21  H   -0.000000   0.000001   0.580337  -0.038881  -0.028915
    22  H   -0.000000  -0.000005  -0.038881   0.605986  -0.030233
    23  H   -0.000000  -0.000000  -0.028915  -0.030233   0.587518
 Mulliken charges:
               1
     1  C   -0.288544
     2  C   -0.332480
     3  C   -0.294287
     4  C   -0.229768
     5  C   -0.244198
     6  C   -0.357476
     7  C   -0.357409
     8  H    0.124303
     9  H    0.127863
    10  H    0.147144
    11  H    0.143062
    12  H    0.162623
    13  H    0.158322
    14  H    0.150889
    15  H    0.143027
    16  H    0.125341
    17  H    0.136155
    18  H    0.117321
    19  H    0.109325
    20  H    0.113878
    21  H    0.125147
    22  H    0.109323
    23  H    0.110438
 Sum of Mulliken charges =  -0.00000
 Mulliken charges with hydrogens summed into heavy atoms:
               1
     1  C    0.001663
     2  C   -0.011536
     3  C   -0.000370
     4  C    0.022398
     5  C    0.017298
     6  C   -0.016951
     7  C   -0.012500
 APT charges:
               1
     1  C   -0.676890
     2  C   -0.734728
     3  C   -0.693461
     4  C   -0.569899
     5  C   -0.607556
     6  C   -1.283738
     7  C   -1.254545
     8  H    0.220777
     9  H    0.461088
    10  H    0.288969
    11  H    0.427062
    12  H    0.389615
    13  H    0.385866
    14  H    0.293723
    15  H    0.430589
    16  H    0.465669
    17  H    0.228733
    18  H    0.421334
    19  H    0.512071
    20  H    0.180212
    21  H    0.424791
    22  H    0.170859
    23  H    0.519460
 Sum of APT charges =  -0.00000
 APT charges with hydrogens summed into heavy atoms:
               1
     1  C    0.039141
     2  C    0.040752
     3  C    0.030851
     4  C    0.111966
     5  C    0.086846
     6  C   -0.170122
     7  C   -0.139435
 Electronic spatial extent (au):  <R**2>=           1134.9721
 Charge=              0.0000 electrons
 Dipole moment (field-independent basis, Debye):
    X=              0.0099    Y=              0.0073    Z=             -0.0495  Tot=              0.0510
 Quadrupole moment (field-independent basis, Debye-Ang):
   XX=            -49.3658   YY=            -49.1272   ZZ=            -49.1764
   XY=             -0.6591   XZ=             -0.0201   YZ=              0.0198
 Traceless Quadrupole moment (field-independent basis, Debye-Ang):
   XX=             -0.1426   YY=              0.0959   ZZ=              0.0467
   XY=             -0.6591   XZ=             -0.0201   YZ=              0.0198
 Octapole moment (field-independent basis, Debye-Ang**2):
  XXX=             -0.2209  YYY=              0.0540  ZZZ=             -0.0350  XYY=              0.1468
  XXY=              0.1163  XXZ=             -1.3422  XZZ=             -0.0795  YZZ=              0.0241
  YYZ=              0.0258  XYZ=             -1.2040
 Hexadecapole moment (field-independent basis, Debye-Ang**3):
 XXXX=          -1189.8870 YYYY=           -233.8723 ZZZZ=           -213.0893 XXXY=            -12.5560
 XXXZ=             -0.3871 YYYX=             -3.7662 YYYZ=             -0.1562 ZZZX=             -0.1116
 ZZZY=              0.4370 XXYY=           -234.3134 XXZZ=           -226.3430 YYZZ=            -70.2443
 XXYZ=              0.1409 YYXZ=              0.0085 ZZXY=             -0.2767
 N-N= 3.313495396492D+02 E-N=-1.301059956311D+03  KE= 2.744461617137D+02
  Exact polarizability:   0.000   0.000   0.000   0.000   0.000   0.000
 Approx polarizability:  99.872  -0.516  98.672   0.372  -0.530  99.009
 No NMR shielding tensors so no spin-rotation constants.
 Leave Link  601 at Sun Sep 29 15:42:56 2019, MaxMem=   671088640 cpu:              57.3 elap:              28.7
 (Enter /shared/centos7/gaussian/g16/l701.exe)
 SCFChk:  SCF convergence  6.15D-09 required  1.00D-08
 ... and contract with generalized density number  0.
 Compute integral second derivatives.
 Entering OneElI...
 Calculate overlap and kinetic energy integrals
    NBasis = 485  MinDer = 2  MaxDer = 2
 Requested accuracy = 0.1000D-12
 PrmmSu-InSpLW:  IPartL=    0 NPrtUS=   20 NPrtUL=    1 DoSpLW=F IThBeg=    0 IThEnd=   19 NThAct=   20.
 PrsmSu:  NPrtUS=  20 ThrOK=T IAlg=1 NPAlg=1 LenDen=           0 ISkipM=0 DoSpLW=F IThBeg=    0 IThEnd=   19.
 Prism:   IPart=     0 DynPar=F LinDyn=F Incr=           6.
 PRISM was handed    33199497 working-precision words and 13667 shell-pairs
 PRISM was handed    33199497 working-precision words and 13667 shell-pairs
 PRISM was handed    33199497 working-precision words and 13667 shell-pairs
 PRISM was handed    33199497 working-precision words and 13667 shell-pairs
 PRISM was handed    33199497 working-precision words and 13667 shell-pairs
 PRISM was handed    33199497 working-precision words and 13667 shell-pairs
 PRISM was handed    33199497 working-precision words and 13667 shell-pairs
 PRISM was handed    33199497 working-precision words and 13667 shell-pairs
 PRISM was handed    33199497 working-precision words and 13667 shell-pairs
 PRISM was handed    33199497 working-precision words and 13667 shell-pairs
 PRISM was handed    33199497 working-precision words and 13667 shell-pairs
 PRISM was handed    33199497 working-precision words and 13667 shell-pairs
 PRISM was handed    33199497 working-precision words and 13667 shell-pairs
 PRISM was handed    33199497 working-precision words and 13667 shell-pairs
 PRISM was handed    33199497 working-precision words and 13667 shell-pairs
 IPart=  0 NShTot=         713 NBatch=          76 AvBLen=         9.4
 IPart=  2 NShTot=         712 NBatch=          76 AvBLen=         9.4
 PRISM was handed    33199497 working-precision words and 13667 shell-pairs
 PRISM was handed    33199497 working-precision words and 13667 shell-pairs
 IPart= 13 NShTot=         666 NBatch=          51 AvBLen=        13.1
 IPart=  7 NShTot=         689 NBatch=          60 AvBLen=        11.5
 PRISM was handed    33199497 working-precision words and 13667 shell-pairs
 PRISM was handed    33199497 working-precision words and 13667 shell-pairs
 IPart= 15 NShTot=         665 NBatch=          51 AvBLen=        13.0
 PRISM was handed    33199497 working-precision words and 13667 shell-pairs
 IPart=  1 NShTot=         713 NBatch=          76 AvBLen=         9.4
 IPart= 14 NShTot=         665 NBatch=          51 AvBLen=        13.0
 IPart= 16 NShTot=         660 NBatch=          49 AvBLen=        13.5
 IPart=  9 NShTot=         685 NBatch=          57 AvBLen=        12.0
 IPart=  5 NShTot=         704 NBatch=          70 AvBLen=        10.1
 IPart=  3 NShTot=         710 NBatch=          74 AvBLen=         9.6
 IPart=  6 NShTot=         699 NBatch=          66 AvBLen=        10.6
 IPart= 19 NShTot=         655 NBatch=          47 AvBLen=        13.9
 IPart= 12 NShTot=         669 NBatch=          52 AvBLen=        12.9
 IPart= 18 NShTot=         657 NBatch=          48 AvBLen=        13.7
 IPart= 17 NShTot=         659 NBatch=          49 AvBLen=        13.4
 IPart= 11 NShTot=         676 NBatch=          55 AvBLen=        12.3
 IPart=  8 NShTot=         685 NBatch=          57 AvBLen=        12.0
 IPart= 10 NShTot=         680 NBatch=          56 AvBLen=        12.1
 IPart=  4 NShTot=         705 NBatch=          71 AvBLen=         9.9
 PrSmSu:  NxtVal=            121.
 Entering OneElI...
 Calculate potential energy integrals
    NBasis = 485  MinDer = 2  MaxDer = 2
 Requested accuracy = 0.1000D-12
 PrmmSu-InSpLW:  IPartL=    0 NPrtUS=   20 NPrtUL=    1 DoSpLW=F IThBeg=    0 IThEnd=   19 NThAct=   20.
 PrsmSu:  NPrtUS=  20 ThrOK=T IAlg=1 NPAlg=1 LenDen=           0 ISkipM=0 DoSpLW=F IThBeg=    0 IThEnd=   19.
 Prism:   IPart=     0 DynPar=F LinDyn=F Incr=         141.
 PRISM was handed    33262621 working-precision words and 12326 shell-pairs
 PRISM was handed    33262621 working-precision words and 12326 shell-pairs
 PRISM was handed    33262621 working-precision words and 12326 shell-pairs
 PRISM was handed    33262621 working-precision words and 12326 shell-pairs
 PRISM was handed    33262621 working-precision words and 12326 shell-pairs
 PRISM was handed    33262621 working-precision words and 12326 shell-pairs
 PRISM was handed    33262621 working-precision words and 12326 shell-pairs
 PRISM was handed    33262621 working-precision words and 12326 shell-pairs
 PRISM was handed    33262621 working-precision words and 12326 shell-pairs
 PRISM was handed    33262621 working-precision words and 12326 shell-pairs
 PRISM was handed    33262621 working-precision words and 12326 shell-pairs
 PRISM was handed    33262621 working-precision words and 12326 shell-pairs
 PRISM was handed    33262621 working-precision words and 12326 shell-pairs
 PRISM was handed    33262621 working-precision words and 12326 shell-pairs
 PRISM was handed    33262621 working-precision words and 12326 shell-pairs
 PRISM was handed    33262621 working-precision words and 12326 shell-pairs
 PRISM was handed    33262621 working-precision words and 12326 shell-pairs
 PRISM was handed    33262621 working-precision words and 12326 shell-pairs
 PRISM was handed    33262621 working-precision words and 12326 shell-pairs
 PRISM was handed    33262621 working-precision words and 12326 shell-pairs
 IPart=  0 NShTot=       14950 NBatch=         652 AvBLen=        22.9
 IPart= 16 NShTot=       13731 NBatch=         598 AvBLen=        23.0
 IPart=  8 NShTot=       14099 NBatch=         614 AvBLen=        23.0
 IPart=  6 NShTot=       14352 NBatch=         626 AvBLen=        22.9
 IPart=  1 NShTot=       14858 NBatch=         648 AvBLen=        22.9
 IPart=  2 NShTot=       14789 NBatch=         645 AvBLen=        22.9
 IPart=  5 NShTot=       14605 NBatch=         637 AvBLen=        22.9
 IPart= 15 NShTot=       13800 NBatch=         601 AvBLen=        23.0
 IPart= 13 NShTot=       13892 NBatch=         605 AvBLen=        23.0
 IPart= 18 NShTot=       13662 NBatch=         595 AvBLen=        23.0
 IPart=  4 NShTot=       14651 NBatch=         639 AvBLen=        22.9
 IPart=  7 NShTot=       14168 NBatch=         617 AvBLen=        23.0
 IPart= 17 NShTot=       13685 NBatch=         596 AvBLen=        23.0
 IPart=  9 NShTot=       14099 NBatch=         614 AvBLen=        23.0
 IPart= 19 NShTot=       13616 NBatch=         593 AvBLen=        23.0
 IPart= 10 NShTot=       14053 NBatch=         612 AvBLen=        23.0
 IPart= 12 NShTot=       13915 NBatch=         606 AvBLen=        23.0
 IPart= 14 NShTot=       13846 NBatch=         603 AvBLen=        23.0
 IPart= 11 NShTot=       14030 NBatch=         611 AvBLen=        23.0
 IPart=  3 NShTot=       14697 NBatch=         641 AvBLen=        22.9
 PrSmSu:  NxtVal=           2821.
 Polarizability after L701:
                1             2             3 
      1  0.000000D+00
      2  0.000000D+00  0.000000D+00
      3  0.000000D+00  0.000000D+00  0.000000D+00
 Dipole Derivatives after L701:
                 1             2             3             4             5 
      1  -0.406712D+00  0.538414D+00 -0.436354D+00 -0.636007D+00 -0.480642D+00
      2  -0.998626D-01 -0.119095D+01  0.539237D-01 -0.479847D+00 -0.327608D+00
      3  -0.454971D+00  0.217225D+00 -0.433006D+00  0.100560D-02  0.303552D-02
                 6             7             8             9            10 
      1  -0.152080D-01 -0.431231D+00  0.504184D+00  0.450369D+00 -0.194987D+00
      2   0.167708D-01 -0.104991D+00 -0.118044D+01 -0.751430D-01  0.432903D+00
      3  -0.124057D+01  0.444148D+00 -0.232102D+00 -0.468711D+00  0.160748D-01
                11            12            13            14            15 
      1   0.535568D+00  0.121714D+01 -0.295244D+00  0.567480D+00 -0.112635D+01
      2  -0.564606D+00 -0.209454D+00  0.433674D+00 -0.589011D+00  0.212270D+00
      3  -0.133977D-01 -0.950104D+00 -0.136444D-01  0.247795D-01 -0.938413D+00
                16            17            18            19            20 
      1  -0.202486D+01 -0.755439D+00 -0.636120D+00 -0.192413D+01 -0.763117D+00
      2   0.426310D-02 -0.984686D+00  0.447811D-02  0.159468D-01 -0.985055D+00
      3   0.177967D+00  0.130922D+00 -0.841669D+00 -0.168783D+00 -0.134209D+00
                21            22            23            24            25 
      1   0.562962D+00 -0.345028D-01  0.270489D+00 -0.261170D+00  0.535000D+00
      2  -0.146243D-01 -0.612093D-01  0.242677D+00 -0.743012D-01 -0.189560D+00
      3  -0.854447D+00  0.248851D+00 -0.333941D+00  0.454157D+00 -0.218491D+00
                26            27            28            29            30 
      1  -0.580313D+00 -0.433658D+00  0.167100D+00 -0.285247D-02 -0.931569D-02
      2   0.470504D+00  0.228107D+00  0.388779D+00  0.424963D+00  0.352653D+00
      3   0.341759D+00  0.377760D+00  0.105477D+00  0.767527D-01  0.274842D+00
                31            32            33            34            35 
      1   0.370022D+00 -0.328134D+00  0.283485D+00  0.372005D+00  0.147580D+00
      2  -0.304798D+00  0.541145D+00 -0.388396D+00  0.137830D+00  0.293972D+00
      3   0.137556D+00 -0.215324D+00  0.370020D+00  0.438006D+00  0.343305D+00
                36            37            38            39            40 
      1   0.148149D+00  0.363640D+00  0.147902D+00 -0.140691D+00  0.166924D+00
      2   0.102727D+00  0.149516D+00  0.305931D+00 -0.107561D+00  0.397890D+00
      3   0.502867D+00 -0.432010D+00 -0.351192D+00  0.488027D+00 -0.920649D-01
                41            42            43            44            45 
      1  -0.371704D-02  0.797364D-02  0.378777D+00 -0.314670D+00 -0.304608D+00
      2   0.454513D+00 -0.353779D+00 -0.310386D+00  0.516335D+00  0.403566D+00
      3  -0.709814D-01  0.259731D+00 -0.159145D+00  0.221691D+00  0.396655D+00
                46            47            48            49            50 
      1   0.555688D+00 -0.615484D+00  0.411673D+00 -0.307924D-01  0.252643D+00
      2  -0.212938D+00  0.493192D+00 -0.220791D+00 -0.526603D-01  0.229674D+00
      3   0.223193D+00 -0.340702D+00  0.348126D+00 -0.255949D+00  0.324969D+00
                51            52            53            54            55 
      1   0.275330D+00  0.770991D+00 -0.670819D+00  0.794041D+00  0.944970D+00
      2   0.636699D-01 -0.715991D-01  0.208498D+00 -0.737179D-01  0.220109D+00
      3   0.487317D+00  0.160557D+00 -0.156601D+00  0.284513D+00 -0.203783D+00
                56            57            58            59            60 
      1   0.537649D+00 -0.923577D+00 -0.176524D+00  0.550578D+00  0.448519D+00
      2   0.237444D+00 -0.230134D+00 -0.217434D+00  0.475810D+00  0.280535D+00
      3  -0.122402D+00  0.353798D+00 -0.103488D+00  0.171776D+00  0.241351D+00
                61            62            63            64            65 
      1   0.765725D+00 -0.617707D+00 -0.841859D+00 -0.204382D+00  0.576174D+00
      2  -0.582650D-01  0.196439D+00  0.655191D-01 -0.240665D+00  0.502836D+00
      3  -0.165335D+00  0.157727D+00  0.312209D+00  0.100261D+00 -0.160275D+00
                66            67            68            69 
      1  -0.413869D+00  0.968532D+00  0.504233D+00  0.943136D+00
      2  -0.269241D+00  0.223304D+00  0.228424D+00  0.232924D+00
      3   0.214123D+00  0.214566D+00  0.117184D+00  0.361424D+00
 Hessian after L701:
                1             2             3             4             5 
      1  0.154621D+02
      2  0.287405D+00  0.170472D+02
      3  0.707383D+00 -0.729143D-01  0.175703D+02
      4 -0.520888D+01 -0.137731D+01 -0.117711D+01  0.154845D+02
      5 -0.140606D+01 -0.465828D+01  0.146142D+01  0.729470D+00  0.174218D+02
      6 -0.118047D+01  0.147167D+01 -0.507573D+01  0.340518D-01  0.110551D-01
      7  0.269546D+00 -0.222458D+00  0.143456D-01 -0.501166D+01 -0.148546D+01
      8 -0.224220D+00  0.971245D-01 -0.181589D-01 -0.145885D+01 -0.435721D+01
      9 -0.159653D-01  0.116236D-01 -0.639017D-02  0.112988D+01 -0.143939D+01
     10 -0.434645D+01  0.117406D+01 -0.175569D+01  0.297690D+00 -0.387600D-01
     11  0.115000D+01 -0.566680D+01 -0.101469D+01 -0.675140D-01 -0.218016D-01
     12 -0.168884D+01 -0.102019D+01 -0.477984D+01 -0.234189D+00  0.260237D-01
     13  0.232324D+00 -0.219837D+00  0.200792D+00  0.288413D+00 -0.447335D-01
     14 -0.293318D+00 -0.124019D+00 -0.118719D+00 -0.689923D-01 -0.212058D-01
     15  0.130430D+00 -0.772392D-01 -0.202126D+00  0.227536D+00 -0.261030D-01
     16  0.280062D+00  0.137932D+00  0.683018D-03  0.274263D+00  0.120185D+00
     17  0.211027D+00  0.263911D-03  0.109489D-01  0.600627D-01 -0.222762D+00
     18 -0.571715D-01 -0.103605D-01 -0.520251D-01 -0.256947D+00 -0.516297D-01
     19  0.130105D+00  0.109355D-01  0.199908D-01  0.281605D+00  0.116894D+00
     20 -0.842887D-01 -0.111992D+00 -0.887727D-02  0.572400D-01 -0.219455D+00
     21  0.224623D-01  0.569511D-02 -0.100346D+00  0.251991D+00  0.492087D-01
     22  0.920964D-01 -0.860157D-01  0.860367D-01  0.299020D-02 -0.114618D-01
     23 -0.473402D-01 -0.235874D-02  0.590187D-01 -0.234842D-02  0.232773D-01
     24  0.487103D-01  0.112317D+00  0.242379D-01  0.211978D-01  0.101294D-01
     25 -0.139509D-02 -0.120107D-01  0.111160D+00  0.564332D-01 -0.596981D-01
     26 -0.116537D-01  0.159845D+00  0.188884D-01 -0.713691D-01 -0.216183D-01
     27  0.109562D+00  0.194982D-01 -0.587638D-02 -0.117827D+00  0.608807D-01
     28 -0.350942D+01  0.944639D+00  0.921164D+00  0.139326D+00  0.652269D-01
     29  0.112381D+01 -0.365642D+01  0.890990D+00  0.324864D-01  0.175636D-01
     30  0.987179D+00  0.804893D+00 -0.379516D+01  0.358720D-01 -0.859452D-01
     31 -0.389077D+01 -0.774271D+00  0.680349D+00  0.549389D-01  0.117820D+00
     32 -0.809855D+00 -0.313675D+01 -0.105621D+01  0.130649D+00 -0.522419D-01
     33  0.691995D+00 -0.102798D+01 -0.350885D+01  0.429523D-01 -0.587454D-01
     34  0.119140D+00  0.724340D-01  0.755078D-01 -0.356904D+01  0.783196D+00
     35  0.454905D-01 -0.332492D-01 -0.626577D-01  0.826800D+00 -0.397086D+01
     36  0.478213D-01 -0.106456D+00  0.416935D-01  0.113458D+01  0.831372D+00
     37  0.371649D-01  0.810533D-01  0.128758D+00 -0.350499D+01  0.814845D+00
     38  0.828769D-01  0.161820D+00 -0.820885D-01  0.865691D+00 -0.386089D+01
     39  0.165644D+00 -0.948235D-01 -0.297972D-01 -0.112008D+01 -0.850865D+00
     40 -0.394987D-02  0.287995D-01 -0.122960D-01  0.129807D+00  0.678999D-01
     41  0.619419D-02 -0.255723D-01  0.886032D-02  0.323895D-01  0.110276D-01
     42 -0.205719D-02  0.499028D-02  0.815192D-02 -0.329805D-01  0.785562D-01
     43  0.388770D-01 -0.106890D+00 -0.334856D-01  0.509788D-01  0.111768D+00
     44 -0.120674D+00  0.874291D-01  0.423563D-01  0.124173D+00 -0.545509D-01
     45 -0.467194D-01  0.484242D-01 -0.400750D-01 -0.362186D-01  0.466369D-01
     46  0.940535D-02 -0.833396D-02  0.926935D-02  0.574945D-01 -0.612986D-01
     47 -0.216278D-01 -0.234794D-02 -0.114383D-01 -0.730565D-01 -0.161821D-01
     48  0.123579D-01 -0.485800D-02 -0.376573D-02  0.109993D+00 -0.597052D-01
     49  0.270407D-01 -0.111849D-01  0.772185D-01 -0.179502D-03 -0.873929D-02
     50  0.285346D-02 -0.665498D-01 -0.133441D-02 -0.406522D-03  0.197045D-01
[...]
 20,0.08073101,0.00012810,0.00029825,0.00068114,-0.01917761,-0.01591231
 ,0.02120402,-0.00020987,0.00034479,-0.00031176,-0.00024918,-0.00515988
 ,-0.00429113,0.00072217,-0.00050140,-0.00029927,-0.00016580,-0.0000922
 7,-0.00024813,0.00001619,0.00007663,0.00001154,0.00017524,0.00002014,-
 0.00012401,0.00040378,0.00039836,-0.00004348,-0.00034860,0.00077898,-0
 .00056655,0.07824778,0.11435419,0.00098169,-0.00032668,0.00046476,0.01
 775897,0.01340458,-0.02301505,0.10018818,0.08166506,-0.16148655,0.0000
 3118,0.00014497,-0.00004756,-0.00768276,-0.00608451,0.00784305,-0.0002
 7037,0.00011872,0.00012773,-0.00029249,-0.00222889,-0.00021856,0.00000
 050,0.00014012,0.00059790,0.00005493,-0.00009792,0.00037870,-0.0000507
 0,-0.00003320,0.00002361,-0.00009810,-0.00010992,0.00014050,0.00031313
 ,-0.00035229,0.00097586,-0.00363918,-0.00027772,-0.00490944,-0.1084139
 8,-0.08606851,0.17939989,0.00025456,-0.00127833,-0.00300293,-0.0126004
 6,0.00683894,0.00106691,-0.23774179,0.11322227,0.01375152,0.00049638,0
 .00008642,-0.00003825,0.00536114,-0.00412394,0.00000905,-0.00000545,0.
 00008462,-0.00005566,0.00134585,-0.00018094,-0.00043493,0.00017553,-0.
 00016768,-0.00016913,-0.00008256,-0.00000914,-0.00010486,0.00007060,0.
 00008960,0.00000769,-0.00081315,0.00063584,-0.00011025,-0.00011675,-0.
 00046739,0.00008205,0.00091959,0.00010032,-0.00011599,-0.01663253,0.00
 920586,0.00129720,0.25764171,-0.00041039,0.00093778,0.00017278,-0.0005
 2255,-0.00019593,0.00048265,0.11250646,-0.11425034,-0.00646985,-0.0001
 1805,0.00013415,0.00001438,0.02714989,-0.01910985,-0.00337042,0.000045
 27,0.00000083,-0.00000279,0.00160198,0.00144544,-0.00021345,-0.0000746
 5,-0.00014872,-0.00008735,-0.00001194,-0.00000591,-0.00008934,-0.00021
 407,0.00015732,-0.00022652,0.00016857,0.00000664,-0.00006886,-0.000195
 14,0.00034634,0.00040396,0.00018593,0.00002109,0.00009204,-0.01323786,
 0.00802053,0.00023807,-0.12339465,0.12634897,-0.00133165,-0.00164683,-
 0.00591500,-0.02870457,0.01672449,-0.00004595,0.01451518,-0.00682695,-
 0.04697799,0.00041654,-0.00017963,-0.00065941,0.01017569,-0.00714792,-
 0.00191583,-0.00005159,0.00004142,0.00013400,-0.00050467,0.00084939,-0
 .00002498,-0.00000702,0.00001446,0.00039555,-0.00000801,-0.00000686,0.
 00026062,0.00019230,0.00012931,0.00003076,-0.00163928,0.00105799,-0.00
 027425,0.00051346,-0.00042791,0.00113490,0.00068708,0.00043412,0.00122
 777,0.01839718,-0.01152167,-0.00160844,-0.01211425,0.01076044,0.054129
 94,0.00027839,0.00019315,0.00001087,0.00034817,-0.00126063,0.00014977,
 -0.00335690,0.00097643,-0.00459006,0.00007879,-0.00005257,-0.00004671,
 -0.10326088,0.01123120,-0.10652887,-0.00006457,0.00001843,-0.00003189,
 0.00923662,-0.00301186,0.01997015,0.00003507,0.00005823,-0.00015141,-0
 .00003596,-0.00000443,0.00000192,0.00001084,-0.00031939,0.00018775,-0.
 00003202,-0.00018854,-0.00005086,-0.00003101,-0.00001768,-0.00042546,0
 .00000057,-0.00010253,-0.00018419,-0.00030474,-0.00000749,-0.00006385,
 0.00058763,-0.00020974,0.00037184,0.10999654,0.00043294,-0.00058610,0.
 00027308,-0.00052680,-0.00629406,-0.00032508,-0.01579025,0.00079696,-0
 .03007929,-0.00002712,0.00011207,-0.00007063,0.01156792,-0.04760991,0.
 01936787,0.00002283,-0.00002588,0.00003705,0.00792960,-0.00327928,0.01
 701226,-0.00000208,-0.00003508,0.00009601,-0.00005792,-0.00000767,0.00
 004823,-0.00008048,0.00033941,0.00005398,-0.00006384,0.00021685,0.0000
 2083,-0.00076035,-0.00018622,-0.00179763,0.00019317,0.00002135,-0.0000
 7247,-0.00004918,0.00124061,0.00067414,0.00058170,0.00126394,0.0002531
 2,-0.00817585,0.05636133,0.00031520,-0.00009248,0.00027801,0.00003257,
 -0.00275123,0.00120712,-0.00530424,0.00049840,-0.01019218,0.00001322,-
 0.00000892,-0.00009286,-0.10540069,0.01902172,-0.25330566,-0.00002723,
 -0.00001509,0.00005184,-0.00868800,0.00310268,-0.01887896,-0.00001095,
 -0.00002379,0.00000633,-0.00004624,0.00000239,0.00002630,0.00013411,0.
 00004384,0.00005408,-0.00003775,0.00004254,-0.00001268,-0.00041034,0.0
 0001105,-0.00078689,0.00013927,0.00019488,0.00024195,-0.00015204,-0.00
 021207,0.00067380,0.00048323,0.00004824,0.00005302,0.11427972,-0.02157
 730,0.27609070,-0.00048274,0.00063701,-0.00076918,0.00008925,0.0004404
 7,-0.00003624,0.00684562,-0.00296040,-0.00064375,-0.00014284,-0.000221
 05,-0.00033181,-0.23670237,0.11031332,0.03249404,-0.00002186,-0.000060
 08,-0.00002245,-0.01732281,0.00855429,0.00358704,-0.00032107,-0.000383
 69,0.00007150,-0.00002111,0.00001498,-0.00005204,-0.00050556,-0.000649
 74,-0.00084031,0.00004624,-0.00026987,0.00006131,0.00006827,0.00005757
 ,0.00023844,0.00001019,-0.00006992,-0.00008612,0.00048859,0.00073880,0
 .00022892,0.00100982,-0.00181545,-0.00086698,-0.01319458,0.00715088,0.
 00157727,0.25994128,-0.00001514,0.00016217,-0.00037471,0.00047070,0.00
 078240,0.00098298,0.02718898,-0.01775603,-0.00411202,-0.00023786,-0.00
 002046,-0.00052828,0.11017211,-0.11049240,-0.01970767,0.00013966,-0.00
 010182,0.00032718,-0.01709172,0.00908991,0.00333564,-0.00063897,-0.000
 34929,0.00040689,0.00006978,0.00003218,0.00017101,-0.00012660,0.000453
 48,-0.00012553,-0.00010208,0.00027543,0.00015645,-0.00010509,0.0001035
 7,0.00008875,-0.00005527,-0.00001519,-0.00003385,-0.00005433,0.0009748
 4,0.00061560,-0.00195580,-0.00547408,-0.00248562,0.00204777,-0.0018607
 3,0.00011210,-0.11834644,0.12413045,-0.00046165,-0.00044387,-0.0004780
 2,0.00105778,0.00005465,0.00013266,0.01017554,-0.00568112,-0.00186305,
 -0.00012019,0.00018865,0.00015862,0.03072554,-0.01884586,-0.05409160,0
 .00013095,-0.00005397,-0.00003146,0.01961976,-0.01022146,-0.00438542,-
 0.00002330,0.00000202,0.00021019,0.00001281,-0.00000367,-0.00000475,-0
 .00086141,0.00005454,-0.00148083,0.00017432,0.00022263,0.00010070,-0.0
 0019996,0.00018061,0.00010964,-0.00004699,-0.00008097,-0.00001681,-0.0
 0030736,0.00052480,0.00033314,-0.00025839,-0.00213464,-0.00012782,-0.0
 2494190,0.01467884,0.00463961,-0.03643870,0.01974230,0.05783656,0.0002
 4682,0.00022488,-0.00107786,0.00000043,-0.00019525,-0.00020722,0.00013
 615,0.00007880,-0.00028746,-0.00353129,-0.00231301,-0.00787035,-0.0000
 3360,-0.00009259,0.00017549,-0.07147802,-0.01751220,-0.07323818,-0.000
 03945,-0.00001607,-0.00005661,0.00040206,-0.00197795,0.00007216,0.0002
 4799,0.00009556,0.00055423,0.00011021,0.00016374,0.00018753,0.00000050
 ,-0.00020212,0.00040120,-0.00017018,0.00033511,-0.00006523,0.00001341,
 0.00007211,0.00009016,0.00013622,-0.00002557,0.00024481,-0.00003830,-0
 .00002663,0.00005897,0.00000116,0.00002851,0.00001574,-0.00002546,0.00
 005276,-0.00000129,0.07293524,0.00080266,0.00178859,-0.00131254,-0.000
 18526,0.00013953,0.00026093,0.00008505,-0.00007759,0.00003322,-0.01130
 266,-0.00868065,-0.03153111,0.00013007,-0.00012334,-0.00006572,-0.0174
 6402,-0.05978044,-0.05516882,-0.00005822,0.00008628,-0.00000195,-0.001
 70878,-0.00638904,0.00018094,0.00070267,0.00113186,0.00006863,0.000484
 82,0.00019137,0.00014744,-0.00003635,0.00000224,0.00103490,-0.00015529
 ,-0.00008568,-0.00001141,-0.00006126,0.00004214,-0.00001319,0.00000553
 ,-0.00011273,-0.00006446,-0.00000226,0.00002044,0.00005820,-0.00003789
 ,0.00001352,0.00000749,-0.00001274,0.00014843,0.00002310,0.02165721,0.
 06700804,0.00060347,0.00046390,0.00124292,-0.00017052,-0.00011923,0.00
 006340,0.00008282,0.00018912,-0.00005735,-0.00018495,-0.00082733,-0.00
 134366,0.00005797,-0.00001589,0.00009728,-0.07339888,-0.05558969,-0.27
 376676,-0.00000816,-0.00001041,-0.00001503,0.00068265,-0.00010067,0.00
 145770,0.00012314,-0.00052348,0.00015447,0.00001449,-0.00001462,0.0002
 1629,-0.00068637,-0.00036547,0.00029967,-0.00026875,-0.00006818,-0.000
 11014,-0.00006882,-0.00000519,0.00001337,0.00005758,-0.00002576,0.0000
 9963,-0.00005386,-0.00002093,0.00001830,0.00001332,0.00001195,0.000004
 46,0.00002260,0.00001638,0.00000608,0.08135164,0.06226861,0.29635708,0
 .00055712,-0.00147347,-0.00100600,0.00027212,0.00019842,0.00012610,0.0
 0007031,-0.00006757,0.00010028,-0.00572941,-0.00015806,0.00410379,-0.0
 0003369,0.00003844,0.00003127,-0.19978644,-0.03741450,0.12852950,0.000
 00932,-0.00005825,-0.00001683,-0.00024022,0.00002000,-0.00022009,0.000
 79605,-0.00008236,-0.00019642,-0.00023387,-0.00006995,0.00049918,0.000
 00775,0.00000432,0.00017421,0.00006460,-0.00029538,-0.00024958,-0.0000
 5239,-0.00017617,-0.00001781,0.00002552,0.00001892,0.00013040,-0.00004
 439,-0.00000390,-0.00001718,-0.00003928,-0.00002870,-0.00003839,0.0000
 1962,-0.00001955,0.00003419,0.00852874,0.00260296,-0.00676831,0.214222
 48,-0.00061114,-0.00669090,-0.00221536,0.00071248,-0.00064844,-0.00036
 324,-0.00006665,0.00009241,0.00006841,-0.02491529,-0.00568593,0.022464
 66,0.00006045,-0.00004000,0.00000556,-0.03654042,-0.05476841,0.0307738
 8,-0.00000589,0.00002331,0.00005694,0.00016747,0.00114041,-0.00055650,
 0.00068053,0.00136886,0.00041116,-0.00152232,-0.00066369,0.00139328,0.
 00023786,0.00004608,-0.00007519,0.00003291,0.00053302,0.00014121,-0.00
 004928,0.00027882,0.00004670,0.00001101,-0.00002361,-0.00009147,-0.000
 04586,0.00001220,-0.00006828,-0.00003085,0.00002521,-0.00001076,-0.000
 00972,0.00002808,0.00006972,0.00629259,0.00032127,-0.00411371,0.041866
 60,0.06115430,-0.00017733,0.00003138,0.00067949,-0.00016368,-0.0000416
 3,0.00009650,0.00003053,0.00005249,-0.00004662,-0.00326344,-0.00082369
 ,0.00144268,-0.00000530,-0.00000397,0.00005972,0.12856795,0.03158432,-
 0.15595373,-0.00000910,-0.00001421,-0.00000909,-0.00007715,0.00051116,
 0.00033534,-0.00002432,0.00045802,0.00001259,0.00026860,-0.00002569,0.
 00019644,-0.00012819,-0.00025195,0.00045145,-0.00016188,0.00001917,-0.
 00007286,0.00001745,-0.00000749,-0.00000428,0.00000894,0.00002129,0.00
 004738,0.00002274,-0.00001057,0.00001808,0.00001886,0.00000993,0.00001
 322,0.00000770,-0.00002234,-0.00001647,0.02318441,0.00539795,-0.018128
 36,-0.14124838,-0.03441117,0.16543489,0.00036485,0.00053459,0.00023691
 ,-0.00093887,0.00021839,0.00071227,-0.00019064,-0.00018957,0.00034955,
 0.00869066,-0.00533154,0.00283630,0.00005904,-0.00006233,-0.00007336,-
 0.20460238,0.12212781,-0.05030143,-0.00000529,0.00002305,-0.00000181,0
 .00053417,0.00082252,0.00007861,0.00057953,-0.00256853,0.00023414,0.00
 007471,0.00017467,-0.00017454,-0.00004613,-0.00005809,0.00004276,-0.00
 127780,-0.00096694,0.00080051,0.00010808,-0.00015535,-0.00010965,0.000
 14304,-0.00002623,-0.00035701,0.00000998,0.00000062,0.00003072,0.00002
 736,0.00000261,0.00001279,-0.00002400,-0.00000848,-0.00002499,-0.00742
 382,0.00457453,-0.00138339,-0.01839388,0.01372652,-0.00687217,0.222301
 95,0.00086848,0.00077224,-0.00033846,-0.00005902,-0.00022417,0.0002323
 6,-0.00031447,-0.00002445,0.00023020,0.02595902,-0.01999159,0.00765806
 ,0.00024723,-0.00010449,-0.00023201,0.12118278,-0.14023612,0.03835296,
 -0.00000972,0.00015795,0.00011337,0.00015895,0.00152415,-0.00029746,-0
 .00274556,-0.00599912,-0.00035731,-0.00016241,0.00018291,-0.00008886,-
 0.00009092,-0.00003193,-0.00000509,-0.00038734,0.00054239,0.00038946,-
 0.00001070,0.00037352,-0.00006265,-0.00037211,-0.00011826,-0.00052771,
 0.00010587,0.00007734,-0.00009631,-0.00001736,0.00003874,0.00002594,-0
 .00002390,0.00006955,0.00003845,-0.00660198,0.00438309,-0.00113954,-0.
 00492094,0.00347071,-0.00246737,-0.13284882,0.15511504,-0.00062354,0.0
 0042552,-0.00018949,0.00009774,0.00067290,0.00025997,-0.00008428,-0.00
 034640,0.00041662,0.00233437,-0.00205734,-0.00019547,-0.00002085,0.000
 05448,-0.00015005,-0.04966837,0.03857303,-0.06315903,0.00001255,-0.000
 00541,0.00001128,0.00057933,0.00005737,0.00026171,-0.00003930,-0.00084
 216,0.00084453,0.00019923,-0.00011351,0.00003487,-0.00000336,0.0000315
 0,0.00004612,0.00092075,0.00004259,-0.00072232,-0.00013133,-0.00019879
 ,-0.00009811,-0.00008847,-0.00007772,-0.00015951,0.00003492,0.00003155
 ,-0.00003458,-0.00002332,-0.00005643,-0.00003426,0.00001877,-0.0000376
 4,0.00000776,-0.02358208,0.01865143,-0.00661438,0.01609308,-0.01344556
 ,0.00543160,0.05396980,-0.04139094,0.06407685,0.00004952,0.00031442,0.
 00004156,-0.00019012,-0.00012663,0.00003165,0.00069522,0.00128969,-0.0
 0028288,0.00008683,-0.00016260,0.00009811,-0.01765849,0.00934132,0.004
 09838,-0.00006353,0.00002625,-0.00003323,-0.23145127,0.11297593,0.0429
 8071,0.00003818,0.00003695,-0.00009043,0.00001779,0.00000016,-0.000032
 67,0.00018976,-0.00015265,0.00009388,-0.00000893,-0.00009350,-0.000031
 02,0.00002538,-0.00004266,-0.00009616,-0.00024564,0.00004634,-0.000305
 88,0.00044773,-0.00006027,-0.00005377,0.00006049,-0.00100135,-0.000128
 22,0.00074586,-0.00012071,0.00003516,-0.00089551,-0.00261822,0.0029191
 2,-0.00001300,-0.00002834,-0.00001271,-0.00000313,-0.00002537,0.000006
 57,0.00000713,-0.00002100,0.00001151,0.25269257,-0.00006718,-0.0000280
 2,0.00014955,0.00006486,0.00006216,-0.00004211,-0.00094416,0.00187690,
 -0.00003991,-0.00005235,-0.00000416,0.00007547,-0.01624249,0.00889332,
 0.00317618,-0.00001594,0.00001541,-0.00005326,0.11335501,-0.11608830,-
 0.02730780,0.00000842,0.00002021,-0.00008242,-0.00001415,-0.00001170,-
 0.00002366,-0.00002020,-0.00000380,0.00004277,0.00004637,-0.00001020,-
 0.00000469,0.00005122,0.00002256,-0.00002700,0.00013929,0.00004962,-0.
 00007959,0.00023599,0.00020202,0.00002627,0.00069903,-0.00002367,0.000
 04841,0.00068593,0.00050754,-0.00062017,-0.00288454,-0.00142240,0.0024
 7523,-0.00000382,-0.00002079,0.00000380,0.00001279,0.00000303,-0.00000
 193,-0.00000002,-0.00001840,0.00000526,-0.12273133,0.12360115,-0.00008
 216,0.00017258,-0.00002029,-0.00013740,0.00024202,0.00033133,-0.000876
 30,-0.00102688,0.00070622,-0.00000305,-0.00013306,-0.00014232,0.019124
 78,-0.01104625,-0.00479044,-0.00002628,-0.00000460,0.00007992,0.042860
 74,-0.02709062,-0.05748561,-0.00005255,-0.00003087,0.00007066,0.000022
 76,0.00001035,0.00001305,0.00017367,-0.00007389,-0.00006283,-0.0000260
 8,-0.00000385,0.00001956,0.00008876,-0.00001618,0.00002097,0.00015872,
 0.00016665,-0.00016997,-0.00028626,-0.00010596,-0.00013188,-0.00026655
 ,0.00055917,0.00026560,-0.00046247,-0.00070201,0.00028094,0.00230675,0
 .00275546,-0.00221138,0.00000674,0.00002844,0.00000341,-0.00000039,-0.
 00002044,-0.00000214,0.00000043,-0.00000270,0.00000279,-0.05085490,0.0
 2771385,0.06000656,-0.00001903,-0.00074085,-0.00002096,0.00013722,-0.0
 0062095,-0.00089228,0.00048195,0.00058313,-0.00058403,-0.00006050,0.00
 020117,0.00016041,0.01069357,-0.00328745,0.01901658,0.00005502,-0.0000
 0297,-0.00006806,-0.10702636,0.02438752,-0.10933579,-0.00001147,-0.000
 00731,-0.00000797,-0.00000643,-0.00000718,0.00001268,-0.00042061,0.000
 35071,0.00014870,0.00004739,0.00007521,0.00000781,-0.00012500,0.000084
 79,0.00010036,-0.00039405,-0.00068042,-0.00000304,0.00004672,0.0002142
 9,-0.00001287,-0.00003231,-0.00008773,-0.00002292,-0.00190642,-0.00286
 659,0.00318035,0.00107677,0.00079774,-0.00052569,0.00000183,-0.0000011
 4,0.00000515,0.00000812,0.00004047,-0.00000577,-0.00000028,0.00001686,
 -0.00000406,-0.01264644,0.00358299,-0.02367600,0.11469810,-0.00009150,
 0.00010208,-0.00022303,-0.00044450,-0.00057962,0.00014162,0.00089422,0
 .00044754,0.00040022,0.00005859,0.00001936,0.00018713,0.00913083,-0.00
 342229,0.01487222,0.00004719,0.00000085,-0.00008905,0.02356525,-0.0563
 2207,0.04240966,-0.00000141,0.00001314,-0.00006843,0.00006465,0.000003
 38,-0.00004827,-0.00019179,0.00018422,0.00002655,0.00002004,0.00002178
 ,0.00000716,0.00020996,0.00018113,-0.00014115,-0.00045708,-0.00143473,
 -0.00091167,-0.00013692,0.00014634,-0.00028420,-0.00007899,-0.00003380
 ,0.00002041,-0.00240776,-0.00133309,0.00206048,0.00006072,0.00066329,-
 0.00082717,-0.00001881,-0.00000982,0.00000150,0.00003219,0.00002183,-0
 .00000975,0.00000181,-0.00001458,0.00002678,0.00749110,-0.00375383,0.0
 1511352,-0.02369987,0.05863178,0.00006834,0.00010357,0.00011848,-0.000
 21148,-0.00025081,-0.00046061,-0.00014725,-0.00067116,0.00001814,-0.00
 000179,-0.00017897,-0.00015436,-0.00919420,0.00375141,-0.01876775,-0.0
 0009385,0.00002144,0.00010807,-0.10880790,0.04303201,-0.24464940,-0.00
 004546,0.00001219,0.00005164,0.00001471,0.00000938,0.00003488,0.000463
 74,0.00000006,0.00010169,-0.00002929,-0.00014457,-0.00001644,-0.000055
 20,-0.00013365,0.00032736,-0.00065075,-0.00094761,0.00037093,0.0000655
 1,0.00006856,0.00009943,0.00003903,-0.00000470,0.00003416,0.00326866,0
 .00241099,-0.00133554,-0.00010634,-0.00051433,0.00057998,0.00001946,0.
 00001196,-0.00000050,-0.00003174,-0.00004353,0.00000748,0.00000291,-0.
 00001441,-0.00001627,0.00329750,-0.00121243,0.00674517,0.11818860,-0.0
 4779360,0.26816431,0.00007886,-0.00003282,-0.00000249,0.00022902,0.000
 07301,0.00031084,-0.00197486,-0.00075760,0.00311714,0.00003455,-0.0000
 4355,-0.00002319,-0.00517981,-0.01687719,-0.00923776,-0.00001390,-0.00
 002345,0.00003177,-0.06408930,-0.05842924,-0.02845586,0.00002864,-0.00
 003523,0.00001306,-0.00003740,0.00000551,-0.00000740,0.00007685,-0.000
 05051,-0.00001549,-0.00004412,0.00000623,-0.00001182,-0.00004272,-0.00
 003229,-0.00000592,-0.00012287,0.00012068,0.00001727,0.00002772,-0.001
 16761,-0.00029481,0.00017439,-0.00033461,0.00003738,0.00087937,0.00063
 973,-0.00010277,0.00006426,0.00043605,-0.00063818,-0.00000765,0.000008
 73,-0.00001012,-0.00002509,-0.00000609,0.00000293,0.00000257,0.0000470
 8,-0.00000309,0.00811962,0.02409429,0.01200704,-0.00459781,-0.01404792
 ,-0.00605318,0.06641968,0.00003176,-0.00010732,-0.00002113,0.00022342,
 0.00028017,0.00053270,-0.00252790,-0.00022787,0.00344307,-0.00000458,0
 .00003300,0.00001973,-0.00274945,-0.01423509,-0.00723679,0.00002209,-0
 .00001911,-0.00000160,-0.05874570,-0.25289204,-0.09857740,0.00004068,-
 0.00003690,-0.00003299,-0.00005216,0.00000387,-0.00001419,-0.00002075,
 0.00001834,0.00002778,-0.00006719,0.00002710,-0.00003171,-0.00000297,-
 0.00000162,-0.00009477,0.00018889,0.00010073,-0.00001179,-0.00046818,-
 0.00110043,-0.00048004,0.00005454,0.00044931,0.00001621,0.00063342,0.0
 0028049,0.00014007,-0.00026048,0.00057862,0.00003720,-0.00001527,0.000
 00328,-0.00001515,-0.00002581,0.00000145,0.00000605,0.00000880,0.00005
 549,-0.00000051,-0.00433754,-0.01386863,-0.00650473,0.00166758,0.00646
 710,0.00248820,0.06640679,0.27419009,0.00002422,-0.00003643,0.00014456
 ,0.00016412,-0.00010567,-0.00078900,0.00288493,0.00162916,-0.00325155,
 -0.00002667,0.00000019,-0.00008152,0.00511193,0.02111875,0.00944225,-0
 .00004028,0.00002288,0.00005654,-0.02886061,-0.09965364,-0.09352758,-0
 .00001678,0.00001820,0.00003949,-0.00002535,-0.00000636,0.00003268,0.0
 0009162,-0.00009539,-0.00004591,0.00002405,-0.00003442,0.00000291,-0.0
 0014379,-0.00011505,0.00026649,-0.00033090,-0.00007876,0.00054690,0.00
 043037,0.00129786,0.00037161,-0.00006926,-0.00010387,-0.00011842,-0.00
 077187,-0.00026745,0.00101764,-0.00042043,-0.00076872,0.00059267,0.000
 02375,-0.00000403,0.00000212,-0.00001088,-0.00001629,0.00000670,-0.000
 00936,-0.00001998,-0.00002063,-0.00169228,-0.00422181,-0.00352932,-0.0
 0566120,-0.02487094,-0.01136086,0.02932466,0.10631179,0.10020223\\-0.0
 0000111,-0.00000149,0.00000052,0.00000001,-0.00000003,0.,0.00000098,0.
 00000154,-0.00000047,0.00000020,-0.00000224,0.00000154,-0.00000019,0.0
 0000236,-0.00000161,0.00000165,-0.00000285,0.00000278,-0.00000176,0.00
 000273,-0.00000254,0.00000084,-0.00000117,0.00000123,-0.00000059,-0.00
 000327,0.00000190,-0.00000215,-0.00000122,-0.00000023,-0.00000161,-0.0
 0000259,0.00000092,0.00000101,-0.00000038,0.00000074,-0.00000097,0.000
 00041,-0.00000075,0.00000213,0.00000123,0.00000022,0.00000162,0.000002
 56,-0.00000094,0.00000059,0.00000328,-0.00000184,-0.00000077,0.0000012
 0,-0.00000114,0.00000142,-0.00000360,0.00000305,0.00000284,-0.00000323
 ,0.00000325,0.00000286,-0.00000162,0.00000239,-0.00000143,0.00000360,-
 0.00000303,-0.00000290,0.00000159,-0.00000252,-0.00000267,0.00000318,-
 0.00000344\\\@


 PERICLES, SOPHOCLES,
 PELOPONESIAN WAR,
 FRENCH VERBS, LATIN VERBS
 H2SO4.
 Job cpu time:       0 days  5 hours 45 minutes  3.4 seconds.
 Elapsed time:       0 days  2 hours 52 minutes 32.5 seconds.
 File lengths (MBytes):  RWF=   1488 Int=      0 D2E=      0 Chk=     32 Scr=     32
 Normal termination of Gaussian 16 at Sun Sep 29 22:02:16 2019.
