 Entering Gaussian System, Link 0=g16
 Input=verytight/species/CCCCCCC/conformers/CCCCCCC_158.com
 Output=verytight/species/CCCCCCC/conformers/CCCCCCC_158.log
 Initial command:
 /shared/centos7/gaussian/g16/l1.exe "/scratch/harms.n/gauss_scrdir/Gau-41148.inp" -scrdir="/scratch/harms.n/gauss_scrdir/"
 Entering Link 1 = /shared/centos7/gaussian/g16/l1.exe PID=     41149.
  
 Copyright (c) 1988,1990,1992,1993,1995,1998,2003,2009,2016,
            Gaussian, Inc.  All Rights Reserved.
  
 This is part of the Gaussian(R) 16 program.  It is based on
 the Gaussian(R) 09 system (copyright 2009, Gaussian, Inc.),
 the Gaussian(R) 03 system (copyright 2003, Gaussian, Inc.),
 the Gaussian(R) 98 system (copyright 1998, Gaussian, Inc.),
 the Gaussian(R) 94 system (copyright 1995, Gaussian, Inc.),
 the Gaussian 92(TM) system (copyright 1992, Gaussian, Inc.),
 the Gaussian 90(TM) system (copyright 1990, Gaussian, Inc.),
 the Gaussian 88(TM) system (copyright 1988, Gaussian, Inc.),
 the Gaussian 86(TM) system (copyright 1986, Carnegie Mellon
 University), and the Gaussian 82(TM) system (copyright 1983,
 Carnegie Mellon University). Gaussian is a federally registered
 trademark of Gaussian, Inc.
  
 This software contains proprietary and confidential information,
 including trade secrets, belonging to Gaussian, Inc.
  
 This software is provided under written license and may be
 used, copied, transmitted, or stored only in accord with that
 written license.
  
 The following legend is applicable only to US Government
 contracts under FAR:
  
                    RESTRICTED RIGHTS LEGEND
  
 Use, reproduction and disclosure by the US Government is
 subject to restrictions as set forth in subparagraphs (a)
 and (c) of the Commercial Computer Software - Restricted
 Rights clause in FAR 52.227-19.
  
 Gaussian, Inc.
 340 Quinnipiac St., Bldg. 40, Wallingford CT 06492
  
  
 ---------------------------------------------------------------
 Warning -- This program may not be used in any manner that
 competes with the business of Gaussian, Inc. or will provide
 assistance to any competitor of Gaussian, Inc.  The licensee
 of this program is prohibited from giving any competitor of
 Gaussian, Inc. access to this program.  By using this program,
 the user acknowledges that Gaussian, Inc. is engaged in the
 business of creating and licensing software in the field of
 computational chemistry and represents and warrants to the
 licensee that it is not a competitor of Gaussian, Inc. and that
 it will not use this program in any manner prohibited above.
 ---------------------------------------------------------------
  

 Cite this work as:
 Gaussian 16, Revision A.03,
 M. J. Frisch, G. W. Trucks, H. B. Schlegel, G. E. Scuseria, 
 M. A. Robb, J. R. Cheeseman, G. Scalmani, V. Barone, 
 G. A. Petersson, H. Nakatsuji, X. Li, M. Caricato, A. V. Marenich, 
 J. Bloino, B. G. Janesko, R. Gomperts, B. Mennucci, H. P. Hratchian, 
 J. V. Ortiz, A. F. Izmaylov, J. L. Sonnenberg, D. Williams-Young, 
 F. Ding, F. Lipparini, F. Egidi, J. Goings, B. Peng, A. Petrone, 
 T. Henderson, D. Ranasinghe, V. G. Zakrzewski, J. Gao, N. Rega, 
 G. Zheng, W. Liang, M. Hada, M. Ehara, K. Toyota, R. Fukuda, 
 J. Hasegawa, M. Ishida, T. Nakajima, Y. Honda, O. Kitao, H. Nakai, 
 T. Vreven, K. Throssell, J. A. Montgomery, Jr., J. E. Peralta, 
 F. Ogliaro, M. J. Bearpark, J. J. Heyd, E. N. Brothers, K. N. Kudin, 
 V. N. Staroverov, T. A. Keith, R. Kobayashi, J. Normand, 
 K. Raghavachari, A. P. Rendell, J. C. Burant, S. S. Iyengar, 
 J. Tomasi, M. Cossi, J. M. Millam, M. Klene, C. Adamo, R. Cammi, 
 J. W. Ochterski, R. L. Martin, K. Morokuma, O. Farkas, 
 J. B. Foresman, and D. J. Fox, Gaussian, Inc., Wallingford CT, 2016.
 
 ******************************************
 Gaussian 16:  EM64L-G16RevA.03 25-Dec-2016
                29-Sep-2019 
 ******************************************
 %nprocshared=20
 Will use up to   20 processors via shared memory.
 %mem=5GB
 ----------------------------------------------------------------------
 #p m062x/cc-pVTZ opt=(calcfc,maxcycles=900,Tight) freq IOP(7/33=1,2/16
 =3) scf=(maxcycle=900)
 ----------------------------------------------------------------------
 1/6=900,7=10,10=4,18=20,19=15,26=3,38=1/1,3;
 2/9=110,12=2,16=3,17=6,18=5,40=1/2;
 3/5=16,6=1,11=2,25=1,30=1,71=2,74=-55,140=1/1,2,3;
 4//1;
 5/5=2,7=900,38=5/2;
 8/6=4,10=90,11=11/1;
 11/6=1,8=1,9=11,15=111,16=1/1,2,10;
 10/6=1,13=1/2;
 6/7=2,8=2,9=2,10=2,28=1/1;
 7/10=1,18=20,25=1,33=1/1,2,3,16;
 1/6=900,7=10,10=4,18=20,19=15,26=3/3(2);
 2/9=110,16=3/2;
 99//99;
 2/9=110,16=3/2;
 3/5=16,6=1,11=2,25=1,30=1,71=1,74=-55/1,2,3;
 4/5=5,16=3,69=1/1;
 5/5=2,7=900,38=5/2;
 7/33=1/1,2,3,16;
 1/6=900,7=10,18=20,19=15,26=3/3(-5);
 2/9=110,16=3/2;
 6/7=2,8=2,9=2,10=2,19=2,28=1/1;
 99/9=1/99;
 Leave Link    1 at Sun Sep 29 13:06:59 2019, MaxMem=   671088640 cpu:               3.2 elap:               1.6
 (Enter /shared/centos7/gaussian/g16/l101.exe)
 ------------------------------
 Gaussian input prepared by ASE
 ------------------------------
 Symbolic Z-matrix:
 Charge =  0 Multiplicity = 1
 C                     1.17579  -1.18971   0.42226 
 C                     0.1763   -0.19717   0.90995 
 C                    -0.84038  -0.7684    1.86653 
 C                     2.13426  -0.64647  -0.58335 
 C                    -1.64927  -1.91545   1.30823 
 C                     1.50357  -0.05488  -1.77576 
 C                    -2.46787  -1.56522   0.09285 
 H                     2.82778  -1.47404  -0.90473 
 H                     2.78677   0.11648  -0.09562 
 H                     0.64127  -2.06158  -0.011 
 H                     1.74999  -1.58763   1.284 
 H                    -0.34539   0.2489    0.04882 
 H                     0.70363   0.63977   1.41465 
 H                    -1.52252   0.03851   2.18386 
 H                    -0.32394  -1.11647   2.78483 
 H                    -0.95956  -2.76044   1.04782 
 H                    -2.32059  -2.29514   2.09718 
 H                     0.91535  -0.80431  -2.3381 
 H                     0.80018   0.78289  -1.4913 
 H                     2.2664    0.36535  -2.46496 
 H                    -3.02988  -2.43262  -0.25549 
 H                    -1.81074  -1.21238  -0.74949 
 H                    -3.20268  -0.74122   0.32301 
 
 ITRead=  0  0  0  0  0  0  0  0  0  0  0  0  0  0  0  0  0  0  0  0
 ITRead=  0  0  0
 MicOpt= -1 -1 -1 -1 -1 -1 -1 -1 -1 -1 -1 -1 -1 -1 -1 -1 -1 -1 -1 -1
 MicOpt= -1 -1 -1
 NAtoms=     23 NQM=       23 NQMF=       0 NMMI=      0 NMMIF=      0
                NMic=       0 NMicF=      0.
                    Isotopes and Nuclear Properties:
 (Nuclear quadrupole moments (NQMom) in fm**2, nuclear magnetic moments (NMagM)
  in nuclear magnetons)

  Atom         1           2           3           4           5           6           7           8           9          10
 IAtWgt=          12          12          12          12          12          12          12           1           1           1
 AtmWgt=  12.0000000  12.0000000  12.0000000  12.0000000  12.0000000  12.0000000  12.0000000   1.0078250   1.0078250   1.0078250
 NucSpn=           0           0           0           0           0           0           0           1           1           1
 AtZEff=  -0.0000000  -0.0000000  -0.0000000  -0.0000000  -0.0000000  -0.0000000  -0.0000000  -0.0000000  -0.0000000  -0.0000000
 NQMom=    0.0000000   0.0000000   0.0000000   0.0000000   0.0000000   0.0000000   0.0000000   0.0000000   0.0000000   0.0000000
 NMagM=    0.0000000   0.0000000   0.0000000   0.0000000   0.0000000   0.0000000   0.0000000   2.7928460   2.7928460   2.7928460
 AtZNuc=   6.0000000   6.0000000   6.0000000   6.0000000   6.0000000   6.0000000   6.0000000   1.0000000   1.0000000   1.0000000

  Atom        11          12          13          14          15          16          17          18          19          20
 IAtWgt=           1           1           1           1           1           1           1           1           1           1
 AtmWgt=   1.0078250   1.0078250   1.0078250   1.0078250   1.0078250   1.0078250   1.0078250   1.0078250   1.0078250   1.0078250
 NucSpn=           1           1           1           1           1           1           1           1           1           1
 AtZEff=  -0.0000000  -0.0000000  -0.0000000  -0.0000000  -0.0000000  -0.0000000  -0.0000000  -0.0000000  -0.0000000  -0.0000000
 NQMom=    0.0000000   0.0000000   0.0000000   0.0000000   0.0000000   0.0000000   0.0000000   0.0000000   0.0000000   0.0000000
 NMagM=    2.7928460   2.7928460   2.7928460   2.7928460   2.7928460   2.7928460   2.7928460   2.7928460   2.7928460   2.7928460
 AtZNuc=   1.0000000   1.0000000   1.0000000   1.0000000   1.0000000   1.0000000   1.0000000   1.0000000   1.0000000   1.0000000

  Atom        21          22          23
 IAtWgt=           1           1           1
 AtmWgt=   1.0078250   1.0078250   1.0078250
 NucSpn=           1           1           1
 AtZEff=  -0.0000000  -0.0000000  -0.0000000
 NQMom=    0.0000000   0.0000000   0.0000000
 NMagM=    2.7928460   2.7928460   2.7928460
 AtZNuc=   1.0000000   1.0000000   1.0000000
 Leave Link  101 at Sun Sep 29 13:07:02 2019, MaxMem=   671088640 cpu:               4.9 elap:               2.5
 (Enter /shared/centos7/gaussian/g16/l103.exe)

 GradGradGradGradGradGradGradGradGradGradGradGradGradGradGradGradGradGrad
 Berny optimization.
 Initialization pass.
                           ----------------------------
                           !    Initial Parameters    !
                           ! (Angstroms and Degrees)  !
 --------------------------                            --------------------------
 ! Name  Definition              Value          Derivative Info.                !
 --------------------------------------------------------------------------------
 ! R1    R(1,2)                  1.4906         calculate D2E/DX2 analytically  !
 ! R2    R(1,4)                  1.4917         calculate D2E/DX2 analytically  !
 ! R3    R(1,10)                 1.1107         calculate D2E/DX2 analytically  !
 ! R4    R(1,11)                 1.1093         calculate D2E/DX2 analytically  !
 ! R5    R(2,3)                  1.5083         calculate D2E/DX2 analytically  !
 ! R6    R(2,12)                 1.1012         calculate D2E/DX2 analytically  !
 ! R7    R(2,13)                 1.1105         calculate D2E/DX2 analytically  !
 ! R8    R(3,5)                  1.5105         calculate D2E/DX2 analytically  !
 ! R9    R(3,14)                 1.1032         calculate D2E/DX2 analytically  !
 ! R10   R(3,15)                 1.1096         calculate D2E/DX2 analytically  !
 ! R11   R(4,6)                  1.473          calculate D2E/DX2 analytically  !
 ! R12   R(4,8)                  1.1266         calculate D2E/DX2 analytically  !
 ! R13   R(4,9)                  1.1161         calculate D2E/DX2 analytically  !
 ! R14   R(5,7)                  1.5066         calculate D2E/DX2 analytically  !
 ! R15   R(5,16)                 1.1214         calculate D2E/DX2 analytically  !
 ! R16   R(5,17)                 1.1033         calculate D2E/DX2 analytically  !
 ! R17   R(6,18)                 1.1063         calculate D2E/DX2 analytically  !
 ! R18   R(6,19)                 1.1303         calculate D2E/DX2 analytically  !
 ! R19   R(6,20)                 1.1106         calculate D2E/DX2 analytically  !
 ! R20   R(7,21)                 1.0907         calculate D2E/DX2 analytically  !
 ! R21   R(7,22)                 1.1251         calculate D2E/DX2 analytically  !
 ! R22   R(7,23)                 1.1278         calculate D2E/DX2 analytically  !
 ! A1    A(2,1,4)              114.1366         calculate D2E/DX2 analytically  !
 ! A2    A(2,1,10)             109.1248         calculate D2E/DX2 analytically  !
 ! A3    A(2,1,11)             109.3755         calculate D2E/DX2 analytically  !
 ! A4    A(4,1,10)             109.3983         calculate D2E/DX2 analytically  !
 ! A5    A(4,1,11)             108.768          calculate D2E/DX2 analytically  !
 ! A6    A(10,1,11)            105.6971         calculate D2E/DX2 analytically  !
 ! A7    A(1,2,3)              114.0343         calculate D2E/DX2 analytically  !
 ! A8    A(1,2,12)             109.3613         calculate D2E/DX2 analytically  !
 ! A9    A(1,2,13)             109.3968         calculate D2E/DX2 analytically  !
 ! A10   A(3,2,12)             109.2701         calculate D2E/DX2 analytically  !
 ! A11   A(3,2,13)             108.4983         calculate D2E/DX2 analytically  !
 ! A12   A(12,2,13)            105.9656         calculate D2E/DX2 analytically  !
 ! A13   A(2,3,5)              114.4655         calculate D2E/DX2 analytically  !
 ! A14   A(2,3,14)             108.7958         calculate D2E/DX2 analytically  !
 ! A15   A(2,3,15)             109.2657         calculate D2E/DX2 analytically  !
 ! A16   A(5,3,14)             109.3059         calculate D2E/DX2 analytically  !
 ! A17   A(5,3,15)             108.4772         calculate D2E/DX2 analytically  !
 ! A18   A(14,3,15)            106.2105         calculate D2E/DX2 analytically  !
 ! A19   A(1,4,6)              114.6392         calculate D2E/DX2 analytically  !
 ! A20   A(1,4,8)              108.6841         calculate D2E/DX2 analytically  !
 ! A21   A(1,4,9)              109.269          calculate D2E/DX2 analytically  !
 ! A22   A(6,4,8)              109.1287         calculate D2E/DX2 analytically  !
 ! A23   A(6,4,9)              109.2402         calculate D2E/DX2 analytically  !
 ! A24   A(8,4,9)              105.4806         calculate D2E/DX2 analytically  !
 ! A25   A(3,5,7)              114.3673         calculate D2E/DX2 analytically  !
 ! A26   A(3,5,16)             109.1879         calculate D2E/DX2 analytically  !
 ! A27   A(3,5,17)             108.8365         calculate D2E/DX2 analytically  !
 ! A28   A(7,5,16)             108.7843         calculate D2E/DX2 analytically  !
 ! A29   A(7,5,17)             109.0413         calculate D2E/DX2 analytically  !
 ! A30   A(16,5,17)            106.3184         calculate D2E/DX2 analytically  !
 ! A31   A(4,6,18)             111.5359         calculate D2E/DX2 analytically  !
 ! A32   A(4,6,19)             111.1256         calculate D2E/DX2 analytically  !
 ! A33   A(4,6,20)             111.1144         calculate D2E/DX2 analytically  !
 ! A34   A(18,6,19)            107.4068         calculate D2E/DX2 analytically  !
 ! A35   A(18,6,20)            107.8235         calculate D2E/DX2 analytically  !
 ! A36   A(19,6,20)            107.6476         calculate D2E/DX2 analytically  !
 ! A37   A(5,7,21)             110.655          calculate D2E/DX2 analytically  !
 ! A38   A(5,7,22)             111.0704         calculate D2E/DX2 analytically  !
 ! A39   A(5,7,23)             111.0525         calculate D2E/DX2 analytically  !
 ! A40   A(21,7,22)            108.1341         calculate D2E/DX2 analytically  !
 ! A41   A(21,7,23)            108.0897         calculate D2E/DX2 analytically  !
 ! A42   A(22,7,23)            107.7112         calculate D2E/DX2 analytically  !
 ! D1    D(4,1,2,3)            176.6804         calculate D2E/DX2 analytically  !
 ! D2    D(4,1,2,12)            54.0161         calculate D2E/DX2 analytically  !
 ! D3    D(4,1,2,13)           -61.6303         calculate D2E/DX2 analytically  !
 ! D4    D(10,1,2,3)            53.9563         calculate D2E/DX2 analytically  !
 ! D5    D(10,1,2,12)          -68.708          calculate D2E/DX2 analytically  !
 ! D6    D(10,1,2,13)          175.6456         calculate D2E/DX2 analytically  !
 ! D7    D(11,1,2,3)           -61.2258         calculate D2E/DX2 analytically  !
 ! D8    D(11,1,2,12)          176.1099         calculate D2E/DX2 analytically  !
 ! D9    D(11,1,2,13)           60.4635         calculate D2E/DX2 analytically  !
 ! D10   D(2,1,4,6)            -56.3069         calculate D2E/DX2 analytically  !
 ! D11   D(2,1,4,8)           -178.6969         calculate D2E/DX2 analytically  !
 ! D12   D(2,1,4,9)             66.6765         calculate D2E/DX2 analytically  !
 ! D13   D(10,1,4,6)            66.268          calculate D2E/DX2 analytically  !
 ! D14   D(10,1,4,8)           -56.122          calculate D2E/DX2 analytically  !
 ! D15   D(10,1,4,9)          -170.7486         calculate D2E/DX2 analytically  !
 ! D16   D(11,1,4,6)          -178.7335         calculate D2E/DX2 analytically  !
 ! D17   D(11,1,4,8)            58.8765         calculate D2E/DX2 analytically  !
 ! D18   D(11,1,4,9)           -55.7501         calculate D2E/DX2 analytically  !
 ! D19   D(1,2,3,5)            -58.3536         calculate D2E/DX2 analytically  !
 ! D20   D(1,2,3,14)           179.0618         calculate D2E/DX2 analytically  !
 ! D21   D(1,2,3,15)            63.5088         calculate D2E/DX2 analytically  !
 ! D22   D(12,2,3,5)            64.3605         calculate D2E/DX2 analytically  !
 ! D23   D(12,2,3,14)          -58.2241         calculate D2E/DX2 analytically  !
 ! D24   D(12,2,3,15)         -173.7771         calculate D2E/DX2 analytically  !
 ! D25   D(13,2,3,5)           179.4623         calculate D2E/DX2 analytically  !
 ! D26   D(13,2,3,14)           56.8776         calculate D2E/DX2 analytically  !
 ! D27   D(13,2,3,15)          -58.6753         calculate D2E/DX2 analytically  !
 ! D28   D(2,3,5,7)            -60.8172         calculate D2E/DX2 analytically  !
 ! D29   D(2,3,5,16)            61.3174         calculate D2E/DX2 analytically  !
 ! D30   D(2,3,5,17)           176.9789         calculate D2E/DX2 analytically  !
 ! D31   D(14,3,5,7)            61.4903         calculate D2E/DX2 analytically  !
 ! D32   D(14,3,5,16)         -176.375          calculate D2E/DX2 analytically  !
 ! D33   D(14,3,5,17)          -60.7135         calculate D2E/DX2 analytically  !
 ! D34   D(15,3,5,7)           176.8904         calculate D2E/DX2 analytically  !
 ! D35   D(15,3,5,16)          -60.975          calculate D2E/DX2 analytically  !
 ! D36   D(15,3,5,17)           54.6865         calculate D2E/DX2 analytically  !
 ! D37   D(1,4,6,18)           -61.8633         calculate D2E/DX2 analytically  !
 ! D38   D(1,4,6,19)            57.9555         calculate D2E/DX2 analytically  !
 ! D39   D(1,4,6,20)           177.7967         calculate D2E/DX2 analytically  !
 ! D40   D(8,4,6,18)            60.2856         calculate D2E/DX2 analytically  !
 ! D41   D(8,4,6,19)          -179.8957         calculate D2E/DX2 analytically  !
 ! D42   D(8,4,6,20)           -60.0545         calculate D2E/DX2 analytically  !
 ! D43   D(9,4,6,18)           175.1379         calculate D2E/DX2 analytically  !
 ! D44   D(9,4,6,19)           -65.0434         calculate D2E/DX2 analytically  !
 ! D45   D(9,4,6,20)            54.7979         calculate D2E/DX2 analytically  !
 ! D46   D(3,5,7,21)          -179.6944         calculate D2E/DX2 analytically  !
 ! D47   D(3,5,7,22)            60.1935         calculate D2E/DX2 analytically  !
 ! D48   D(3,5,7,23)           -59.65           calculate D2E/DX2 analytically  !
 ! D49   D(16,5,7,21)           57.9508         calculate D2E/DX2 analytically  !
 ! D50   D(16,5,7,22)          -62.1612         calculate D2E/DX2 analytically  !
 ! D51   D(16,5,7,23)          177.9953         calculate D2E/DX2 analytically  !
 ! D52   D(17,5,7,21)          -57.6024         calculate D2E/DX2 analytically  !
 ! D53   D(17,5,7,22)         -177.7145         calculate D2E/DX2 analytically  !
 ! D54   D(17,5,7,23)           62.442          calculate D2E/DX2 analytically  !
 --------------------------------------------------------------------------------
 Trust Radius=3.00D-01 FncErr=1.00D-07 GrdErr=1.00D-06 EigMax=2.50D+02 EigMin=1.00D-04
 Number of steps in this run=    138 maximum allowed number of steps=    138.
 GradGradGradGradGradGradGradGradGradGradGradGradGradGradGradGradGradGrad

 Leave Link  103 at Sun Sep 29 13:07:03 2019, MaxMem=   671088640 cpu:               1.3 elap:               0.7
 (Enter /shared/centos7/gaussian/g16/l202.exe)
                          Input orientation:                          
 ---------------------------------------------------------------------
 Center     Atomic      Atomic             Coordinates (Angstroms)
 Number     Number       Type             X           Y           Z
 ---------------------------------------------------------------------
      1          6           0        1.175790   -1.189711    0.422264
      2          6           0        0.176298   -0.197169    0.909953
      3          6           0       -0.840382   -0.768404    1.866527
      4          6           0        2.134256   -0.646469   -0.583349
      5          6           0       -1.649271   -1.915449    1.308235
      6          6           0        1.503570   -0.054880   -1.775760
      7          6           0       -2.467872   -1.565216    0.092852
      8          1           0        2.827777   -1.474043   -0.904730
      9          1           0        2.786773    0.116485   -0.095621
     10          1           0        0.641272   -2.061575   -0.011002
     11          1           0        1.749990   -1.587633    1.284005
     12          1           0       -0.345389    0.248900    0.048820
     13          1           0        0.703631    0.639766    1.414645
     14          1           0       -1.522522    0.038507    2.183864
     15          1           0       -0.323938   -1.116468    2.784831
     16          1           0       -0.959562   -2.760438    1.047820
     17          1           0       -2.320586   -2.295138    2.097178
     18          1           0        0.915346   -0.804311   -2.338100
     19          1           0        0.800181    0.782891   -1.491296
     20          1           0        2.266399    0.365345   -2.464959
     21          1           0       -3.029880   -2.432615   -0.255491
     22          1           0       -1.810739   -1.212385   -0.749494
     23          1           0       -3.202683   -0.741224    0.323014
 ---------------------------------------------------------------------
                    Distance matrix (angstroms):
                    1          2          3          4          5
     1  C    0.000000
     2  C    1.490625   0.000000
     3  C    2.515621   1.508304   0.000000
     4  C    1.491652   2.503082   3.855546   0.000000
     5  C    3.048379   2.538467   1.510531   4.416274   0.000000
     6  C    2.495314   2.999158   4.389702   1.472952   4.786768
     7  C    3.677743   3.087206   2.535657   4.741405   1.506627
     8  H    2.137947   3.457430   4.651148   1.126559   5.013583
     9  H    2.137666   2.814984   4.217737   1.116134   5.077209
    10  H    1.110665   2.130814   2.718953   2.135207   2.647324
    11  H    1.109344   2.133028   2.778578   2.126137   3.415117
    12  H    2.126746   1.101220   2.141024   2.711081   2.823232
    13  H    2.134184   1.110520   2.138017   2.773639   3.475139
    14  H    3.448572   2.136442   1.103233   4.636668   2.144933
    15  H    2.799334   2.147211   1.109570   4.196219   2.138975
    16  H    2.723644   2.807050   2.157008   4.086721   1.121392
    17  H    4.031372   3.470650   2.138953   5.454260   1.103295
    18  H    2.799281   3.385950   4.556617   2.142383   4.594305
    19  H    2.773797   2.667535   4.046349   2.155735   4.595457
    20  H    3.455963   4.009361   5.449701   2.140487   5.896735
    21  H    4.437547   4.078609   3.473681   5.474131   2.149134
    22  H    3.208254   2.780781   2.825293   3.988841   2.180509
    23  H    4.402502   3.472464   2.821991   5.414184   2.182327
                    6          7          8          9         10
     6  C    0.000000
     7  C    4.641677   0.000000
     8  H    2.127497   5.389562   0.000000
     9  H    2.121048   5.520410   1.784970   0.000000
    10  H    2.807980   3.150228   2.434080   3.058476   0.000000
    11  H    3.431066   4.382888   2.442352   2.425346   1.769440
    12  H    2.615344   2.792470   3.734538   3.138285   2.513041
    13  H    3.361714   4.082586   3.789418   2.625682   3.055095
    14  H    4.984434   2.799633   5.545478   4.875670   3.729583
    15  H    5.026504   3.470530   4.865596   4.415167   3.105083
    16  H    4.621652   2.148376   4.450978   4.859955   2.042593
    17  H    5.885794   2.138178   6.015920   6.058829   3.643018
    18  H    1.106291   4.234934   2.482032   3.062485   2.659175
    19  H    1.130281   4.324731   3.090139   2.517648   3.210531
    20  H    1.110627   5.716885   2.476451   2.438541   3.814824
    21  H    5.340132   1.090678   5.970973   6.352709   3.697946
    22  H    3.657551   1.125104   4.648483   4.830172   2.697935
    23  H    5.198532   1.127778   6.197647   6.065022   4.078098
                   11         12         13         14         15
    11  H    0.000000
    12  H    3.047810   0.000000
    13  H    2.464395   1.765983   0.000000
    14  H    3.763431   2.447105   2.430837   0.000000
    15  H    2.603009   3.057850   2.453093   1.769670   0.000000
    16  H    2.961913   3.229756   3.802915   3.072721   2.474643
    17  H    4.210868   3.816976   4.269122   2.467858   2.418415
    18  H    3.798666   2.897601   4.026572   5.205930   5.279932
    19  H    3.771447   1.992344   2.911065   4.410880   4.812117
    20  H    4.258583   3.626855   4.191525   6.006189   6.038701
    21  H    5.092268   3.806524   5.115465   3.785370   4.277606
    22  H    4.117611   2.218087   3.799476   3.201936   3.835522
    23  H    5.115553   3.036389   4.284633   2.625583   3.806379
                   16         17         18         19         20
    16  H    0.000000
    17  H    1.780461   0.000000
    18  H    4.336608   5.689070   0.000000
    19  H    4.700956   5.664857   1.802651   0.000000
    20  H    5.702365   6.995120   1.791517   1.808911   0.000000
    21  H    2.468258   2.461107   4.749046   5.151317   6.384426
    22  H    2.520180   3.088016   3.181467   3.368724   4.696286
    23  H    3.103894   2.518016   4.903434   4.651620   6.237639
                   21         22         23
    21  H    0.000000
    22  H    1.794243   0.000000
    23  H    1.795921   1.819278   0.000000
 Stoichiometry    C7H16
 Framework group  C1[X(C7H16)]
 Deg. of freedom    63
 Full point group                 C1      NOp   1
 Largest Abelian subgroup         C1      NOp   1
 Largest concise Abelian subgroup C1      NOp   1
                         Standard orientation:                         
 ---------------------------------------------------------------------
 Center     Atomic      Atomic             Coordinates (Angstroms)
 Number     Number       Type             X           Y           Z
 ---------------------------------------------------------------------
      1          6           0        0.861883   -0.659260   -0.577305
      2          6           0        0.043665   -0.691760    0.668258
      3          6           0       -1.411235   -1.017002    0.439209
      4          6           0        2.283483   -0.261560   -0.363034
      5          6           0       -2.126572   -0.064263   -0.489384
      6          6           0        2.463386    1.041480    0.299770
      7          6           0       -2.156562    1.364323   -0.011715
      8          1           0        2.807544   -0.244036   -1.360125
      9          1           0        2.801259   -1.051381    0.231815
     10          1           0        0.390166    0.035142   -1.304536
     11          1           0        0.839466   -1.658534   -1.058548
     12          1           0        0.122510    0.278931    1.182289
     13          1           0        0.466767   -1.443192    1.367965
     14          1           0       -1.929095   -1.034816    1.413185
     15          1           0       -1.496199   -2.042610    0.024414
     16          1           0       -1.638861   -0.097392   -1.498621
     17          1           0       -3.161832   -0.417378   -0.633630
     18          1           0        2.038445    1.865923   -0.303221
     19          1           0        1.950964    1.060355    1.307045
     20          1           0        3.539454    1.260989    0.465258
     21          1           0       -2.690261    1.996496   -0.722420
     22          1           0       -1.115078    1.773034    0.107139
     23          1           0       -2.673534    1.446723    0.987201
 ---------------------------------------------------------------------
 Rotational constants (GHZ):           4.2046563           1.3163131           1.1560789
 Leave Link  202 at Sun Sep 29 13:07:04 2019, MaxMem=   671088640 cpu:               2.8 elap:               1.4
 (Enter /shared/centos7/gaussian/g16/l301.exe)
 Standard basis: CC-pVTZ (5D, 7F)
 Ernie: Thresh=  0.10000D-02 Tol=  0.10000D-05 Strict=F.
 Ernie:  21 primitive shells out of 310 were deleted.
 There are   485 symmetry adapted cartesian basis functions of A   symmetry.
 There are   434 symmetry adapted basis functions of A   symmetry.
   434 basis functions,   636 primitive gaussians,   485 cartesian basis functions
    29 alpha electrons       29 beta electrons
       nuclear repulsion energy       328.2936418754 Hartrees.
 IExCor= 4336 DFT=T Ex+Corr=M062X ExCW=0 ScaHFX=  0.540000
 ScaDFX=  1.000000  1.000000  1.000000  1.000000 ScalE2=  1.000000  1.000000
 IRadAn=      5 IRanWt=     -1 IRanGd=            0 ICorTp=0 IEmpDi=  4
 NAtoms=   23 NActive=   23 NUniq=   23 SFac= 1.00D+00 NAtFMM=   60 NAOKFM=F Big=F
 Integral buffers will be    131072 words long.
 Raffenetti 2 integral format.
 Two-electron integral symmetry is turned on.
 Leave Link  301 at Sun Sep 29 13:07:05 2019, MaxMem=   671088640 cpu:               2.3 elap:               1.1
 (Enter /shared/centos7/gaussian/g16/l302.exe)
 NPDir=0 NMtPBC=     1 NCelOv=     1 NCel=       1 NClECP=     1 NCelD=      1
         NCelK=      1 NCelE2=     1 NClLst=     1 CellRange=     0.0.
 One-electron integrals computed using PRISM.
 One-electron integral symmetry used in STVInt
 NBasis=   434 RedAO= T EigKep=  2.73D-04  NBF=   434
 NBsUse=   434 1.00D-06 EigRej= -1.00D+00 NBFU=   434
 Precomputing XC quadrature grid using
 IXCGrd= 4 IRadAn=           5 IRanWt=          -1 IRanGd=           0 AccXCQ= 0.00D+00.
 Generated NRdTot=       0 NPtTot=           0 NUsed=           0 NTot=          32
 NSgBfM=   485   485   485   485   485 MxSgAt=    23 MxSgA2=    23.
 Leave Link  302 at Sun Sep 29 13:08:35 2019, MaxMem=   671088640 cpu:             179.3 elap:              89.7
 (Enter /shared/centos7/gaussian/g16/l303.exe)
 DipDrv:  MaxL=1.
 Leave Link  303 at Sun Sep 29 13:08:39 2019, MaxMem=   671088640 cpu:               7.9 elap:               4.0
 (Enter /shared/centos7/gaussian/g16/l401.exe)
 ExpMin= 1.03D-01 ExpMax= 8.24D+03 ExpMxC= 2.81D+02 IAcc=3 IRadAn=         5 AccDes= 0.00D+00
 Harris functional with IExCor= 1009 and IRadAn=       5 diagonalized for initial guess.
 HarFok:  IExCor= 1009 AccDes= 0.00D+00 IRadAn=         5 IDoV= 1 UseB2=F ITyADJ=14
 ICtDFT=  3500011 ScaDFX=  1.000000  1.000000  1.000000  1.000000
 FoFCou: FMM=F IPFlag=           0 FMFlag=      100000 FMFlg1=           0
         NFxFlg=           0 DoJE=T BraDBF=F KetDBF=T FulRan=T
         wScrn=  0.000000 ICntrl=       500 IOpCl=  0 I1Cent=   200000004 NGrid=           0
         NMat0=    1 NMatS0=      1 NMatT0=    0 NMatD0=    1 NMtDS0=    0 NMtDT0=    0
 Petite list used in FoFCou.
 Harris En= -276.333698813818    
 JPrj=0 DoOrth=F DoCkMO=F.
 Leave Link  401 at Sun Sep 29 13:09:30 2019, MaxMem=   671088640 cpu:             103.0 elap:              51.5
 (Enter /shared/centos7/gaussian/g16/l502.exe)
 Integral symmetry usage will be decided dynamically.
 Closed shell SCF:
 Using DIIS extrapolation, IDIIS=  1040.
 NGot=   671088640 LenX=   670604095 LenY=   670368385
 Requested convergence on RMS density matrix=1.00D-08 within 900 cycles.
 Requested convergence on MAX density matrix=1.00D-06.
 Requested convergence on             energy=1.00D-06.
 No special actions if energy rises.
 Fock matrices will be formed incrementally for  20 cycles.
 Integral accuracy reduced to 1.0D-05 until final iterations.

 Cycle   1  Pass 0  IDiag  1:
 FoFJK:  IHMeth= 1 ICntrl=       0 DoSepK=F KAlg= 0 I1Cent=           0 FoldK=F
 IRaf= 940000000 NMat=       1 IRICut=       1 DoRegI=T DoRafI=F ISym2E= 0 IDoP0=0 IntGTp=1.
 FoFCou: FMM=F IPFlag=           0 FMFlag=      100000 FMFlg1=           0
         NFxFlg=           0 DoJE=F BraDBF=F KetDBF=F FulRan=T
         wScrn=  0.000000 ICntrl=         0 IOpCl=  0 I1Cent=           0 NGrid=           0
         NMat0=    1 NMatS0=      1 NMatT0=    0 NMatD0=    1 NMtDS0=    0 NMtDT0=    0
 Symmetry not used in FoFCou.
 E= -275.967866640466    
 DIIS: error= 2.80D-02 at cycle   1 NSaved=   1.
 NSaved= 1 IEnMin= 1 EnMin= -275.967866640466     IErMin= 1 ErrMin= 2.80D-02
 ErrMax= 2.80D-02  0.00D+00 EMaxC= 1.00D-01 BMatC= 3.75D-01 BMatP= 3.75D-01
 IDIUse=3 WtCom= 7.20D-01 WtEn= 2.80D-01
 Coeff-Com:  0.100D+01
 Coeff-En:   0.100D+01
 Coeff:      0.100D+01
 Gap=     0.367 Goal=   None    Shift=    0.000
 GapD=    0.367 DampG=1.000 DampE=0.500 DampFc=0.5000 IDamp=-1.
 Damping current iteration by 5.00D-01
 RMSDP=1.88D-03 MaxDP=6.18D-02              OVMax= 1.64D-01

 Cycle   2  Pass 0  IDiag  1:
 RMSU=  9.36D-04    CP:  9.89D-01
 E= -276.146678554036     Delta-E=       -0.178811913571 Rises=F Damp=T
 DIIS: error= 4.21D-03 at cycle   2 NSaved=   2.
 NSaved= 2 IEnMin= 2 EnMin= -276.146678554036     IErMin= 2 ErrMin= 4.21D-03
 ErrMax= 4.21D-03  0.00D+00 EMaxC= 1.00D-01 BMatC= 1.85D-02 BMatP= 3.75D-01
 IDIUse=3 WtCom= 9.58D-01 WtEn= 4.21D-02
 Coeff-Com: -0.490D-01 0.105D+01
 Coeff-En:   0.000D+00 0.100D+01
 Coeff:     -0.469D-01 0.105D+01
 Gap=     0.452 Goal=   None    Shift=    0.000
 RMSDP=5.28D-04 MaxDP=1.82D-02 DE=-1.79D-01 OVMax= 9.05D-02

 Cycle   3  Pass 0  IDiag  1:
 RMSU=  5.17D-04    CP:  9.96D-01  9.00D-01
 E= -276.326592991008     Delta-E=       -0.179914436972 Rises=F Damp=F
 DIIS: error= 2.21D-03 at cycle   3 NSaved=   3.
 NSaved= 3 IEnMin= 3 EnMin= -276.326592991008     IErMin= 3 ErrMin= 2.21D-03
 ErrMax= 2.21D-03  0.00D+00 EMaxC= 1.00D-01 BMatC= 2.70D-03 BMatP= 1.85D-02
 IDIUse=3 WtCom= 9.78D-01 WtEn= 2.21D-02
 Coeff-Com: -0.502D-01 0.242D+00 0.808D+00
 Coeff-En:   0.000D+00 0.000D+00 0.100D+01
 Coeff:     -0.491D-01 0.237D+00 0.812D+00
 Gap=     0.419 Goal=   None    Shift=    0.000
 RMSDP=1.02D-04 MaxDP=2.82D-03 DE=-1.80D-01 OVMax= 1.01D-02

 Cycle   4  Pass 0  IDiag  1:
 RMSU=  8.11D-05    CP:  9.95D-01  9.45D-01  9.12D-01
 E= -276.328967144239     Delta-E=       -0.002374153231 Rises=F Damp=F
 DIIS: error= 6.85D-04 at cycle   4 NSaved=   4.
 NSaved= 4 IEnMin= 4 EnMin= -276.328967144239     IErMin= 4 ErrMin= 6.85D-04
 ErrMax= 6.85D-04  0.00D+00 EMaxC= 1.00D-01 BMatC= 2.48D-04 BMatP= 2.70D-03
 IDIUse=3 WtCom= 9.93D-01 WtEn= 6.85D-03
 Coeff-Com: -0.127D-01 0.339D-01 0.267D+00 0.711D+00
 Coeff-En:   0.000D+00 0.000D+00 0.000D+00 0.100D+01
 Coeff:     -0.126D-01 0.337D-01 0.266D+00 0.713D+00
 Gap=     0.420 Goal=   None    Shift=    0.000
 RMSDP=3.30D-05 MaxDP=9.54D-04 DE=-2.37D-03 OVMax= 3.19D-03

 Cycle   5  Pass 0  IDiag  1:
 RMSU=  1.82D-05    CP:  9.95D-01  9.39D-01  9.49D-01  7.67D-01
 E= -276.329201186436     Delta-E=       -0.000234042196 Rises=F Damp=F
 DIIS: error= 1.50D-04 at cycle   5 NSaved=   5.
 NSaved= 5 IEnMin= 5 EnMin= -276.329201186436     IErMin= 5 ErrMin= 1.50D-04
 ErrMax= 1.50D-04  0.00D+00 EMaxC= 1.00D-01 BMatC= 1.48D-05 BMatP= 2.48D-04
 IDIUse=3 WtCom= 9.98D-01 WtEn= 1.50D-03
 Coeff-Com: -0.140D-02 0.381D-03 0.499D-01 0.246D+00 0.705D+00
 Coeff-En:   0.000D+00 0.000D+00 0.000D+00 0.000D+00 0.100D+01
 Coeff:     -0.140D-02 0.380D-03 0.499D-01 0.246D+00 0.705D+00
 Gap=     0.419 Goal=   None    Shift=    0.000
 RMSDP=6.11D-06 MaxDP=2.59D-04 DE=-2.34D-04 OVMax= 6.73D-04

 Initial convergence to 1.0D-05 achieved.  Increase integral accuracy.
 Cycle   6  Pass 1  IDiag  1:
 E= -276.329185548055     Delta-E=        0.000015638381 Rises=F Damp=F
 DIIS: error= 4.52D-05 at cycle   1 NSaved=   1.
 NSaved= 1 IEnMin= 1 EnMin= -276.329185548055     IErMin= 1 ErrMin= 4.52D-05
 ErrMax= 4.52D-05  0.00D+00 EMaxC= 1.00D-01 BMatC= 1.67D-06 BMatP= 1.67D-06
 IDIUse=1 WtCom= 1.00D+00 WtEn= 0.00D+00
 Coeff-Com:  0.100D+01
 Coeff:      0.100D+01
 Gap=     0.419 Goal=   None    Shift=    0.000
 RMSDP=6.11D-06 MaxDP=2.59D-04 DE= 1.56D-05 OVMax= 3.13D-04

 Cycle   7  Pass 1  IDiag  1:
 RMSU=  1.08D-05    CP:  1.00D+00
 E= -276.329186233300     Delta-E=       -0.000000685245 Rises=F Damp=F
 DIIS: error= 3.24D-05 at cycle   2 NSaved=   2.
 NSaved= 2 IEnMin= 2 EnMin= -276.329186233300     IErMin= 2 ErrMin= 3.24D-05
 ErrMax= 3.24D-05  0.00D+00 EMaxC= 1.00D-01 BMatC= 6.17D-07 BMatP= 1.67D-06
 IDIUse=1 WtCom= 1.00D+00 WtEn= 0.00D+00
 Coeff-Com:  0.351D+00 0.649D+00
 Coeff:      0.351D+00 0.649D+00
 Gap=     0.419 Goal=   None    Shift=    0.000
 RMSDP=1.44D-06 MaxDP=5.99D-05 DE=-6.85D-07 OVMax= 1.75D-04

 Cycle   8  Pass 1  IDiag  1:
 RMSU=  1.44D-06    CP:  1.00D+00  9.94D-01
 E= -276.329186783691     Delta-E=       -0.000000550391 Rises=F Damp=F
 DIIS: error= 9.27D-06 at cycle   3 NSaved=   3.
 NSaved= 3 IEnMin= 3 EnMin= -276.329186783691     IErMin= 3 ErrMin= 9.27D-06
 ErrMax= 9.27D-06  0.00D+00 EMaxC= 1.00D-01 BMatC= 5.30D-08 BMatP= 6.17D-07
 IDIUse=1 WtCom= 1.00D+00 WtEn= 0.00D+00
 Coeff-Com: -0.593D-02 0.215D+00 0.791D+00
 Coeff:     -0.593D-02 0.215D+00 0.791D+00
 Gap=     0.419 Goal=   None    Shift=    0.000
 RMSDP=4.29D-07 MaxDP=1.59D-05 DE=-5.50D-07 OVMax= 4.40D-05

 Cycle   9  Pass 1  IDiag  1:
 RMSU=  2.85D-07    CP:  1.00D+00  1.01D+00  8.33D-01
 E= -276.329186834361     Delta-E=       -0.000000050670 Rises=F Damp=F
 DIIS: error= 1.99D-06 at cycle   4 NSaved=   4.
 NSaved= 4 IEnMin= 4 EnMin= -276.329186834361     IErMin= 4 ErrMin= 1.99D-06
 ErrMax= 1.99D-06  0.00D+00 EMaxC= 1.00D-01 BMatC= 1.82D-09 BMatP= 5.30D-08
 IDIUse=1 WtCom= 1.00D+00 WtEn= 0.00D+00
 Coeff-Com: -0.121D-01 0.581D-01 0.279D+00 0.675D+00
 Coeff:     -0.121D-01 0.581D-01 0.279D+00 0.675D+00
 Gap=     0.419 Goal=   None    Shift=    0.000
 RMSDP=8.88D-08 MaxDP=2.79D-06 DE=-5.07D-08 OVMax= 7.89D-06

 Cycle  10  Pass 1  IDiag  1:
 RMSU=  8.02D-08    CP:  1.00D+00  1.02D+00  8.29D-01  8.77D-01
 E= -276.329186836257     Delta-E=       -0.000000001896 Rises=F Damp=F
 DIIS: error= 3.53D-07 at cycle   5 NSaved=   5.
 NSaved= 5 IEnMin= 5 EnMin= -276.329186836257     IErMin= 5 ErrMin= 3.53D-07
 ErrMax= 3.53D-07  0.00D+00 EMaxC= 1.00D-01 BMatC= 5.89D-11 BMatP= 1.82D-09
 IDIUse=1 WtCom= 1.00D+00 WtEn= 0.00D+00
 Coeff-Com: -0.487D-03-0.136D-01-0.451D-01 0.524D-01 0.101D+01
 Coeff:     -0.487D-03-0.136D-01-0.451D-01 0.524D-01 0.101D+01
 Gap=     0.419 Goal=   None    Shift=    0.000
 RMSDP=3.12D-08 MaxDP=8.22D-07 DE=-1.90D-09 OVMax= 2.73D-06

 Cycle  11  Pass 1  IDiag  1:
 RMSU=  1.56D-08    CP:  1.00D+00  1.02D+00  8.30D-01  9.65D-01  1.12D+00
 E= -276.329186836323     Delta-E=       -0.000000000066 Rises=F Damp=F
 DIIS: error= 1.56D-07 at cycle   6 NSaved=   6.
 NSaved= 6 IEnMin= 6 EnMin= -276.329186836323     IErMin= 6 ErrMin= 1.56D-07
 ErrMax= 1.56D-07  0.00D+00 EMaxC= 1.00D-01 BMatC= 1.55D-11 BMatP= 5.89D-11
 IDIUse=1 WtCom= 1.00D+00 WtEn= 0.00D+00
 Coeff-Com:  0.466D-03-0.956D-02-0.366D-01-0.161D-01 0.456D+00 0.606D+00
 Coeff:      0.466D-03-0.956D-02-0.366D-01-0.161D-01 0.456D+00 0.606D+00
 Gap=     0.419 Goal=   None    Shift=    0.000
 RMSDP=5.78D-09 MaxDP=2.50D-07 DE=-6.59D-11 OVMax= 6.26D-07

 SCF Done:  E(RM062X) =  -276.329186836     A.U. after   11 cycles
            NFock= 11  Conv=0.58D-08     -V/T= 2.0069
 KE= 2.744490264754D+02 PE=-1.294964971249D+03 EE= 4.158931160617D+02
 Leave Link  502 at Sun Sep 29 13:26:43 2019, MaxMem=   671088640 cpu:            2065.0 elap:            1032.7
 (Enter /shared/centos7/gaussian/g16/l801.exe)
 DoSCS=F DFT=T ScalE2(SS,OS)=  1.000000  1.000000
 Range of M.O.s used for correlation:     1   434
 NBasis=   434 NAE=    29 NBE=    29 NFC=     0 NFV=     0
 NROrb=    434 NOA=    29 NOB=    29 NVA=   405 NVB=   405

 **** Warning!!: The largest alpha MO coefficient is  0.10597781D+02

 Leave Link  801 at Sun Sep 29 13:26:44 2019, MaxMem=   671088640 cpu:               1.2 elap:               0.6
 (Enter /shared/centos7/gaussian/g16/l1101.exe)
 Using compressed storage, NAtomX=    23.
 Will process     24 centers per pass.
 Leave Link 1101 at Sun Sep 29 13:27:25 2019, MaxMem=   671088640 cpu:              83.2 elap:              41.6
 (Enter /shared/centos7/gaussian/g16/l1102.exe)
 Symmetrizing basis deriv contribution to polar:
 IMax=3 JMax=2 DiffMx= 0.00D+00
 Leave Link 1102 at Sun Sep 29 13:27:28 2019, MaxMem=   671088640 cpu:               5.2 elap:               2.6
 (Enter /shared/centos7/gaussian/g16/l1110.exe)
 Forming Gx(P) for the SCF density, NAtomX=    23.
 Integral derivatives from FoFJK, PRISM(SPDF).
 Do as many integral derivatives as possible in FoFJK.
 G2DrvN: MDV=     671086848.
 G2DrvN: will do    24 centers at a time, making    1 passes.
 Calling FoFCou, ICntrl=  3107 FMM=F I1Cent=   0 AccDes= 0.00D+00.
 FoFJK:  IHMeth= 1 ICntrl=    3107 DoSepK=F KAlg= 0 I1Cent=           0 FoldK=F
 IRaf=         0 NMat=       1 IRICut=       1 DoRegI=T DoRafI=F ISym2E= 0 IDoP0=0 IntGTp=1.
 FoFCou: FMM=F IPFlag=           0 FMFlag=      100000 FMFlg1=           0
         NFxFlg=           0 DoJE=F BraDBF=F KetDBF=F FulRan=T
         wScrn=  0.000000 ICntrl=      3107 IOpCl=  0 I1Cent=           0 NGrid=           0
         NMat0=    1 NMatS0=      1 NMatT0=    0 NMatD0=    1 NMtDS0=    0 NMtDT0=    0
 Symmetry not used in FoFCou.
 End of G2Drv F.D. properties file   721 does not exist.
 End of G2Drv F.D. properties file   722 does not exist.
 End of G2Drv F.D. properties file   788 does not exist.
 Leave Link 1110 at Sun Sep 29 14:13:23 2019, MaxMem=   671088640 cpu:            5509.5 elap:            2754.9
 (Enter /shared/centos7/gaussian/g16/l1002.exe)
 Minotr:  Closed shell wavefunction.
          IDoAtm=11111111111111111111111
          Direct CPHF calculation.
          Differentiating once with respect to nuclear coordinates.
          Requested convergence is 1.0D-08 RMS, and 1.0D-07 maximum.
          Secondary convergence is 1.0D-12 RMS, and 1.0D-12 maximum.
          NewPWx=T KeepS1=F KeepF1=F KeepIn=T MapXYZ=F SortEE=F KeepMc=T.
         6925 words used for storage of precomputed grid.
 Two-electron integrals replicated using symmetry.
          MDV=     671088640 using IRadAn=       1.
          Solving linear equations simultaneously, MaxMat=     380.
 FoF2E skips out because all densities are zero.
 CalDSu exits because no D1Ps are significant.
 FoFJK:  IHMeth= 1 ICntrl=       0 DoSepK=F KAlg= 0 I1Cent=           0 FoldK=F
 IRaf= 920000000 NMat=      69 IRICut=     172 DoRegI=T DoRafI=T ISym2E= 2 IDoP0=3 IntGTp=3.
 FoFCou: FMM=F IPFlag=           0 FMFlag=      100000 FMFlg1=           0
         NFxFlg=           0 DoJE=F BraDBF=F KetDBF=F FulRan=T
         wScrn=  0.000000 ICntrl=         0 IOpCl=  0 I1Cent=           0 NGrid=           0
         NMat0=   69 NMatS0=     69 NMatT0=    0 NMatD0=   69 NMtDS0=    0 NMtDT0=    0
 Integrals replicated using symmetry in FoFCou.
 Raff kept on since  88.75% of shell-pairs survive, threshold=   0.20 IRatSp=89.
          There are    72 degrees of freedom in the 1st order CPHF.  IDoFFX=6 NUNeed=     0.
     66 vectors produced by pass  0 Test12= 1.63D-14 1.39D-09 XBig12= 5.67D-02 3.72D-02.
 AX will form    66 AO Fock derivatives at one time.
     66 vectors produced by pass  1 Test12= 1.63D-14 1.39D-09 XBig12= 3.07D-03 5.82D-03.
     66 vectors produced by pass  2 Test12= 1.63D-14 1.39D-09 XBig12= 4.71D-05 9.98D-04.
