 Entering Gaussian System, Link 0=g16
 Input=verytight/species/CCCCCCC/conformers/CCCCCCC_215.com
 Output=verytight/species/CCCCCCC/conformers/CCCCCCC_215.log
 Initial command:
 /shared/centos7/gaussian/g16/l1.exe "/scratch/harms.n/gauss_scrdir/Gau-48237.inp" -scrdir="/scratch/harms.n/gauss_scrdir/"
 Entering Link 1 = /shared/centos7/gaussian/g16/l1.exe PID=     48238.
  
 Copyright (c) 1988,1990,1992,1993,1995,1998,2003,2009,2016,
            Gaussian, Inc.  All Rights Reserved.
  
 This is part of the Gaussian(R) 16 program.  It is based on
 the Gaussian(R) 09 system (copyright 2009, Gaussian, Inc.),
 the Gaussian(R) 03 system (copyright 2003, Gaussian, Inc.),
 the Gaussian(R) 98 system (copyright 1998, Gaussian, Inc.),
 the Gaussian(R) 94 system (copyright 1995, Gaussian, Inc.),
 the Gaussian 92(TM) system (copyright 1992, Gaussian, Inc.),
 the Gaussian 90(TM) system (copyright 1990, Gaussian, Inc.),
 the Gaussian 88(TM) system (copyright 1988, Gaussian, Inc.),
 the Gaussian 86(TM) system (copyright 1986, Carnegie Mellon
 University), and the Gaussian 82(TM) system (copyright 1983,
 Carnegie Mellon University). Gaussian is a federally registered
 trademark of Gaussian, Inc.
  
 This software contains proprietary and confidential information,
 including trade secrets, belonging to Gaussian, Inc.
  
 This software is provided under written license and may be
 used, copied, transmitted, or stored only in accord with that
 written license.
  
 The following legend is applicable only to US Government
 contracts under FAR:
  
                    RESTRICTED RIGHTS LEGEND
  
 Use, reproduction and disclosure by the US Government is
 subject to restrictions as set forth in subparagraphs (a)
 and (c) of the Commercial Computer Software - Restricted
 Rights clause in FAR 52.227-19.
  
 Gaussian, Inc.
 340 Quinnipiac St., Bldg. 40, Wallingford CT 06492
  
  
 ---------------------------------------------------------------
 Warning -- This program may not be used in any manner that
 competes with the business of Gaussian, Inc. or will provide
 assistance to any competitor of Gaussian, Inc.  The licensee
 of this program is prohibited from giving any competitor of
 Gaussian, Inc. access to this program.  By using this program,
 the user acknowledges that Gaussian, Inc. is engaged in the
 business of creating and licensing software in the field of
 computational chemistry and represents and warrants to the
 licensee that it is not a competitor of Gaussian, Inc. and that
 it will not use this program in any manner prohibited above.
 ---------------------------------------------------------------
  

 Cite this work as:
 Gaussian 16, Revision A.03,
 M. J. Frisch, G. W. Trucks, H. B. Schlegel, G. E. Scuseria, 
 M. A. Robb, J. R. Cheeseman, G. Scalmani, V. Barone, 
 G. A. Petersson, H. Nakatsuji, X. Li, M. Caricato, A. V. Marenich, 
 J. Bloino, B. G. Janesko, R. Gomperts, B. Mennucci, H. P. Hratchian, 
 J. V. Ortiz, A. F. Izmaylov, J. L. Sonnenberg, D. Williams-Young, 
 F. Ding, F. Lipparini, F. Egidi, J. Goings, B. Peng, A. Petrone, 
 T. Henderson, D. Ranasinghe, V. G. Zakrzewski, J. Gao, N. Rega, 
 G. Zheng, W. Liang, M. Hada, M. Ehara, K. Toyota, R. Fukuda, 
 J. Hasegawa, M. Ishida, T. Nakajima, Y. Honda, O. Kitao, H. Nakai, 
 T. Vreven, K. Throssell, J. A. Montgomery, Jr., J. E. Peralta, 
 F. Ogliaro, M. J. Bearpark, J. J. Heyd, E. N. Brothers, K. N. Kudin, 
 V. N. Staroverov, T. A. Keith, R. Kobayashi, J. Normand, 
 K. Raghavachari, A. P. Rendell, J. C. Burant, S. S. Iyengar, 
 J. Tomasi, M. Cossi, J. M. Millam, M. Klene, C. Adamo, R. Cammi, 
 J. W. Ochterski, R. L. Martin, K. Morokuma, O. Farkas, 
 J. B. Foresman, and D. J. Fox, Gaussian, Inc., Wallingford CT, 2016.
 
 ******************************************
 Gaussian 16:  EM64L-G16RevA.03 25-Dec-2016
                29-Sep-2019 
 ******************************************
 %nprocshared=20
 Will use up to   20 processors via shared memory.
 %mem=5GB
 ----------------------------------------------------------------------
 #p m062x/cc-pVTZ opt=(calcfc,maxcycles=900,Tight) freq IOP(7/33=1,2/16
 =3) scf=(maxcycle=900)
 ----------------------------------------------------------------------
 1/6=900,7=10,10=4,18=20,19=15,26=3,38=1/1,3;
 2/9=110,12=2,16=3,17=6,18=5,40=1/2;
 3/5=16,6=1,11=2,25=1,30=1,71=2,74=-55,140=1/1,2,3;
 4//1;
 5/5=2,7=900,38=5/2;
 8/6=4,10=90,11=11/1;
 11/6=1,8=1,9=11,15=111,16=1/1,2,10;
 10/6=1,13=1/2;
 6/7=2,8=2,9=2,10=2,28=1/1;
 7/10=1,18=20,25=1,33=1/1,2,3,16;
 1/6=900,7=10,10=4,18=20,19=15,26=3/3(2);
 2/9=110,16=3/2;
 99//99;
 2/9=110,16=3/2;
 3/5=16,6=1,11=2,25=1,30=1,71=1,74=-55/1,2,3;
 4/5=5,16=3,69=1/1;
 5/5=2,7=900,38=5/2;
 7/33=1/1,2,3,16;
 1/6=900,7=10,18=20,19=15,26=3/3(-5);
 2/9=110,16=3/2;
 6/7=2,8=2,9=2,10=2,19=2,28=1/1;
 99/9=1/99;
 Leave Link    1 at Sun Sep 29 12:16:43 2019, MaxMem=   671088640 cpu:               3.7 elap:               1.9
 (Enter /shared/centos7/gaussian/g16/l101.exe)
 ------------------------------
 Gaussian input prepared by ASE
 ------------------------------
 Symbolic Z-matrix:
 Charge =  0 Multiplicity = 1
 C                     1.49292  -1.03374   0.47012 
 C                     0.1106   -0.49551   0.61662 
 C                     0.02755   0.9738    0.9471 
 C                     2.1861   -0.69583  -0.80673 
 C                    -1.38448   1.50919   0.98179 
 C                     2.66405   0.69201  -0.92949 
 C                    -2.29856   0.78945   1.93906 
 H                     1.50205  -0.9272   -1.6714 
 H                     3.057    -1.38357  -0.92631 
 H                     1.43763  -2.14057   0.54394 
 H                     2.11529  -0.70979   1.3294 
 H                    -0.40421  -1.05921   1.41027 
 H                    -0.46291  -0.69388  -0.31343 
 H                     0.60548   1.55323   0.20725 
 H                     0.51266   1.15478   1.92846 
 H                    -1.34938   2.59535   1.25845 
 H                    -1.81763   1.46371  -0.03191 
 H                     1.83611   1.42058  -0.84245 
 H                     3.41846   0.93962  -0.12508 
 H                     3.15811   0.85183  -1.91125 
 H                    -1.93193   0.85122   2.96441 
 H                    -2.39053  -0.29807   1.66575 
 H                    -3.33235   1.23918   1.90891 
 
 ITRead=  0  0  0  0  0  0  0  0  0  0  0  0  0  0  0  0  0  0  0  0
 ITRead=  0  0  0
 MicOpt= -1 -1 -1 -1 -1 -1 -1 -1 -1 -1 -1 -1 -1 -1 -1 -1 -1 -1 -1 -1
 MicOpt= -1 -1 -1
 NAtoms=     23 NQM=       23 NQMF=       0 NMMI=      0 NMMIF=      0
                NMic=       0 NMicF=      0.
                    Isotopes and Nuclear Properties:
 (Nuclear quadrupole moments (NQMom) in fm**2, nuclear magnetic moments (NMagM)
  in nuclear magnetons)

  Atom         1           2           3           4           5           6           7           8           9          10
 IAtWgt=          12          12          12          12          12          12          12           1           1           1
 AtmWgt=  12.0000000  12.0000000  12.0000000  12.0000000  12.0000000  12.0000000  12.0000000   1.0078250   1.0078250   1.0078250
 NucSpn=           0           0           0           0           0           0           0           1           1           1
 AtZEff=  -0.0000000  -0.0000000  -0.0000000  -0.0000000  -0.0000000  -0.0000000  -0.0000000  -0.0000000  -0.0000000  -0.0000000
 NQMom=    0.0000000   0.0000000   0.0000000   0.0000000   0.0000000   0.0000000   0.0000000   0.0000000   0.0000000   0.0000000
 NMagM=    0.0000000   0.0000000   0.0000000   0.0000000   0.0000000   0.0000000   0.0000000   2.7928460   2.7928460   2.7928460
 AtZNuc=   6.0000000   6.0000000   6.0000000   6.0000000   6.0000000   6.0000000   6.0000000   1.0000000   1.0000000   1.0000000

  Atom        11          12          13          14          15          16          17          18          19          20
 IAtWgt=           1           1           1           1           1           1           1           1           1           1
 AtmWgt=   1.0078250   1.0078250   1.0078250   1.0078250   1.0078250   1.0078250   1.0078250   1.0078250   1.0078250   1.0078250
 NucSpn=           1           1           1           1           1           1           1           1           1           1
 AtZEff=  -0.0000000  -0.0000000  -0.0000000  -0.0000000  -0.0000000  -0.0000000  -0.0000000  -0.0000000  -0.0000000  -0.0000000
 NQMom=    0.0000000   0.0000000   0.0000000   0.0000000   0.0000000   0.0000000   0.0000000   0.0000000   0.0000000   0.0000000
 NMagM=    2.7928460   2.7928460   2.7928460   2.7928460   2.7928460   2.7928460   2.7928460   2.7928460   2.7928460   2.7928460
 AtZNuc=   1.0000000   1.0000000   1.0000000   1.0000000   1.0000000   1.0000000   1.0000000   1.0000000   1.0000000   1.0000000

  Atom        21          22          23
 IAtWgt=           1           1           1
 AtmWgt=   1.0078250   1.0078250   1.0078250
 NucSpn=           1           1           1
 AtZEff=  -0.0000000  -0.0000000  -0.0000000
 NQMom=    0.0000000   0.0000000   0.0000000
 NMagM=    2.7928460   2.7928460   2.7928460
 AtZNuc=   1.0000000   1.0000000   1.0000000
 Leave Link  101 at Sun Sep 29 12:16:47 2019, MaxMem=   671088640 cpu:               6.7 elap:               3.4
 (Enter /shared/centos7/gaussian/g16/l103.exe)

 GradGradGradGradGradGradGradGradGradGradGradGradGradGradGradGradGradGrad
 Berny optimization.
 Initialization pass.
                           ----------------------------
                           !    Initial Parameters    !
                           ! (Angstroms and Degrees)  !
 --------------------------                            --------------------------
 ! Name  Definition              Value          Derivative Info.                !
 --------------------------------------------------------------------------------
 ! R1    R(1,2)                  1.4906         calculate D2E/DX2 analytically  !
 ! R2    R(1,4)                  1.4917         calculate D2E/DX2 analytically  !
 ! R3    R(1,10)                 1.1107         calculate D2E/DX2 analytically  !
 ! R4    R(1,11)                 1.1093         calculate D2E/DX2 analytically  !
 ! R5    R(2,3)                  1.5083         calculate D2E/DX2 analytically  !
 ! R6    R(2,12)                 1.1012         calculate D2E/DX2 analytically  !
 ! R7    R(2,13)                 1.1105         calculate D2E/DX2 analytically  !
 ! R8    R(3,5)                  1.5105         calculate D2E/DX2 analytically  !
 ! R9    R(3,14)                 1.1032         calculate D2E/DX2 analytically  !
 ! R10   R(3,15)                 1.1096         calculate D2E/DX2 analytically  !
 ! R11   R(4,6)                  1.473          calculate D2E/DX2 analytically  !
 ! R12   R(4,8)                  1.1266         calculate D2E/DX2 analytically  !
 ! R13   R(4,9)                  1.1161         calculate D2E/DX2 analytically  !
 ! R14   R(5,7)                  1.5066         calculate D2E/DX2 analytically  !
 ! R15   R(5,16)                 1.1214         calculate D2E/DX2 analytically  !
 ! R16   R(5,17)                 1.1033         calculate D2E/DX2 analytically  !
 ! R17   R(6,18)                 1.1063         calculate D2E/DX2 analytically  !
 ! R18   R(6,19)                 1.1303         calculate D2E/DX2 analytically  !
 ! R19   R(6,20)                 1.1106         calculate D2E/DX2 analytically  !
 ! R20   R(7,21)                 1.0907         calculate D2E/DX2 analytically  !
 ! R21   R(7,22)                 1.1251         calculate D2E/DX2 analytically  !
 ! R22   R(7,23)                 1.1278         calculate D2E/DX2 analytically  !
 ! A1    A(2,1,4)              115.675          calculate D2E/DX2 analytically  !
 ! A2    A(2,1,10)             107.8863         calculate D2E/DX2 analytically  !
 ! A3    A(2,1,11)             109.7974         calculate D2E/DX2 analytically  !
 ! A4    A(4,1,10)             107.8053         calculate D2E/DX2 analytically  !
 ! A5    A(4,1,11)             109.6438         calculate D2E/DX2 analytically  !
 ! A6    A(10,1,11)            105.5137         calculate D2E/DX2 analytically  !
 ! A7    A(1,2,3)              115.1087         calculate D2E/DX2 analytically  !
 ! A8    A(1,2,12)             108.6343         calculate D2E/DX2 analytically  !
 ! A9    A(1,2,13)             109.3972         calculate D2E/DX2 analytically  !
 ! A10   A(3,2,12)             108.3607         calculate D2E/DX2 analytically  !
 ! A11   A(3,2,13)             109.2126         calculate D2E/DX2 analytically  !
 ! A12   A(12,2,13)            105.7066         calculate D2E/DX2 analytically  !
 ! A13   A(2,3,5)              113.6894         calculate D2E/DX2 analytically  !
 ! A14   A(2,3,14)             109.6247         calculate D2E/DX2 analytically  !
 ! A15   A(2,3,15)             109.1844         calculate D2E/DX2 analytically  !
 ! A16   A(5,3,14)             108.5983         calculate D2E/DX2 analytically  !
 ! A17   A(5,3,15)             109.3036         calculate D2E/DX2 analytically  !
 ! A18   A(14,3,15)            106.1667         calculate D2E/DX2 analytically  !
 ! A19   A(1,4,6)              115.8223         calculate D2E/DX2 analytically  !
 ! A20   A(1,4,8)              109.1663         calculate D2E/DX2 analytically  !
 ! A21   A(1,4,9)              108.344          calculate D2E/DX2 analytically  !
 ! A22   A(6,4,8)              109.0608         calculate D2E/DX2 analytically  !
 ! A23   A(6,4,9)              108.5698         calculate D2E/DX2 analytically  !
 ! A24   A(8,4,9)              105.3671         calculate D2E/DX2 analytically  !
 ! A25   A(3,5,7)              114.3566         calculate D2E/DX2 analytically  !
 ! A26   A(3,5,16)             108.6451         calculate D2E/DX2 analytically  !
 ! A27   A(3,5,17)             109.3466         calculate D2E/DX2 analytically  !
 ! A28   A(7,5,16)             108.9622         calculate D2E/DX2 analytically  !
 ! A29   A(7,5,17)             109.02           calculate D2E/DX2 analytically  !
 ! A30   A(16,5,17)            106.1942         calculate D2E/DX2 analytically  !
 ! A31   A(4,6,18)             111.7848         calculate D2E/DX2 analytically  !
 ! A32   A(4,6,19)             111.326          calculate D2E/DX2 analytically  !
 ! A33   A(4,6,20)             110.7085         calculate D2E/DX2 analytically  !
 ! A34   A(18,6,19)            107.412          calculate D2E/DX2 analytically  !
 ! A35   A(18,6,20)            107.9206         calculate D2E/DX2 analytically  !
 ! A36   A(19,6,20)            107.498          calculate D2E/DX2 analytically  !
 ! A37   A(5,7,21)             111.4886         calculate D2E/DX2 analytically  !
 ! A38   A(5,7,22)             110.9164         calculate D2E/DX2 analytically  !
 ! A39   A(5,7,23)             110.4047         calculate D2E/DX2 analytically  !
 ! A40   A(21,7,22)            108.0949         calculate D2E/DX2 analytically  !
 ! A41   A(21,7,23)            108.1003         calculate D2E/DX2 analytically  !
 ! A42   A(22,7,23)            107.7004         calculate D2E/DX2 analytically  !
 ! D1    D(4,1,2,3)            -76.437          calculate D2E/DX2 analytically  !
 ! D2    D(4,1,2,12)           161.8857         calculate D2E/DX2 analytically  !
 ! D3    D(4,1,2,13)            46.9496         calculate D2E/DX2 analytically  !
 ! D4    D(10,1,2,3)           162.7887         calculate D2E/DX2 analytically  !
 ! D5    D(10,1,2,12)           41.1114         calculate D2E/DX2 analytically  !
 ! D6    D(10,1,2,13)          -73.8248         calculate D2E/DX2 analytically  !
 ! D7    D(11,1,2,3)            48.2769         calculate D2E/DX2 analytically  !
 ! D8    D(11,1,2,12)          -73.4004         calculate D2E/DX2 analytically  !
 ! D9    D(11,1,2,13)          171.6634         calculate D2E/DX2 analytically  !
 ! D10   D(2,1,4,6)             74.2776         calculate D2E/DX2 analytically  !
 ! D11   D(2,1,4,8)            -49.246          calculate D2E/DX2 analytically  !
 ! D12   D(2,1,4,9)           -163.5023         calculate D2E/DX2 analytically  !
 ! D13   D(10,1,4,6)          -164.9043         calculate D2E/DX2 analytically  !
 ! D14   D(10,1,4,8)            71.5721         calculate D2E/DX2 analytically  !
 ! D15   D(10,1,4,9)           -42.6843         calculate D2E/DX2 analytically  !
 ! D16   D(11,1,4,6)           -50.5156         calculate D2E/DX2 analytically  !
 ! D17   D(11,1,4,8)          -174.0392         calculate D2E/DX2 analytically  !
 ! D18   D(11,1,4,9)            71.7044         calculate D2E/DX2 analytically  !
 ! D19   D(1,2,3,5)            175.4799         calculate D2E/DX2 analytically  !
 ! D20   D(1,2,3,14)            53.7307         calculate D2E/DX2 analytically  !
 ! D21   D(1,2,3,15)           -62.1848         calculate D2E/DX2 analytically  !
 ! D22   D(12,2,3,5)           -62.6949         calculate D2E/DX2 analytically  !
 ! D23   D(12,2,3,14)          175.556          calculate D2E/DX2 analytically  !
 ! D24   D(12,2,3,15)           59.6404         calculate D2E/DX2 analytically  !
 ! D25   D(13,2,3,5)            51.9955         calculate D2E/DX2 analytically  !
 ! D26   D(13,2,3,14)          -69.7537         calculate D2E/DX2 analytically  !
 ! D27   D(13,2,3,15)          174.3307         calculate D2E/DX2 analytically  !
 ! D28   D(2,3,5,7)             56.6647         calculate D2E/DX2 analytically  !
 ! D29   D(2,3,5,16)           178.616          calculate D2E/DX2 analytically  !
 ! D30   D(2,3,5,17)           -65.8894         calculate D2E/DX2 analytically  !
 ! D31   D(14,3,5,7)           178.9823         calculate D2E/DX2 analytically  !
 ! D32   D(14,3,5,16)          -59.0664         calculate D2E/DX2 analytically  !
 ! D33   D(14,3,5,17)           56.4281         calculate D2E/DX2 analytically  !
 ! D34   D(15,3,5,7)           -65.6047         calculate D2E/DX2 analytically  !
 ! D35   D(15,3,5,16)           56.3466         calculate D2E/DX2 analytically  !
 ! D36   D(15,3,5,17)          171.8411         calculate D2E/DX2 analytically  !
 ! D37   D(1,4,6,18)           -59.2324         calculate D2E/DX2 analytically  !
 ! D38   D(1,4,6,19)            60.8982         calculate D2E/DX2 analytically  !
 ! D39   D(1,4,6,20)          -179.5863         calculate D2E/DX2 analytically  !
 ! D40   D(8,4,6,18)            64.3463         calculate D2E/DX2 analytically  !
 ! D41   D(8,4,6,19)          -175.523          calculate D2E/DX2 analytically  !
 ! D42   D(8,4,6,20)           -56.0076         calculate D2E/DX2 analytically  !
 ! D43   D(9,4,6,18)           178.6674         calculate D2E/DX2 analytically  !
 ! D44   D(9,4,6,19)           -61.202          calculate D2E/DX2 analytically  !
 ! D45   D(9,4,6,20)            58.3135         calculate D2E/DX2 analytically  !
 ! D46   D(3,5,7,21)            60.0151         calculate D2E/DX2 analytically  !
 ! D47   D(3,5,7,22)           -60.5025         calculate D2E/DX2 analytically  !
 ! D48   D(3,5,7,23)          -179.8069         calculate D2E/DX2 analytically  !
 ! D49   D(16,5,7,21)          -61.7625         calculate D2E/DX2 analytically  !
 ! D50   D(16,5,7,22)          177.7199         calculate D2E/DX2 analytically  !
 ! D51   D(16,5,7,23)           58.4155         calculate D2E/DX2 analytically  !
 ! D52   D(17,5,7,21)         -177.2534         calculate D2E/DX2 analytically  !
 ! D53   D(17,5,7,22)           62.229          calculate D2E/DX2 analytically  !
 ! D54   D(17,5,7,23)          -57.0754         calculate D2E/DX2 analytically  !
 --------------------------------------------------------------------------------
 Trust Radius=3.00D-01 FncErr=1.00D-07 GrdErr=1.00D-06 EigMax=2.50D+02 EigMin=1.00D-04
 Number of steps in this run=    138 maximum allowed number of steps=    138.
 GradGradGradGradGradGradGradGradGradGradGradGradGradGradGradGradGradGrad

 Leave Link  103 at Sun Sep 29 12:16:48 2019, MaxMem=   671088640 cpu:               1.6 elap:               0.8
 (Enter /shared/centos7/gaussian/g16/l202.exe)
                          Input orientation:                          
 ---------------------------------------------------------------------
 Center     Atomic      Atomic             Coordinates (Angstroms)
 Number     Number       Type             X           Y           Z
 ---------------------------------------------------------------------
      1          6           0        1.492925   -1.033743    0.470124
      2          6           0        0.110604   -0.495512    0.616617
      3          6           0        0.027554    0.973796    0.947101
      4          6           0        2.186102   -0.695826   -0.806726
      5          6           0       -1.384485    1.509187    0.981788
      6          6           0        2.664049    0.692007   -0.929492
      7          6           0       -2.298562    0.789447    1.939057
      8          1           0        1.502047   -0.927205   -1.671404
      9          1           0        3.056999   -1.383572   -0.926309
     10          1           0        1.437628   -2.140572    0.543940
     11          1           0        2.115294   -0.709786    1.329398
     12          1           0       -0.404211   -1.059213    1.410274
     13          1           0       -0.462914   -0.693881   -0.313427
     14          1           0        0.605479    1.553235    0.207252
     15          1           0        0.512661    1.154776    1.928458
     16          1           0       -1.349380    2.595348    1.258452
     17          1           0       -1.817625    1.463710   -0.031908
     18          1           0        1.836114    1.420584   -0.842446
     19          1           0        3.418461    0.939623   -0.125076
     20          1           0        3.158110    0.851835   -1.911252
     21          1           0       -1.931930    0.851219    2.964408
     22          1           0       -2.390526   -0.298075    1.665746
     23          1           0       -3.332347    1.239183    1.908907
 ---------------------------------------------------------------------
                    Distance matrix (angstroms):
                    1          2          3          4          5
     1  C    0.000000
     2  C    1.490625   0.000000
     3  C    2.530816   1.508304   0.000000
     4  C    1.491652   2.524623   3.243898   0.000000
     5  C    3.873988   2.527343   1.510531   4.561793   0.000000
     6  C    2.511707   3.212590   3.248401   1.472952   4.550979
     7  C    4.456137   3.033817   2.535503   5.464208   1.506627
     8  H    2.144196   2.712473   3.555910   1.126559   4.616005
     9  H    2.125731   3.442457   4.271344   1.116134   5.633442
    10  H    1.110665   2.114828   3.442402   2.114663   4.634304
    11  H    1.109344   2.138399   2.709106   2.137343   4.158501
    12  H    2.117465   1.101220   2.129337   3.428828   2.782304
    13  H    2.134189   1.110520   2.147239   2.694555   2.716687
    14  H    2.747566   2.147055   1.103233   2.929982   2.135838
    15  H    2.806648   2.146166   1.109570   3.702211   2.149640
    16  H    4.676587   3.478063   2.149958   5.253230   1.121392
    17  H    4.177207   2.824395   2.145499   4.614518   1.103295
    18  H    2.804343   2.962714   2.583212   2.145451   3.702423
    19  H    2.820661   3.681255   3.556540   2.158252   4.961637
    20  H    3.463985   4.182434   4.240924   2.135423   5.425584
    21  H    4.637258   3.390833   2.814983   5.794220   2.159490
    22  H    4.129397   2.719432   2.825105   5.216977   2.178558
    23  H    5.524449   4.066091   3.504916   6.447651   2.174078
                    6          7          8          9         10
     6  C    0.000000
     7  C    5.732851   0.000000
     8  H    2.126624   5.516062   0.000000
     9  H    2.112450   6.450919   1.783623   0.000000
    10  H    3.420324   4.948785   2.526689   2.314529   0.000000
    11  H    2.714543   4.701224   3.070530   2.535549   1.767293
    12  H    4.237393   2.699207   3.626015   4.188652   2.304831
    13  H    3.475359   3.262446   2.399919   3.638829   2.537726
    14  H    2.504318   3.466407   3.238172   3.989955   3.801321
    15  H    3.607008   2.834881   4.274639   4.589832   3.692123
    16  H    4.951507   2.150686   5.396579   6.326228   5.541379
    17  H    4.635363   2.137905   4.407340   5.715674   4.890719
    18  H    1.106291   5.023011   2.512147   3.059556   3.842225
    19  H    1.130281   6.080094   3.090116   2.483921   3.722752
    20  H    1.110627   6.678626   2.442346   2.444867   4.235862
    21  H    6.025847   1.090678   6.037030   6.709797   5.115017
    22  H    5.767518   1.125104   5.165704   6.129648   4.394088
    23  H    6.656777   1.127778   6.393999   7.465992   6.003211
                   11         12         13         14         15
    11  H    0.000000
    12  H    2.544906   0.000000
    13  H    3.057169   1.762969   0.000000
    14  H    2.942791   3.048216   2.542066   0.000000
    15  H    2.530592   2.451717   3.065180   1.769162   0.000000
    16  H    4.788832   3.777858   3.751754   2.452040   2.447724
    17  H    4.695221   3.231528   2.563142   2.436524   3.060835
    18  H    3.055050   4.030285   3.168020   1.622937   3.082222
    19  H    2.556226   4.578806   4.215315   2.898245   3.564683
    20  H    3.745389   5.232091   4.249011   3.390567   4.672638
    21  H    4.635732   2.898103   3.910185   3.812241   2.672333
    22  H    4.537075   2.142439   2.790964   3.811903   3.257037
    23  H    5.814732   3.755694   4.112074   4.301248   3.845984
                   16         17         18         19         20
    16  H    0.000000
    17  H    1.779013   0.000000
    18  H    3.992645   3.742812   0.000000
    19  H    5.233344   5.263074   1.802711   0.000000
    20  H    5.779648   5.353902   1.792623   1.807183   0.000000
    21  H    2.508313   3.060412   5.386508   6.178949   7.048444
    22  H    3.101898   2.512794   5.206660   6.203489   6.701088
    23  H    2.488862   2.472156   5.857972   7.056928   7.541199
                   21         22         23
    21  H    0.000000
    22  H    1.793797   0.000000
    23  H    1.796042   1.819152   0.000000
 Stoichiometry    C7H16
 Framework group  C1[X(C7H16)]
 Deg. of freedom    63
 Full point group                 C1      NOp   1
 Largest Abelian subgroup         C1      NOp   1
 Largest concise Abelian subgroup C1      NOp   1
                         Standard orientation:                         
 ---------------------------------------------------------------------
 Center     Atomic      Atomic             Coordinates (Angstroms)
 Number     Number       Type             X           Y           Z
 ---------------------------------------------------------------------
      1          6           0        1.266865   -1.092602    0.310550
      2          6           0       -0.117792   -0.800739   -0.157964
      3          6           0       -0.712759    0.483236    0.363958
      4          6           0        2.351048   -0.308827   -0.349199
      5          6           0       -2.071478    0.801576   -0.214183
      6          6           0        2.461380    1.102402    0.058045
      7          6           0       -3.102466   -0.277711   -0.008924
      8          1           0        2.216881   -0.359886   -1.466574
      9          1           0        3.324611   -0.814926   -0.144762
     10          1           0        1.468240   -2.169777    0.129668
     11          1           0        1.327176   -0.960058    1.410295
     12          1           0       -0.773313   -1.633537    0.141076
     13          1           0       -0.136328   -0.787301   -1.268248
     14          1           0       -0.031678    1.323079    0.145061
     15          1           0       -0.788567    0.427034    1.469507
     16          1           0       -2.443487    1.753409    0.247492
     17          1           0       -1.971155    1.002230   -1.294430
     18          1           0        1.528852    1.662196   -0.144196
     19          1           0        2.678807    1.195488    1.163303
     20          1           0        3.287226    1.605400   -0.488275
     21          1           0       -3.269048   -0.474774    1.050790
     22          1           0       -2.780214   -1.239012   -0.496689
     23          1           0       -4.086790    0.026427   -0.467716
 ---------------------------------------------------------------------
 Rotational constants (GHZ):           5.5104181           1.1570908           1.0266362
 Leave Link  202 at Sun Sep 29 12:16:49 2019, MaxMem=   671088640 cpu:               3.4 elap:               1.7
 (Enter /shared/centos7/gaussian/g16/l301.exe)
 Standard basis: CC-pVTZ (5D, 7F)
 Ernie: Thresh=  0.10000D-02 Tol=  0.10000D-05 Strict=F.
 Ernie:  21 primitive shells out of 310 were deleted.
 There are   485 symmetry adapted cartesian basis functions of A   symmetry.
 There are   434 symmetry adapted basis functions of A   symmetry.
   434 basis functions,   636 primitive gaussians,   485 cartesian basis functions
    29 alpha electrons       29 beta electrons
       nuclear repulsion energy       325.5601630928 Hartrees.
 IExCor= 4336 DFT=T Ex+Corr=M062X ExCW=0 ScaHFX=  0.540000
 ScaDFX=  1.000000  1.000000  1.000000  1.000000 ScalE2=  1.000000  1.000000
 IRadAn=      5 IRanWt=     -1 IRanGd=            0 ICorTp=0 IEmpDi=  4
 NAtoms=   23 NActive=   23 NUniq=   23 SFac= 1.00D+00 NAtFMM=   60 NAOKFM=F Big=F
 Integral buffers will be    131072 words long.
 Raffenetti 2 integral format.
 Two-electron integral symmetry is turned on.
 Leave Link  301 at Sun Sep 29 12:16:50 2019, MaxMem=   671088640 cpu:               1.4 elap:               0.7
 (Enter /shared/centos7/gaussian/g16/l302.exe)
 NPDir=0 NMtPBC=     1 NCelOv=     1 NCel=       1 NClECP=     1 NCelD=      1
         NCelK=      1 NCelE2=     1 NClLst=     1 CellRange=     0.0.
 One-electron integrals computed using PRISM.
 One-electron integral symmetry used in STVInt
 NBasis=   434 RedAO= T EigKep=  3.02D-04  NBF=   434
 NBsUse=   434 1.00D-06 EigRej= -1.00D+00 NBFU=   434
 Precomputing XC quadrature grid using
 IXCGrd= 4 IRadAn=           5 IRanWt=          -1 IRanGd=           0 AccXCQ= 0.00D+00.
 Generated NRdTot=       0 NPtTot=           0 NUsed=           0 NTot=          32
 NSgBfM=   485   485   485   485   485 MxSgAt=    23 MxSgA2=    23.
 Leave Link  302 at Sun Sep 29 12:17:59 2019, MaxMem=   671088640 cpu:             138.1 elap:              69.1
 (Enter /shared/centos7/gaussian/g16/l303.exe)
 DipDrv:  MaxL=1.
 Leave Link  303 at Sun Sep 29 12:18:03 2019, MaxMem=   671088640 cpu:               8.1 elap:               4.1
 (Enter /shared/centos7/gaussian/g16/l401.exe)
 ExpMin= 1.03D-01 ExpMax= 8.24D+03 ExpMxC= 2.81D+02 IAcc=3 IRadAn=         5 AccDes= 0.00D+00
 Harris functional with IExCor= 1009 and IRadAn=       5 diagonalized for initial guess.
 HarFok:  IExCor= 1009 AccDes= 0.00D+00 IRadAn=         5 IDoV= 1 UseB2=F ITyADJ=14
 ICtDFT=  3500011 ScaDFX=  1.000000  1.000000  1.000000  1.000000
 FoFCou: FMM=F IPFlag=           0 FMFlag=      100000 FMFlg1=           0
         NFxFlg=           0 DoJE=T BraDBF=F KetDBF=T FulRan=T
         wScrn=  0.000000 ICntrl=       500 IOpCl=  0 I1Cent=   200000004 NGrid=           0
         NMat0=    1 NMatS0=      1 NMatT0=    0 NMatD0=    1 NMtDS0=    0 NMtDT0=    0
 Petite list used in FoFCou.
 Harris En= -276.328881050830    
 JPrj=0 DoOrth=F DoCkMO=F.
 Leave Link  401 at Sun Sep 29 12:18:49 2019, MaxMem=   671088640 cpu:              92.3 elap:              46.2
 (Enter /shared/centos7/gaussian/g16/l502.exe)
 Integral symmetry usage will be decided dynamically.
 Closed shell SCF:
 Using DIIS extrapolation, IDIIS=  1040.
 NGot=   671088640 LenX=   670604095 LenY=   670368385
 Requested convergence on RMS density matrix=1.00D-08 within 900 cycles.
 Requested convergence on MAX density matrix=1.00D-06.
 Requested convergence on             energy=1.00D-06.
 No special actions if energy rises.
 Fock matrices will be formed incrementally for  20 cycles.
 Integral accuracy reduced to 1.0D-05 until final iterations.

 Cycle   1  Pass 0  IDiag  1:
 FoFJK:  IHMeth= 1 ICntrl=       0 DoSepK=F KAlg= 0 I1Cent=           0 FoldK=F
 IRaf= 930000000 NMat=       1 IRICut=       1 DoRegI=T DoRafI=F ISym2E= 0 IDoP0=0 IntGTp=1.
 FoFCou: FMM=F IPFlag=           0 FMFlag=      100000 FMFlg1=           0
         NFxFlg=           0 DoJE=F BraDBF=F KetDBF=F FulRan=T
         wScrn=  0.000000 ICntrl=         0 IOpCl=  0 I1Cent=           0 NGrid=           0
         NMat0=    1 NMatS0=      1 NMatT0=    0 NMatD0=    1 NMtDS0=    0 NMtDT0=    0
 Symmetry not used in FoFCou.
 E= -275.962328484836    
 DIIS: error= 2.18D-02 at cycle   1 NSaved=   1.
 NSaved= 1 IEnMin= 1 EnMin= -275.962328484836     IErMin= 1 ErrMin= 2.18D-02
 ErrMax= 2.18D-02  0.00D+00 EMaxC= 1.00D-01 BMatC= 3.74D-01 BMatP= 3.74D-01
 IDIUse=3 WtCom= 7.82D-01 WtEn= 2.18D-01
 Coeff-Com:  0.100D+01
 Coeff-En:   0.100D+01
 Coeff:      0.100D+01
 Gap=     0.360 Goal=   None    Shift=    0.000
 GapD=    0.360 DampG=1.000 DampE=0.500 DampFc=0.5000 IDamp=-1.
 Damping current iteration by 5.00D-01
 RMSDP=1.88D-03 MaxDP=6.53D-02              OVMax= 1.76D-01

 Cycle   2  Pass 0  IDiag  1:
 RMSU=  9.37D-04    CP:  9.90D-01
 E= -276.141075886629     Delta-E=       -0.178747401792 Rises=F Damp=T
 DIIS: error= 4.30D-03 at cycle   2 NSaved=   2.
 NSaved= 2 IEnMin= 2 EnMin= -276.141075886629     IErMin= 2 ErrMin= 4.30D-03
 ErrMax= 4.30D-03  0.00D+00 EMaxC= 1.00D-01 BMatC= 1.84D-02 BMatP= 3.74D-01
 IDIUse=3 WtCom= 9.57D-01 WtEn= 4.30D-02
 Coeff-Com: -0.529D-01 0.105D+01
 Coeff-En:   0.000D+00 0.100D+01
 Coeff:     -0.506D-01 0.105D+01
 Gap=     0.444 Goal=   None    Shift=    0.000
 RMSDP=5.24D-04 MaxDP=1.58D-02 DE=-1.79D-01 OVMax= 9.20D-02

 Cycle   3  Pass 0  IDiag  1:
 RMSU=  5.15D-04    CP:  9.97D-01  9.06D-01
 E= -276.319866878376     Delta-E=       -0.178790991747 Rises=F Damp=F
 DIIS: error= 2.32D-03 at cycle   3 NSaved=   3.
 NSaved= 3 IEnMin= 3 EnMin= -276.319866878376     IErMin= 3 ErrMin= 2.32D-03
 ErrMax= 2.32D-03  0.00D+00 EMaxC= 1.00D-01 BMatC= 2.46D-03 BMatP= 1.84D-02
 IDIUse=3 WtCom= 9.77D-01 WtEn= 2.32D-02
 Coeff-Com: -0.501D-01 0.233D+00 0.817D+00
 Coeff-En:   0.000D+00 0.000D+00 0.100D+01
 Coeff:     -0.489D-01 0.227D+00 0.822D+00
 Gap=     0.416 Goal=   None    Shift=    0.000
 RMSDP=8.91D-05 MaxDP=2.54D-03 DE=-1.79D-01 OVMax= 9.57D-03

 Cycle   4  Pass 0  IDiag  1:
 RMSU=  6.85D-05    CP:  9.96D-01  9.54D-01  9.31D-01
 E= -276.322031896770     Delta-E=       -0.002165018395 Rises=F Damp=F
 DIIS: error= 5.94D-04 at cycle   4 NSaved=   4.
 NSaved= 4 IEnMin= 4 EnMin= -276.322031896770     IErMin= 4 ErrMin= 5.94D-04
 ErrMax= 5.94D-04  0.00D+00 EMaxC= 1.00D-01 BMatC= 2.33D-04 BMatP= 2.46D-03
 IDIUse=3 WtCom= 9.94D-01 WtEn= 5.94D-03
 Coeff-Com: -0.126D-01 0.349D-01 0.270D+00 0.707D+00
 Coeff-En:   0.000D+00 0.000D+00 0.000D+00 0.100D+01
 Coeff:     -0.125D-01 0.347D-01 0.269D+00 0.709D+00
 Gap=     0.417 Goal=   None    Shift=    0.000
 RMSDP=3.00D-05 MaxDP=1.16D-03 DE=-2.17D-03 OVMax= 3.00D-03

 Cycle   5  Pass 0  IDiag  1:
 RMSU=  1.91D-05    CP:  9.96D-01  9.47D-01  9.62D-01  7.74D-01
 E= -276.322240697330     Delta-E=       -0.000208800560 Rises=F Damp=F
 DIIS: error= 2.05D-04 at cycle   5 NSaved=   5.
 NSaved= 5 IEnMin= 5 EnMin= -276.322240697330     IErMin= 5 ErrMin= 2.05D-04
 ErrMax= 2.05D-04  0.00D+00 EMaxC= 1.00D-01 BMatC= 2.03D-05 BMatP= 2.33D-04
 IDIUse=3 WtCom= 9.98D-01 WtEn= 2.05D-03
 Coeff-Com: -0.154D-02 0.620D-03 0.563D-01 0.277D+00 0.668D+00
 Coeff-En:   0.000D+00 0.000D+00 0.000D+00 0.000D+00 0.100D+01
 Coeff:     -0.153D-02 0.619D-03 0.562D-01 0.276D+00 0.668D+00
 Gap=     0.417 Goal=   None    Shift=    0.000
 RMSDP=6.84D-06 MaxDP=3.43D-04 DE=-2.09D-04 OVMax= 8.57D-04

 Initial convergence to 1.0D-05 achieved.  Increase integral accuracy.
 Cycle   6  Pass 1  IDiag  1:
 E= -276.322239166950     Delta-E=        0.000001530380 Rises=F Damp=F
 DIIS: error= 3.15D-05 at cycle   1 NSaved=   1.
 NSaved= 1 IEnMin= 1 EnMin= -276.322239166950     IErMin= 1 ErrMin= 3.15D-05
 ErrMax= 3.15D-05  0.00D+00 EMaxC= 1.00D-01 BMatC= 1.24D-06 BMatP= 1.24D-06
 IDIUse=1 WtCom= 1.00D+00 WtEn= 0.00D+00
 Coeff-Com:  0.100D+01
 Coeff:      0.100D+01
 Gap=     0.417 Goal=   None    Shift=    0.000
 RMSDP=6.84D-06 MaxDP=3.43D-04 DE= 1.53D-06 OVMax= 2.43D-04

 Cycle   7  Pass 1  IDiag  1:
 RMSU=  1.01D-05    CP:  1.00D+00
 E= -276.322239788766     Delta-E=       -0.000000621816 Rises=F Damp=F
 DIIS: error= 2.54D-05 at cycle   2 NSaved=   2.
 NSaved= 2 IEnMin= 2 EnMin= -276.322239788766     IErMin= 2 ErrMin= 2.54D-05
 ErrMax= 2.54D-05  0.00D+00 EMaxC= 1.00D-01 BMatC= 3.53D-07 BMatP= 1.24D-06
 IDIUse=1 WtCom= 1.00D+00 WtEn= 0.00D+00
 Coeff-Com:  0.305D+00 0.695D+00
 Coeff:      0.305D+00 0.695D+00
 Gap=     0.417 Goal=   None    Shift=    0.000
 RMSDP=1.12D-06 MaxDP=4.76D-05 DE=-6.22D-07 OVMax= 1.24D-04

 Cycle   8  Pass 1  IDiag  1:
 RMSU=  1.11D-06    CP:  1.00D+00  1.01D+00
 E= -276.322240078726     Delta-E=       -0.000000289960 Rises=F Damp=F
 DIIS: error= 8.87D-06 at cycle   3 NSaved=   3.
 NSaved= 3 IEnMin= 3 EnMin= -276.322240078726     IErMin= 3 ErrMin= 8.87D-06
 ErrMax= 8.87D-06  0.00D+00 EMaxC= 1.00D-01 BMatC= 5.50D-08 BMatP= 3.53D-07
 IDIUse=1 WtCom= 1.00D+00 WtEn= 0.00D+00
 Coeff-Com: -0.437D-02 0.273D+00 0.731D+00
 Coeff:     -0.437D-02 0.273D+00 0.731D+00
 Gap=     0.417 Goal=   None    Shift=    0.000
 RMSDP=4.27D-07 MaxDP=1.34D-05 DE=-2.90D-07 OVMax= 4.44D-05

 Cycle   9  Pass 1  IDiag  1:
 RMSU=  3.00D-07    CP:  1.00D+00  1.03D+00  7.83D-01
 E= -276.322240131905     Delta-E=       -0.000000053179 Rises=F Damp=F
 DIIS: error= 1.69D-06 at cycle   4 NSaved=   4.
 NSaved= 4 IEnMin= 4 EnMin= -276.322240131905     IErMin= 4 ErrMin= 1.69D-06
 ErrMax= 1.69D-06  0.00D+00 EMaxC= 1.00D-01 BMatC= 1.35D-09 BMatP= 5.50D-08
 IDIUse=1 WtCom= 1.00D+00 WtEn= 0.00D+00
 Coeff-Com: -0.125D-01 0.602D-01 0.227D+00 0.725D+00
 Coeff:     -0.125D-01 0.602D-01 0.227D+00 0.725D+00
 Gap=     0.417 Goal=   None    Shift=    0.000
 RMSDP=7.28D-08 MaxDP=2.66D-06 DE=-5.32D-08 OVMax= 7.48D-06

 Cycle  10  Pass 1  IDiag  1:
 RMSU=  6.96D-08    CP:  1.00D+00  1.03D+00  7.93D-01  9.68D-01
 E= -276.322240133302     Delta-E=       -0.000000001397 Rises=F Damp=F
 DIIS: error= 3.48D-07 at cycle   5 NSaved=   5.
 NSaved= 5 IEnMin= 5 EnMin= -276.322240133302     IErMin= 5 ErrMin= 3.48D-07
 ErrMax= 3.48D-07  0.00D+00 EMaxC= 1.00D-01 BMatC= 5.78D-11 BMatP= 1.35D-09
 IDIUse=1 WtCom= 1.00D+00 WtEn= 0.00D+00
 Coeff-Com: -0.118D-02-0.132D-01-0.272D-01 0.850D-01 0.957D+00
 Coeff:     -0.118D-02-0.132D-01-0.272D-01 0.850D-01 0.957D+00
 Gap=     0.417 Goal=   None    Shift=    0.000
 RMSDP=2.83D-08 MaxDP=7.47D-07 DE=-1.40D-09 OVMax= 2.28D-06

 Cycle  11  Pass 1  IDiag  1:
 RMSU=  1.60D-08    CP:  1.00D+00  1.03D+00  7.94D-01  1.04D+00  1.11D+00
 E= -276.322240133356     Delta-E=       -0.000000000054 Rises=F Damp=F
 DIIS: error= 1.65D-07 at cycle   6 NSaved=   6.
 NSaved= 6 IEnMin= 6 EnMin= -276.322240133356     IErMin= 6 ErrMin= 1.65D-07
 ErrMax= 1.65D-07  0.00D+00 EMaxC= 1.00D-01 BMatC= 1.79D-11 BMatP= 5.78D-11
 IDIUse=1 WtCom= 1.00D+00 WtEn= 0.00D+00
 Coeff-Com:  0.463D-03-0.108D-01-0.308D-01-0.207D-01 0.442D+00 0.620D+00
 Coeff:      0.463D-03-0.108D-01-0.308D-01-0.207D-01 0.442D+00 0.620D+00
 Gap=     0.417 Goal=   None    Shift=    0.000
 RMSDP=6.63D-09 MaxDP=2.33D-07 DE=-5.39D-11 OVMax= 6.56D-07

 SCF Done:  E(RM062X) =  -276.322240133     A.U. after   11 cycles
            NFock= 11  Conv=0.66D-08     -V/T= 2.0067
 KE= 2.744802244220D+02 PE=-1.289523188411D+03 EE= 4.131605607630D+02
 Leave Link  502 at Sun Sep 29 12:33:43 2019, MaxMem=   671088640 cpu:            1787.4 elap:             893.8
 (Enter /shared/centos7/gaussian/g16/l801.exe)
 DoSCS=F DFT=T ScalE2(SS,OS)=  1.000000  1.000000
 Range of M.O.s used for correlation:     1   434
 NBasis=   434 NAE=    29 NBE=    29 NFC=     0 NFV=     0
 NROrb=    434 NOA=    29 NOB=    29 NVA=   405 NVB=   405

 **** Warning!!: The largest alpha MO coefficient is  0.10482600D+02

 Leave Link  801 at Sun Sep 29 12:33:44 2019, MaxMem=   671088640 cpu:               1.4 elap:               0.7
 (Enter /shared/centos7/gaussian/g16/l1101.exe)
 Using compressed storage, NAtomX=    23.
 Will process     24 centers per pass.
 Leave Link 1101 at Sun Sep 29 12:34:20 2019, MaxMem=   671088640 cpu:              72.8 elap:              36.4
 (Enter /shared/centos7/gaussian/g16/l1102.exe)
 Symmetrizing basis deriv contribution to polar:
 IMax=3 JMax=2 DiffMx= 0.00D+00
 Leave Link 1102 at Sun Sep 29 12:34:23 2019, MaxMem=   671088640 cpu:               5.0 elap:               2.5
 (Enter /shared/centos7/gaussian/g16/l1110.exe)
 Forming Gx(P) for the SCF density, NAtomX=    23.
 Integral derivatives from FoFJK, PRISM(SPDF).
 Do as many integral derivatives as possible in FoFJK.
 G2DrvN: MDV=     671086848.
 G2DrvN: will do    24 centers at a time, making    1 passes.
 Calling FoFCou, ICntrl=  3107 FMM=F I1Cent=   0 AccDes= 0.00D+00.
 FoFJK:  IHMeth= 1 ICntrl=    3107 DoSepK=F KAlg= 0 I1Cent=           0 FoldK=F
 IRaf=         0 NMat=       1 IRICut=       1 DoRegI=T DoRafI=F ISym2E= 0 IDoP0=0 IntGTp=1.
 FoFCou: FMM=F IPFlag=           0 FMFlag=      100000 FMFlg1=           0
         NFxFlg=           0 DoJE=F BraDBF=F KetDBF=F FulRan=T
         wScrn=  0.000000 ICntrl=      3107 IOpCl=  0 I1Cent=           0 NGrid=           0
         NMat0=    1 NMatS0=      1 NMatT0=    0 NMatD0=    1 NMtDS0=    0 NMtDT0=    0
 Symmetry not used in FoFCou.
 End of G2Drv F.D. properties file   721 does not exist.
 End of G2Drv F.D. properties file   722 does not exist.
 End of G2Drv F.D. properties file   788 does not exist.
 Leave Link 1110 at Sun Sep 29 13:13:00 2019, MaxMem=   671088640 cpu:            4635.0 elap:            2317.7
 (Enter /shared/centos7/gaussian/g16/l1002.exe)
 Minotr:  Closed shell wavefunction.
          IDoAtm=11111111111111111111111
          Direct CPHF calculation.
          Differentiating once with respect to nuclear coordinates.
          Requested convergence is 1.0D-08 RMS, and 1.0D-07 maximum.
          Secondary convergence is 1.0D-12 RMS, and 1.0D-12 maximum.
          NewPWx=T KeepS1=F KeepF1=F KeepIn=T MapXYZ=F SortEE=F KeepMc=T.
         6925 words used for storage of precomputed grid.
 Two-electron integrals replicated using symmetry.
          MDV=     671088640 using IRadAn=       1.
          Solving linear equations simultaneously, MaxMat=     380.
 FoF2E skips out because all densities are zero.
 CalDSu exits because no D1Ps are significant.
 FoFJK:  IHMeth= 1 ICntrl=       0 DoSepK=F KAlg= 0 I1Cent=           0 FoldK=F
 IRaf= 910000000 NMat=      69 IRICut=     172 DoRegI=T DoRafI=T ISym2E= 2 IDoP0=3 IntGTp=3.
 FoFCou: FMM=F IPFlag=           0 FMFlag=      100000 FMFlg1=           0
         NFxFlg=           0 DoJE=F BraDBF=F KetDBF=F FulRan=T
         wScrn=  0.000000 ICntrl=         0 IOpCl=  0 I1Cent=           0 NGrid=           0
         NMat0=   69 NMatS0=     69 NMatT0=    0 NMatD0=   69 NMtDS0=    0 NMtDT0=    0
 Integrals replicated using symmetry in FoFCou.
 Raff kept on since  87.17% of shell-pairs survive, threshold=   0.20 IRatSp=87.
          There are    72 degrees of freedom in the 1st order CPHF.  IDoFFX=6 NUNeed=     0.
     66 vectors produced by pass  0 Test12= 1.63D-14 1.39D-09 XBig12= 5.57D-02 4.22D-02.
 AX will form    66 AO Fock derivatives at one time.
     66 vectors produced by pass  1 Test12= 1.63D-14 1.39D-09 XBig12= 3.66D-03 6.88D-03.
     66 vectors produced by pass  2 Test12= 1.63D-14 1.39D-09 XBig12= 5.07D-05 8.77D-04.
     66 vectors produced by pass  3 Test12= 1.63D-14 1.39D-09 XBig12= 4.05D-07 7.66D-05.
     66 vectors produced by pass  4 Test12= 1.63D-14 1.39D-09 XBig12= 2.27D-09 4.77D-06.
     66 vectors produced by pass  5 Test12= 1.63D-14 1.39D-09 XBig12= 1.09D-11 4.10D-07.
     22 vectors produced by pass  6 Test12= 1.63D-14 1.39D-09 XBig12= 3.87D-14 1.95D-08.
 InvSVY:  IOpt=1 It=  1 EMax= 3.89D-16
 Solved reduced A of dimension   418 with    72 vectors.
 End of Minotr F.D. properties file   721 does not exist.
 End of Minotr F.D. properties file   722 does not exist.
 End of Minotr F.D. properties file   788 does not exist.
 Leave Link 1002 at Sun Sep 29 14:18:33 2019, MaxMem=   671088640 cpu:            7864.9 elap:            3932.7
 (Enter /shared/centos7/gaussian/g16/l601.exe)
 Copying SCF densities to generalized density rwf, IOpCl= 0 IROHF=0.

 **********************************************************************

            Population analysis using the SCF density.

 **********************************************************************

 Orbital symmetries:
       Occupied  (A) (A) (A) (A) (A) (A) (A) (A) (A) (A) (A) (A)
                 (A) (A) (A) (A) (A) (A) (A) (A) (A) (A) (A) (A)
                 (A) (A) (A) (A) (A)
       Virtual   (A) (A) (A) (A) (A) (A) (A) (A) (A) (A) (A) (A)
                 (A) (A) (A) (A) (A) (A) (A) (A) (A) (A) (A) (A)
                 (A) (A) (A) (A) (A) (A) (A) (A) (A) (A) (A) (A)
                 (A) (A) (A) (A) (A) (A) (A) (A) (A) (A) (A) (A)
                 (A) (A) (A) (A) (A) (A) (A) (A) (A) (A) (A) (A)
                 (A) (A) (A) (A) (A) (A) (A) (A) (A) (A) (A) (A)
                 (A) (A) (A) (A) (A) (A) (A) (A) (A) (A) (A) (A)
                 (A) (A) (A) (A) (A) (A) (A) (A) (A) (A) (A) (A)
                 (A) (A) (A) (A) (A) (A) (A) (A) (A) (A) (A) (A)
                 (A) (A) (A) (A) (A) (A) (A) (A) (A) (A) (A) (A)
                 (A) (A) (A) (A) (A) (A) (A) (A) (A) (A) (A) (A)
                 (A) (A) (A) (A) (A) (A) (A) (A) (A) (A) (A) (A)
                 (A) (A) (A) (A) (A) (A) (A) (A) (A) (A) (A) (A)
                 (A) (A) (A) (A) (A) (A) (A) (A) (A) (A) (A) (A)
                 (A) (A) (A) (A) (A) (A) (A) (A) (A) (A) (A) (A)
                 (A) (A) (A) (A) (A) (A) (A) (A) (A) (A) (A) (A)
                 (A) (A) (A) (A) (A) (A) (A) (A) (A) (A) (A) (A)
                 (A) (A) (A) (A) (A) (A) (A) (A) (A) (A) (A) (A)
                 (A) (A) (A) (A) (A) (A) (A) (A) (A) (A) (A) (A)
                 (A) (A) (A) (A) (A) (A) (A) (A) (A) (A) (A) (A)
                 (A) (A) (A) (A) (A) (A) (A) (A) (A) (A) (A) (A)
                 (A) (A) (A) (A) (A) (A) (A) (A) (A) (A) (A) (A)
                 (A) (A) (A) (A) (A) (A) (A) (A) (A) (A) (A) (A)
                 (A) (A) (A) (A) (A) (A) (A) (A) (A) (A) (A) (A)
                 (A) (A) (A) (A) (A) (A) (A) (A) (A) (A) (A) (A)
                 (A) (A) (A) (A) (A) (A) (A) (A) (A) (A) (A) (A)
                 (A) (A) (A) (A) (A) (A) (A) (A) (A) (A) (A) (A)
                 (A) (A) (A) (A) (A) (A) (A) (A) (A) (A) (A) (A)
                 (A) (A) (A) (A) (A) (A) (A) (A) (A) (A) (A) (A)
                 (A) (A) (A) (A) (A) (A) (A) (A) (A) (A) (A) (A)
                 (A) (A) (A) (A) (A) (A) (A) (A) (A) (A) (A) (A)
                 (A) (A) (A) (A) (A) (A) (A) (A) (A) (A) (A) (A)
                 (A) (A) (A) (A) (A) (A) (A) (A) (A) (A) (A) (A)
                 (A) (A) (A) (A) (A) (A) (A) (A) (A)
 The electronic state is 1-A.
 Alpha  occ. eigenvalues --  -10.52803 -10.52664 -10.52502 -10.52360 -10.52325
 Alpha  occ. eigenvalues --  -10.52290 -10.52256  -0.92271  -0.88266  -0.82468
 Alpha  occ. eigenvalues --   -0.76936  -0.70746  -0.64722  -0.63574  -0.55538
 Alpha  occ. eigenvalues --   -0.52742  -0.51258  -0.49266  -0.48940  -0.45451
 Alpha  occ. eigenvalues --   -0.45198  -0.43526  -0.41410  -0.40315  -0.39912
 Alpha  occ. eigenvalues --   -0.38000  -0.37340  -0.35696  -0.34978
 Alpha virt. eigenvalues --    0.06702   0.07950   0.08686   0.08816   0.11529
 Alpha virt. eigenvalues --    0.12234   0.12512   0.13914   0.14258   0.14600
 Alpha virt. eigenvalues --    0.15591   0.16729   0.17182   0.18083   0.18229
 Alpha virt. eigenvalues --    0.20633   0.22804   0.24058   0.25634   0.26288
 Alpha virt. eigenvalues --    0.28250   0.28611   0.29652   0.30054   0.30712
 Alpha virt. eigenvalues --    0.31556   0.33210   0.33493   0.34241   0.35008
 Alpha virt. eigenvalues --    0.36978   0.39907   0.42299   0.43065   0.44383
 Alpha virt. eigenvalues --    0.46000   0.46413   0.46895   0.47758   0.47866
 Alpha virt. eigenvalues --    0.48516   0.50193   0.50532   0.50967   0.51315
 Alpha virt. eigenvalues --    0.51724   0.52078   0.52787   0.52940   0.53837
 Alpha virt. eigenvalues --    0.54946   0.55550   0.55993   0.56809   0.57952
 Alpha virt. eigenvalues --    0.59749   0.59936   0.61850   0.63646   0.64562
 Alpha virt. eigenvalues --    0.66352   0.69062   0.72658   0.74003   0.75747
 Alpha virt. eigenvalues --    0.76277   0.77662   0.79346   0.81936   0.82925
 Alpha virt. eigenvalues --    0.83669   0.85379   0.87785   0.88583   0.89759
 Alpha virt. eigenvalues --    0.92050   0.94043   0.95393   0.97437   0.98706
 Alpha virt. eigenvalues --    0.99984   1.01664   1.03861   1.04607   1.05495
 Alpha virt. eigenvalues --    1.07271   1.08323   1.08809   1.09259   1.10519
 Alpha virt. eigenvalues --    1.12091   1.13005   1.13717   1.14584   1.16099
 Alpha virt. eigenvalues --    1.16734   1.17397   1.18135   1.19671   1.20039
 Alpha virt. eigenvalues --    1.20644   1.21814   1.22667   1.23089   1.23165
 Alpha virt. eigenvalues --    1.24774   1.25427   1.25806   1.27807   1.28338
 Alpha virt. eigenvalues --    1.29930   1.30241   1.30895   1.32320   1.33336
 Alpha virt. eigenvalues --    1.33982   1.34529   1.36505   1.36700   1.39090
 Alpha virt. eigenvalues --    1.40281   1.41251   1.41905   1.43529   1.44557
 Alpha virt. eigenvalues --    1.46417   1.46912   1.48608   1.48716   1.50635
 Alpha virt. eigenvalues --    1.52220   1.52520   1.53825   1.54621   1.56864
 Alpha virt. eigenvalues --    1.58594   1.59611   1.60725   1.62175   1.63300
 Alpha virt. eigenvalues --    1.66499   1.67883   1.70911   1.71862   1.75013
 Alpha virt. eigenvalues --    1.83050   1.83836   1.89285   1.96322   2.23403
 Alpha virt. eigenvalues --    2.26351   2.31041   2.33470   2.34463   2.36233
 Alpha virt. eigenvalues --    2.37146   2.41044   2.42755   2.43511   2.44100
 Alpha virt. eigenvalues --    2.46538   2.47190   2.49033   2.49312   2.52122
 Alpha virt. eigenvalues --    2.53087   2.56386   2.56743   2.59232   2.59879
 Alpha virt. eigenvalues --    2.61099   2.61667   2.63741   2.64170   2.65002
 Alpha virt. eigenvalues --    2.66706   2.68430   2.69319   2.71055   2.71844
 Alpha virt. eigenvalues --    2.73502   2.74806   2.75307   2.76592   2.79597
 Alpha virt. eigenvalues --    2.80119   2.81796   2.82439   2.83211   2.84525
 Alpha virt. eigenvalues --    2.86699   2.88710   2.89146   2.89997   2.91804
 Alpha virt. eigenvalues --    2.92608   2.94527   2.95141   2.97445   2.98282
 Alpha virt. eigenvalues --    2.99452   3.01051   3.01987   3.02942   3.05796
 Alpha virt. eigenvalues --    3.06662   3.07596   3.07936   3.08491   3.10303
 Alpha virt. eigenvalues --    3.10768   3.11625   3.12640   3.13195   3.14249
 Alpha virt. eigenvalues --    3.15391   3.15734   3.17017   3.17370   3.18555
 Alpha virt. eigenvalues --    3.20053   3.20472   3.21061   3.21710   3.22366
 Alpha virt. eigenvalues --    3.23614   3.24394   3.25335   3.28426   3.29213
 Alpha virt. eigenvalues --    3.31754   3.32888   3.33265   3.35054   3.36627
 Alpha virt. eigenvalues --    3.37772   3.39256   3.39747   3.40343   3.41102
 Alpha virt. eigenvalues --    3.43347   3.43568   3.45591   3.46068   3.48327
 Alpha virt. eigenvalues --    3.48787   3.49516   3.50551   3.51993   3.53667
 Alpha virt. eigenvalues --    3.55263   3.56688   3.57371   3.59593   3.60493
 Alpha virt. eigenvalues --    3.61610   3.63325   3.64305   3.66555   3.67513
 Alpha virt. eigenvalues --    3.69768   3.70304   3.72045   3.74074   3.74683
 Alpha virt. eigenvalues --    3.76259   3.76697   3.77592   3.79045   3.79945
 Alpha virt. eigenvalues --    3.80910   3.82494   3.82822   3.83586   3.84515
 Alpha virt. eigenvalues --    3.86175   3.86969   3.87333   3.87743   3.89988
 Alpha virt. eigenvalues --    3.91606   3.92329   3.93802   3.93967   3.96119
 Alpha virt. eigenvalues --    3.96832   3.98123   3.99233   4.01197   4.01740
 Alpha virt. eigenvalues --    4.02937   4.03534   4.03921   4.05311   4.06070
 Alpha virt. eigenvalues --    4.07030   4.07877   4.08658   4.09369   4.10740
 Alpha virt. eigenvalues --    4.12455   4.13199   4.13765   4.14373   4.17690
 Alpha virt. eigenvalues --    4.18644   4.20083   4.20712   4.23152   4.23369
 Alpha virt. eigenvalues --    4.25010   4.26428   4.27120   4.28865   4.29806
 Alpha virt. eigenvalues --    4.30453   4.31210   4.33217   4.34065   4.38824
 Alpha virt. eigenvalues --    4.39577   4.40459   4.40721   4.41618   4.45394
 Alpha virt. eigenvalues --    4.47930   4.50341   4.52687   4.54145   4.55882
 Alpha virt. eigenvalues --    4.60000   4.61360   4.63601   4.65079   4.66548
 Alpha virt. eigenvalues --    4.67766   4.68978   4.71813   4.74056   4.75318
 Alpha virt. eigenvalues --    4.76724   4.76960   4.78196   4.79341   4.80565
 Alpha virt. eigenvalues --    4.81277   4.83199   4.88068   4.88969   4.89792
 Alpha virt. eigenvalues --    4.93593   4.93741   4.96125   4.96419   4.98303
 Alpha virt. eigenvalues --    5.00527   5.03018   5.04325   5.06233   5.10228
 Alpha virt. eigenvalues --    5.11813   5.13784   5.14578   5.16657   5.18362
 Alpha virt. eigenvalues --    5.20751   5.21974   5.25774   5.26124   5.28082
 Alpha virt. eigenvalues --    5.29199   5.30020   5.34214   5.34791   5.37380
 Alpha virt. eigenvalues --    5.39483   5.40287   5.42910   5.43387   5.46413
 Alpha virt. eigenvalues --    5.47698   5.50867   5.51602   5.53783   5.56357
 Alpha virt. eigenvalues --    5.58563   5.64883   5.68234   5.70281   5.80536
 Alpha virt. eigenvalues --    5.81306   5.83266   5.88134   5.92438   5.93124
 Alpha virt. eigenvalues --    5.98126   6.01281   6.07270  11.91679  12.40144
 Alpha virt. eigenvalues --   12.76671  12.98994  13.24958  13.40048  13.79219
          Condensed to atoms (all electrons):
               1          2          3          4          5          6
     1  C    5.057279   0.319413  -0.049807   0.321884   0.005827  -0.054697
     2  C    0.319413   5.133064   0.286383  -0.051411  -0.049891   0.007111
     3  C   -0.049807   0.286383   5.157290   0.003781   0.330577  -0.015848
     4  C    0.321884  -0.051411   0.003781   5.032933  -0.000727   0.303422
     5  C    0.005827  -0.049891   0.330577  -0.000727   5.018536   0.000740
     6  C   -0.054697   0.007111  -0.015848   0.303422   0.000740   5.014050
     7  C    0.000323  -0.000941  -0.055993  -0.000005   0.309742  -0.000052
     8  H   -0.048019  -0.006744  -0.000141   0.405596   0.000035  -0.045691
     9  H   -0.050088   0.009696  -0.000729   0.420121   0.000043  -0.045058
    10  H    0.422911  -0.051222   0.009296  -0.048481  -0.000509   0.008902
    11  H    0.409596  -0.048653  -0.007183  -0.044502   0.000627  -0.006116
    12  H   -0.041624   0.418457  -0.039142   0.008422  -0.009827  -0.000802
    13  H   -0.035093   0.399183  -0.054482  -0.008725   0.003251   0.000435
    14  H   -0.002466  -0.042515   0.423865   0.002715  -0.047392  -0.016208
    15  H   -0.000541  -0.054579   0.401707  -0.000680  -0.027470   0.000956
    16  H   -0.000375   0.009938  -0.048278   0.000025   0.417526   0.000003
    17  H    0.000258  -0.007628  -0.042820  -0.000155   0.409548   0.000174
    18  H   -0.005442   0.004581  -0.016036  -0.041548   0.002136   0.406175
    19  H   -0.002225  -0.000755   0.000389  -0.052366  -0.000044   0.406396
    20  H    0.009208  -0.001043   0.000684  -0.040313  -0.000040   0.404733
    21  H   -0.000048  -0.003721   0.002585  -0.000001  -0.048940   0.000003
    22  H    0.000596   0.005233  -0.010096  -0.000028  -0.039908  -0.000004
    23  H    0.000008   0.000048   0.008570   0.000001  -0.039371   0.000001
               7          8          9         10         11         12
     1  C    0.000323  -0.048019  -0.050088   0.422911   0.409596  -0.041624
     2  C   -0.000941  -0.006744   0.009696  -0.051222  -0.048653   0.418457
     3  C   -0.055993  -0.000141  -0.000729   0.009296  -0.007183  -0.039142
     4  C   -0.000005   0.405596   0.420121  -0.048481  -0.044502   0.008422
     5  C    0.309742   0.000035   0.000043  -0.000509   0.000627  -0.009827
     6  C   -0.000052  -0.045691  -0.045058   0.008902  -0.006116  -0.000802
     7  C    4.980988   0.000006  -0.000000   0.000053  -0.000086   0.000820
     8  H    0.000006   0.609711  -0.034229  -0.002309   0.008582   0.000398
     9  H   -0.000000  -0.034229   0.603697  -0.012270  -0.003131  -0.000531
    10  H    0.000053  -0.002309  -0.012270   0.591709  -0.028371  -0.012130
    11  H   -0.000086   0.008582  -0.003131  -0.028371   0.577400  -0.002187
    12  H    0.000820   0.000398  -0.000531  -0.012130  -0.002187   0.576139
    13  H   -0.002737   0.004668   0.000353  -0.002048   0.008202  -0.034291
    14  H    0.008985   0.000310  -0.000256  -0.000333   0.000098   0.006915
    15  H   -0.005819   0.000007   0.000020   0.000149   0.002697  -0.006214
    16  H   -0.041302   0.000008  -0.000001   0.000030   0.000003  -0.000415
    17  H   -0.044396  -0.000043   0.000001   0.000010  -0.000026   0.000508
    18  H   -0.000120  -0.006359   0.008932  -0.000458   0.000134  -0.000215
    19  H    0.000003   0.009095  -0.007744   0.000272   0.003913  -0.000012
    20  H    0.000001  -0.005959  -0.008278  -0.000554   0.000092   0.000063
    21  H    0.402887  -0.000001  -0.000000   0.000008  -0.000005   0.000762
    22  H    0.404636   0.000003   0.000001   0.000082   0.000021  -0.008188
    23  H    0.404517  -0.000000   0.000000  -0.000005   0.000000   0.000230
              13         14         15         16         17         18
     1  C   -0.035093  -0.002466  -0.000541  -0.000375   0.000258  -0.005442
     2  C    0.399183  -0.042515  -0.054579   0.009938  -0.007628   0.004581
     3  C   -0.054482   0.423865   0.401707  -0.048278  -0.042820  -0.016036
     4  C   -0.008725   0.002715  -0.000680   0.000025  -0.000155  -0.041548
     5  C    0.003251  -0.047392  -0.027470   0.417526   0.409548   0.002136
     6  C    0.000435  -0.016208   0.000956   0.000003   0.000174   0.406175
     7  C   -0.002737   0.008985  -0.005819  -0.041302  -0.044396  -0.000120
     8  H    0.004668   0.000310   0.000007   0.000008  -0.000043  -0.006359
     9  H    0.000353  -0.000256   0.000020  -0.000001   0.000001   0.008932
    10  H   -0.002048  -0.000333   0.000149   0.000030   0.000010  -0.000458
    11  H    0.008202   0.000098   0.002697   0.000003  -0.000026   0.000134
    12  H   -0.034291   0.006915  -0.006214  -0.000415   0.000508  -0.000215
    13  H    0.577378  -0.003435   0.008114   0.000100   0.003282   0.000510
    14  H   -0.003435   0.563540  -0.031106  -0.007222  -0.007490  -0.010302
    15  H    0.008114  -0.031106   0.571727  -0.006728   0.008180   0.000819
    16  H    0.000100  -0.007222  -0.006728   0.598190  -0.033615   0.000029
    17  H    0.003282  -0.007490   0.008180  -0.033615   0.591630   0.000306
    18  H    0.000510  -0.010302   0.000819   0.000029   0.000306   0.608762
    19  H    0.000100   0.000014  -0.000106   0.000005  -0.000010  -0.038920
    20  H   -0.000105   0.001922  -0.000053  -0.000003  -0.000003  -0.034131
    21  H    0.000384  -0.000013   0.003466  -0.005940   0.008308   0.000004
    22  H    0.000444  -0.000606   0.000330   0.007723  -0.005840   0.000008
    23  H   -0.000160  -0.000347  -0.000158  -0.006688  -0.005635   0.000004
              19         20         21         22         23
     1  C   -0.002225   0.009208  -0.000048   0.000596   0.000008
     2  C   -0.000755  -0.001043  -0.003721   0.005233   0.000048
     3  C    0.000389   0.000684   0.002585  -0.010096   0.008570
     4  C   -0.052366  -0.040313  -0.000001  -0.000028   0.000001
     5  C   -0.000044  -0.000040  -0.048940  -0.039908  -0.039371
     6  C    0.406396   0.404733   0.000003  -0.000004   0.000001
     7  C    0.000003   0.000001   0.402887   0.404636   0.404517
     8  H    0.009095  -0.005959  -0.000001   0.000003  -0.000000
     9  H   -0.007744  -0.008278  -0.000000   0.000001   0.000000
    10  H    0.000272  -0.000554   0.000008   0.000082  -0.000005
    11  H    0.003913   0.000092  -0.000005   0.000021   0.000000
    12  H   -0.000012   0.000063   0.000762  -0.008188   0.000230
    13  H    0.000100  -0.000105   0.000384   0.000444  -0.000160
    14  H    0.000014   0.001922  -0.000013  -0.000606  -0.000347
    15  H   -0.000106  -0.000053   0.003466   0.000330  -0.000158
    16  H    0.000005  -0.000003  -0.005940   0.007723  -0.006688
    17  H   -0.000010  -0.000003   0.008308  -0.005840  -0.005635
    18  H   -0.038920  -0.034131   0.000004   0.000008   0.000004
    19  H    0.598703  -0.025960  -0.000000  -0.000000  -0.000000
    20  H   -0.025960   0.583921   0.000000  -0.000000  -0.000000
    21  H   -0.000000   0.000000   0.585563  -0.039500  -0.028762
    22  H   -0.000000  -0.000000  -0.039500   0.605221  -0.030655
    23  H   -0.000000  -0.000000  -0.028762  -0.030655   0.589354
 Mulliken charges:
               1
     1  C   -0.256876
     2  C   -0.274003
     3  C   -0.284572
     4  C   -0.209960
     5  C   -0.234467
     6  C   -0.368628
     7  C   -0.361509
     8  H    0.111076
     9  H    0.119452
    10  H    0.125267
    11  H    0.128894
    12  H    0.142864
    13  H    0.134671
    14  H    0.161329
    15  H    0.135281
    16  H    0.116986
    17  H    0.125458
    18  H    0.121132
    19  H    0.109252
    20  H    0.115817
    21  H    0.122963
    22  H    0.110528
    23  H    0.109046
 Sum of Mulliken charges =  -0.00000
 Mulliken charges with hydrogens summed into heavy atoms:
               1
     1  C   -0.002715
     2  C    0.003532
     3  C    0.012038
     4  C    0.020569
     5  C    0.007976
     6  C   -0.022429
     7  C   -0.018972
 APT charges:
               1
     1  C   -0.742333
     2  C   -0.598184
     3  C   -0.496139
     4  C   -0.819335
     5  C   -0.717834
     6  C   -1.075956
     7  C   -1.269658
     8  H    0.286307
     9  H    0.532840
    10  H    0.431250
    11  H    0.307746
    12  H    0.382465
    13  H    0.295857
    14  H    0.309798
    15  H    0.330466
    16  H    0.437361
    17  H    0.309021
    18  H    0.084766
    19  H    0.339635
    20  H    0.548836
    21  H    0.339180
    22  H    0.189201
    23  H    0.594711
 Sum of APT charges =  -0.00000
 APT charges with hydrogens summed into heavy atoms:
               1
     1  C   -0.003337
     2  C    0.080138
     3  C    0.144125
     4  C   -0.000189
     5  C    0.028549
     6  C   -0.102719
     7  C   -0.146567
 Electronic spatial extent (au):  <R**2>=           1240.1216
 Charge=             -0.0000 electrons
 Dipole moment (field-independent basis, Debye):
    X=              0.0674    Y=             -0.0217    Z=             -0.0183  Tot=              0.0731
 Quadrupole moment (field-independent basis, Debye-Ang):
   XX=            -49.6914   YY=            -49.4507   ZZ=            -48.6772
   XY=             -0.4970   XZ=             -0.1636   YZ=             -0.1580
 Traceless Quadrupole moment (field-independent basis, Debye-Ang):
   XX=             -0.4183   YY=             -0.1776   ZZ=              0.5959
   XY=             -0.4970   XZ=             -0.1636   YZ=             -0.1580
 Octapole moment (field-independent basis, Debye-Ang**2):
  XXX=              2.7574  YYY=             -1.6171  ZZZ=              0.5769  XYY=             -0.3639
  XXY=              1.2076  XXZ=              0.0452  XZZ=             -0.2661  YZZ=              0.2372
  YYZ=             -0.4283  XYZ=             -0.5110
 Hexadecapole moment (field-independent basis, Debye-Ang**3):
 XXXX=          -1339.6923 YYYY=           -299.8331 ZZZZ=           -125.6456 XXXY=            -10.6926
 XXXZ=              1.6017 YYYX=             -4.2953 YYYZ=              0.5599 ZZZX=             -0.7572
 ZZZY=             -0.4299 XXYY=           -276.5154 XXZZ=           -242.4960 YYZZ=            -73.5803
 XXYZ=             -2.7985 YYXZ=             -2.2429 ZZXY=              0.6613
 N-N= 3.255601630928D+02 E-N=-1.289523137604D+03  KE= 2.744802244220D+02
  Exact polarizability:   0.000   0.000   0.000   0.000   0.000   0.000
 Approx polarizability:  99.581  -0.392  97.539   0.234   0.308 100.504
 No NMR shielding tensors so no spin-rotation constants.
 Leave Link  601 at Sun Sep 29 14:19:02 2019, MaxMem=   671088640 cpu:              58.3 elap:              29.2
 (Enter /shared/centos7/gaussian/g16/l701.exe)
 SCFChk:  SCF convergence  6.63D-09 required  1.00D-08
 ... and contract with generalized density number  0.
 Compute integral second derivatives.
 Entering OneElI...
 Calculate overlap and kinetic energy integrals
    NBasis = 485  MinDer = 2  MaxDer = 2
 Requested accuracy = 0.1000D-12
 PrmmSu-InSpLW:  IPartL=    0 NPrtUS=   20 NPrtUL=    1 DoSpLW=F IThBeg=    0 IThEnd=   19 NThAct=   20.
 PrsmSu:  NPrtUS=  20 ThrOK=T IAlg=1 NPAlg=1 LenDen=           0 ISkipM=0 DoSpLW=F IThBeg=    0 IThEnd=   19.
 Prism:   IPart=     0 DynPar=F LinDyn=F Incr=           6.
 PRISM was handed    33204185 working-precision words and 13572 shell-pairs
 PRISM was handed    33204185 working-precision words and 13572 shell-pairs
 PRISM was handed    33204185 working-precision words and 13572 shell-pairs
 PRISM was handed    33204185 working-precision words and 13572 shell-pairs
 PRISM was handed    33204185 working-precision words and 13572 shell-pairs
 PRISM was handed    33204185 working-precision words and 13572 shell-pairs
 PRISM was handed    33204185 working-precision words and 13572 shell-pairs
 PRISM was handed    33204185 working-precision words and 13572 shell-pairs
 PRISM was handed    33204185 working-precision words and 13572 shell-pairs
 PRISM was handed    33204185 working-precision words and 13572 shell-pairs
 PRISM was handed    33204185 working-precision words and 13572 shell-pairs
 PRISM was handed    33204185 working-precision words and 13572 shell-pairs
 PRISM was handed    33204185 working-precision words and 13572 shell-pairs
 PRISM was handed    33204185 working-precision words and 13572 shell-pairs
 IPart=  4 NShTot=         700 NBatch=          72 AvBLen=         9.7
 PRISM was handed    33204185 working-precision words and 13572 shell-pairs
 IPart= 15 NShTot=         659 NBatch=          52 AvBLen=        12.7
 PRISM was handed    33204185 working-precision words and 13572 shell-pairs
 PRISM was handed    33204185 working-precision words and 13572 shell-pairs
 IPart= 16 NShTot=         656 NBatch=          50 AvBLen=        13.1
 PRISM was handed    33204185 working-precision words and 13572 shell-pairs
 IPart=  0 NShTot=         716 NBatch=          82 AvBLen=         8.7
 PRISM was handed    33204185 working-precision words and 13572 shell-pairs
 IPart=  8 NShTot=         679 NBatch=          60 AvBLen=        11.3
 IPart= 10 NShTot=         672 NBatch=          56 AvBLen=        12.0
 PRISM was handed    33204185 working-precision words and 13572 shell-pairs
 IPart=  9 NShTot=         676 NBatch=          59 AvBLen=        11.5
 IPart=  1 NShTot=         714 NBatch=          81 AvBLen=         8.8
 IPart= 17 NShTot=         654 NBatch=          50 AvBLen=        13.1
 IPart= 13 NShTot=         664 NBatch=          52 AvBLen=        12.8
 IPart=  5 NShTot=         695 NBatch=          71 AvBLen=         9.8
 IPart=  2 NShTot=         710 NBatch=          78 AvBLen=         9.1
 IPart= 19 NShTot=         650 NBatch=          48 AvBLen=        13.5
 IPart= 18 NShTot=         653 NBatch=          49 AvBLen=        13.3
 IPart=  6 NShTot=         690 NBatch=          69 AvBLen=        10.0
 IPart=  3 NShTot=         704 NBatch=          74 AvBLen=         9.5
 IPart= 12 NShTot=         666 NBatch=          53 AvBLen=        12.6
 IPart= 11 NShTot=         669 NBatch=          55 AvBLen=        12.2
 IPart=  7 NShTot=         682 NBatch=          61 AvBLen=        11.2
 IPart= 14 NShTot=         663 NBatch=          52 AvBLen=        12.8
 PrSmSu:  NxtVal=            121.
 Entering OneElI...
 Calculate potential energy integrals
    NBasis = 485  MinDer = 2  MaxDer = 2
 Requested accuracy = 0.1000D-12
 PrmmSu-InSpLW:  IPartL=    0 NPrtUS=   20 NPrtUL=    1 DoSpLW=F IThBeg=    0 IThEnd=   19 NThAct=   20.
 PrsmSu:  NPrtUS=  20 ThrOK=T IAlg=1 NPAlg=1 LenDen=           0 ISkipM=0 DoSpLW=F IThBeg=    0 IThEnd=   19.
 Prism:   IPart=     0 DynPar=F LinDyn=F Incr=         138.
 PRISM was handed    33268129 working-precision words and 12082 shell-pairs
 PRISM was handed    33268129 working-precision words and 12082 shell-pairs
 PRISM was handed    33268129 working-precision words and 12082 shell-pairs
 PRISM was handed    33268129 working-precision words and 12082 shell-pairs
 PRISM was handed    33268129 working-precision words and 12082 shell-pairs
 PRISM was handed    33268129 working-precision words and 12082 shell-pairs
 PRISM was handed    33268129 working-precision words and 12082 shell-pairs
 PRISM was handed    33268129 working-precision words and 12082 shell-pairs
 PRISM was handed    33268129 working-precision words and 12082 shell-pairs
 PRISM was handed    33268129 working-precision words and 12082 shell-pairs
 PRISM was handed    33268129 working-precision words and 12082 shell-pairs
 PRISM was handed    33268129 working-precision words and 12082 shell-pairs
 PRISM was handed    33268129 working-precision words and 12082 shell-pairs
 PRISM was handed    33268129 working-precision words and 12082 shell-pairs
 PRISM was handed    33268129 working-precision words and 12082 shell-pairs
 PRISM was handed    33268129 working-precision words and 12082 shell-pairs
 PRISM was handed    33268129 working-precision words and 12082 shell-pairs
 PRISM was handed    33268129 working-precision words and 12082 shell-pairs
 PRISM was handed    33268129 working-precision words and 12082 shell-pairs
 PRISM was handed    33268129 working-precision words and 12082 shell-pairs
 IPart= 17 NShTot=       13340 NBatch=         581 AvBLen=        23.0
 IPart=  9 NShTot=       13800 NBatch=         601 AvBLen=        23.0
 IPart= 12 NShTot=       13708 NBatch=         597 AvBLen=        23.0
 IPart=  1 NShTot=       14536 NBatch=         634 AvBLen=        22.9
 IPart=  4 NShTot=       14375 NBatch=         627 AvBLen=        22.9
 IPart=  5 NShTot=       14352 NBatch=         626 AvBLen=        22.9
 IPart=  2 NShTot=       14490 NBatch=         632 AvBLen=        22.9
 IPart= 13 NShTot=       13639 NBatch=         594 AvBLen=        23.0
 IPart= 15 NShTot=       13570 NBatch=         591 AvBLen=        23.0
 IPart= 16 NShTot=       13478 NBatch=         587 AvBLen=        23.0
 IPart=  8 NShTot=       13846 NBatch=         603 AvBLen=        23.0
 IPart= 18 NShTot=       13271 NBatch=         578 AvBLen=        23.0
 IPart= 10 NShTot=       13777 NBatch=         600 AvBLen=        23.0
 IPart=  6 NShTot=       14145 NBatch=         616 AvBLen=        23.0
 IPart= 19 NShTot=       13271 NBatch=         578 AvBLen=        23.0
 IPart=  0 NShTot=       14605 NBatch=         637 AvBLen=        22.9
 IPart= 11 NShTot=       13754 NBatch=         599 AvBLen=        23.0
 IPart= 14 NShTot=       13616 NBatch=         593 AvBLen=        23.0
 IPart=  7 NShTot=       13915 NBatch=         606 AvBLen=        23.0
 IPart=  3 NShTot=       14398 NBatch=         628 AvBLen=        22.9
 PrSmSu:  NxtVal=           2761.
 Polarizability after L701:
                1             2             3 
      1  0.000000D+00
      2  0.000000D+00  0.000000D+00
      3  0.000000D+00  0.000000D+00  0.000000D+00
 Dipole Derivatives after L701:
                 1             2             3             4             5 
      1  -0.217620D+00  0.720381D+00 -0.608458D+00 -0.349453D+00 -0.416506D+00
      2   0.244717D+00 -0.119781D+01  0.299007D+00 -0.581218D+00 -0.738172D+00
      3  -0.104966D+00  0.593210D-02 -0.811569D+00  0.911265D-01  0.587955D-01
                 6             7             8             9            10 
      1   0.440206D-01 -0.857878D-01  0.358869D-01  0.439874D+00 -0.154449D+01
      2  -0.166034D+00 -0.365538D+00 -0.581267D+00 -0.383647D-01  0.407496D+00
      3  -0.706927D+00  0.763433D-01 -0.133568D-01 -0.821362D+00 -0.281592D-02
                11            12            13            14            15 
      1   0.917495D+00  0.934219D+00 -0.383998D+00  0.140006D+01 -0.491776D+00
      2  -0.131253D+00 -0.941089D-01  0.344028D+00 -0.915749D+00  0.991911D-01
      3  -0.543706D-01 -0.782267D+00  0.787009D-01  0.149024D-02 -0.853755D+00
                16            17            18            19            20 
      1  -0.112370D+01 -0.146425D+01 -0.473429D+00 -0.201458D+01 -0.108582D+01
      2  -0.881482D-01 -0.115654D+01 -0.478135D-01  0.133173D+00 -0.828929D+00
      3  -0.329175D-01  0.107996D+00 -0.947627D+00 -0.460419D-01 -0.707544D-01
                21            22            23            24            25 
      1   0.171076D+00  0.519647D-01  0.527675D-02 -0.745059D+00  0.118267D+01
      2  -0.510125D-01  0.209135D-01  0.139440D+00  0.121109D+00 -0.247419D+00
      3  -0.965468D+00  0.632799D-01 -0.108035D-04  0.667515D+00 -0.237441D-01
                26            27            28            29            30 
      1  -0.515232D+00  0.232806D+00  0.274246D+00 -0.497652D+00 -0.104552D+00
      2   0.297197D+00 -0.641723D-01 -0.133030D+00  0.914539D+00  0.159899D+00
      3   0.103372D-01  0.118656D+00  0.450279D-03 -0.278693D-01  0.104966D+00
                31            32            33            34            35 
      1   0.168888D+00  0.482671D-01  0.465678D+00  0.369022D+00  0.213688D+00
      2  -0.189694D-01  0.851933D-01 -0.320255D+00  0.365328D+00  0.616560D+00
      3   0.284178D-01  0.679490D-01  0.669157D+00 -0.461244D-01 -0.635564D-01
                36            37            38            39            40 
      1  -0.755490D-01  0.131850D+00 -0.325744D-02  0.300906D-01  0.213699D+00
      2  -0.155669D+00 -0.108037D-02  0.138083D+00  0.251169D+00  0.366519D+00
      3   0.161814D+00 -0.499042D-02 -0.525500D-02  0.617638D+00  0.263769D-01
                41            42            43            44            45 
      1   0.767323D-02 -0.120732D-01  0.152782D+00 -0.889070D-02 -0.292009D+00
      2   0.569439D+00 -0.126994D+00 -0.301310D-01  0.140888D+00  0.133698D+00
      3   0.216911D-01  0.146255D+00 -0.627249D-01 -0.246783D-01  0.697728D+00
                46            47            48            49            50 
      1   0.458249D+00 -0.736428D+00 -0.363681D+00  0.106228D+00 -0.123777D+00
      2  -0.221105D+00  0.675522D+00  0.286277D+00  0.394758D-01  0.191027D+00
      3  -0.366625D-01  0.102216D+00  0.178313D+00 -0.387619D-01 -0.836201D-01
                51            52            53            54            55 
      1   0.661543D+00 -0.284369D+00  0.237636D+00 -0.250689D-01  0.275491D+00
      2  -0.334671D+00 -0.578343D+00  0.407689D+00 -0.715248D-01  0.665940D-01
      3   0.629809D+00  0.757086D-01 -0.308283D-01  0.130977D+00  0.106339D+00
                56            57            58            59            60 
      1   0.780828D-01  0.952052D+00  0.103992D+01  0.537253D+00 -0.672793D+00
      2   0.157499D+00  0.403996D+00  0.449803D+00  0.386329D+00 -0.315732D+00
      3   0.307145D-01  0.585915D+00 -0.168885D+00 -0.825989D-01  0.220260D+00
                61            62            63            64            65 
      1   0.291252D+00  0.260897D+00 -0.107704D+01 -0.179006D+00  0.835059D+00
      2   0.323585D-01  0.156540D+00 -0.149402D+00 -0.177115D+00  0.542919D+00
      3  -0.719264D-01 -0.737667D-01  0.569747D+00 -0.833153D-01  0.191119D+00
                66            67            68            69 
      1   0.340428D+00  0.146674D+01 -0.445843D+00  0.669704D+00
      2   0.203993D+00 -0.283073D-01  0.130860D+00 -0.225842D-01
      3   0.203689D+00  0.177133D+00 -0.675752D-01  0.186536D+00
 Hessian after L701:
                1             2             3             4             5 
      1  0.148690D+02
      2 -0.183900D+00  0.167644D+02
      3  0.111116D-01  0.532780D+00  0.176727D+02
      4 -0.274921D+01 -0.712896D+00  0.109572D+01  0.146205D+02
      5 -0.725226D+00 -0.616268D+01 -0.228210D+00  0.733493D+00  0.169778D+02
      6  0.108356D+01 -0.238433D+00 -0.597384D+01 -0.616200D-01 -0.218164D+00
      7  0.204279D+00 -0.245717D+00 -0.745127D-01 -0.531475D+01 -0.158174D+01
      8 -0.233349D+00  0.969274D-01  0.743442D-01 -0.156000D+01 -0.323057D+01
      9  0.123720D-01  0.296525D-01 -0.120199D+00 -0.600876D+00  0.905705D+00
     10 -0.395182D+01  0.162270D+01 -0.125488D+01  0.421085D+00  0.832145D-01
     11  0.161001D+01 -0.501504D+01 -0.870279D+00  0.118459D+00 -0.555889D-01
     12 -0.123423D+01 -0.874141D+00 -0.551078D+01  0.137570D-01 -0.237324D-01
     13  0.163994D+00 -0.153028D+00  0.457715D-01  0.284060D+00 -0.253086D+00
     14 -0.147117D+00 -0.352049D-01 -0.329441D-01 -0.278143D+00  0.894879D-01
     15  0.464421D-01 -0.328800D-01 -0.121819D+00 -0.864685D-01  0.933789D-01
     16  0.356866D-01  0.192355D+00 -0.932477D-02  0.158412D+00  0.269518D+00
     17  0.210021D+00  0.221602D+00  0.173608D-01  0.237704D+00 -0.723084D-02
     18 -0.582333D-01 -0.496934D-01 -0.111686D+00  0.240231D-01  0.248578D-01
     19  0.111658D+00 -0.171267D-01  0.196610D-02  0.304266D+00 -0.310923D-01
     20 -0.497412D-01 -0.740443D-01  0.197371D-02 -0.166521D+00 -0.200041D+00
     21  0.188600D-01 -0.428614D-02 -0.754687D-01  0.604368D-02 -0.347256D-03
     22  0.490103D-01 -0.650011D-01  0.142051D+00 -0.289956D-02 -0.187330D-02
     23 -0.375179D-01  0.672435D-01  0.868135D-01 -0.159025D-03 -0.121828D-01
     24  0.949923D-01  0.104515D+00  0.340218D-02 -0.222644D-01  0.137984D-02
     25 -0.698507D-01 -0.781030D-01  0.531767D-01  0.193435D+00 -0.995148D-02
     26 -0.705918D-01  0.119576D+00 -0.706600D-02 -0.211101D-01 -0.501946D-01
     27  0.600052D-01 -0.340293D-02  0.104893D+00  0.514665D-02 -0.155332D-03
     28 -0.422464D+01 -0.492261D+00 -0.664450D-01 -0.706947D-01  0.119616D+00
     29 -0.456953D+00 -0.188564D+01  0.334429D+00  0.130587D+00  0.115883D+00
     30 -0.555039D-01  0.300799D+00 -0.422173D+01 -0.249847D-01  0.340251D-01
     31 -0.442702D+01  0.182010D-01  0.236377D+00 -0.268380D-01  0.593243D-02
     32  0.294514D-02 -0.438500D+01  0.118146D+00  0.372349D-01  0.121326D+00
     33  0.166139D+00  0.257819D+00 -0.172202D+01 -0.144818D+00  0.141319D-01
     34 -0.674081D-01  0.111267D-01 -0.224656D-01 -0.370123D+01  0.119007D+01
     35  0.538487D-02  0.141117D+00 -0.257666D-01  0.131061D+01 -0.305044D+01
     36 -0.309826D-01 -0.249084D-01  0.991422D-01 -0.343390D+00 -0.434812D+00
     37 -0.518682D-01  0.340652D-01 -0.117377D+00 -0.455599D+01  0.458745D-01
     38  0.127330D-01  0.630732D-01  0.949471D-02  0.478273D-01 -0.450452D+01
     39 -0.863023D-01  0.266580D-01  0.746524D-01  0.687748D-01  0.524190D-01
     40  0.447794D-02 -0.124470D-01  0.282446D-02  0.147826D+00  0.817367D-01
     41 -0.526741D-01  0.140153D-01  0.676254D-02  0.197240D-01 -0.113099D+00
     42  0.625004D-02 -0.968656D-02 -0.263045D-01 -0.131435D-01 -0.730835D-01
     43  0.424945D-02 -0.255635D-01 -0.260175D-01  0.133835D+00  0.674004D-01
     44 -0.237396D-01 -0.114811D-01  0.160530D-01  0.576390D-01 -0.412579D-02
     45 -0.421783D-01  0.259753D-01  0.840126D-02  0.476121D-01 -0.186407D+00
     46  0.457257D-02 -0.439444D-02 -0.267826D-02  0.575276D-01 -0.118457D+00
     47 -0.140863D-01  0.463516D-03  0.518449D-02 -0.136621D+00  0.821112D-01
     48 -0.353796D-02  0.220930D-02 -0.434234D-02 -0.296449D-01  0.260496D-01
     49  0.987891D-02 -0.123842D-01  0.883266D-02 -0.724210D-02  0.100199D-01
     50 -0.168433D-01 -0.264869D-02 -0.689068D-02 -0.701612D-02 -0.115154D-01
[...]
 I=     1 Stepn= -6.00D-01 RXN=   6.00D-01 EDone=F
 I=     2 Eig=   -5.94D-04 Dot1=  2.03D-04
 I=     2 Stepn=  3.00D-01 RXN=   6.71D-01 EDone=F
 Mixed    2 eigenvectors in step.  Raw Step.Grad=  3.98D-04.
 RFO eigenvector is Hessian eigenvector with negative curvature.
 Taking step of  6.00D-01 in eigenvector direction(s).  Step.Grad=  1.71D-03.
 Linear search not attempted -- first point.
 Iteration  1 RMS(Cart)=  0.15201782 RMS(Int)=  0.01272304
 Iteration  2 RMS(Cart)=  0.01897391 RMS(Int)=  0.00023752
 Iteration  3 RMS(Cart)=  0.00024987 RMS(Int)=  0.00018495
 Iteration  4 RMS(Cart)=  0.00000010 RMS(Int)=  0.00018495
 ITry= 1 IFail=0 DXMaxC= 6.67D-01 DCOld= 1.00D+10 DXMaxT= 3.00D-01 DXLimC= 3.00D+00 Rises=F
 Variable       Old X    -DE/DX   Delta X   Delta X   Delta X     New X
                                 (Linear)    (Quad)   (Total)
    R1        2.81687   0.03223   0.00000  -0.00457  -0.00457   2.81230
    R2        2.81881   0.03239   0.00000   0.00135   0.00135   2.82016
    R3        2.09885  -0.01043   0.00000   0.00004   0.00004   2.09889
    R4        2.09636  -0.00763   0.00000   0.00023   0.00023   2.09659
    R5        2.85028   0.01443   0.00000   0.00740   0.00740   2.85769
    R6        2.08100  -0.00583   0.00000  -0.00049  -0.00049   2.08051
    R7        2.09858  -0.00791   0.00000  -0.00052  -0.00052   2.09805
    R8        2.85449   0.01134   0.00000  -0.00099  -0.00099   2.85350
    R9        2.08481  -0.01554   0.00000  -0.00157  -0.00157   2.08324
   R10        2.09678  -0.00820   0.00000   0.00023   0.00023   2.09701
   R11        2.78348   0.03405   0.00000  -0.00653  -0.00653   2.77695
   R12        2.12889  -0.01765   0.00000   0.00143   0.00143   2.13032
   R13        2.10919  -0.01327   0.00000   0.00022   0.00022   2.10941
   R14        2.84711   0.01042   0.00000   0.00003   0.00003   2.84714
   R15        2.11912  -0.01677   0.00000   0.00023   0.00023   2.11935
   R16        2.08493  -0.00585   0.00000   0.00022   0.00022   2.08514
   R17        2.09059  -0.01736   0.00000   0.00572   0.00572   2.09631
   R18        2.13592  -0.02168   0.00000  -0.00031  -0.00031   2.13561
   R19        2.09878  -0.01232   0.00000   0.00015   0.00015   2.09893
   R20        2.06108   0.00028   0.00000  -0.00002  -0.00002   2.06107
   R21        2.12614  -0.02129   0.00000   0.00001   0.00001   2.12615
   R22        2.13119  -0.02237   0.00000   0.00008   0.00008   2.13127
    A1        2.01891   0.02964   0.00000   0.00030   0.00028   2.01919
    A2        1.88297  -0.00959   0.00000   0.03514   0.03526   1.91823
    A3        1.91633  -0.00826   0.00000  -0.02565  -0.02556   1.89077
    A4        1.88156  -0.01113   0.00000  -0.02864  -0.02864   1.85292
    A5        1.91365  -0.00698   0.00000   0.01924   0.01923   1.93287
    A6        1.84156   0.00416   0.00000  -0.00017   0.00013   1.84169
    A7        2.00903   0.02243   0.00000  -0.03806  -0.03818   1.97085
    A8        1.89603  -0.00725   0.00000   0.01533   0.01450   1.91053
    A9        1.90934  -0.00639   0.00000   0.01009   0.01037   1.91971
   A10        1.89125  -0.00914   0.00000  -0.02051  -0.02064   1.87061
   A11        1.90612  -0.00434   0.00000   0.03540   0.03569   1.94181
   A12        1.84493   0.00319   0.00000   0.00024   0.00030   1.84523
   A13        1.98425   0.00200   0.00000   0.00614   0.00605   1.99030
   A14        1.91331   0.00316   0.00000   0.01234   0.01222   1.92553
   A15        1.90563  -0.00164   0.00000  -0.01496  -0.01492   1.89071
   A16        1.89540  -0.00350   0.00000   0.00738   0.00722   1.90262
   A17        1.90771  -0.00005   0.00000   0.00036   0.00038   1.90809
   A18        1.85296  -0.00010   0.00000  -0.01247  -0.01241   1.84055
   A19        2.02148   0.02360   0.00000   0.03023   0.03001   2.05149
   A20        1.90531  -0.00707   0.00000  -0.00773  -0.00754   1.89778
   A21        1.89096  -0.00790   0.00000  -0.01592  -0.01675   1.87421
   A22        1.90347  -0.00459   0.00000  -0.03786  -0.03753   1.86594
   A23        1.89490  -0.00876   0.00000   0.02861   0.02853   1.92343
   A24        1.83900   0.00298   0.00000   0.00065   0.00084   1.83985
   A25        1.99590   0.00265   0.00000   0.00029   0.00029   1.99619
   A26        1.89622  -0.00078   0.00000  -0.00041  -0.00041   1.89581
   A27        1.90846  -0.00104   0.00000   0.00154   0.00154   1.91000
   A28        1.90175  -0.00099   0.00000  -0.00035  -0.00035   1.90140
   A29        1.90276  -0.00001   0.00000  -0.00034  -0.00034   1.90242
   A30        1.85344  -0.00002   0.00000  -0.00084  -0.00084   1.85260
   A31        1.95101   0.00791   0.00000  -0.02746  -0.02764   1.92337
   A32        1.94301  -0.00042   0.00000   0.02191   0.02198   1.96499
   A33        1.93223   0.00096   0.00000  -0.00833  -0.00861   1.92362
   A34        1.87469  -0.00253   0.00000   0.01986   0.02002   1.89472
   A35        1.88357  -0.00526   0.00000  -0.01063  -0.01117   1.87240
   A36        1.87619  -0.00124   0.00000   0.00569   0.00568   1.88187
   A37        1.94584  -0.00017   0.00000  -0.00021  -0.00021   1.94564
   A38        1.93586   0.00296   0.00000   0.00058   0.00058   1.93644
   A39        1.92693   0.00209   0.00000   0.00003   0.00003   1.92696
   A40        1.88661  -0.00137   0.00000   0.00028   0.00028   1.88689
   A41        1.88671  -0.00113   0.00000  -0.00013  -0.00013   1.88658
   A42        1.87973  -0.00262   0.00000  -0.00058  -0.00058   1.87915
    D1       -1.33408  -0.00763   0.00000  -0.11018  -0.11025  -1.44433
    D2        2.82544  -0.00563   0.00000  -0.06906  -0.06895   2.75649
    D3        0.81942  -0.00205   0.00000  -0.08311  -0.08315   0.73628
    D4        2.84120  -0.00566   0.00000  -0.09979  -0.09994   2.74126
    D5        0.71753  -0.00367   0.00000  -0.05867  -0.05864   0.65889
    D6       -1.28849  -0.00009   0.00000  -0.07272  -0.07283  -1.36132
    D7        0.84259  -0.00110   0.00000  -0.10536  -0.10535   0.73724
    D8       -1.28108   0.00090   0.00000  -0.06424  -0.06406  -1.34513
    D9        2.99609   0.00448   0.00000  -0.07829  -0.07825   2.91784
   D10        1.29639   0.00585   0.00000  -0.19449  -0.19438   1.10201
   D11       -0.85950   0.00029   0.00000  -0.16004  -0.15998  -1.01949
   D12       -2.85365   0.00464   0.00000  -0.14834  -0.14848  -3.00214
   D13       -2.87812   0.00469   0.00000  -0.17043  -0.17032  -3.04845
   D14        1.24917  -0.00087   0.00000  -0.13598  -0.13592   1.11324
   D15       -0.74498   0.00348   0.00000  -0.12428  -0.12442  -0.86940
   D16       -0.88166   0.00003   0.00000  -0.17613  -0.17604  -1.05771
   D17       -3.03756  -0.00553   0.00000  -0.14168  -0.14164   3.10399
   D18        1.25148  -0.00118   0.00000  -0.12998  -0.13014   1.12134
   D19        3.06270   0.00199   0.00000   0.03103   0.03074   3.09344
   D20        0.93778   0.00280   0.00000   0.00816   0.00779   0.94557
   D21       -1.08533   0.00208   0.00000   0.02468   0.02436  -1.06097
   D22       -1.09423   0.00095   0.00000   0.00945   0.00978  -1.08445
   D23        3.06403   0.00177   0.00000  -0.01342  -0.01316   3.05087
   D24        1.04092   0.00104   0.00000   0.00309   0.00340   1.04432
   D25        0.90749  -0.00245   0.00000   0.01734   0.01740   0.92490
   D26       -1.21743  -0.00164   0.00000  -0.00553  -0.00554  -1.22298
   D27        3.04264  -0.00236   0.00000   0.01098   0.01102   3.05367
   D28        0.98899  -0.00048   0.00000  -0.00315  -0.00317   0.98582
   D29        3.11744  -0.00053   0.00000  -0.00370  -0.00372   3.11372
   D30       -1.14999  -0.00155   0.00000  -0.00409  -0.00411  -1.15409
   D31        3.12383   0.00237   0.00000   0.02225   0.02227  -3.13708
   D32       -1.03090   0.00231   0.00000   0.02170   0.02172  -1.00918
   D33        0.98486   0.00130   0.00000   0.02131   0.02133   1.00619
   D34       -1.14502   0.00030   0.00000   0.01167   0.01166  -1.13335
   D35        0.98343   0.00025   0.00000   0.01112   0.01111   0.99455
   D36        2.99919  -0.00077   0.00000   0.01073   0.01073   3.00992
   D37       -1.03380  -0.00381   0.00000  -0.08746  -0.08696  -1.12076
   D38        1.06287  -0.00191   0.00000  -0.06582  -0.06556   0.99732
   D39       -3.13437  -0.00311   0.00000  -0.04982  -0.04965   3.09917
   D40        1.12305   0.00042   0.00000  -0.10619  -0.10596   1.01709
   D41       -3.06345   0.00231   0.00000  -0.08454  -0.08455   3.13518
   D42       -0.97752   0.00112   0.00000  -0.06854  -0.06864  -1.04616
   D43        3.11833  -0.00311   0.00000  -0.11009  -0.11025   3.00808
   D44       -1.06818  -0.00122   0.00000  -0.08845  -0.08885  -1.15702
   D45        1.01776  -0.00241   0.00000  -0.07245  -0.07294   0.94483
   D46        1.04746  -0.00044   0.00000  -0.00359  -0.00359   1.04387
   D47       -1.05597  -0.00061   0.00000  -0.00419  -0.00419  -1.06016
   D48       -3.13822  -0.00058   0.00000  -0.00387  -0.00387   3.14110
   D49       -1.07796  -0.00051   0.00000  -0.00300  -0.00300  -1.08096
   D50        3.10180  -0.00067   0.00000  -0.00361  -0.00361   3.09819
   D51        1.01954  -0.00065   0.00000  -0.00328  -0.00328   1.01626
   D52       -3.09366   0.00006   0.00000  -0.00163  -0.00163  -3.09528
   D53        1.08610  -0.00011   0.00000  -0.00224  -0.00224   1.08387
   D54       -0.99615  -0.00008   0.00000  -0.00191  -0.00191  -0.99806
         Item               Value     Threshold  Converged?
 Maximum Force            0.034050     0.000015     NO 
 RMS     Force            0.009302     0.000010     NO 
 Maximum Displacement     0.667398     0.000060     NO 
 RMS     Displacement     0.157897     0.000040     NO 
 Predicted change in Energy=-3.341915D-03
 Lowest energy point so far.  Saving SCF results.
 GradGradGradGradGradGradGradGradGradGradGradGradGradGradGradGradGradGrad

 Leave Link  103 at Sun Sep 29 14:58:37 2019, MaxMem=   671088640 cpu:             267.7 elap:             133.9
 (Enter /shared/centos7/gaussian/g16/l202.exe)
                          Input orientation:                          
 ---------------------------------------------------------------------
 Center     Atomic      Atomic             Coordinates (Angstroms)
 Number     Number       Type             X           Y           Z
 ---------------------------------------------------------------------
      1          6           0        1.493566   -1.037069    0.494299
      2          6           0        0.111704   -0.490319    0.573537
      3          6           0        0.073850    0.951013    1.029548
      4          6           0        2.243254   -0.721929   -0.757023
      5          6           0       -1.311335    1.551590    1.055877
      6          6           0        2.532132    0.691141   -1.038457
      7          6           0       -2.300388    0.796452    1.905297
      8          1           0        1.661856   -1.119396   -1.637271
      9          1           0        3.190381   -1.312287   -0.736025
     10          1           0        1.466702   -2.144983    0.567953
     11          1           0        2.056390   -0.693768    1.386651
     12          1           0       -0.473674   -1.076317    1.298833
     13          1           0       -0.403358   -0.617616   -0.401730
     14          1           0        0.722471    1.572093    0.390139
     15          1           0        0.518004    1.007580    2.044901
     16          1           0       -1.237689    2.605341    1.432672
     17          1           0       -1.701249    1.620539    0.025960
     18          1           0        1.587612    1.251293   -1.195618
     19          1           0        3.111822    1.189743   -0.206277
     20          1           0        3.128990    0.782586   -1.970695
     21          1           0       -1.975938    0.744627    2.945299
     22          1           0       -2.434494   -0.254977    1.527956
     23          1           0       -3.308562    1.301229    1.877654
 ---------------------------------------------------------------------
                    Distance matrix (angstroms):
                    1          2          3          4          5
     1  C    0.000000
     2  C    1.488206   0.000000
     3  C    2.500911   1.512223   0.000000
     4  C    1.492365   2.523398   3.270609   0.000000
     5  C    3.857978   2.535170   1.510008   4.592450   0.000000
     6  C    2.532720   3.138924   3.222938   1.469497   4.460813
     7  C    4.443738   3.040979   2.535317   5.480704   1.506643
     8  H    2.139787   2.772432   3.730989   1.127315   4.819448
     9  H    2.113912   3.445117   4.237044   1.116249   5.628335
    10  H    1.110684   2.138682   3.426120   2.093723   4.649754
    11  H    1.109468   2.117628   2.600633   2.151988   4.061110
    12  H    2.125758   1.100961   2.117159   3.425468   2.768862
    13  H    2.139423   1.110243   2.176437   2.672390   2.766676
    14  H    2.722712   2.158753   1.102404   2.981828   2.140093
    15  H    2.745301   2.138619   1.109691   3.717320   2.149557
    16  H    4.648381   3.484550   2.149289   5.289844   1.121511
    17  H    4.181993   2.835906   2.146259   4.653958   1.103411
    18  H    2.846273   2.888153   2.707953   2.125050   3.682839
    19  H    2.840467   3.525823   3.288393   2.170766   4.613923
    20  H    3.473032   4.146977   4.285289   2.126286   5.428443
    21  H    4.606441   3.392432   2.813241   5.801685   2.159351
    22  H    4.136396   2.729364   2.827474   5.226901   2.178997
    23  H    5.517403   4.075363   3.504661   6.469726   2.174146
                    6          7          8          9         10
     6  C    0.000000
     7  C    5.659508   0.000000
     8  H    2.096187   5.649746   0.000000
     9  H    2.130370   6.447628   1.784891   0.000000
    10  H    3.429182   4.963013   2.439861   2.316206   0.000000
    11  H    2.832923   4.633710   3.079110   2.484805   1.767491
    12  H    4.197821   2.685506   3.630847   4.197812   2.332658
    13  H    3.276487   3.304646   2.458343   3.675497   2.601972
    14  H    2.468164   3.469150   3.498134   3.959604   3.795016
    15  H    3.696477   2.829735   4.403500   4.500770   3.608332
    16  H    4.897162   2.150531   5.630770   6.297528   5.534171
    17  H    4.462990   2.137754   4.645864   5.754140   4.950639
    18  H    1.109320   4.993906   2.412620   3.058110   3.828772
    19  H    1.130118   5.822838   3.079329   2.558703   3.798191
    20  H    1.110706   6.670956   2.425116   2.432420   4.216467
    21  H    6.016300   1.090669   6.140689   6.668875   5.084623
    22  H    5.670008   1.125110   5.248425   6.154895   4.439939
    23  H    6.556647   1.127820   6.551273   7.476499   6.032813
                   11         12         13         14         15
    11  H    0.000000
    12  H    2.560328   0.000000
    13  H    3.042116   1.762743   0.000000
    14  H    2.811850   3.044760   2.586382   0.000000
    15  H    2.386317   2.425421   3.078339   1.760318   0.000000
    16  H    4.662317   3.762477   3.801129   2.448817   2.451555
    17  H    4.618154   3.224930   2.622361   2.451406   3.062176
    18  H    3.266670   3.986095   2.843772   1.834668   3.421172
    19  H    2.683090   4.500685   3.957428   2.492167   3.439313
    20  H    3.821239   5.208120   4.110924   3.462396   4.795089
    21  H    4.556098   2.878104   3.940979   3.807224   2.664509
    22  H    4.514482   2.138203   2.825015   3.820895   3.252465
    23  H    5.744894   3.744909   4.161462   4.305264   3.841459
                   16         17         18         19         20
    16  H    0.000000
    17  H    1.778639   0.000000
    18  H    4.089459   3.527776   0.000000
    19  H    4.858839   4.837889   1.818186   0.000000
    20  H    5.828655   5.293392   1.787813   1.810868   0.000000
    21  H    2.509045   3.060263   5.486601   6.001321   7.087222
    22  H    3.102070   2.512210   5.085670   5.988021   6.653529
    23  H    2.487414   2.472687   5.781004   6.751039   7.518035
                   21         22         23
    21  H    0.000000
    22  H    1.793974   0.000000
    23  H    1.795984   1.818807   0.000000
 Stoichiometry    C7H16
 Framework group  C1[X(C7H16)]
 Deg. of freedom    63
 Full point group                 C1      NOp   1
 RotChk:  IX=0 Diff= 4.59D-02
 Largest Abelian subgroup         C1      NOp   1
 Largest concise Abelian subgroup C1      NOp   1
                         Standard orientation:                         
 ---------------------------------------------------------------------
 Center     Atomic      Atomic             Coordinates (Angstroms)
 Number     Number       Type             X           Y           Z
 ---------------------------------------------------------------------
      1          6           0        1.260925   -1.098818    0.317145
      2          6           0       -0.089363   -0.777872   -0.219952
      3          6           0       -0.717699    0.425256    0.446752
      4          6           0        2.390113   -0.310664   -0.258095
      5          6           0       -2.060651    0.813336   -0.124212
      6          6           0        2.387170    1.142004   -0.036353
      7          6           0       -3.088271   -0.288206   -0.100236
      8          1           0        2.413045   -0.472062   -1.373560
      9          1           0        3.338290   -0.757345    0.125897
     10          1           0        1.500031   -2.166464    0.125883
     11          1           0        1.231158   -0.994434    1.421290
     12          1           0       -0.763574   -1.631852   -0.051809
     13          1           0       -0.038511   -0.646966   -1.321276
     14          1           0       -0.039233    1.292298    0.390046
     15          1           0       -0.828146    0.206467    1.529039
     16          1           0       -2.454538    1.691277    0.451862
     17          1           0       -1.931154    1.161271   -1.163292
     18          1           0        1.512373    1.604301   -0.537951
     19          1           0        2.358058    1.413619    1.060253
     20          1           0        3.299096    1.599172   -0.475735
     21          1           0       -3.282325   -0.631213    0.916743
     22          1           0       -2.745832   -1.171108   -0.707766
     23          1           0       -4.062085    0.072823   -0.539919
 ---------------------------------------------------------------------
 Rotational constants (GHZ):           5.4558432           1.1696011           1.0358198
 Leave Link  202 at Sun Sep 29 14:58:39 2019, MaxMem=   671088640 cpu:               3.3 elap:               1.7
 (Enter /shared/centos7/gaussian/g16/l301.exe)
 Standard basis: CC-pVTZ (5D, 7F)
 Ernie: Thresh=  0.10000D-02 Tol=  0.10000D-05 Strict=F.
 Ernie:  21 primitive shells out of 310 were deleted.
 There are   485 symmetry adapted cartesian basis functions of A   symmetry.
 There are   434 symmetry adapted basis functions of A   symmetry.
   434 basis functions,   636 primitive gaussians,   485 cartesian basis functions
    29 alpha electrons       29 beta electrons
       nuclear repulsion energy       325.9917002103 Hartrees.
 IExCor= 4336 DFT=T Ex+Corr=M062X ExCW=0 ScaHFX=  0.540000
 ScaDFX=  1.000000  1.000000  1.000000  1.000000 ScalE2=  1.000000  1.000000
 IRadAn=      5 IRanWt=     -1 IRanGd=            0 ICorTp=0 IEmpDi=  4
 NAtoms=   23 NActive=   23 NUniq=   23 SFac= 1.00D+00 NAtFMM=   60 NAOKFM=F Big=F
 Integral buffers will be    131072 words long.
 Raffenetti 2 integral format.
 Two-electron integral symmetry is turned on.
 Leave Link  301 at Sun Sep 29 14:58:40 2019, MaxMem=   671088640 cpu:               1.5 elap:               0.7
 (Enter /shared/centos7/gaussian/g16/l302.exe)
 NPDir=0 NMtPBC=     1 NCelOv=     1 NCel=       1 NClECP=     1 NCelD=      1
         NCelK=      1 NCelE2=     1 NClLst=     1 CellRange=     0.0.
 One-electron integrals computed using PRISM.
 One-electron integral symmetry used in STVInt
