 Entering Gaussian System, Link 0=g16
 Input=verytight/species/CCCCCCC/conformers/CCCCCCC_125.com
 Output=verytight/species/CCCCCCC/conformers/CCCCCCC_125.log
 Initial command:
 /shared/centos7/gaussian/g16/l1.exe "/scratch/harms.n/gauss_scrdir/Gau-17167.inp" -scrdir="/scratch/harms.n/gauss_scrdir/"
 Entering Link 1 = /shared/centos7/gaussian/g16/l1.exe PID=     17168.
  
 Copyright (c) 1988,1990,1992,1993,1995,1998,2003,2009,2016,
            Gaussian, Inc.  All Rights Reserved.
  
 This is part of the Gaussian(R) 16 program.  It is based on
 the Gaussian(R) 09 system (copyright 2009, Gaussian, Inc.),
 the Gaussian(R) 03 system (copyright 2003, Gaussian, Inc.),
 the Gaussian(R) 98 system (copyright 1998, Gaussian, Inc.),
 the Gaussian(R) 94 system (copyright 1995, Gaussian, Inc.),
 the Gaussian 92(TM) system (copyright 1992, Gaussian, Inc.),
 the Gaussian 90(TM) system (copyright 1990, Gaussian, Inc.),
 the Gaussian 88(TM) system (copyright 1988, Gaussian, Inc.),
 the Gaussian 86(TM) system (copyright 1986, Carnegie Mellon
 University), and the Gaussian 82(TM) system (copyright 1983,
 Carnegie Mellon University). Gaussian is a federally registered
 trademark of Gaussian, Inc.
  
 This software contains proprietary and confidential information,
 including trade secrets, belonging to Gaussian, Inc.
  
 This software is provided under written license and may be
 used, copied, transmitted, or stored only in accord with that
 written license.
  
 The following legend is applicable only to US Government
 contracts under FAR:
  
                    RESTRICTED RIGHTS LEGEND
  
 Use, reproduction and disclosure by the US Government is
 subject to restrictions as set forth in subparagraphs (a)
 and (c) of the Commercial Computer Software - Restricted
 Rights clause in FAR 52.227-19.
  
 Gaussian, Inc.
 340 Quinnipiac St., Bldg. 40, Wallingford CT 06492
  
  
 ---------------------------------------------------------------
 Warning -- This program may not be used in any manner that
 competes with the business of Gaussian, Inc. or will provide
 assistance to any competitor of Gaussian, Inc.  The licensee
 of this program is prohibited from giving any competitor of
 Gaussian, Inc. access to this program.  By using this program,
 the user acknowledges that Gaussian, Inc. is engaged in the
 business of creating and licensing software in the field of
 computational chemistry and represents and warrants to the
 licensee that it is not a competitor of Gaussian, Inc. and that
 it will not use this program in any manner prohibited above.
 ---------------------------------------------------------------
  

 Cite this work as:
 Gaussian 16, Revision A.03,
 M. J. Frisch, G. W. Trucks, H. B. Schlegel, G. E. Scuseria, 
 M. A. Robb, J. R. Cheeseman, G. Scalmani, V. Barone, 
 G. A. Petersson, H. Nakatsuji, X. Li, M. Caricato, A. V. Marenich, 
 J. Bloino, B. G. Janesko, R. Gomperts, B. Mennucci, H. P. Hratchian, 
 J. V. Ortiz, A. F. Izmaylov, J. L. Sonnenberg, D. Williams-Young, 
 F. Ding, F. Lipparini, F. Egidi, J. Goings, B. Peng, A. Petrone, 
 T. Henderson, D. Ranasinghe, V. G. Zakrzewski, J. Gao, N. Rega, 
 G. Zheng, W. Liang, M. Hada, M. Ehara, K. Toyota, R. Fukuda, 
 J. Hasegawa, M. Ishida, T. Nakajima, Y. Honda, O. Kitao, H. Nakai, 
 T. Vreven, K. Throssell, J. A. Montgomery, Jr., J. E. Peralta, 
 F. Ogliaro, M. J. Bearpark, J. J. Heyd, E. N. Brothers, K. N. Kudin, 
 V. N. Staroverov, T. A. Keith, R. Kobayashi, J. Normand, 
 K. Raghavachari, A. P. Rendell, J. C. Burant, S. S. Iyengar, 
 J. Tomasi, M. Cossi, J. M. Millam, M. Klene, C. Adamo, R. Cammi, 
 J. W. Ochterski, R. L. Martin, K. Morokuma, O. Farkas, 
 J. B. Foresman, and D. J. Fox, Gaussian, Inc., Wallingford CT, 2016.
 
 ******************************************
 Gaussian 16:  EM64L-G16RevA.03 25-Dec-2016
                29-Sep-2019 
 ******************************************
 %nprocshared=20
 Will use up to   20 processors via shared memory.
 %mem=5GB
 ----------------------------------------------------------------------
 #p m062x/cc-pVTZ opt=(calcfc,maxcycles=900,Tight) freq IOP(7/33=1,2/16
 =3) scf=(maxcycle=900)
 ----------------------------------------------------------------------
 1/6=900,7=10,10=4,18=20,19=15,26=3,38=1/1,3;
 2/9=110,12=2,16=3,17=6,18=5,40=1/2;
 3/5=16,6=1,11=2,25=1,30=1,71=2,74=-55,140=1/1,2,3;
 4//1;
 5/5=2,7=900,38=5/2;
 8/6=4,10=90,11=11/1;
 11/6=1,8=1,9=11,15=111,16=1/1,2,10;
 10/6=1,13=1/2;
 6/7=2,8=2,9=2,10=2,28=1/1;
 7/10=1,18=20,25=1,33=1/1,2,3,16;
 1/6=900,7=10,10=4,18=20,19=15,26=3/3(2);
 2/9=110,16=3/2;
 99//99;
 2/9=110,16=3/2;
 3/5=16,6=1,11=2,25=1,30=1,71=1,74=-55/1,2,3;
 4/5=5,16=3,69=1/1;
 5/5=2,7=900,38=5/2;
 7/33=1/1,2,3,16;
 1/6=900,7=10,18=20,19=15,26=3/3(-5);
 2/9=110,16=3/2;
 6/7=2,8=2,9=2,10=2,19=2,28=1/1;
 99/9=1/99;
 Leave Link    1 at Sun Sep 29 12:45:52 2019, MaxMem=   671088640 cpu:               3.6 elap:               1.8
 (Enter /shared/centos7/gaussian/g16/l101.exe)
 ------------------------------
 Gaussian input prepared by ASE
 ------------------------------
 Symbolic Z-matrix:
 Charge =  0 Multiplicity = 1
 C                     1.66932  -0.71936   0.86316 
 C                     0.19511  -0.69216   1.08208 
 C                    -0.36915   0.60381   1.60845 
 C                     2.15051   0.02127  -0.3389 
 C                    -0.45487   1.72231   0.59687 
 C                     3.60366  -0.07509  -0.5595 
 C                    -1.08903   2.97464   1.14408 
 H                     1.86217   1.10663  -0.24947 
 H                     1.61508  -0.35472  -1.24316 
 H                     1.98637  -1.78019   0.7755 
 H                     2.18392  -0.32971   1.76538 
 H                    -0.05736  -1.48275   1.8059 
 H                    -0.32836  -0.96824   0.14239 
 H                     0.22827   0.93777   2.47371 
 H                    -1.38779   0.40271   1.99971 
 H                     0.57371   1.96878   0.22432 
 H                    -1.02607   1.38144  -0.28336 
 H                     4.17352   0.32395   0.30068 
 H                     3.92643  -1.14732  -0.71337 
 H                     3.90616   0.49791  -1.46153 
 H                    -0.5189    3.37506   1.98324 
 H                    -2.13867   2.77706   1.49775 
 H                    -1.14245   3.77039   0.3467 
 
 ITRead=  0  0  0  0  0  0  0  0  0  0  0  0  0  0  0  0  0  0  0  0
 ITRead=  0  0  0
 MicOpt= -1 -1 -1 -1 -1 -1 -1 -1 -1 -1 -1 -1 -1 -1 -1 -1 -1 -1 -1 -1
 MicOpt= -1 -1 -1
 NAtoms=     23 NQM=       23 NQMF=       0 NMMI=      0 NMMIF=      0
                NMic=       0 NMicF=      0.
                    Isotopes and Nuclear Properties:
 (Nuclear quadrupole moments (NQMom) in fm**2, nuclear magnetic moments (NMagM)
  in nuclear magnetons)

  Atom         1           2           3           4           5           6           7           8           9          10
 IAtWgt=          12          12          12          12          12          12          12           1           1           1
 AtmWgt=  12.0000000  12.0000000  12.0000000  12.0000000  12.0000000  12.0000000  12.0000000   1.0078250   1.0078250   1.0078250
 NucSpn=           0           0           0           0           0           0           0           1           1           1
 AtZEff=  -0.0000000  -0.0000000  -0.0000000  -0.0000000  -0.0000000  -0.0000000  -0.0000000  -0.0000000  -0.0000000  -0.0000000
 NQMom=    0.0000000   0.0000000   0.0000000   0.0000000   0.0000000   0.0000000   0.0000000   0.0000000   0.0000000   0.0000000
 NMagM=    0.0000000   0.0000000   0.0000000   0.0000000   0.0000000   0.0000000   0.0000000   2.7928460   2.7928460   2.7928460
 AtZNuc=   6.0000000   6.0000000   6.0000000   6.0000000   6.0000000   6.0000000   6.0000000   1.0000000   1.0000000   1.0000000

  Atom        11          12          13          14          15          16          17          18          19          20
 IAtWgt=           1           1           1           1           1           1           1           1           1           1
 AtmWgt=   1.0078250   1.0078250   1.0078250   1.0078250   1.0078250   1.0078250   1.0078250   1.0078250   1.0078250   1.0078250
 NucSpn=           1           1           1           1           1           1           1           1           1           1
 AtZEff=  -0.0000000  -0.0000000  -0.0000000  -0.0000000  -0.0000000  -0.0000000  -0.0000000  -0.0000000  -0.0000000  -0.0000000
 NQMom=    0.0000000   0.0000000   0.0000000   0.0000000   0.0000000   0.0000000   0.0000000   0.0000000   0.0000000   0.0000000
 NMagM=    2.7928460   2.7928460   2.7928460   2.7928460   2.7928460   2.7928460   2.7928460   2.7928460   2.7928460   2.7928460
 AtZNuc=   1.0000000   1.0000000   1.0000000   1.0000000   1.0000000   1.0000000   1.0000000   1.0000000   1.0000000   1.0000000

  Atom        21          22          23
 IAtWgt=           1           1           1
 AtmWgt=   1.0078250   1.0078250   1.0078250
 NucSpn=           1           1           1
 AtZEff=  -0.0000000  -0.0000000  -0.0000000
 NQMom=    0.0000000   0.0000000   0.0000000
 NMagM=    2.7928460   2.7928460   2.7928460
 AtZNuc=   1.0000000   1.0000000   1.0000000
 Leave Link  101 at Sun Sep 29 12:45:55 2019, MaxMem=   671088640 cpu:               6.6 elap:               3.3
 (Enter /shared/centos7/gaussian/g16/l103.exe)

 GradGradGradGradGradGradGradGradGradGradGradGradGradGradGradGradGradGrad
 Berny optimization.
 Initialization pass.
                           ----------------------------
                           !    Initial Parameters    !
                           ! (Angstroms and Degrees)  !
 --------------------------                            --------------------------
 ! Name  Definition              Value          Derivative Info.                !
 --------------------------------------------------------------------------------
 ! R1    R(1,2)                  1.4906         calculate D2E/DX2 analytically  !
 ! R2    R(1,4)                  1.4917         calculate D2E/DX2 analytically  !
 ! R3    R(1,10)                 1.1107         calculate D2E/DX2 analytically  !
 ! R4    R(1,11)                 1.1093         calculate D2E/DX2 analytically  !
 ! R5    R(2,3)                  1.5083         calculate D2E/DX2 analytically  !
 ! R6    R(2,12)                 1.1012         calculate D2E/DX2 analytically  !
 ! R7    R(2,13)                 1.1105         calculate D2E/DX2 analytically  !
 ! R8    R(3,5)                  1.5105         calculate D2E/DX2 analytically  !
 ! R9    R(3,14)                 1.1032         calculate D2E/DX2 analytically  !
 ! R10   R(3,15)                 1.1096         calculate D2E/DX2 analytically  !
 ! R11   R(4,6)                  1.473          calculate D2E/DX2 analytically  !
 ! R12   R(4,8)                  1.1266         calculate D2E/DX2 analytically  !
 ! R13   R(4,9)                  1.1161         calculate D2E/DX2 analytically  !
 ! R14   R(5,7)                  1.5066         calculate D2E/DX2 analytically  !
 ! R15   R(5,16)                 1.1214         calculate D2E/DX2 analytically  !
 ! R16   R(5,17)                 1.1033         calculate D2E/DX2 analytically  !
 ! R17   R(6,18)                 1.1063         calculate D2E/DX2 analytically  !
 ! R18   R(6,19)                 1.1303         calculate D2E/DX2 analytically  !
 ! R19   R(6,20)                 1.1106         calculate D2E/DX2 analytically  !
 ! R20   R(7,21)                 1.0907         calculate D2E/DX2 analytically  !
 ! R21   R(7,22)                 1.1251         calculate D2E/DX2 analytically  !
 ! R22   R(7,23)                 1.1278         calculate D2E/DX2 analytically  !
 ! A1    A(2,1,4)              115.3618         calculate D2E/DX2 analytically  !
 ! A2    A(2,1,10)             108.1396         calculate D2E/DX2 analytically  !
 ! A3    A(2,1,11)             109.4463         calculate D2E/DX2 analytically  !
 ! A4    A(4,1,10)             108.5752         calculate D2E/DX2 analytically  !
 ! A5    A(4,1,11)             109.3512         calculate D2E/DX2 analytically  !
 ! A6    A(10,1,11)            105.5008         calculate D2E/DX2 analytically  !
 ! A7    A(1,2,3)              115.907          calculate D2E/DX2 analytically  !
 ! A8    A(1,2,12)             108.0693         calculate D2E/DX2 analytically  !
 ! A9    A(1,2,13)             109.7169         calculate D2E/DX2 analytically  !
 ! A10   A(3,2,12)             107.5601         calculate D2E/DX2 analytically  !
 ! A11   A(3,2,13)             109.4245         calculate D2E/DX2 analytically  !
 ! A12   A(12,2,13)            105.6424         calculate D2E/DX2 analytically  !
 ! A13   A(2,3,5)              115.0715         calculate D2E/DX2 analytically  !
 ! A14   A(2,3,14)             109.3427         calculate D2E/DX2 analytically  !
 ! A15   A(2,3,15)             108.1061         calculate D2E/DX2 analytically  !
 ! A16   A(5,3,14)             109.3788         calculate D2E/DX2 analytically  !
 ! A17   A(5,3,15)             108.5573         calculate D2E/DX2 analytically  !
 ! A18   A(14,3,15)            105.9885         calculate D2E/DX2 analytically  !
 ! A19   A(1,4,6)              113.9829         calculate D2E/DX2 analytically  !
 ! A20   A(1,4,8)              109.379          calculate D2E/DX2 analytically  !
 ! A21   A(1,4,9)              109.3219         calculate D2E/DX2 analytically  !
 ! A22   A(6,4,8)              109.1131         calculate D2E/DX2 analytically  !
 ! A23   A(6,4,9)              109.262          calculate D2E/DX2 analytically  !
 ! A24   A(8,4,9)              105.4308         calculate D2E/DX2 analytically  !
 ! A25   A(3,5,7)              113.3375         calculate D2E/DX2 analytically  !
 ! A26   A(3,5,16)             109.4617         calculate D2E/DX2 analytically  !
 ! A27   A(3,5,17)             109.5659         calculate D2E/DX2 analytically  !
 ! A28   A(7,5,16)             108.9083         calculate D2E/DX2 analytically  !
 ! A29   A(7,5,17)             109.1878         calculate D2E/DX2 analytically  !
 ! A30   A(16,5,17)            106.1243         calculate D2E/DX2 analytically  !
 ! A31   A(4,6,18)             111.6002         calculate D2E/DX2 analytically  !
 ! A32   A(4,6,19)             111.357          calculate D2E/DX2 analytically  !
 ! A33   A(4,6,20)             110.891          calculate D2E/DX2 analytically  !
 ! A34   A(18,6,19)            107.5133         calculate D2E/DX2 analytically  !
 ! A35   A(18,6,20)            107.7646         calculate D2E/DX2 analytically  !
 ! A36   A(19,6,20)            107.5227         calculate D2E/DX2 analytically  !
 ! A37   A(5,7,21)             111.3815         calculate D2E/DX2 analytically  !
 ! A38   A(5,7,22)             111.1543         calculate D2E/DX2 analytically  !
 ! A39   A(5,7,23)             110.465          calculate D2E/DX2 analytically  !
 ! A40   A(21,7,22)            108.0767         calculate D2E/DX2 analytically  !
 ! A41   A(21,7,23)            108.0414         calculate D2E/DX2 analytically  !
 ! A42   A(22,7,23)            107.5765         calculate D2E/DX2 analytically  !
 ! D1    D(4,1,2,3)            -74.8922         calculate D2E/DX2 analytically  !
 ! D2    D(4,1,2,12)           164.3583         calculate D2E/DX2 analytically  !
 ! D3    D(4,1,2,13)            49.6367         calculate D2E/DX2 analytically  !
 ! D4    D(10,1,2,3)           163.3549         calculate D2E/DX2 analytically  !
 ! D5    D(10,1,2,12)           42.6054         calculate D2E/DX2 analytically  !
 ! D6    D(10,1,2,13)          -72.1162         calculate D2E/DX2 analytically  !
 ! D7    D(11,1,2,3)            48.9042         calculate D2E/DX2 analytically  !
 ! D8    D(11,1,2,12)          -71.8454         calculate D2E/DX2 analytically  !
 ! D9    D(11,1,2,13)          173.433          calculate D2E/DX2 analytically  !
 ! D10   D(2,1,4,6)           -177.4298         calculate D2E/DX2 analytically  !
 ! D11   D(2,1,4,8)             60.1329         calculate D2E/DX2 analytically  !
 ! D12   D(2,1,4,9)            -54.8419         calculate D2E/DX2 analytically  !
 ! D13   D(10,1,4,6)           -55.9116         calculate D2E/DX2 analytically  !
 ! D14   D(10,1,4,8)          -178.3489         calculate D2E/DX2 analytically  !
 ! D15   D(10,1,4,9)            66.6763         calculate D2E/DX2 analytically  !
 ! D16   D(11,1,4,6)            58.7239         calculate D2E/DX2 analytically  !
 ! D17   D(11,1,4,8)           -63.7135         calculate D2E/DX2 analytically  !
 ! D18   D(11,1,4,9)          -178.6882         calculate D2E/DX2 analytically  !
 ! D19   D(1,2,3,5)             74.7823         calculate D2E/DX2 analytically  !
 ! D20   D(1,2,3,14)           -48.754          calculate D2E/DX2 analytically  !
 ! D21   D(1,2,3,15)          -163.709          calculate D2E/DX2 analytically  !
 ! D22   D(12,2,3,5)          -164.1946         calculate D2E/DX2 analytically  !
 ! D23   D(12,2,3,14)           72.2691         calculate D2E/DX2 analytically  !
 ! D24   D(12,2,3,15)          -42.6859         calculate D2E/DX2 analytically  !
 ! D25   D(13,2,3,5)           -49.8972         calculate D2E/DX2 analytically  !
 ! D26   D(13,2,3,14)         -173.4335         calculate D2E/DX2 analytically  !
 ! D27   D(13,2,3,15)           71.6115         calculate D2E/DX2 analytically  !
 ! D28   D(2,3,5,7)            177.0116         calculate D2E/DX2 analytically  !
 ! D29   D(2,3,5,16)           -61.2008         calculate D2E/DX2 analytically  !
 ! D30   D(2,3,5,17)            54.7878         calculate D2E/DX2 analytically  !
 ! D31   D(14,3,5,7)           -59.4713         calculate D2E/DX2 analytically  !
 ! D32   D(14,3,5,16)           62.3163         calculate D2E/DX2 analytically  !
 ! D33   D(14,3,5,17)          178.305          calculate D2E/DX2 analytically  !
 ! D34   D(15,3,5,7)            55.748          calculate D2E/DX2 analytically  !
 ! D35   D(15,3,5,16)          177.5356         calculate D2E/DX2 analytically  !
 ! D36   D(15,3,5,17)          -66.4758         calculate D2E/DX2 analytically  !
 ! D37   D(1,4,6,18)           -59.5161         calculate D2E/DX2 analytically  !
 ! D38   D(1,4,6,19)            60.6391         calculate D2E/DX2 analytically  !
 ! D39   D(1,4,6,20)          -179.6726         calculate D2E/DX2 analytically  !
 ! D40   D(8,4,6,18)            63.0669         calculate D2E/DX2 analytically  !
 ! D41   D(8,4,6,19)          -176.7779         calculate D2E/DX2 analytically  !
 ! D42   D(8,4,6,20)           -57.0896         calculate D2E/DX2 analytically  !
 ! D43   D(9,4,6,18)           177.8632         calculate D2E/DX2 analytically  !
 ! D44   D(9,4,6,19)           -61.9816         calculate D2E/DX2 analytically  !
 ! D45   D(9,4,6,20)            57.7068         calculate D2E/DX2 analytically  !
 ! D46   D(3,5,7,21)            60.7709         calculate D2E/DX2 analytically  !
 ! D47   D(3,5,7,22)           -59.8134         calculate D2E/DX2 analytically  !
 ! D48   D(3,5,7,23)          -179.1554         calculate D2E/DX2 analytically  !
 ! D49   D(16,5,7,21)          -61.3256         calculate D2E/DX2 analytically  !
 ! D50   D(16,5,7,22)          178.0901         calculate D2E/DX2 analytically  !
 ! D51   D(16,5,7,23)           58.7481         calculate D2E/DX2 analytically  !
 ! D52   D(17,5,7,21)         -176.7952         calculate D2E/DX2 analytically  !
 ! D53   D(17,5,7,22)           62.6205         calculate D2E/DX2 analytically  !
 ! D54   D(17,5,7,23)          -56.7215         calculate D2E/DX2 analytically  !
 --------------------------------------------------------------------------------
 Trust Radius=3.00D-01 FncErr=1.00D-07 GrdErr=1.00D-06 EigMax=2.50D+02 EigMin=1.00D-04
 Number of steps in this run=    138 maximum allowed number of steps=    138.
 GradGradGradGradGradGradGradGradGradGradGradGradGradGradGradGradGradGrad

 Leave Link  103 at Sun Sep 29 12:45:56 2019, MaxMem=   671088640 cpu:               1.5 elap:               0.7
 (Enter /shared/centos7/gaussian/g16/l202.exe)
                          Input orientation:                          
 ---------------------------------------------------------------------
 Center     Atomic      Atomic             Coordinates (Angstroms)
 Number     Number       Type             X           Y           Z
 ---------------------------------------------------------------------
      1          6           0        1.669317   -0.719355    0.863162
      2          6           0        0.195106   -0.692159    1.082081
      3          6           0       -0.369154    0.603806    1.608453
      4          6           0        2.150513    0.021274   -0.338896
      5          6           0       -0.454872    1.722312    0.596871
      6          6           0        3.603660   -0.075092   -0.559500
      7          6           0       -1.089034    2.974642    1.144077
      8          1           0        1.862165    1.106628   -0.249466
      9          1           0        1.615083   -0.354715   -1.243165
     10          1           0        1.986365   -1.780191    0.775499
     11          1           0        2.183922   -0.329713    1.765384
     12          1           0       -0.057358   -1.482751    1.805898
     13          1           0       -0.328361   -0.968239    0.142390
     14          1           0        0.228269    0.937768    2.473714
     15          1           0       -1.387791    0.402707    1.999711
     16          1           0        0.573711    1.968776    0.224322
     17          1           0       -1.026066    1.381438   -0.283359
     18          1           0        4.173516    0.323948    0.300680
     19          1           0        3.926429   -1.147324   -0.713369
     20          1           0        3.906158    0.497908   -1.461530
     21          1           0       -0.518897    3.375057    1.983237
     22          1           0       -2.138672    2.777061    1.497748
     23          1           0       -1.142445    3.770391    0.346698
 ---------------------------------------------------------------------
                    Distance matrix (angstroms):
                    1          2          3          4          5
     1  C    0.000000
     2  C    1.490625   0.000000
     3  C    2.541964   1.508304   0.000000
     4  C    1.491652   2.520274   3.237319   0.000000
     5  C    3.247281   2.547071   1.510531   3.249188   0.000000
     6  C    2.486106   3.833249   4.576481   1.472952   4.586888
     7  C    4.618769   3.885652   2.520860   4.627770   1.506627
     8  H    2.146939   2.790652   2.946775   1.126559   2.542443
     9  H    2.138344   2.745354   3.603843   1.116134   3.461862
    10  H    1.110665   2.118116   3.453364   2.124641   4.273064
    11  H    1.109344   2.133931   2.722919   2.133612   3.541111
    12  H    2.110197   1.101220   2.118944   3.425920   3.448507
    13  H    2.138264   1.110520   2.149960   2.712119   2.731597
    14  H    2.723335   2.143457   1.103233   3.527855   2.145865
    15  H    3.449156   2.132215   1.109570   4.258424   2.140013
    16  H    2.972292   2.821288   2.160546   2.568323   1.121392
    17  H    3.604571   2.766856   2.148301   3.455978   1.103295
    18  H    2.770538   4.179809   4.735445   2.143177   4.844082
    19  H    2.786245   4.165764   5.187422   2.158640   5.398828
    20  H    3.448098   4.653829   5.264438   2.137703   4.975416
    21  H    4.775675   4.226599   2.800486   4.875030   2.158166
    22  H    5.208494   4.201760   2.804726   5.418923   2.181572
    23  H    5.322647   4.716374   3.495321   5.036814   2.174850
                    6          7          8          9         10
     6  C    0.000000
     7  C    5.850165   0.000000
     8  H    2.127296   3.760454   0.000000
     9  H    2.121326   4.908747   1.784380   0.000000
    10  H    2.702818   5.674713   3.065894   2.498966   0.000000
    11  H    2.735977   4.692230   2.495240   3.061955   1.767141
    12  H    4.580356   4.622847   3.822823   3.655996   2.308029
    13  H    4.092817   4.138637   3.042537   2.464376   2.533387
    14  H    4.649682   2.766239   3.180227   4.172404   3.655426
    15  H    5.629604   2.726942   4.014539   4.484104   4.201032
    16  H    3.737963   2.149985   1.621076   2.938807   4.044025
    17  H    4.861285   2.140055   2.901473   3.303199   4.493531
    18  H    1.106291   5.952472   2.501517   3.064248   3.071886
    19  H    1.130281   6.752450   3.091390   2.500247   2.526083
    20  H    1.110627   6.154295   2.453069   2.454317   3.725538
    21  H    5.946808   1.090678   3.974946   5.373523   5.857607
    22  H    6.733604   1.125104   4.674377   5.604579   6.189194
    23  H    6.175310   1.127778   4.059400   5.210387   6.386101
                   11         12         13         14         15
    11  H    0.000000
    12  H    2.520809   0.000000
    13  H    3.058331   1.762221   0.000000
    14  H    2.435738   2.527148   3.062315   0.000000
    15  H    3.653558   2.315722   2.539986   1.767094   0.000000
    16  H    3.201672   3.848723   3.073517   2.498414   3.074422
    17  H    4.174854   3.675183   2.487778   3.061315   2.510213
    18  H    2.555604   4.840469   4.686331   4.545748   5.815586
    19  H    3.138317   4.725439   4.343689   5.308625   6.164766
    20  H    3.750203   5.505321   4.759548   5.404303   6.325753
    21  H    4.591080   4.882906   4.721149   2.595998   3.096791
    22  H    5.329962   4.751087   4.375099   3.152447   2.540344
    23  H    5.467014   5.558974   4.812390   3.798265   3.759514
                   16         17         18         19         20
    16  H    0.000000
    17  H    1.778198   0.000000
    18  H    3.958520   5.338074   0.000000
    19  H    4.672265   5.577343   1.803881   0.000000
    20  H    4.013820   5.147382   1.790846   1.807469   0.000000
    21  H    2.503039   3.060914   5.844571   6.890903   6.302819
    22  H    3.103539   2.521507   6.877095   7.554819   7.105760
    23  H    2.491181   2.473380   6.335576   7.141509   6.282295
                   21         22         23
    21  H    0.000000
    22  H    1.793591   0.000000
    23  H    1.795373   1.817715   0.000000
 Stoichiometry    C7H16
 Framework group  C1[X(C7H16)]
 Deg. of freedom    63
 Full point group                 C1      NOp   1
 Largest Abelian subgroup         C1      NOp   1
 Largest concise Abelian subgroup C1      NOp   1
                         Standard orientation:                         
 ---------------------------------------------------------------------
 Center     Atomic      Atomic             Coordinates (Angstroms)
 Number     Number       Type             X           Y           Z
 ---------------------------------------------------------------------
      1          6           0       -1.281909    0.860700    0.253903
      2          6           0       -0.024027    1.469816   -0.264433
      3          6           0        1.260007    0.875641    0.258248
      4          6           0       -1.625898   -0.475278   -0.313425
      5          6           0        1.623284   -0.472076   -0.319152
      6          6           0       -2.903703   -1.021903    0.174430
      7          6           0        2.946406   -0.996236    0.175349
      8          1           0       -0.799584   -1.204547   -0.079958
      9          1           0       -1.655860   -0.406984   -1.427065
     10          1           0       -2.117824    1.560769    0.042415
     11          1           0       -1.228700    0.787895    1.359576
     12          1           0       -0.027609    2.538651    0.000640
     13          1           0       -0.021371    1.436607   -1.374454
     14          1           0        1.207004    0.800628    1.357651
     15          1           0        2.083126    1.586898    0.039771
     16          1           0        0.821416   -1.214632   -0.067875
     17          1           0        1.647333   -0.407943   -1.420319
     18          1           0       -2.901949   -1.141888    1.274193
     19          1           0       -3.769313   -0.345918   -0.092591
     20          1           0       -3.105878   -2.017333   -0.274721
     21          1           0        2.942582   -1.127342    1.258112
     22          1           0        3.785329   -0.294439   -0.088372
     23          1           0        3.176337   -1.994405   -0.296533
 ---------------------------------------------------------------------
 Rotational constants (GHZ):           4.1580468           1.2304402           1.0211683
 Leave Link  202 at Sun Sep 29 12:45:58 2019, MaxMem=   671088640 cpu:               4.0 elap:               2.0
 (Enter /shared/centos7/gaussian/g16/l301.exe)
 Standard basis: CC-pVTZ (5D, 7F)
 Ernie: Thresh=  0.10000D-02 Tol=  0.10000D-05 Strict=F.
 Ernie:  21 primitive shells out of 310 were deleted.
 There are   485 symmetry adapted cartesian basis functions of A   symmetry.
 There are   434 symmetry adapted basis functions of A   symmetry.
   434 basis functions,   636 primitive gaussians,   485 cartesian basis functions
    29 alpha electrons       29 beta electrons
       nuclear repulsion energy       323.7528051232 Hartrees.
 IExCor= 4336 DFT=T Ex+Corr=M062X ExCW=0 ScaHFX=  0.540000
 ScaDFX=  1.000000  1.000000  1.000000  1.000000 ScalE2=  1.000000  1.000000
 IRadAn=      5 IRanWt=     -1 IRanGd=            0 ICorTp=0 IEmpDi=  4
 NAtoms=   23 NActive=   23 NUniq=   23 SFac= 1.00D+00 NAtFMM=   60 NAOKFM=F Big=F
 Integral buffers will be    131072 words long.
 Raffenetti 2 integral format.
 Two-electron integral symmetry is turned on.
 Leave Link  301 at Sun Sep 29 12:45:59 2019, MaxMem=   671088640 cpu:               2.8 elap:               1.4
 (Enter /shared/centos7/gaussian/g16/l302.exe)
 NPDir=0 NMtPBC=     1 NCelOv=     1 NCel=       1 NClECP=     1 NCelD=      1
         NCelK=      1 NCelE2=     1 NClLst=     1 CellRange=     0.0.
 One-electron integrals computed using PRISM.
 One-electron integral symmetry used in STVInt
 NBasis=   434 RedAO= T EigKep=  3.34D-04  NBF=   434
 NBsUse=   434 1.00D-06 EigRej= -1.00D+00 NBFU=   434
 Precomputing XC quadrature grid using
 IXCGrd= 4 IRadAn=           5 IRanWt=          -1 IRanGd=           0 AccXCQ= 0.00D+00.
 Generated NRdTot=       0 NPtTot=           0 NUsed=           0 NTot=          32
 NSgBfM=   485   485   485   485   485 MxSgAt=    23 MxSgA2=    23.
 Leave Link  302 at Sun Sep 29 12:47:26 2019, MaxMem=   671088640 cpu:             172.6 elap:              86.3
 (Enter /shared/centos7/gaussian/g16/l303.exe)
 DipDrv:  MaxL=1.
 Leave Link  303 at Sun Sep 29 12:47:34 2019, MaxMem=   671088640 cpu:              16.0 elap:               8.1
 (Enter /shared/centos7/gaussian/g16/l401.exe)
 ExpMin= 1.03D-01 ExpMax= 8.24D+03 ExpMxC= 2.81D+02 IAcc=3 IRadAn=         5 AccDes= 0.00D+00
 Harris functional with IExCor= 1009 and IRadAn=       5 diagonalized for initial guess.
 HarFok:  IExCor= 1009 AccDes= 0.00D+00 IRadAn=         5 IDoV= 1 UseB2=F ITyADJ=14
 ICtDFT=  3500011 ScaDFX=  1.000000  1.000000  1.000000  1.000000
 FoFCou: FMM=F IPFlag=           0 FMFlag=      100000 FMFlg1=           0
         NFxFlg=           0 DoJE=T BraDBF=F KetDBF=T FulRan=T
         wScrn=  0.000000 ICntrl=       500 IOpCl=  0 I1Cent=   200000004 NGrid=           0
         NMat0=    1 NMatS0=      1 NMatT0=    0 NMatD0=    1 NMtDS0=    0 NMtDT0=    0
 Petite list used in FoFCou.
 Harris En= -276.331587797502    
 JPrj=0 DoOrth=F DoCkMO=F.
 Leave Link  401 at Sun Sep 29 12:48:21 2019, MaxMem=   671088640 cpu:              93.7 elap:              46.9
 (Enter /shared/centos7/gaussian/g16/l502.exe)
 Integral symmetry usage will be decided dynamically.
 Closed shell SCF:
 Using DIIS extrapolation, IDIIS=  1040.
 NGot=   671088640 LenX=   670604095 LenY=   670368385
 Requested convergence on RMS density matrix=1.00D-08 within 900 cycles.
 Requested convergence on MAX density matrix=1.00D-06.
 Requested convergence on             energy=1.00D-06.
 No special actions if energy rises.
 Fock matrices will be formed incrementally for  20 cycles.
 Integral accuracy reduced to 1.0D-05 until final iterations.

 Cycle   1  Pass 0  IDiag  1:
 FoFJK:  IHMeth= 1 ICntrl=       0 DoSepK=F KAlg= 0 I1Cent=           0 FoldK=F
 IRaf= 920000000 NMat=       1 IRICut=       1 DoRegI=T DoRafI=F ISym2E= 0 IDoP0=0 IntGTp=1.
 FoFCou: FMM=F IPFlag=           0 FMFlag=      100000 FMFlg1=           0
         NFxFlg=           0 DoJE=F BraDBF=F KetDBF=F FulRan=T
         wScrn=  0.000000 ICntrl=         0 IOpCl=  0 I1Cent=           0 NGrid=           0
         NMat0=    1 NMatS0=      1 NMatT0=    0 NMatD0=    1 NMtDS0=    0 NMtDT0=    0
 Symmetry not used in FoFCou.
 E= -275.965610027692    
 DIIS: error= 3.30D-02 at cycle   1 NSaved=   1.
 NSaved= 1 IEnMin= 1 EnMin= -275.965610027692     IErMin= 1 ErrMin= 3.30D-02
 ErrMax= 3.30D-02  0.00D+00 EMaxC= 1.00D-01 BMatC= 3.72D-01 BMatP= 3.72D-01
 IDIUse=3 WtCom= 6.70D-01 WtEn= 3.30D-01
 Coeff-Com:  0.100D+01
 Coeff-En:   0.100D+01
 Coeff:      0.100D+01
 Gap=     0.371 Goal=   None    Shift=    0.000
 GapD=    0.371 DampG=1.000 DampE=0.500 DampFc=0.5000 IDamp=-1.
 Damping current iteration by 5.00D-01
 RMSDP=1.89D-03 MaxDP=7.00D-02              OVMax= 1.79D-01

 Cycle   2  Pass 0  IDiag  1:
 RMSU=  9.41D-04    CP:  9.90D-01
 E= -276.145431243420     Delta-E=       -0.179821215728 Rises=F Damp=T
 DIIS: error= 5.04D-03 at cycle   2 NSaved=   2.
 NSaved= 2 IEnMin= 2 EnMin= -276.145431243420     IErMin= 2 ErrMin= 5.04D-03
 ErrMax= 5.04D-03  0.00D+00 EMaxC= 1.00D-01 BMatC= 1.79D-02 BMatP= 3.72D-01
 IDIUse=3 WtCom= 9.50D-01 WtEn= 5.04D-02
 Coeff-Com: -0.627D-01 0.106D+01
 Coeff-En:   0.000D+00 0.100D+01
 Coeff:     -0.595D-01 0.106D+01
 Gap=     0.446 Goal=   None    Shift=    0.000
 RMSDP=5.10D-04 MaxDP=1.65D-02 DE=-1.80D-01 OVMax= 9.18D-02

 Cycle   3  Pass 0  IDiag  1:
 RMSU=  5.00D-04    CP:  9.96D-01  9.05D-01
 E= -276.322045816357     Delta-E=       -0.176614572937 Rises=F Damp=F
 DIIS: error= 2.59D-03 at cycle   3 NSaved=   3.
 NSaved= 3 IEnMin= 3 EnMin= -276.322045816357     IErMin= 3 ErrMin= 2.59D-03
 ErrMax= 2.59D-03  0.00D+00 EMaxC= 1.00D-01 BMatC= 2.20D-03 BMatP= 1.79D-02
 IDIUse=3 WtCom= 9.74D-01 WtEn= 2.59D-02
 Coeff-Com: -0.484D-01 0.222D+00 0.826D+00
 Coeff-En:   0.000D+00 0.000D+00 0.100D+01
 Coeff:     -0.471D-01 0.217D+00 0.831D+00
 Gap=     0.414 Goal=   None    Shift=    0.000
 RMSDP=8.99D-05 MaxDP=2.88D-03 DE=-1.77D-01 OVMax= 9.99D-03

 Cycle   4  Pass 0  IDiag  1:
 RMSU=  7.30D-05    CP:  9.96D-01  9.49D-01  9.38D-01
 E= -276.323867932186     Delta-E=       -0.001822115829 Rises=F Damp=F
 DIIS: error= 9.37D-04 at cycle   4 NSaved=   4.
 NSaved= 4 IEnMin= 4 EnMin= -276.323867932186     IErMin= 4 ErrMin= 9.37D-04
 ErrMax= 9.37D-04  0.00D+00 EMaxC= 1.00D-01 BMatC= 3.56D-04 BMatP= 2.20D-03
 IDIUse=3 WtCom= 9.91D-01 WtEn= 9.37D-03
 Coeff-Com: -0.146D-01 0.415D-01 0.326D+00 0.648D+00
 Coeff-En:   0.000D+00 0.000D+00 0.000D+00 0.100D+01
 Coeff:     -0.144D-01 0.411D-01 0.322D+00 0.651D+00
 Gap=     0.415 Goal=   None    Shift=    0.000
 RMSDP=3.18D-05 MaxDP=1.38D-03 DE=-1.82D-03 OVMax= 3.23D-03

 Cycle   5  Pass 0  IDiag  1:
 RMSU=  1.90D-05    CP:  9.96D-01  9.41D-01  9.71D-01  7.50D-01
 E= -276.324193820423     Delta-E=       -0.000325888237 Rises=F Damp=F
 DIIS: error= 2.03D-04 at cycle   5 NSaved=   5.
 NSaved= 5 IEnMin= 5 EnMin= -276.324193820423     IErMin= 5 ErrMin= 2.03D-04
 ErrMax= 2.03D-04  0.00D+00 EMaxC= 1.00D-01 BMatC= 1.56D-05 BMatP= 3.56D-04
 IDIUse=3 WtCom= 9.98D-01 WtEn= 2.03D-03
 Coeff-Com: -0.821D-03-0.922D-03 0.467D-01 0.209D+00 0.746D+00
 Coeff-En:   0.000D+00 0.000D+00 0.000D+00 0.000D+00 0.100D+01
 Coeff:     -0.819D-03-0.920D-03 0.466D-01 0.209D+00 0.746D+00
 Gap=     0.415 Goal=   None    Shift=    0.000
 RMSDP=6.30D-06 MaxDP=3.10D-04 DE=-3.26D-04 OVMax= 7.02D-04

 Initial convergence to 1.0D-05 achieved.  Increase integral accuracy.
 Cycle   6  Pass 1  IDiag  1:
 E= -276.324223531788     Delta-E=       -0.000029711365 Rises=F Damp=F
 DIIS: error= 3.65D-05 at cycle   1 NSaved=   1.
 NSaved= 1 IEnMin= 1 EnMin= -276.324223531788     IErMin= 1 ErrMin= 3.65D-05
 ErrMax= 3.65D-05  0.00D+00 EMaxC= 1.00D-01 BMatC= 1.15D-06 BMatP= 1.15D-06
 IDIUse=1 WtCom= 1.00D+00 WtEn= 0.00D+00
 Coeff-Com:  0.100D+01
 Coeff:      0.100D+01
 Gap=     0.415 Goal=   None    Shift=    0.000
 RMSDP=6.30D-06 MaxDP=3.10D-04 DE=-2.97D-05 OVMax= 2.18D-04

 Cycle   7  Pass 1  IDiag  1:
 RMSU=  9.47D-06    CP:  1.00D+00
 E= -276.324224137095     Delta-E=       -0.000000605307 Rises=F Damp=F
 DIIS: error= 2.10D-05 at cycle   2 NSaved=   2.
 NSaved= 2 IEnMin= 2 EnMin= -276.324224137095     IErMin= 2 ErrMin= 2.10D-05
 ErrMax= 2.10D-05  0.00D+00 EMaxC= 1.00D-01 BMatC= 2.93D-07 BMatP= 1.15D-06
 IDIUse=1 WtCom= 1.00D+00 WtEn= 0.00D+00
 Coeff-Com:  0.288D+00 0.712D+00
 Coeff:      0.288D+00 0.712D+00
 Gap=     0.415 Goal=   None    Shift=    0.000
 RMSDP=1.10D-06 MaxDP=4.98D-05 DE=-6.05D-07 OVMax= 1.16D-04

 Cycle   8  Pass 1  IDiag  1:
 RMSU=  1.09D-06    CP:  1.00D+00  1.00D+00
 E= -276.324224379597     Delta-E=       -0.000000242501 Rises=F Damp=F
 DIIS: error= 9.91D-06 at cycle   3 NSaved=   3.
 NSaved= 3 IEnMin= 3 EnMin= -276.324224379597     IErMin= 3 ErrMin= 9.91D-06
 ErrMax= 9.91D-06  0.00D+00 EMaxC= 1.00D-01 BMatC= 5.31D-08 BMatP= 2.93D-07
 IDIUse=1 WtCom= 1.00D+00 WtEn= 0.00D+00
 Coeff-Com: -0.208D-02 0.290D+00 0.712D+00
 Coeff:     -0.208D-02 0.290D+00 0.712D+00
 Gap=     0.415 Goal=   None    Shift=    0.000
 RMSDP=3.79D-07 MaxDP=1.73D-05 DE=-2.43D-07 OVMax= 4.23D-05

 Cycle   9  Pass 1  IDiag  1:
 RMSU=  2.55D-07    CP:  1.00D+00  1.02D+00  7.91D-01
 E= -276.324224430542     Delta-E=       -0.000000050946 Rises=F Damp=F
 DIIS: error= 2.62D-06 at cycle   4 NSaved=   4.
 NSaved= 4 IEnMin= 4 EnMin= -276.324224430542     IErMin= 4 ErrMin= 2.62D-06
 ErrMax= 2.62D-06  0.00D+00 EMaxC= 1.00D-01 BMatC= 1.45D-09 BMatP= 5.31D-08
 IDIUse=1 WtCom= 1.00D+00 WtEn= 0.00D+00
 Coeff-Com: -0.115D-01 0.733D-01 0.240D+00 0.698D+00
 Coeff:     -0.115D-01 0.733D-01 0.240D+00 0.698D+00
 Gap=     0.415 Goal=   None    Shift=    0.000
 RMSDP=7.82D-08 MaxDP=3.00D-06 DE=-5.09D-08 OVMax= 7.94D-06

 Cycle  10  Pass 1  IDiag  1:
 RMSU=  7.45D-08    CP:  1.00D+00  1.02D+00  7.89D-01  9.37D-01
 E= -276.324224432027     Delta-E=       -0.000000001484 Rises=F Damp=F
 DIIS: error= 4.09D-07 at cycle   5 NSaved=   5.
 NSaved= 5 IEnMin= 5 EnMin= -276.324224432027     IErMin= 5 ErrMin= 4.09D-07
 ErrMax= 4.09D-07  0.00D+00 EMaxC= 1.00D-01 BMatC= 4.26D-11 BMatP= 1.45D-09
 IDIUse=1 WtCom= 1.00D+00 WtEn= 0.00D+00
 Coeff-Com: -0.674D-03-0.177D-01-0.398D-01 0.418D-01 0.102D+01
 Coeff:     -0.674D-03-0.177D-01-0.398D-01 0.418D-01 0.102D+01
 Gap=     0.415 Goal=   None    Shift=    0.000
 RMSDP=2.78D-08 MaxDP=8.23D-07 DE=-1.48D-09 OVMax= 2.13D-06

 Cycle  11  Pass 1  IDiag  1:
 RMSU=  1.34D-08    CP:  1.00D+00  1.02D+00  7.94D-01  1.02D+00  1.09D+00
 E= -276.324224432080     Delta-E=       -0.000000000053 Rises=F Damp=F
 DIIS: error= 1.23D-07 at cycle   6 NSaved=   6.
 NSaved= 6 IEnMin= 6 EnMin= -276.324224432080     IErMin= 6 ErrMin= 1.23D-07
 ErrMax= 1.23D-07  0.00D+00 EMaxC= 1.00D-01 BMatC= 6.21D-12 BMatP= 4.26D-11
 IDIUse=1 WtCom= 1.00D+00 WtEn= 0.00D+00
 Coeff-Com:  0.362D-03-0.100D-01-0.264D-01-0.206D-01 0.368D+00 0.689D+00
 Coeff:      0.362D-03-0.100D-01-0.264D-01-0.206D-01 0.368D+00 0.689D+00
 Gap=     0.415 Goal=   None    Shift=    0.000
 RMSDP=4.59D-09 MaxDP=1.27D-07 DE=-5.33D-11 OVMax= 4.63D-07

 SCF Done:  E(RM062X) =  -276.324224432     A.U. after   11 cycles
            NFock= 11  Conv=0.46D-08     -V/T= 2.0068
 KE= 2.744707566121D+02 PE=-1.285898987153D+03 EE= 4.113512009853D+02
 Leave Link  502 at Sun Sep 29 13:07:51 2019, MaxMem=   671088640 cpu:            2339.3 elap:            1170.5
 (Enter /shared/centos7/gaussian/g16/l801.exe)
 DoSCS=F DFT=T ScalE2(SS,OS)=  1.000000  1.000000
 Range of M.O.s used for correlation:     1   434
 NBasis=   434 NAE=    29 NBE=    29 NFC=     0 NFV=     0
 NROrb=    434 NOA=    29 NOB=    29 NVA=   405 NVB=   405

 **** Warning!!: The largest alpha MO coefficient is  0.14383866D+02

 Leave Link  801 at Sun Sep 29 13:07:52 2019, MaxMem=   671088640 cpu:               1.4 elap:               1.3
 (Enter /shared/centos7/gaussian/g16/l1101.exe)
 Using compressed storage, NAtomX=    23.
 Will process     24 centers per pass.
 Leave Link 1101 at Sun Sep 29 13:08:48 2019, MaxMem=   671088640 cpu:             110.2 elap:              55.2
 (Enter /shared/centos7/gaussian/g16/l1102.exe)
 Symmetrizing basis deriv contribution to polar:
 IMax=3 JMax=2 DiffMx= 0.00D+00
 Leave Link 1102 at Sun Sep 29 13:08:52 2019, MaxMem=   671088640 cpu:               8.5 elap:               4.3
 (Enter /shared/centos7/gaussian/g16/l1110.exe)
 Forming Gx(P) for the SCF density, NAtomX=    23.
 Integral derivatives from FoFJK, PRISM(SPDF).
 Do as many integral derivatives as possible in FoFJK.
 G2DrvN: MDV=     671086848.
 G2DrvN: will do    24 centers at a time, making    1 passes.
 Calling FoFCou, ICntrl=  3107 FMM=F I1Cent=   0 AccDes= 0.00D+00.
 FoFJK:  IHMeth= 1 ICntrl=    3107 DoSepK=F KAlg= 0 I1Cent=           0 FoldK=F
 IRaf=         0 NMat=       1 IRICut=       1 DoRegI=T DoRafI=F ISym2E= 0 IDoP0=0 IntGTp=1.
 FoFCou: FMM=F IPFlag=           0 FMFlag=      100000 FMFlg1=           0
         NFxFlg=           0 DoJE=F BraDBF=F KetDBF=F FulRan=T
         wScrn=  0.000000 ICntrl=      3107 IOpCl=  0 I1Cent=           0 NGrid=           0
         NMat0=    1 NMatS0=      1 NMatT0=    0 NMatD0=    1 NMtDS0=    0 NMtDT0=    0
 Symmetry not used in FoFCou.
 End of G2Drv F.D. properties file   721 does not exist.
 End of G2Drv F.D. properties file   722 does not exist.
 End of G2Drv F.D. properties file   788 does not exist.
 Leave Link 1110 at Sun Sep 29 13:52:59 2019, MaxMem=   671088640 cpu:            5293.0 elap:            2646.9
 (Enter /shared/centos7/gaussian/g16/l1002.exe)
 Minotr:  Closed shell wavefunction.
          IDoAtm=11111111111111111111111
          Direct CPHF calculation.
          Differentiating once with respect to nuclear coordinates.
          Requested convergence is 1.0D-08 RMS, and 1.0D-07 maximum.
          Secondary convergence is 1.0D-12 RMS, and 1.0D-12 maximum.
          NewPWx=T KeepS1=F KeepF1=F KeepIn=T MapXYZ=F SortEE=F KeepMc=T.
         6932 words used for storage of precomputed grid.
 Two-electron integrals replicated using symmetry.
          MDV=     671088640 using IRadAn=       1.
          Solving linear equations simultaneously, MaxMat=     380.
 FoF2E skips out because all densities are zero.
 CalDSu exits because no D1Ps are significant.
 FoFJK:  IHMeth= 1 ICntrl=       0 DoSepK=F KAlg= 0 I1Cent=           0 FoldK=F
 IRaf= 910000000 NMat=      69 IRICut=     172 DoRegI=T DoRafI=T ISym2E= 2 IDoP0=3 IntGTp=3.
 FoFCou: FMM=F IPFlag=           0 FMFlag=      100000 FMFlg1=           0
         NFxFlg=           0 DoJE=F BraDBF=F KetDBF=F FulRan=T
         wScrn=  0.000000 ICntrl=         0 IOpCl=  0 I1Cent=           0 NGrid=           0
         NMat0=   69 NMatS0=     69 NMatT0=    0 NMatD0=   69 NMtDS0=    0 NMtDT0=    0
 Integrals replicated using symmetry in FoFCou.
 Raff kept on since  86.92% of shell-pairs survive, threshold=   0.20 IRatSp=87.
          There are    72 degrees of freedom in the 1st order CPHF.  IDoFFX=6 NUNeed=     0.
     66 vectors produced by pass  0 Test12= 1.63D-14 1.39D-09 XBig12= 5.47D-02 4.47D-02.
 AX will form    66 AO Fock derivatives at one time.
     66 vectors produced by pass  1 Test12= 1.63D-14 1.39D-09 XBig12= 3.29D-03 7.28D-03.
     66 vectors produced by pass  2 Test12= 1.63D-14 1.39D-09 XBig12= 5.12D-05 1.17D-03.
     66 vectors produced by pass  3 Test12= 1.63D-14 1.39D-09 XBig12= 3.95D-07 8.24D-05.
     66 vectors produced by pass  4 Test12= 1.63D-14 1.39D-09 XBig12= 1.95D-09 4.90D-06.
     66 vectors produced by pass  5 Test12= 1.63D-14 1.39D-09 XBig12= 9.58D-12 3.96D-07.
     23 vectors produced by pass  6 Test12= 1.63D-14 1.39D-09 XBig12= 3.49D-14 3.04D-08.
 InvSVY:  IOpt=1 It=  1 EMax= 3.89D-16
 Solved reduced A of dimension   419 with    72 vectors.
 End of Minotr F.D. properties file   721 does not exist.
 End of Minotr F.D. properties file   722 does not exist.
 End of Minotr F.D. properties file   788 does not exist.
 Leave Link 1002 at Sun Sep 29 15:11:02 2019, MaxMem=   671088640 cpu:            9217.5 elap:            4683.3
 (Enter /shared/centos7/gaussian/g16/l601.exe)
 Copying SCF densities to generalized density rwf, IOpCl= 0 IROHF=0.

 **********************************************************************

            Population analysis using the SCF density.

 **********************************************************************

 Orbital symmetries:
       Occupied  (A) (A) (A) (A) (A) (A) (A) (A) (A) (A) (A) (A)
                 (A) (A) (A) (A) (A) (A) (A) (A) (A) (A) (A) (A)
                 (A) (A) (A) (A) (A)
       Virtual   (A) (A) (A) (A) (A) (A) (A) (A) (A) (A) (A) (A)
                 (A) (A) (A) (A) (A) (A) (A) (A) (A) (A) (A) (A)
                 (A) (A) (A) (A) (A) (A) (A) (A) (A) (A) (A) (A)
                 (A) (A) (A) (A) (A) (A) (A) (A) (A) (A) (A) (A)
                 (A) (A) (A) (A) (A) (A) (A) (A) (A) (A) (A) (A)
                 (A) (A) (A) (A) (A) (A) (A) (A) (A) (A) (A) (A)
                 (A) (A) (A) (A) (A) (A) (A) (A) (A) (A) (A) (A)
                 (A) (A) (A) (A) (A) (A) (A) (A) (A) (A) (A) (A)
                 (A) (A) (A) (A) (A) (A) (A) (A) (A) (A) (A) (A)
                 (A) (A) (A) (A) (A) (A) (A) (A) (A) (A) (A) (A)
                 (A) (A) (A) (A) (A) (A) (A) (A) (A) (A) (A) (A)
                 (A) (A) (A) (A) (A) (A) (A) (A) (A) (A) (A) (A)
                 (A) (A) (A) (A) (A) (A) (A) (A) (A) (A) (A) (A)
                 (A) (A) (A) (A) (A) (A) (A) (A) (A) (A) (A) (A)
                 (A) (A) (A) (A) (A) (A) (A) (A) (A) (A) (A) (A)
                 (A) (A) (A) (A) (A) (A) (A) (A) (A) (A) (A) (A)
                 (A) (A) (A) (A) (A) (A) (A) (A) (A) (A) (A) (A)
                 (A) (A) (A) (A) (A) (A) (A) (A) (A) (A) (A) (A)
                 (A) (A) (A) (A) (A) (A) (A) (A) (A) (A) (A) (A)
                 (A) (A) (A) (A) (A) (A) (A) (A) (A) (A) (A) (A)
                 (A) (A) (A) (A) (A) (A) (A) (A) (A) (A) (A) (A)
                 (A) (A) (A) (A) (A) (A) (A) (A) (A) (A) (A) (A)
                 (A) (A) (A) (A) (A) (A) (A) (A) (A) (A) (A) (A)
                 (A) (A) (A) (A) (A) (A) (A) (A) (A) (A) (A) (A)
                 (A) (A) (A) (A) (A) (A) (A) (A) (A) (A) (A) (A)
                 (A) (A) (A) (A) (A) (A) (A) (A) (A) (A) (A) (A)
                 (A) (A) (A) (A) (A) (A) (A) (A) (A) (A) (A) (A)
                 (A) (A) (A) (A) (A) (A) (A) (A) (A) (A) (A) (A)
                 (A) (A) (A) (A) (A) (A) (A) (A) (A) (A) (A) (A)
                 (A) (A) (A) (A) (A) (A) (A) (A) (A) (A) (A) (A)
                 (A) (A) (A) (A) (A) (A) (A) (A) (A) (A) (A) (A)
                 (A) (A) (A) (A) (A) (A) (A) (A) (A) (A) (A) (A)
                 (A) (A) (A) (A) (A) (A) (A) (A) (A) (A) (A) (A)
                 (A) (A) (A) (A) (A) (A) (A) (A) (A)
 The electronic state is 1-A.
 Alpha  occ. eigenvalues --  -10.52681 -10.52553 -10.52545 -10.52470 -10.52394
 Alpha  occ. eigenvalues --  -10.52355 -10.52346  -0.92214  -0.88084  -0.83247
 Alpha  occ. eigenvalues --   -0.76263  -0.70199  -0.65125  -0.64157  -0.55628
 Alpha  occ. eigenvalues --   -0.52477  -0.51134  -0.49185  -0.48805  -0.45412
 Alpha  occ. eigenvalues --   -0.45222  -0.43041  -0.42319  -0.40485  -0.38682
 Alpha  occ. eigenvalues --   -0.38287  -0.37752  -0.36171  -0.34866
 Alpha virt. eigenvalues --    0.06654   0.08142   0.08402   0.08684   0.11270
 Alpha virt. eigenvalues --    0.12310   0.13268   0.13363   0.14856   0.15501
 Alpha virt. eigenvalues --    0.16060   0.16171   0.16503   0.18067   0.19576
 Alpha virt. eigenvalues --    0.19785   0.21238   0.23181   0.23459   0.26127
 Alpha virt. eigenvalues --    0.27268   0.29125   0.30104   0.30314   0.30760
 Alpha virt. eigenvalues --    0.32141   0.33617   0.34854   0.35111   0.35408
 Alpha virt. eigenvalues --    0.38278   0.39710   0.41275   0.44206   0.44521
 Alpha virt. eigenvalues --    0.45214   0.46253   0.46428   0.47678   0.47892
 Alpha virt. eigenvalues --    0.49023   0.50176   0.50652   0.50886   0.51086
 Alpha virt. eigenvalues --    0.51678   0.52452   0.52785   0.53208   0.53306
 Alpha virt. eigenvalues --    0.55421   0.56158   0.56298   0.56696   0.57480
 Alpha virt. eigenvalues --    0.59112   0.59385   0.61806   0.64114   0.65535
 Alpha virt. eigenvalues --    0.67116   0.71196   0.72970   0.74727   0.75648
 Alpha virt. eigenvalues --    0.76289   0.77725   0.78642   0.80836   0.82554
 Alpha virt. eigenvalues --    0.83634   0.86306   0.86495   0.89185   0.90506
 Alpha virt. eigenvalues --    0.91924   0.92950   0.93092   0.96115   0.96744
 Alpha virt. eigenvalues --    0.97575   1.00631   1.02392   1.02975   1.03597
 Alpha virt. eigenvalues --    1.06851   1.07967   1.08792   1.10681   1.10843
 Alpha virt. eigenvalues --    1.12198   1.13318   1.13795   1.13865   1.14031
 Alpha virt. eigenvalues --    1.16619   1.16795   1.17732   1.18170   1.18753
 Alpha virt. eigenvalues --    1.20433   1.20807   1.22485   1.22577   1.23428
 Alpha virt. eigenvalues --    1.25837   1.26068   1.27045   1.27347   1.28379
 Alpha virt. eigenvalues --    1.29490   1.30519   1.32466   1.33127   1.33691
 Alpha virt. eigenvalues --    1.33732   1.34960   1.35757   1.37213   1.37439
 Alpha virt. eigenvalues --    1.40182   1.41415   1.41969   1.42548   1.43885
 Alpha virt. eigenvalues --    1.44493   1.45821   1.46249   1.49225   1.50240
 Alpha virt. eigenvalues --    1.51439   1.53035   1.54720   1.56176   1.57047
 Alpha virt. eigenvalues --    1.57907   1.59397   1.59808   1.61944   1.64533
 Alpha virt. eigenvalues --    1.66452   1.68183   1.70327   1.70760   1.75056
 Alpha virt. eigenvalues --    1.82408   1.84132   1.84555   1.94609   2.23111
 Alpha virt. eigenvalues --    2.29412   2.29833   2.33497   2.35523   2.36650
 Alpha virt. eigenvalues --    2.38321   2.38618   2.40893   2.41078   2.41747
 Alpha virt. eigenvalues --    2.43270   2.46567   2.48850   2.51034   2.52176
 Alpha virt. eigenvalues --    2.53769   2.54886   2.57517   2.58847   2.59325
 Alpha virt. eigenvalues --    2.60147   2.60599   2.63168   2.63688   2.65480
 Alpha virt. eigenvalues --    2.66792   2.70847   2.71460   2.71563   2.72006
 Alpha virt. eigenvalues --    2.74411   2.75512   2.77027   2.77849   2.78106
 Alpha virt. eigenvalues --    2.79077   2.81980   2.82396   2.84088   2.84570
 Alpha virt. eigenvalues --    2.85272   2.89023   2.89881   2.91167   2.91738
 Alpha virt. eigenvalues --    2.92379   2.93215   2.94679   2.94959   2.95878
 Alpha virt. eigenvalues --    3.00394   3.00949   3.01192   3.03289   3.03860
 Alpha virt. eigenvalues --    3.05619   3.06292   3.06815   3.08758   3.09453
 Alpha virt. eigenvalues --    3.10271   3.11469   3.13052   3.13135   3.14532
 Alpha virt. eigenvalues --    3.15180   3.15198   3.17574   3.17734   3.18456
 Alpha virt. eigenvalues --    3.19577   3.20184   3.21153   3.21689   3.23230
 Alpha virt. eigenvalues --    3.24575   3.25365   3.25866   3.26552   3.29433
 Alpha virt. eigenvalues --    3.30047   3.31388   3.31938   3.33066   3.34663
 Alpha virt. eigenvalues --    3.35335   3.38161   3.39256   3.39840   3.42740
 Alpha virt. eigenvalues --    3.43130   3.43575   3.45341   3.45867   3.47335
 Alpha virt. eigenvalues --    3.47608   3.50157   3.50189   3.51204   3.52902
 Alpha virt. eigenvalues --    3.54232   3.56514   3.56715   3.59619   3.60713
 Alpha virt. eigenvalues --    3.62358   3.63259   3.65295   3.66469   3.67039
 Alpha virt. eigenvalues --    3.67977   3.69103   3.70283   3.73093   3.74264
 Alpha virt. eigenvalues --    3.74699   3.76888   3.78058   3.78565   3.78893
 Alpha virt. eigenvalues --    3.79845   3.80632   3.82380   3.83457   3.85300
 Alpha virt. eigenvalues --    3.85946   3.86347   3.87582   3.89898   3.90634
 Alpha virt. eigenvalues --    3.92248   3.93963   3.94272   3.94799   3.95320
 Alpha virt. eigenvalues --    3.96062   3.97408   3.98402   3.98782   4.00249
 Alpha virt. eigenvalues --    4.01187   4.02704   4.03904   4.04877   4.06021
 Alpha virt. eigenvalues --    4.06544   4.07708   4.08938   4.10395   4.11078
 Alpha virt. eigenvalues --    4.11699   4.12671   4.13199   4.14786   4.15861
 Alpha virt. eigenvalues --    4.16541   4.17265   4.19858   4.20079   4.22174
 Alpha virt. eigenvalues --    4.23680   4.24123   4.26273   4.27003   4.28372
 Alpha virt. eigenvalues --    4.30610   4.30978   4.32684   4.35505   4.37727
 Alpha virt. eigenvalues --    4.38453   4.39201   4.39724   4.43187   4.43993
 Alpha virt. eigenvalues --    4.50594   4.51574   4.52209   4.58170   4.58346
 Alpha virt. eigenvalues --    4.60662   4.61481   4.62574   4.64316   4.66694
 Alpha virt. eigenvalues --    4.67524   4.68834   4.71323   4.73725   4.74161
 Alpha virt. eigenvalues --    4.77314   4.78956   4.79815   4.80866   4.81867
 Alpha virt. eigenvalues --    4.82446   4.86342   4.87581   4.88340   4.89216
 Alpha virt. eigenvalues --    4.89712   4.91975   4.94222   4.94778   4.96909
 Alpha virt. eigenvalues --    4.98885   5.01667   5.02090   5.08231   5.11654
 Alpha virt. eigenvalues --    5.12488   5.12866   5.14847   5.17276   5.18438
 Alpha virt. eigenvalues --    5.19301   5.21428   5.24209   5.25698   5.28863
 Alpha virt. eigenvalues --    5.29692   5.31132   5.34466   5.36951   5.37666
 Alpha virt. eigenvalues --    5.40059   5.41037   5.43750   5.44948   5.45791
 Alpha virt. eigenvalues --    5.48694   5.49656   5.51898   5.55231   5.56767
 Alpha virt. eigenvalues --    5.58532   5.63145   5.67661   5.69164   5.80302
 Alpha virt. eigenvalues --    5.80860   5.81739   5.84669   5.85763   5.94476
 Alpha virt. eigenvalues --    5.95854   5.99118   6.05599  11.92349  12.53911
 Alpha virt. eigenvalues --   12.64620  13.20829  13.33811  13.35597  13.66807
          Condensed to atoms (all electrons):
               1          2          3          4          5          6
     1  C    5.086027   0.321875  -0.052051   0.308378   0.005127  -0.060287
     2  C    0.321875   5.056883   0.324684  -0.053256  -0.051147   0.007541
     3  C   -0.052051   0.324684   5.083956   0.005104   0.309165  -0.000734
     4  C    0.308378  -0.053256   0.005104   5.096589  -0.014041   0.320387
     5  C    0.005127  -0.051147   0.309165  -0.014041   5.094799   0.000576
     6  C   -0.060287   0.007541  -0.000734   0.320387   0.000576   4.947330
     7  C   -0.000694   0.007122  -0.057429   0.000564   0.322829  -0.000035
     8  H   -0.042480  -0.003439   0.003282   0.409827  -0.017432  -0.043904
     9  H   -0.053818  -0.001230  -0.001006   0.404445   0.000666  -0.030146
    10  H    0.416164  -0.044205   0.008645  -0.046422  -0.000770  -0.005466
    11  H    0.402516  -0.040691  -0.007312  -0.047754   0.000278  -0.001615
    12  H   -0.048336   0.421938  -0.047049   0.009356   0.008890  -0.000538
    13  H   -0.046663   0.410186  -0.045447  -0.007641  -0.007444   0.000432
    14  H   -0.006270  -0.040404   0.401754   0.000197  -0.046050  -0.000028
    15  H    0.008319  -0.042732   0.415084  -0.000744  -0.044772   0.000042
    16  H    0.003089  -0.002924  -0.041072  -0.017254   0.408948   0.002387
    17  H   -0.000943  -0.000986  -0.052263   0.000594   0.404714  -0.000068
    18  H   -0.005308   0.000336  -0.000144  -0.049421   0.000116   0.408541
    19  H   -0.006667  -0.000075   0.000018  -0.048786  -0.000074   0.408423
    20  H    0.009794  -0.000580   0.000055  -0.043230   0.000021   0.407254
    21  H   -0.000124   0.000245  -0.004512   0.000102  -0.046077  -0.000003
    22  H    0.000017  -0.000083  -0.005970  -0.000067  -0.046205   0.000002
    23  H    0.000051  -0.000518   0.008895   0.000014  -0.040232  -0.000001
               7          8          9         10         11         12
     1  C   -0.000694  -0.042480  -0.053818   0.416164   0.402516  -0.048336
     2  C    0.007122  -0.003439  -0.001230  -0.044205  -0.040691   0.421938
     3  C   -0.057429   0.003282  -0.001006   0.008645  -0.007312  -0.047049
     4  C    0.000564   0.409827   0.404445  -0.046422  -0.047754   0.009356
     5  C    0.322829  -0.017432   0.000666  -0.000770   0.000278   0.008890
     6  C   -0.000035  -0.043904  -0.030146  -0.005466  -0.001615  -0.000538
     7  C    4.940975   0.002427  -0.000070   0.000043  -0.000044  -0.000501
     8  H    0.002427   0.618160  -0.040348   0.008745  -0.007239  -0.000472
     9  H   -0.000070  -0.040348   0.595253  -0.006451   0.008712   0.000319
    10  H    0.000043   0.008745  -0.006451   0.588795  -0.034445  -0.012605
    11  H   -0.000044  -0.007239   0.008712  -0.034445   0.585577  -0.002356
    12  H   -0.000501  -0.000472   0.000319  -0.012605  -0.002356   0.584523
    13  H    0.000359   0.000310   0.003196  -0.002269   0.008207  -0.029466
    14  H   -0.001425   0.000561   0.000090   0.000271   0.004572  -0.002211
    15  H   -0.005672  -0.000216  -0.000033  -0.000485   0.000328  -0.011903
    16  H   -0.042182  -0.013373   0.000356  -0.000232   0.000616  -0.000452
    17  H   -0.028606   0.000182  -0.000050  -0.000036   0.000096   0.000281
    18  H   -0.000004  -0.008343   0.008976  -0.000516   0.003892   0.000008
    19  H    0.000002   0.010280  -0.008055   0.005472  -0.000576  -0.000035
    20  H   -0.000002  -0.007585  -0.006467  -0.000055  -0.000112   0.000029
    21  H    0.407350   0.000158  -0.000006  -0.000001  -0.000021   0.000011
    22  H    0.407249  -0.000188   0.000006  -0.000002   0.000008  -0.000031
    23  H    0.403896   0.000058   0.000001  -0.000002   0.000007   0.000025
              13         14         15         16         17         18
     1  C   -0.046663  -0.006270   0.008319   0.003089  -0.000943  -0.005308
     2  C    0.410186  -0.040404  -0.042732  -0.002924  -0.000986   0.000336
     3  C   -0.045447   0.401754   0.415084  -0.041072  -0.052263  -0.000144
     4  C   -0.007641   0.000197  -0.000744  -0.017254   0.000594  -0.049421
     5  C   -0.007444  -0.046050  -0.044772   0.408948   0.404714   0.000116
     6  C    0.000432  -0.000028   0.000042   0.002387  -0.000068   0.408541
     7  C    0.000359  -0.001425  -0.005672  -0.042182  -0.028606  -0.000004
     8  H    0.000310   0.000561  -0.000216  -0.013373   0.000182  -0.008343
     9  H    0.003196   0.000090  -0.000033   0.000356  -0.000050   0.008976
    10  H   -0.002269   0.000271  -0.000485  -0.000232  -0.000036  -0.000516
    11  H    0.008207   0.004572   0.000328   0.000616   0.000096   0.003892
    12  H   -0.029466  -0.002211  -0.011903  -0.000452   0.000281   0.000008
    13  H    0.578436   0.007869  -0.002001   0.000415   0.002971  -0.000027
    14  H    0.007869   0.579723  -0.033990  -0.006679   0.008173  -0.000024
    15  H   -0.002001  -0.033990   0.585068   0.008175  -0.005569  -0.000001
    16  H    0.000415  -0.006679   0.008175   0.613007  -0.040029   0.000179
    17  H    0.002971   0.008173  -0.005569  -0.040029   0.583465  -0.000006
    18  H   -0.000027  -0.000024  -0.000001   0.000179  -0.000006   0.603872
    19  H    0.000043   0.000008  -0.000002  -0.000195   0.000006  -0.037909
    20  H   -0.000005   0.000007  -0.000002   0.000086   0.000001  -0.032055
    21  H   -0.000026   0.003291  -0.000352  -0.007685   0.008126  -0.000001
    22  H    0.000041  -0.000431   0.004935   0.009378  -0.006768   0.000000
    23  H   -0.000004  -0.000114  -0.000029  -0.006400  -0.006001   0.000000
              19         20         21         22         23
     1  C   -0.006667   0.009794  -0.000124   0.000017   0.000051
     2  C   -0.000075  -0.000580   0.000245  -0.000083  -0.000518
     3  C    0.000018   0.000055  -0.004512  -0.005970   0.008895
     4  C   -0.048786  -0.043230   0.000102  -0.000067   0.000014
     5  C   -0.000074   0.000021  -0.046077  -0.046205  -0.040232
     6  C    0.408423   0.407254  -0.000003   0.000002  -0.000001
     7  C    0.000002  -0.000002   0.407350   0.407249   0.403896
     8  H    0.010280  -0.007585   0.000158  -0.000188   0.000058
     9  H   -0.008055  -0.006467  -0.000006   0.000006   0.000001
    10  H    0.005472  -0.000055  -0.000001  -0.000002  -0.000002
    11  H   -0.000576  -0.000112  -0.000021   0.000008   0.000007
    12  H   -0.000035   0.000029   0.000011  -0.000031   0.000025
    13  H    0.000043  -0.000005  -0.000026   0.000041  -0.000004
    14  H    0.000008   0.000007   0.003291  -0.000431  -0.000114
    15  H   -0.000002  -0.000002  -0.000352   0.004935  -0.000029
    16  H   -0.000195   0.000086  -0.007685   0.009378  -0.006400
    17  H    0.000006   0.000001   0.008126  -0.006768  -0.006001
    18  H   -0.037909  -0.032055  -0.000001   0.000000   0.000000
    19  H    0.606838  -0.030555   0.000000  -0.000000  -0.000000
    20  H   -0.030555   0.592096   0.000000   0.000000  -0.000000
    21  H    0.000000   0.000000   0.594275  -0.038314  -0.031715
    22  H   -0.000000   0.000000  -0.038314   0.602541  -0.030175
    23  H   -0.000000  -0.000000  -0.031715  -0.030175   0.596777
 Mulliken charges:
               1
     1  C   -0.237717
     2  C   -0.268539
     3  C   -0.245653
     4  C   -0.226942
     5  C   -0.241883
     6  C   -0.360092
     7  C   -0.356151
     8  H    0.131029
     9  H    0.125662
    10  H    0.125824
    11  H    0.127358
    12  H    0.130576
    13  H    0.128527
    14  H    0.131108
    15  H    0.126551
    16  H    0.131841
    17  H    0.132714
    18  H    0.107838
    19  H    0.101839
    20  H    0.111306
    21  H    0.115279
    22  H    0.104058
    23  H    0.105468
 Sum of Mulliken charges =  -0.00000
 Mulliken charges with hydrogens summed into heavy atoms:
               1
     1  C    0.015465
     2  C   -0.009436
     3  C    0.012005
     4  C    0.029749
     5  C    0.022672
     6  C   -0.039110
     7  C   -0.031346
 APT charges:
               1
     1  C   -0.707204
     2  C   -0.775086
     3  C   -0.713971
     4  C   -0.270547
     5  C   -0.318358
     6  C   -1.447157
     7  C   -1.418660
     8  H    0.186626
     9  H    0.328791
    10  H    0.443619
    11  H    0.289859
    12  H    0.449791
    13  H    0.303979
    14  H    0.293266
    15  H    0.445254
    16  H    0.186915
    17  H    0.330686
    18  H    0.303561
    19  H    0.450483
    20  H    0.433343
    21  H    0.313217
    22  H    0.451767
    23  H    0.439825
 Sum of APT charges =  -0.00000
 APT charges with hydrogens summed into heavy atoms:
               1
     1  C    0.026273
     2  C   -0.021316
     3  C    0.024549
     4  C    0.244871
     5  C    0.199243
     6  C   -0.259769
     7  C   -0.213851
 Electronic spatial extent (au):  <R**2>=           1250.1827
 Charge=             -0.0000 electrons
 Dipole moment (field-independent basis, Debye):
    X=              0.0002    Y=              0.0370    Z=             -0.0514  Tot=              0.0633
 Quadrupole moment (field-independent basis, Debye-Ang):
   XX=            -50.7552   YY=            -48.9351   ZZ=            -48.7008
   XY=              0.0311   XZ=              0.0423   YZ=             -0.1120
 Traceless Quadrupole moment (field-independent basis, Debye-Ang):
   XX=             -1.2915   YY=              0.5286   ZZ=              0.7629
   XY=              0.0311   XZ=              0.0423   YZ=             -0.1120
 Octapole moment (field-independent basis, Debye-Ang**2):
  XXX=             -0.0016  YYY=              0.0165  ZZZ=              0.5631  XYY=             -0.0127
  XXY=              3.5734  XXZ=             -3.1551  XZZ=              0.0874  YZZ=             -0.3874
  YYZ=             -0.5777  XYZ=             -0.0419
 Hexadecapole moment (field-independent basis, Debye-Ang**3):
 XXXX=          -1300.8500 YYYY=           -379.0914 ZZZZ=           -125.9963 XXXY=              0.5479
 XXXZ=              0.5490 YYYX=              0.2954 YYYZ=              3.8878 ZZZX=              0.1984
 ZZZY=             -1.7419 XXYY=           -276.0355 XXZZ=           -234.5633 YYZZ=            -87.9412
 XXYZ=              0.1602 YYXZ=             -0.0109 ZZXY=             -0.0621
 N-N= 3.237528051232D+02 E-N=-1.285898946574D+03  KE= 2.744707566121D+02
  Exact polarizability:   0.000   0.000   0.000   0.000   0.000   0.000
 Approx polarizability: 100.176  -0.526  98.571   0.034   0.120  99.500
 No NMR shielding tensors so no spin-rotation constants.
 Leave Link  601 at Sun Sep 29 15:11:47 2019, MaxMem=   671088640 cpu:              88.7 elap:              44.4
 (Enter /shared/centos7/gaussian/g16/l701.exe)
 SCFChk:  SCF convergence  4.59D-09 required  1.00D-08
 ... and contract with generalized density number  0.
 Compute integral second derivatives.
 Entering OneElI...
 Calculate overlap and kinetic energy integrals
    NBasis = 485  MinDer = 2  MaxDer = 2
 Requested accuracy = 0.1000D-12
 PrmmSu-InSpLW:  IPartL=    0 NPrtUS=   20 NPrtUL=    1 DoSpLW=F IThBeg=    0 IThEnd=   19 NThAct=   20.
 PrsmSu:  NPrtUS=  20 ThrOK=T IAlg=1 NPAlg=1 LenDen=           0 ISkipM=0 DoSpLW=F IThBeg=    0 IThEnd=   19.
 Prism:   IPart=     0 DynPar=F LinDyn=F Incr=           6.
 PRISM was handed    33205242 working-precision words and 13582 shell-pairs
 PRISM was handed    33205242 working-precision words and 13582 shell-pairs
 PRISM was handed    33205242 working-precision words and 13582 shell-pairs
 PRISM was handed    33205242 working-precision words and 13582 shell-pairs
 PRISM was handed    33205242 working-precision words and 13582 shell-pairs
 PRISM was handed    33205242 working-precision words and 13582 shell-pairs
 PRISM was handed    33205242 working-precision words and 13582 shell-pairs
 PRISM was handed    33205242 working-precision words and 13582 shell-pairs
 PRISM was handed    33205242 working-precision words and 13582 shell-pairs
 PRISM was handed    33205242 working-precision words and 13582 shell-pairs
 PRISM was handed    33205242 working-precision words and 13582 shell-pairs
 PRISM was handed    33205242 working-precision words and 13582 shell-pairs
 PRISM was handed    33205242 working-precision words and 13582 shell-pairs
 PRISM was handed    33205242 working-precision words and 13582 shell-pairs
 IPart=  8 NShTot=         680 NBatch=          60 AvBLen=        11.3
 PRISM was handed    33205242 working-precision words and 13582 shell-pairs
 IPart=  0 NShTot=         714 NBatch=          81 AvBLen=         8.8
 PRISM was handed    33205242 working-precision words and 13582 shell-pairs
 PRISM was handed    33205242 working-precision words and 13582 shell-pairs
 PRISM was handed    33205242 working-precision words and 13582 shell-pairs
 IPart= 16 NShTot=         657 NBatch=          51 AvBLen=        12.9
 IPart=  1 NShTot=         712 NBatch=          81 AvBLen=         8.8
 IPart=  2 NShTot=         707 NBatch=          77 AvBLen=         9.2
 PRISM was handed    33205242 working-precision words and 13582 shell-pairs
 IPart= 17 NShTot=         656 NBatch=          51 AvBLen=        12.9
 IPart= 11 NShTot=         670 NBatch=          57 AvBLen=        11.8
 PRISM was handed    33205242 working-precision words and 13582 shell-pairs
 IPart=  9 NShTot=         675 NBatch=          59 AvBLen=        11.4
 IPart= 15 NShTot=         662 NBatch=          53 AvBLen=        12.5
 IPart= 18 NShTot=         652 NBatch=          49 AvBLen=        13.3
 IPart= 14 NShTot=         662 NBatch=          53 AvBLen=        12.5
 IPart=  7 NShTot=         685 NBatch=          63 AvBLen=        10.9
 IPart=  5 NShTot=         699 NBatch=          73 AvBLen=         9.6
 IPart=  4 NShTot=         703 NBatch=          75 AvBLen=         9.4
 IPart= 10 NShTot=         670 NBatch=          57 AvBLen=        11.8
 IPart= 13 NShTot=         663 NBatch=          53 AvBLen=        12.5
 IPart=  3 NShTot=         703 NBatch=          75 AvBLen=         9.4
 IPart= 12 NShTot=         667 NBatch=          54 AvBLen=        12.4
 IPart=  6 NShTot=         695 NBatch=          70 AvBLen=         9.9
 IPart= 19 NShTot=         650 NBatch=          48 AvBLen=        13.5
 PrSmSu:  NxtVal=            121.
 Entering OneElI...
 Calculate potential energy integrals
    NBasis = 485  MinDer = 2  MaxDer = 2
 Requested accuracy = 0.1000D-12
 PrmmSu-InSpLW:  IPartL=    0 NPrtUS=   20 NPrtUL=    1 DoSpLW=F IThBeg=    0 IThEnd=   19 NThAct=   20.
 PrsmSu:  NPrtUS=  20 ThrOK=T IAlg=1 NPAlg=1 LenDen=           0 ISkipM=0 DoSpLW=F IThBeg=    0 IThEnd=   19.
 Prism:   IPart=     0 DynPar=F LinDyn=F Incr=         138.
 PRISM was handed    33268713 working-precision words and 12063 shell-pairs
 PRISM was handed    33268713 working-precision words and 12063 shell-pairs
 PRISM was handed    33268713 working-precision words and 12063 shell-pairs
 PRISM was handed    33268713 working-precision words and 12063 shell-pairs
 PRISM was handed    33268713 working-precision words and 12063 shell-pairs
 PRISM was handed    33268713 working-precision words and 12063 shell-pairs
 PRISM was handed    33268713 working-precision words and 12063 shell-pairs
 PRISM was handed    33268713 working-precision words and 12063 shell-pairs
 PRISM was handed    33268713 working-precision words and 12063 shell-pairs
 PRISM was handed    33268713 working-precision words and 12063 shell-pairs
 PRISM was handed    33268713 working-precision words and 12063 shell-pairs
 PRISM was handed    33268713 working-precision words and 12063 shell-pairs
 PRISM was handed    33268713 working-precision words and 12063 shell-pairs
 PRISM was handed    33268713 working-precision words and 12063 shell-pairs
 PRISM was handed    33268713 working-precision words and 12063 shell-pairs
 PRISM was handed    33268713 working-precision words and 12063 shell-pairs
 PRISM was handed    33268713 working-precision words and 12063 shell-pairs
 PRISM was handed    33268713 working-precision words and 12063 shell-pairs
 PRISM was handed    33268713 working-precision words and 12063 shell-pairs
 PRISM was handed    33268713 working-precision words and 12063 shell-pairs
 IPart= 16 NShTot=       13501 NBatch=         588 AvBLen=        23.0
 IPart= 17 NShTot=       13363 NBatch=         582 AvBLen=        23.0
 IPart=  8 NShTot=       13846 NBatch=         603 AvBLen=        23.0
 IPart=  0 NShTot=       14536 NBatch=         634 AvBLen=        22.9
 IPart=  9 NShTot=       13846 NBatch=         603 AvBLen=        23.0
 IPart= 14 NShTot=       13616 NBatch=         593 AvBLen=        23.0
 IPart= 18 NShTot=       13271 NBatch=         578 AvBLen=        23.0
 IPart= 12 NShTot=       13662 NBatch=         595 AvBLen=        23.0
 IPart=  1 NShTot=       14467 NBatch=         631 AvBLen=        22.9
 IPart= 19 NShTot=       13248 NBatch=         577 AvBLen=        23.0
 IPart= 13 NShTot=       13616 NBatch=         593 AvBLen=        23.0
 IPart=  2 NShTot=       14398 NBatch=         628 AvBLen=        22.9
 IPart=  3 NShTot=       14375 NBatch=         627 AvBLen=        22.9
 IPart=  4 NShTot=       14352 NBatch=         626 AvBLen=        22.9
 IPart= 10 NShTot=       13800 NBatch=         601 AvBLen=        23.0
 IPart= 15 NShTot=       13547 NBatch=         590 AvBLen=        23.0
 IPart=  6 NShTot=       14099 NBatch=         615 AvBLen=        22.9
 IPart= 11 NShTot=       13754 NBatch=         599 AvBLen=        23.0
 IPart=  7 NShTot=       13892 NBatch=         605 AvBLen=        23.0
 IPart=  5 NShTot=       14260 NBatch=         622 AvBLen=        22.9
 PrSmSu:  NxtVal=           2761.
 Polarizability after L701:
                1             2             3 
      1  0.000000D+00
      2  0.000000D+00  0.000000D+00
      3  0.000000D+00  0.000000D+00  0.000000D+00
 Dipole Derivatives after L701:
                 1             2             3             4             5 
      1  -0.873519D+00  0.734076D+00  0.438893D+00 -0.570508D-01  0.170654D-01
      2   0.643217D+00 -0.526152D+00 -0.252126D+00 -0.193237D-01 -0.143681D+01
      3  -0.506083D-01  0.264721D-01 -0.721943D+00  0.535476D-02  0.399667D-02
                 6             7             8             9            10 
      1  -0.846177D-02 -0.855673D+00 -0.712679D+00 -0.410745D+00  0.399084D+00
      2   0.413623D+00 -0.629107D+00 -0.553313D+00 -0.237336D+00  0.442524D+00
      3  -0.831398D+00  0.466876D-01  0.318983D-01 -0.732926D+00 -0.965526D-01
                11            12            13            14            15 
      1  -0.258636D+00 -0.853831D+00  0.317371D+00  0.285533D+00  0.799290D+00
      2  -0.440349D+00 -0.654073D-01 -0.409539D+00 -0.483910D+00 -0.451217D-01
      3  -0.900218D-02 -0.770376D+00  0.967702D-01 -0.459327D-02 -0.788535D+00
                16            17            18            19            20 
      1  -0.221112D+01 -0.511753D+00  0.358220D+00 -0.214892D+01  0.462301D+00
      2  -0.388980D+00 -0.113599D+01  0.131587D+00  0.356757D+00 -0.111563D+01
      3  -0.327752D-01  0.110947D-02 -0.994367D+00  0.368526D-01  0.749795D-03
                21            22            23            24            25 
      1  -0.302013D+00 -0.288144D-01  0.190688D+00 -0.310104D-01  0.176346D+00
      2   0.108644D+00 -0.357612D+00  0.441478D+00 -0.984511D-01  0.133600D-01
      3  -0.991430D+00 -0.760245D-02 -0.878603D-03  0.147215D+00  0.490213D-01
                26            27            28            29            30 
      1   0.247703D-02  0.580190D+00  0.680900D+00 -0.505787D+00  0.156534D+00
      2   0.143178D+00  0.119006D+00 -0.395847D+00  0.521503D+00 -0.112928D+00
      3  -0.221553D-01  0.666850D+00  0.135791D-01 -0.300586D-02  0.128455D+00
                31            32            33            34            35 
      1   0.103628D+00  0.196473D-01 -0.399559D+00  0.184557D+00 -0.848625D-02
      2   0.114048D-01  0.123203D+00  0.254990D+00 -0.458127D-02  0.104287D+01
      3   0.354107D-01 -0.369700D-01  0.642745D+00 -0.353237D-03  0.240326D-01
                36            37            38            39            40 
      1  -0.299226D-02  0.139274D+00  0.279867D-03  0.723628D-02  0.105712D+00
      2   0.253738D+00  0.525413D-03  0.109584D+00 -0.493754D+00 -0.111455D-01
      3   0.121942D+00 -0.120241D-02  0.226932D-01  0.663079D+00 -0.345515D-01
                41            42            43            44            45 
      1  -0.205576D-01  0.394545D+00  0.673489D+00  0.508110D+00 -0.157946D+00
      2   0.123575D+00  0.259980D+00  0.404606D+00  0.535020D+00 -0.118330D+00
      3  -0.392593D-01  0.650511D+00 -0.148449D-01 -0.500101D-02  0.127251D+00
                46            47            48            49            50 
      1  -0.349382D-01 -0.195302D+00  0.346474D-01  0.166162D+00 -0.631125D-02
      2   0.361088D+00  0.449071D+00 -0.107247D+00 -0.991971D-02  0.146214D+00
      3   0.268303D-02 -0.465468D-02  0.146613D+00 -0.425035D-01 -0.202370D-01
                51            52            53            54            55 
      1  -0.585635D+00  0.140695D+00  0.106967D+00 -0.956121D+00  0.116561D+01
      2   0.119629D+00  0.312093D-02  0.136298D+00 -0.394399D+00  0.549983D-01
      3   0.679682D+00  0.123965D-01 -0.590233D-01  0.633690D+00  0.387697D-01
                56            57            58            59            60 
      1  -0.813505D+00  0.307494D+00  0.306274D+00  0.100598D+01  0.438644D+00
      2   0.633000D-01 -0.737520D-02  0.127751D+00  0.824209D+00  0.332404D+00
      3  -0.529132D-01  0.122543D+00  0.932409D-02  0.130009D+00  0.169546D+00
                61            62            63            64            65 
      1   0.154459D+00 -0.117391D+00  0.965118D+00  0.115605D+01  0.853545D+00
      2  -0.535383D-02  0.145731D+00 -0.391409D+00 -0.387176D-01  0.773787D-01
      3  -0.115615D-01 -0.657819D-01  0.639463D+00 -0.390296D-01 -0.534710D-01
                66            67            68            69 
      1  -0.296273D+00  0.340431D+00 -0.103625D+01 -0.476224D+00
      2  -0.137445D-01 -0.149226D+00  0.809528D+00  0.344027D+00
      3   0.121873D+00 -0.152645D-01  0.135985D+00  0.169516D+00
 Hessian after L701:
                1             2             3             4             5 
      1  0.152662D+02
      2 -0.109827D+01  0.161647D+02
      3  0.232144D+00 -0.300936D+00  0.179701D+02
      4 -0.330995D+01  0.141173D+01 -0.108486D+01  0.148904D+02
      5  0.141540D+01 -0.562925D+01 -0.529513D+00 -0.253954D-01  0.167129D+02
      6 -0.109814D+01 -0.522721D+00 -0.587224D+01 -0.794704D-02  0.437915D+00
      7  0.425274D+00  0.169833D-01  0.633526D-01 -0.305994D+01 -0.138428D+01
      8 -0.146610D-01 -0.586321D-01 -0.246175D-01 -0.137861D+01 -0.552167D+01
      9 -0.472003D-01 -0.256210D-01 -0.929994D-01  0.110608D+01 -0.514383D+00
     10 -0.592556D+01  0.113047D+01  0.448155D+00  0.112772D+00  0.216899D+00
     11  0.105874D+01 -0.292073D+01  0.120549D+01  0.222079D+00  0.174406D+00
     12  0.434337D+00  0.121388D+01 -0.575516D+01 -0.187027D-01  0.266345D-01
     13  0.260678D+00 -0.206364D+00 -0.480250D-01  0.118214D+00 -0.214901D+00
     14 -0.176930D+00 -0.972821D-01  0.322754D-01 -0.226876D+00  0.159853D+00
     15 -0.658952D-01  0.400129D-01 -0.188945D+00  0.152733D-01  0.309237D-01
     16  0.664385D-01  0.179950D+00 -0.541218D-02  0.100256D+00  0.197908D+00
     17  0.277788D+00  0.189942D+00  0.177980D-01  0.206498D+00  0.329591D-01
     18  0.374475D-01  0.634509D-01 -0.113232D+00 -0.421041D-01 -0.375505D-01
     19  0.513673D-01 -0.465050D-01  0.946407D-02  0.107276D+00 -0.189507D+00
     20 -0.473229D-01 -0.366044D-01 -0.355328D-02 -0.199285D+00  0.246605D-01
     21 -0.105044D-01  0.425358D-02 -0.650241D-01  0.408467D-01 -0.348268D-01
     22  0.136693D+00 -0.138994D-01  0.278945D-01 -0.944904D-02 -0.835012D-03
     23  0.590697D-01 -0.108868D+00 -0.834840D-01  0.346242D-01  0.272012D-01
     24  0.331972D-01 -0.770377D-01  0.879899D-01 -0.359705D-02 -0.947114D-02
     25  0.132319D+00 -0.473269D-01 -0.588157D-01 -0.316831D-02  0.230132D-01
     26 -0.240374D-01  0.231587D-02 -0.176558D+00  0.245480D-01 -0.637012D-02
     27 -0.215394D-01 -0.169583D+00  0.190462D-01  0.343850D-01  0.274667D-01
     28 -0.288344D+01 -0.123592D+01  0.281141D+00 -0.664978D-01 -0.506414D-01
     29 -0.128125D+01 -0.330616D+01 -0.249087D+00 -0.454681D-01  0.131633D+00
     30  0.264524D+00 -0.226871D+00 -0.422989D+01  0.444231D-01 -0.130894D-01
     31 -0.444271D+01 -0.357474D-01 -0.119981D-01 -0.144832D-01 -0.716475D-01
     32 -0.380718D-01 -0.443145D+01 -0.422749D-01 -0.428604D-01  0.594289D-01
     33  0.905411D-01 -0.126931D+00 -0.176107D+01  0.103952D+00  0.671778D-01
     34 -0.629954D-02 -0.132795D+00  0.696345D-02 -0.438135D+01 -0.575150D-02
     35 -0.146463D+00  0.447335D-01  0.363878D-01 -0.173131D-02 -0.194609D+01
     36  0.145775D-01  0.434689D-01  0.117850D+00 -0.716899D-03  0.482435D+00
     37  0.171637D-02 -0.417501D-01  0.144459D+00 -0.446528D+01 -0.296014D-03
     38 -0.730998D-01  0.890792D-01  0.943690D-01  0.436168D-03 -0.442277D+01
     39  0.140131D+00  0.516607D-01  0.301123D-01 -0.106320D-01  0.223292D-01
     40 -0.201307D-02 -0.329954D-03  0.512702D-02 -0.158535D-01  0.694264D-01
     41 -0.355255D-02 -0.119641D-01 -0.310289D-02  0.406536D-01  0.609845D-01
     42  0.242315D-01  0.148360D-02  0.116775D-01 -0.100948D+00  0.639360D-01
     43  0.159825D+00  0.547240D-01 -0.135834D-01 -0.626195D-01  0.445371D-01
     44  0.671873D-01 -0.301076D-01  0.417591D-03  0.425548D-01  0.126049D+00
     45 -0.161563D-01 -0.383580D-02 -0.491327D-01 -0.424099D-01 -0.143321D-01
     46  0.294009D-02 -0.374052D-01 -0.105248D-01 -0.109614D-01 -0.739324D-03
     47 -0.781567D-01  0.355933D-01  0.697229D-02 -0.366157D-01  0.308906D-01
     48 -0.668140D-02  0.647588D-02 -0.384864D-01  0.417696D-02 -0.100821D-01
     49  0.601497D-02 -0.885684D-02 -0.979452D-02 -0.816105D-03 -0.247723D-01
     50 -0.775021D-02 -0.830461D-02  0.357859D-02 -0.273593D-01 -0.504296D-02
[...]
 794922,-0.02721431,-0.01613398,-0.05293248,-0.03963884,0.00008466,-0.0
 0001117,-0.00003640,0.01073878,0.00234184,0.02646706,0.00001639,0.0001
 1639,0.00001523,-0.00005083,0.00179305,0.00102922,0.00005696,-0.000033
 64,-0.00000504,-0.00001780,0.00009126,0.00019823,-0.00006374,-0.000002
 01,0.00009681,0.00048598,0.00051556,0.00044726,-0.00061430,0.00086990,
 0.00043997,0.00303510,-0.00443050,-0.00204808,0.01657299,0.06426058,-0
 .00099459,0.00009184,0.00026077,-0.00432425,-0.00343876,-0.01185210,-0
 .08466414,-0.03959047,-0.25969783,0.00007398,0.00039472,0.00012778,-0.
 00717482,-0.00194875,-0.02029667,0.00002133,-0.00003751,0.00000322,0.0
 0023603,-0.00094827,0.00063095,-0.00008392,-0.00007120,0.00007116,-0.0
 0008676,-0.00002206,0.00021905,0.00012703,0.00015377,0.00016864,0.0010
 1409,0.00026605,0.00001210,0.00016497,-0.00022374,0.00079896,0.0011827
 5,-0.00212956,0.00049550,0.09258406,0.04282216,0.28557564,0.00041795,0
 .00276408,0.00069178,-0.01332048,-0.00233398,0.00065397,-0.29593034,-0
 .04015065,0.02209729,-0.00015440,0.00021468,-0.00018028,-0.00591473,-0
 .00144280,0.00082961,0.00001547,-0.00002725,0.00015613,0.00093953,0.00
 071939,-0.00046827,0.00001974,-0.00001417,-0.00001956,-0.00003965,0.00
 004795,0.00010537,-0.00079545,0.00009425,0.00038698,0.00058489,0.00004
 981,0.00018939,0.00026783,0.00036310,-0.00044105,0.00059450,-0.0000883
 3,0.00047145,-0.01166700,-0.00186846,0.00054895,0.32257376,0.00102721,
 -0.00468792,-0.00220221,0.02917820,0.00341415,-0.00256275,-0.04061189,
 -0.05236945,0.00291417,0.00060919,-0.00031822,0.00057744,-0.02768250,-
 0.00792473,0.00283359,0.00002817,0.00010876,-0.00036870,-0.00164812,0.
 00152305,-0.00003171,-0.00006030,0.00009615,-0.00021976,-0.00003218,0.
 00003497,-0.00005250,0.00131531,-0.00007798,-0.00022895,-0.00020667,0.
 00000619,0.00009455,-0.00028618,0.00095450,0.00073187,-0.00068634,0.00
 112455,0.00005994,-0.00539652,-0.00161605,0.00057259,0.04289036,0.0631
 4103,-0.00007667,-0.00281563,0.00026387,0.01356287,0.00118217,-0.00232
 759,0.02127880,0.00328834,-0.05095262,-0.00009960,0.00029686,0.0001885
 2,0.02054024,0.00521386,-0.00244685,0.00002569,0.00000478,-0.00004710,
 0.00008702,-0.00117233,0.00045631,-0.00004075,0.00001194,0.00004562,-0
 .00001618,-0.00007187,0.00005982,0.00075482,0.00011585,0.00000494,0.00
 024985,0.00026208,0.00009588,-0.00059964,0.00023800,0.00032366,0.00002
 571,0.00067277,0.00013228,-0.02956439,-0.00452078,0.00296100,-0.026223
 63,-0.00526779,0.05232277,-0.00009335,0.00018153,0.00009837,-0.0003561
 1,-0.00002067,0.00043194,-0.00439671,-0.00204584,0.00051171,0.00000773
 ,0.00043574,0.00091664,-0.29435261,-0.05547773,0.00807730,0.00010351,0
 .00027065,-0.00005390,-0.01597826,-0.00207904,0.00073823,-0.00041068,0
 .00108047,0.00014569,-0.00016602,0.00031952,-0.00001359,0.00016165,0.0
 0012485,0.00004423,-0.00000224,0.00014553,-0.00007873,0.00016131,-0.00
 015329,-0.00003864,0.00002798,-0.00002983,0.00004834,0.00051931,-0.000
 13871,0.00036257,0.00132776,-0.00032537,0.00069316,0.32235092,0.000065
 95,-0.00079634,-0.00051586,-0.00065738,0.00100708,-0.00020383,-0.02827
 098,-0.00710756,0.00111764,0.00068864,-0.00049607,-0.00007196,-0.05513
 771,-0.05777222,0.00199560,0.00011344,0.00006880,-0.00009005,0.0285488
 8,0.00426987,-0.00132018,0.00027945,-0.00034386,-0.00104237,-0.0001331
 5,0.00023280,0.00007237,0.00009211,0.00030225,0.00004251,0.00059792,-0
 .00033226,0.00053454,0.00024522,0.00024919,0.00005664,0.00005704,-0.00
 005638,0.00004137,0.00076734,0.00121188,-0.00035037,-0.00031417,-0.004
 41786,0.00346160,0.05700041,0.06804496,0.00000381,0.00048966,0.0006148
 9,-0.00044268,-0.00058707,0.00027582,0.01999953,0.00483333,-0.00173026
 ,0.00012724,-0.00080334,0.00003494,0.00810302,0.00183577,-0.04941131,0
 .00002957,0.00018498,-0.00005491,0.01279597,0.00207707,-0.00092952,0.0
 0035095,-0.00082722,-0.00103017,-0.00001306,0.00015183,-0.00011356,-0.
 00001103,-0.00008724,-0.00021574,-0.00040729,0.00018790,-0.00026460,0.
 00001042,-0.00014297,-0.00005270,-0.00006624,0.00004574,-0.00001700,0.
 00024993,-0.00086717,0.00062742,0.00094543,0.00356067,-0.00154608,-0.0
 1293642,-0.00237718,0.05235279,-0.00027439,-0.00006272,-0.00054499,0.0
 0017421,0.00000301,-0.00042824,0.00132320,0.00118795,0.00509376,-0.000
 07797,0.00052576,-0.00046369,-0.07486275,-0.01582369,-0.07527321,-0.00
 001226,-0.00031900,0.00010695,0.00503352,0.00395081,0.01720421,-0.0005
 1847,-0.00033684,0.00013936,0.00003558,-0.00005144,0.00007085,0.000039
 79,0.00011582,0.00023686,0.00014529,0.00009818,0.00022056,-0.00008723,
 0.00009386,0.00013891,0.00000175,0.00021102,-0.00004537,0.00099355,-0.
 00064092,0.00098160,0.00032682,0.00063911,0.00015770,-0.01001333,-0.00
 549723,-0.02972522,0.07734904,0.00005436,-0.00016223,-0.00004877,0.000
 38031,0.00214612,0.00085999,0.00988027,0.00298697,0.02713313,0.0000906
 6,0.00010717,-0.00008406,-0.01563195,-0.05446114,-0.04291694,0.0000152
 3,-0.00004527,-0.00001834,-0.00819019,-0.00651447,-0.02594225,0.000319
 06,-0.00005128,-0.00005969,-0.00000227,-0.00002980,-0.00003552,0.00002
 685,-0.00001194,-0.00000867,-0.00017047,-0.00000035,0.00004889,-0.0002
 7789,0.00027965,-0.00022223,-0.00028593,-0.00027099,-0.00075443,-0.000
 85084,-0.00443300,0.00357172,-0.00014237,0.00092592,-0.00084664,-0.002
 04900,-0.00202673,-0.00666909,0.01427523,0.06377946,-0.00004260,0.0000
 1376,-0.00015592,0.00006896,-0.00094683,0.00097316,-0.00656630,-0.0022
 7512,-0.01958589,0.00010428,0.00060181,-0.00018253,-0.07491090,-0.0431
 1268,-0.27029868,0.00000654,-0.00022756,0.00012715,-0.00313753,-0.0027
 1386,-0.01054793,0.00014202,-0.00030292,0.00010100,-0.00005844,0.00001
 346,0.00001878,-0.00003471,-0.00000876,0.00008216,0.00016837,0.0000358
 8,0.00004367,0.00025137,-0.00002314,0.00038887,-0.00028301,0.00088274,
 0.00049875,0.00126944,0.00332721,-0.00107092,0.00041686,-0.00026888,0.
 00038338,-0.00005200,0.00015199,0.00111963,0.08074272,0.04652827,0.296
 81827,0.00145257,-0.00016234,-0.00179521,-0.00020620,0.00039422,-0.000
 06641,0.00005057,-0.00005802,0.00011975,-0.01182400,-0.02660695,-0.020
 67704,-0.00023792,-0.00006366,-0.00001025,-0.07085479,-0.05996453,-0.0
 4811083,0.00005921,0.00004086,0.00001742,0.00151566,0.00051305,-0.0002
 7875,-0.00670853,-0.00047611,0.00111643,-0.00002497,0.00005890,0.00010
 687,0.00008478,0.00030576,0.00102018,0.00010378,0.00003125,0.00005227,
 0.00025779,0.00006828,0.00017295,-0.00003813,0.00004802,0.00003950,0.0
 0001349,0.00002685,-0.00001344,0.00003397,0.00005571,-0.00000099,0.000
 08039,-0.00000909,0.00002247,0.07994281,0.00037749,-0.00006406,-0.0003
 6843,0.00004140,0.00018860,0.00030754,-0.00006043,-0.00000474,-0.00001
 850,-0.00098224,-0.00208055,-0.00131704,0.00005132,0.00006619,0.000015
 14,-0.06051768,-0.19382143,-0.11696092,-0.00001955,-0.00002486,0.00000
 581,-0.00027701,0.00065254,0.00040492,-0.00041786,0.00147089,0.0002810
 1,-0.00004243,-0.00005484,-0.00008983,-0.00038509,0.00004251,0.0005840
 5,-0.00000978,-0.00000212,0.00003214,0.00018794,0.00003292,-0.00002248
 ,-0.00001394,0.00000864,0.00003338,-0.00000149,-0.00000004,0.00001308,
 -0.00020044,-0.00000534,-0.00002524,0.00003757,-0.00000227,0.00002440,
 0.06769151,0.20752126,0.00029553,0.00094593,0.00120126,0.00017856,0.00
 005076,0.00008311,-0.00001442,-0.00005101,-0.00001494,0.00026184,0.002
 28683,0.00051361,-0.00003375,0.00002708,-0.00000343,-0.04862558,-0.117
 20663,-0.14160682,0.00000455,-0.00000017,0.00000161,-0.00042390,-0.000
 01628,-0.00004600,0.00059429,0.00064100,0.00085413,-0.00004275,0.00004
 029,-0.00003450,-0.00005710,-0.00030346,0.00027270,-0.00002839,0.00000
 254,0.00004175,0.00004158,-0.00001699,-0.00012807,0.00000410,-0.000000
 42,-0.00001033,-0.00001900,0.00003324,-0.00000789,-0.00009797,-0.00002
 137,0.00003951,0.00000718,-0.00000437,0.00000313,0.05357397,0.12930528
 ,0.15029650,0.00153256,0.00112334,-0.00132482,0.00005822,-0.00058414,-
 0.00016931,0.00022719,0.00013624,-0.00006590,-0.01714133,0.02985234,-0
 .00932558,-0.00006275,0.00015790,-0.00004651,-0.10114652,0.10192380,-0
 .03364780,-0.00002868,-0.00009412,0.00009027,-0.00645280,-0.00170617,0
 .00081221,0.00138454,-0.00026747,-0.00038214,0.00000463,-0.00081584,0.
 00085163,-0.00001607,-0.00006353,0.00014972,-0.00003649,-0.00001588,0.
 00010423,0.00013255,0.00007233,0.00003445,-0.00000774,-0.00001022,0.00
 003686,0.00001987,-0.00007872,-0.00001868,-0.00011292,-0.00007937,-0.0
 0009272,0.00015093,0.00000228,0.00010272,0.00430734,-0.00870973,0.0039
 3133,0.11352269,-0.00041133,0.00058816,-0.00030603,-0.00001474,0.00022
 951,-0.00016168,-0.00004838,-0.00001873,-0.00000678,-0.00194685,0.0040
 7053,-0.00115342,-0.00008877,-0.00000374,0.00004156,0.10265321,-0.2366
 7988,0.06241581,0.00000453,0.00001579,0.00000529,-0.00131516,0.0014164
 6,0.00027989,0.00059157,0.00070073,-0.00013905,0.00040255,0.00005696,-
 0.00045604,0.00013948,-0.00015369,0.00002781,0.00009637,0.00001502,-0.
 00002200,-0.00007096,-0.00002848,0.00001658,0.00000144,-0.00000813,-0.
 00001081,0.00001070,0.00002657,-0.00000098,-0.00002177,0.00002416,0.00
 002887,0.00000886,-0.00000326,-0.00001637,0.01065824,-0.01987014,0.007
 57423,-0.11260499,0.25494336,0.00042684,-0.00103882,0.00068171,0.00000
 966,-0.00003109,-0.00007470,0.00000526,-0.00002386,-0.00001197,0.00057
 502,-0.00187525,-0.00031547,-0.00002559,0.00001149,0.00001171,-0.03388
 058,0.06250924,-0.06858286,0.00000868,0.00000532,-0.00000394,0.0006073
 4,-0.00017795,0.00069221,-0.00028197,0.00028497,-0.00014356,0.00006354
 ,0.00026517,0.00027853,-0.00008529,-0.00012697,-0.00003114,-0.00002638
 ,0.00000470,0.00000343,-0.00006961,0.00002442,-0.00002528,0.00000601,-
 0.00000211,-0.00000098,-0.00001822,0.00001537,0.00000027,-0.00004505,-
 0.00000447,0.00000003,0.00001861,0.00000651,0.00000264,0.01008976,-0.0
 1688227,0.00577861,0.03727441,-0.06920156,0.06943641,-0.00695453,0.000
 01414,-0.00185739,0.00016992,-0.00070751,0.00198719,-0.00013913,-0.000
 22491,-0.00005733,-0.00741684,-0.00720461,0.03289553,0.00000805,0.0000
 0002,0.00008592,-0.06589771,-0.01504286,0.06710485,0.00001137,0.000022
 37,-0.00004896,0.00122568,0.00073443,-0.00020186,0.00136627,-0.0003553
 9,-0.00045888,0.00007756,-0.00024948,-0.00012214,0.00004040,0.00027374
 ,-0.00012253,-0.00065539,-0.00003778,0.00014597,0.00005970,0.00000965,
 -0.00011372,0.00001505,0.00001844,0.00000621,-0.00007243,0.00012597,0.
 00001883,0.00002249,-0.00000924,0.00000646,-0.00002704,-0.00001060,-0.
 00002548,0.00199226,0.00326150,-0.00953916,0.00370968,0.00195076,-0.01
 464703,0.07247704,-0.00101900,0.00024372,-0.00035184,0.00011627,0.0005
 2953,0.00033651,-0.00019634,-0.00006910,-0.00000827,-0.00040663,-0.002
 20838,0.00268393,-0.00002322,-0.00001894,0.00001562,-0.01523462,-0.059
 58672,0.05384765,0.00000906,0.00000795,-0.00000795,-0.00005293,0.00016
 599,-0.00041520,0.00009922,-0.00011636,0.00023576,0.00006377,0.0003941
 3,-0.00043531,0.00007440,0.00011186,0.00041542,0.00002716,-0.00000473,
 0.00002716,0.00001802,0.00001933,-0.00002497,0.00000507,-0.00000786,0.
 00000910,-0.00003325,0.00005869,0.00002253,-0.00002441,0.00001515,-0.0
 0003159,0.00002139,0.00000669,0.00000692,0.00745142,0.00592713,-0.0233
 1000,-0.00829398,-0.00532094,0.02623211,0.01740047,0.05985277,0.000970
 68,-0.00018990,0.00101402,-0.00038716,0.00015210,-0.00004023,0.0000297
 7,0.00007677,0.00002607,-0.00097184,-0.00048832,0.00033423,-0.00000639
 ,-0.00001600,-0.00003031,0.06827234,0.05399390,-0.28580100,0.00000243,
 0.00000453,0.00001385,0.00047573,-0.00023852,0.00017048,0.00044188,0.0
 0023015,0.00045995,-0.00013737,-0.00011578,0.00010123,-0.00014524,0.00
 012764,0.00040579,0.00012757,0.00000239,-0.00003986,0.00007838,0.00001
 305,0.00000481,-0.00001720,-0.00001565,0.00000531,0.00004015,-0.000047
 68,-0.00001287,-0.00001531,0.00003808,-0.00001862,0.00001410,0.0000089
 9,0.00000785,0.00462663,0.00465774,-0.01723387,0.00164965,0.00109480,-
 0.00769930,-0.07506393,-0.05925553,0.30833584,0.00003802,0.00002258,0.
 00007279,-0.00004719,-0.00004952,0.00014510,0.00033088,-0.00079414,0.0
 0033280,-0.00002550,-0.00006761,0.00002871,0.00541667,0.00384722,0.017
 32022,0.00000380,0.00004350,-0.00000567,-0.07307228,-0.01655573,-0.077
 37244,0.00002242,0.00004616,-0.00000564,0.00000215,-0.00000786,-0.0000
 1006,-0.00000911,-0.00001540,-0.00002239,-0.00003497,-0.00000655,-0.00
 003733,-0.00000535,-0.00005121,-0.00005942,-0.00004530,-0.00002162,-0.
 00006637,0.00008032,-0.00013354,-0.00034652,-0.00006465,0.00000920,-0.
 00018844,0.00068924,-0.00090647,0.00009519,-0.00094196,0.00334283,0.00
 145822,-0.00001397,-0.00000644,-0.00000399,-0.00001698,-0.00000449,-0.
 00000205,-0.00000009,-0.00000312,-0.00000186,0.07593820,0.00000816,0.0
 0002941,-0.00004859,0.00013176,-0.00007901,0.00019348,-0.00089591,0.00
 162782,-0.00143103,-0.00000380,0.00016588,-0.00008634,-0.00884920,-0.0
 0631730,-0.02542690,-0.00000241,-0.00007113,0.00004265,-0.01622692,-0.
 05636786,-0.04588321,-0.00002423,-0.00008203,0.00006901,0.00000075,-0.
 00001366,0.00001251,-0.00001540,-0.00001303,0.00002317,0.00003806,-0.0
 0000060,-0.00000010,0.00004278,-0.00001944,0.00007682,-0.00000467,0.00
 017479,0.00021802,0.00039633,-0.00038897,0.00070953,-0.00011325,-0.000
 04593,0.00006654,-0.00017144,0.00106209,0.00073420,0.00308067,-0.00395
 308,-0.00170627,0.00000330,0.00000987,-0.00000145,0.00003481,-0.000004
 91,-0.00000061,-0.00000811,0.00000111,0.00000259,0.01498737,0.06053907
 ,-0.00001461,-0.00003756,-0.00006478,0.00017721,0.00006817,0.00039948,
 -0.00018242,0.00095865,0.00072522,0.00000044,0.00013597,-0.00005674,-0
 .00336767,-0.00282683,-0.01241779,-0.00001442,-0.00007026,0.00000880,-
 0.07691397,-0.04649532,-0.27755961,-0.00001694,-0.00007940,0.00005486,
 0.00000765,-0.00001098,0.00001140,0.00001991,-0.00001662,0.00001774,0.
 00002322,0.00000520,0.00000854,0.00004406,-0.00009040,0.00000897,-0.00
 006574,0.00024330,0.00002247,-0.00008146,-0.00068035,0.00057290,0.0000
 6953,-0.00013615,-0.00003719,0.00033603,0.00023452,0.00022912,0.001910
 96,-0.00180096,0.00056183,0.00000955,0.00001610,0.00000699,0.00003398,
 -0.00000502,0.00000546,0.00000202,0.00000669,-0.00000236,0.08338047,0.
 05366717,0.30193934,0.00002894,-0.00024650,-0.00002031,0.00041847,0.00
 023026,0.00004361,0.00050587,-0.00137416,-0.00005306,0.00006807,-0.000
 10695,0.00010974,-0.01686529,-0.00252785,0.00061064,0.00000550,0.00004
 593,-0.00003873,-0.30298802,-0.04954629,0.00518370,-0.00003376,0.00008
 354,-0.00013656,-0.00003029,0.00007615,0.00001106,0.00006963,0.0000510
 9,-0.00001520,0.00005914,-0.00003228,0.00007043,-0.00002782,0.00008825
 ,0.00000399,-0.00002549,0.00000574,0.00002665,-0.00003297,0.00003644,0
 .00004273,0.00041724,0.00086427,-0.00047592,0.00008049,0.00302645,0.00
 160898,0.00074517,-0.00001213,0.00029883,0.00002678,-0.00000615,0.0000
 0622,-0.00003360,0.00001743,-0.00000052,-0.00000002,-0.00000091,0.0000
 0962,-0.00907385,-0.00178377,0.00032566,0.33051321,0.00008333,0.000029
 72,0.00006799,-0.00009838,0.00005390,-0.00017090,0.00131467,0.00213417
 ,-0.00037945,-0.00008699,0.00003025,-0.00009021,0.02757393,0.00411839,
 0.00013638,-0.00001208,-0.00004297,0.00003402,-0.05060528,-0.05647153,
 0.00172232,0.00002860,-0.00006139,0.00012613,0.00003552,-0.00006869,-0
 .00000215,-0.00004317,-0.00006587,-0.00002242,-0.00007970,-0.00002286,
 -0.00007766,-0.00004529,0.00001227,0.00000314,0.00000689,-0.00000162,-
 0.00000531,-0.00008503,-0.00004847,0.00006012,-0.00070332,-0.00028832,
 0.00009151,0.00291275,-0.00414387,-0.00191725,-0.00083290,0.00114409,0
 .00032304,-0.00001591,0.00000958,0.00000350,0.00002749,-0.00000103,-0.
 00000147,-0.00000456,-0.00000371,-0.00000459,-0.00530781,-0.00229982,0
 .00063895,0.05199947,0.06069196,0.00000664,0.00001611,-0.00003326,0.00
 003800,0.00011203,-0.00008585,-0.00067201,0.00056660,-0.00003777,-0.00
 001215,0.00001925,-0.00004125,0.01414950,0.00231742,-0.00093991,-0.000
 00714,-0.00002364,0.00000276,0.00485966,0.00168460,-0.04772918,0.00002
 853,-0.00003489,0.00007111,0.00002129,-0.00004643,-0.00000244,-0.00001
 008,-0.00002961,-0.00000398,-0.00002777,0.00000414,-0.00003933,-0.0000
 2702,0.00001281,-0.00000143,0.00000623,-0.00002989,-0.00004632,-0.0001
 0626,-0.00006259,-0.00000101,-0.00023148,0.00002361,0.00033641,0.00134
 591,-0.00247082,-0.00022103,0.00003573,0.00075702,0.00016503,-0.000011
 74,0.00000728,-0.00000103,0.00001401,-0.00000460,0.00000094,0.00000585
 ,0.00000267,-0.00000488,-0.03060382,-0.00597250,0.00172513,-0.00759306
 ,0.00048284,0.04762346,0.00013515,-0.00010066,-0.00004214,0.00068753,0
 .00090401,-0.00057081,-0.00184248,0.00206893,0.00211564,-0.00002131,0.
 00002773,-0.00004764,0.00209327,0.01405443,-0.01120283,0.00000630,-0.0
 0000832,0.00003013,-0.05415249,-0.03547662,0.02394217,0.00002868,-0.00
 001238,0.00002865,0.00000562,-0.00002279,0.00000190,-0.00000044,-0.000
 01070,0.00000073,-0.00001430,-0.00003181,-0.00001856,-0.00015156,0.000
 33664,0.00012943,-0.00000692,0.00003449,0.00003237,-0.00005956,-0.0002
 2637,0.00025235,0.00044027,0.00030096,-0.00007735,0.00039586,-0.000532
 88,-0.00063084,0.00041615,-0.00075435,0.00005816,-0.00001290,0.0000015
 3,-0.00001315,0.00000568,-0.00000769,-0.00000282,-0.00001231,0.0000021
 7,0.00000738,0.00082947,0.00937511,-0.00568345,-0.00382741,-0.02606221
 ,0.01879120,0.05505770,-0.00017350,-0.00007292,-0.00000665,-0.00049351
 ,-0.00074638,0.00152051,0.00358588,-0.00312980,-0.00405816,0.00006166,
 -0.00006596,0.00011044,-0.00523114,-0.01954379,0.01512539,-0.00001263,
 0.00002085,-0.00006767,-0.03471432,-0.22509700,0.12288504,-0.00003615,
 0.00002289,0.00000269,-0.00000268,0.00000638,-0.00000997,0.00009867,-0
 .00000317,-0.00003863,0.00000446,0.00005934,0.00000107,0.00025285,-0.0
 0056586,-0.00019783,-0.00003935,0.00000656,-0.00007717,0.00010718,0.00
 018669,0.00008651,0.00007917,0.00033197,-0.00024589,0.00026607,0.00101
 029,0.00020532,-0.00068451,0.00058973,-0.00030712,0.00000926,0.0000002
 7,0.00002147,-0.00000638,0.00000569,0.00000713,0.00004354,0.00000268,-
 0.00003078,0.00163267,0.00604672,-0.00372487,-0.00088803,-0.00470417,0
 .00266858,0.03614076,0.24563900,-0.00002978,0.00000775,0.00001326,0.00
 009404,-0.00068567,0.00072712,0.00128506,-0.00153732,-0.00089775,0.000
 01097,-0.00002416,0.00002776,-0.00302438,-0.01241839,0.00807668,0.0000
 0506,0.00002248,-0.00000242,0.02364042,0.12391306,-0.13226257,-0.00000
 158,0.00003151,-0.00001376,-0.00000786,0.00000451,0.00000138,-0.000000
 53,0.00001244,-0.00000243,0.00001984,0.00001157,-0.00000592,0.00010216
 ,-0.00023565,-0.00009024,-0.00006289,0.00011705,0.00002864,0.00023073,
 -0.00025653,0.00039946,-0.00000141,-0.00002998,-0.00019655,-0.00041851
 ,0.00072162,0.00031136,-0.00059934,0.00049743,0.00054657,-0.00000309,-
 0.00000316,-0.00000602,-0.00001200,-0.00000049,-0.00000274,-0.00000042
 ,-0.00000141,0.00000388,0.00589252,0.02474131,-0.01615976,-0.00001850,
 -0.00101854,-0.00073617,-0.02710051,-0.13386943,0.14024023\\0.00000068
 ,-0.00000004,-0.00000099,0.00000027,-0.00000077,-0.00000124,0.00000002
 ,-0.00000115,-0.00000032,0.00000035,0.00000153,-0.00000081,-0.00000057
 ,-0.00000051,0.00000115,0.00000012,0.00000220,-0.00000053,-0.00000086,
 -0.00000135,0.00000207,0.00000006,0.00000154,0.00000006,0.00000064,0.0
 0000191,-0.00000135,0.00000078,0.,-0.00000191,0.00000011,-0.00000046,-
 0.00000045,0.00000071,-0.00000132,-0.00000192,0.00000064,0.00000010,-0
 .00000145,-0.00000009,-0.00000208,0.00000009,0.00000007,-0.00000186,-0
 .00000025,-0.00000046,-0.00000016,0.00000131,-0.00000034,0.00000022,0.
 00000087,0.00000002,0.00000160,0.00000020,0.00000055,0.00000200,-0.000
 00131,0.00000022,0.00000312,-0.00000026,-0.00000100,-0.00000210,0.0000
 0229,-0.00000079,-0.00000170,0.00000188,-0.00000115,-0.00000072,0.0000
 0289\\\@


  THE LARGE PRINT GIVETH,
  AND THE SMALL PRINT TAKETH AWAY.

                     -- TOM WAITS
 Job cpu time:       0 days  6 hours  7 minutes 26.1 seconds.
 Elapsed time:       0 days  3 hours  4 minutes 29.3 seconds.
 File lengths (MBytes):  RWF=   1488 Int=      0 D2E=      0 Chk=     32 Scr=     32
 Normal termination of Gaussian 16 at Mon Sep 30 05:39:08 2019.
