 Entering Gaussian System, Link 0=g16
 Input=verytight/species/CCCCCCC/conformers/CCCCCCC_348.com
 Output=verytight/species/CCCCCCC/conformers/CCCCCCC_348.log
 Initial command:
 /shared/centos7/gaussian/g16/l1.exe "/scratch/harms.n/gauss_scrdir/Gau-2895.inp" -scrdir="/scratch/harms.n/gauss_scrdir/"
 Entering Link 1 = /shared/centos7/gaussian/g16/l1.exe PID=      2896.
  
 Copyright (c) 1988,1990,1992,1993,1995,1998,2003,2009,2016,
            Gaussian, Inc.  All Rights Reserved.
  
 This is part of the Gaussian(R) 16 program.  It is based on
 the Gaussian(R) 09 system (copyright 2009, Gaussian, Inc.),
 the Gaussian(R) 03 system (copyright 2003, Gaussian, Inc.),
 the Gaussian(R) 98 system (copyright 1998, Gaussian, Inc.),
 the Gaussian(R) 94 system (copyright 1995, Gaussian, Inc.),
 the Gaussian 92(TM) system (copyright 1992, Gaussian, Inc.),
 the Gaussian 90(TM) system (copyright 1990, Gaussian, Inc.),
 the Gaussian 88(TM) system (copyright 1988, Gaussian, Inc.),
 the Gaussian 86(TM) system (copyright 1986, Carnegie Mellon
 University), and the Gaussian 82(TM) system (copyright 1983,
 Carnegie Mellon University). Gaussian is a federally registered
 trademark of Gaussian, Inc.
  
 This software contains proprietary and confidential information,
 including trade secrets, belonging to Gaussian, Inc.
  
 This software is provided under written license and may be
 used, copied, transmitted, or stored only in accord with that
 written license.
  
 The following legend is applicable only to US Government
 contracts under FAR:
  
                    RESTRICTED RIGHTS LEGEND
  
 Use, reproduction and disclosure by the US Government is
 subject to restrictions as set forth in subparagraphs (a)
 and (c) of the Commercial Computer Software - Restricted
 Rights clause in FAR 52.227-19.
  
 Gaussian, Inc.
 340 Quinnipiac St., Bldg. 40, Wallingford CT 06492
  
  
 ---------------------------------------------------------------
 Warning -- This program may not be used in any manner that
 competes with the business of Gaussian, Inc. or will provide
 assistance to any competitor of Gaussian, Inc.  The licensee
 of this program is prohibited from giving any competitor of
 Gaussian, Inc. access to this program.  By using this program,
 the user acknowledges that Gaussian, Inc. is engaged in the
 business of creating and licensing software in the field of
 computational chemistry and represents and warrants to the
 licensee that it is not a competitor of Gaussian, Inc. and that
 it will not use this program in any manner prohibited above.
 ---------------------------------------------------------------
  

 Cite this work as:
 Gaussian 16, Revision A.03,
 M. J. Frisch, G. W. Trucks, H. B. Schlegel, G. E. Scuseria, 
 M. A. Robb, J. R. Cheeseman, G. Scalmani, V. Barone, 
 G. A. Petersson, H. Nakatsuji, X. Li, M. Caricato, A. V. Marenich, 
 J. Bloino, B. G. Janesko, R. Gomperts, B. Mennucci, H. P. Hratchian, 
 J. V. Ortiz, A. F. Izmaylov, J. L. Sonnenberg, D. Williams-Young, 
 F. Ding, F. Lipparini, F. Egidi, J. Goings, B. Peng, A. Petrone, 
 T. Henderson, D. Ranasinghe, V. G. Zakrzewski, J. Gao, N. Rega, 
 G. Zheng, W. Liang, M. Hada, M. Ehara, K. Toyota, R. Fukuda, 
 J. Hasegawa, M. Ishida, T. Nakajima, Y. Honda, O. Kitao, H. Nakai, 
 T. Vreven, K. Throssell, J. A. Montgomery, Jr., J. E. Peralta, 
 F. Ogliaro, M. J. Bearpark, J. J. Heyd, E. N. Brothers, K. N. Kudin, 
 V. N. Staroverov, T. A. Keith, R. Kobayashi, J. Normand, 
 K. Raghavachari, A. P. Rendell, J. C. Burant, S. S. Iyengar, 
 J. Tomasi, M. Cossi, J. M. Millam, M. Klene, C. Adamo, R. Cammi, 
 J. W. Ochterski, R. L. Martin, K. Morokuma, O. Farkas, 
 J. B. Foresman, and D. J. Fox, Gaussian, Inc., Wallingford CT, 2016.
 
 ******************************************
 Gaussian 16:  EM64L-G16RevA.03 25-Dec-2016
                29-Sep-2019 
 ******************************************
 %nprocshared=20
 Will use up to   20 processors via shared memory.
 %mem=5GB
 ----------------------------------------------------------------------
 #p m062x/cc-pVTZ opt=(calcfc,maxcycles=900,Tight) freq IOP(7/33=1,2/16
 =3) scf=(maxcycle=900)
 ----------------------------------------------------------------------
 1/6=900,7=10,10=4,18=20,19=15,26=3,38=1/1,3;
 2/9=110,12=2,16=3,17=6,18=5,40=1/2;
 3/5=16,6=1,11=2,25=1,30=1,71=2,74=-55,140=1/1,2,3;
 4//1;
 5/5=2,7=900,38=5/2;
 8/6=4,10=90,11=11/1;
 11/6=1,8=1,9=11,15=111,16=1/1,2,10;
 10/6=1,13=1/2;
 6/7=2,8=2,9=2,10=2,28=1/1;
 7/10=1,18=20,25=1,33=1/1,2,3,16;
 1/6=900,7=10,10=4,18=20,19=15,26=3/3(2);
 2/9=110,16=3/2;
 99//99;
 2/9=110,16=3/2;
 3/5=16,6=1,11=2,25=1,30=1,71=1,74=-55/1,2,3;
 4/5=5,16=3,69=1/1;
 5/5=2,7=900,38=5/2;
 7/33=1/1,2,3,16;
 1/6=900,7=10,18=20,19=15,26=3/3(-5);
 2/9=110,16=3/2;
 6/7=2,8=2,9=2,10=2,19=2,28=1/1;
 99/9=1/99;
 Leave Link    1 at Sun Sep 29 11:29:52 2019, MaxMem=   671088640 cpu:               5.4 elap:               2.7
 (Enter /shared/centos7/gaussian/g16/l101.exe)
 ------------------------------
 Gaussian input prepared by ASE
 ------------------------------
 Symbolic Z-matrix:
 Charge =  0 Multiplicity = 1
 C                     1.27293  -1.36116   0.42914 
 C                     0.03786  -0.9295    1.14344 
 C                     0.28421  -0.0436    2.33905 
 C                     1.97352  -0.28926  -0.33586 
 C                    -0.166     1.38983   2.18318 
 C                     1.22954   0.21051  -1.50475 
 C                     0.43187   2.10363   0.99872 
 H                     2.97276  -0.68413  -0.6746 
 H                     2.19547   0.56938   0.3418 
 H                     1.01171  -2.18819  -0.26466 
 H                     1.98131  -1.79775   1.16279 
 H                    -0.49841  -1.83167   1.47689 
 H                    -0.64495  -0.42391   0.42831 
 H                     1.35681  -0.05205   2.59709 
 H                    -0.23919  -0.46934   3.21993 
 H                    -1.28392   1.42126   2.10079 
 H                     0.08925   1.93884   3.10552 
 H                     0.3078    0.73581  -1.19117 
 H                     1.85437   0.9458   -2.09337 
 H                     0.94017  -0.6112   -2.19363 
 H                     0.0113    1.73278   0.06322 
 H                     1.54416   1.94066   0.95281 
 H                     0.23841   3.21301   1.05987 
 
 ITRead=  0  0  0  0  0  0  0  0  0  0  0  0  0  0  0  0  0  0  0  0
 ITRead=  0  0  0
 MicOpt= -1 -1 -1 -1 -1 -1 -1 -1 -1 -1 -1 -1 -1 -1 -1 -1 -1 -1 -1 -1
 MicOpt= -1 -1 -1
 NAtoms=     23 NQM=       23 NQMF=       0 NMMI=      0 NMMIF=      0
                NMic=       0 NMicF=      0.
                    Isotopes and Nuclear Properties:
 (Nuclear quadrupole moments (NQMom) in fm**2, nuclear magnetic moments (NMagM)
  in nuclear magnetons)

  Atom         1           2           3           4           5           6           7           8           9          10
 IAtWgt=          12          12          12          12          12          12          12           1           1           1
 AtmWgt=  12.0000000  12.0000000  12.0000000  12.0000000  12.0000000  12.0000000  12.0000000   1.0078250   1.0078250   1.0078250
 NucSpn=           0           0           0           0           0           0           0           1           1           1
 AtZEff=  -0.0000000  -0.0000000  -0.0000000  -0.0000000  -0.0000000  -0.0000000  -0.0000000  -0.0000000  -0.0000000  -0.0000000
 NQMom=    0.0000000   0.0000000   0.0000000   0.0000000   0.0000000   0.0000000   0.0000000   0.0000000   0.0000000   0.0000000
 NMagM=    0.0000000   0.0000000   0.0000000   0.0000000   0.0000000   0.0000000   0.0000000   2.7928460   2.7928460   2.7928460
 AtZNuc=   6.0000000   6.0000000   6.0000000   6.0000000   6.0000000   6.0000000   6.0000000   1.0000000   1.0000000   1.0000000

  Atom        11          12          13          14          15          16          17          18          19          20
 IAtWgt=           1           1           1           1           1           1           1           1           1           1
 AtmWgt=   1.0078250   1.0078250   1.0078250   1.0078250   1.0078250   1.0078250   1.0078250   1.0078250   1.0078250   1.0078250
 NucSpn=           1           1           1           1           1           1           1           1           1           1
 AtZEff=  -0.0000000  -0.0000000  -0.0000000  -0.0000000  -0.0000000  -0.0000000  -0.0000000  -0.0000000  -0.0000000  -0.0000000
 NQMom=    0.0000000   0.0000000   0.0000000   0.0000000   0.0000000   0.0000000   0.0000000   0.0000000   0.0000000   0.0000000
 NMagM=    2.7928460   2.7928460   2.7928460   2.7928460   2.7928460   2.7928460   2.7928460   2.7928460   2.7928460   2.7928460
 AtZNuc=   1.0000000   1.0000000   1.0000000   1.0000000   1.0000000   1.0000000   1.0000000   1.0000000   1.0000000   1.0000000

  Atom        21          22          23
 IAtWgt=           1           1           1
 AtmWgt=   1.0078250   1.0078250   1.0078250
 NucSpn=           1           1           1
 AtZEff=  -0.0000000  -0.0000000  -0.0000000
 NQMom=    0.0000000   0.0000000   0.0000000
 NMagM=    2.7928460   2.7928460   2.7928460
 AtZNuc=   1.0000000   1.0000000   1.0000000
 Leave Link  101 at Sun Sep 29 11:29:53 2019, MaxMem=   671088640 cpu:               2.4 elap:               1.2
 (Enter /shared/centos7/gaussian/g16/l103.exe)

 GradGradGradGradGradGradGradGradGradGradGradGradGradGradGradGradGradGrad
 Berny optimization.
 Initialization pass.
                           ----------------------------
                           !    Initial Parameters    !
                           ! (Angstroms and Degrees)  !
 --------------------------                            --------------------------
 ! Name  Definition              Value          Derivative Info.                !
 --------------------------------------------------------------------------------
 ! R1    R(1,2)                  1.4906         calculate D2E/DX2 analytically  !
 ! R2    R(1,4)                  1.4917         calculate D2E/DX2 analytically  !
 ! R3    R(1,10)                 1.1107         calculate D2E/DX2 analytically  !
 ! R4    R(1,11)                 1.1093         calculate D2E/DX2 analytically  !
 ! R5    R(2,3)                  1.5083         calculate D2E/DX2 analytically  !
 ! R6    R(2,12)                 1.1012         calculate D2E/DX2 analytically  !
 ! R7    R(2,13)                 1.1105         calculate D2E/DX2 analytically  !
 ! R8    R(3,5)                  1.5105         calculate D2E/DX2 analytically  !
 ! R9    R(3,14)                 1.1032         calculate D2E/DX2 analytically  !
 ! R10   R(3,15)                 1.1096         calculate D2E/DX2 analytically  !
 ! R11   R(4,6)                  1.473          calculate D2E/DX2 analytically  !
 ! R12   R(4,8)                  1.1266         calculate D2E/DX2 analytically  !
 ! R13   R(4,9)                  1.1161         calculate D2E/DX2 analytically  !
 ! R14   R(5,7)                  1.5066         calculate D2E/DX2 analytically  !
 ! R15   R(5,16)                 1.1214         calculate D2E/DX2 analytically  !
 ! R16   R(5,17)                 1.1033         calculate D2E/DX2 analytically  !
 ! R17   R(6,18)                 1.1063         calculate D2E/DX2 analytically  !
 ! R18   R(6,19)                 1.1303         calculate D2E/DX2 analytically  !
 ! R19   R(6,20)                 1.1106         calculate D2E/DX2 analytically  !
 ! R20   R(7,21)                 1.0907         calculate D2E/DX2 analytically  !
 ! R21   R(7,22)                 1.1251         calculate D2E/DX2 analytically  !
 ! R22   R(7,23)                 1.1278         calculate D2E/DX2 analytically  !
 ! A1    A(2,1,4)              115.2658         calculate D2E/DX2 analytically  !
 ! A2    A(2,1,10)             108.6689         calculate D2E/DX2 analytically  !
 ! A3    A(2,1,11)             109.0347         calculate D2E/DX2 analytically  !
 ! A4    A(4,1,10)             108.9766         calculate D2E/DX2 analytically  !
 ! A5    A(4,1,11)             108.7882         calculate D2E/DX2 analytically  !
 ! A6    A(10,1,11)            105.6788         calculate D2E/DX2 analytically  !
 ! A7    A(1,2,3)              114.4944         calculate D2E/DX2 analytically  !
 ! A8    A(1,2,12)             108.1405         calculate D2E/DX2 analytically  !
 ! A9    A(1,2,13)             109.4328         calculate D2E/DX2 analytically  !
 ! A10   A(3,2,12)             108.7052         calculate D2E/DX2 analytically  !
 ! A11   A(3,2,13)             110.0892         calculate D2E/DX2 analytically  !
 ! A12   A(12,2,13)            105.5778         calculate D2E/DX2 analytically  !
 ! A13   A(2,3,5)              115.2706         calculate D2E/DX2 analytically  !
 ! A14   A(2,3,14)             109.8588         calculate D2E/DX2 analytically  !
 ! A15   A(2,3,15)             109.0806         calculate D2E/DX2 analytically  !
 ! A16   A(5,3,14)             108.7335         calculate D2E/DX2 analytically  !
 ! A17   A(5,3,15)             107.7845         calculate D2E/DX2 analytically  !
 ! A18   A(14,3,15)            105.6636         calculate D2E/DX2 analytically  !
 ! A19   A(1,4,6)              114.4297         calculate D2E/DX2 analytically  !
 ! A20   A(1,4,8)              108.5979         calculate D2E/DX2 analytically  !
 ! A21   A(1,4,9)              109.5622         calculate D2E/DX2 analytically  !
 ! A22   A(6,4,8)              109.1673         calculate D2E/DX2 analytically  !
 ! A23   A(6,4,9)              108.7377         calculate D2E/DX2 analytically  !
 ! A24   A(8,4,9)              106.0111         calculate D2E/DX2 analytically  !
 ! A25   A(3,5,7)              114.3584         calculate D2E/DX2 analytically  !
 ! A26   A(3,5,16)             109.3481         calculate D2E/DX2 analytically  !
 ! A27   A(3,5,17)             108.4813         calculate D2E/DX2 analytically  !
 ! A28   A(7,5,16)             108.9384         calculate D2E/DX2 analytically  !
 ! A29   A(7,5,17)             109.2481         calculate D2E/DX2 analytically  !
 ! A30   A(16,5,17)            106.1476         calculate D2E/DX2 analytically  !
 ! A31   A(4,6,18)             110.9163         calculate D2E/DX2 analytically  !
 ! A32   A(4,6,19)             110.7795         calculate D2E/DX2 analytically  !
 ! A33   A(4,6,20)             111.8877         calculate D2E/DX2 analytically  !
 ! A34   A(18,6,19)            107.4162         calculate D2E/DX2 analytically  !
 ! A35   A(18,6,20)            108.0617         calculate D2E/DX2 analytically  !
 ! A36   A(19,6,20)            107.5973         calculate D2E/DX2 analytically  !
 ! A37   A(5,7,21)             111.1126         calculate D2E/DX2 analytically  !
 ! A38   A(5,7,22)             110.8403         calculate D2E/DX2 analytically  !
 ! A39   A(5,7,23)             110.8149         calculate D2E/DX2 analytically  !
 ! A40   A(21,7,22)            107.2751         calculate D2E/DX2 analytically  !
 ! A41   A(21,7,23)            108.3509         calculate D2E/DX2 analytically  !
 ! A42   A(22,7,23)            108.3176         calculate D2E/DX2 analytically  !
 ! D1    D(4,1,2,3)            -70.9058         calculate D2E/DX2 analytically  !
 ! D2    D(4,1,2,12)           167.7538         calculate D2E/DX2 analytically  !
 ! D3    D(4,1,2,13)            53.2186         calculate D2E/DX2 analytically  !
 ! D4    D(10,1,2,3)           166.4773         calculate D2E/DX2 analytically  !
 ! D5    D(10,1,2,12)           45.137          calculate D2E/DX2 analytically  !
 ! D6    D(10,1,2,13)          -69.3983         calculate D2E/DX2 analytically  !
 ! D7    D(11,1,2,3)            51.7486         calculate D2E/DX2 analytically  !
 ! D8    D(11,1,2,12)          -69.5918         calculate D2E/DX2 analytically  !
 ! D9    D(11,1,2,13)          175.873          calculate D2E/DX2 analytically  !
 ! D10   D(2,1,4,6)            -67.6567         calculate D2E/DX2 analytically  !
 ! D11   D(2,1,4,8)            170.1122         calculate D2E/DX2 analytically  !
 ! D12   D(2,1,4,9)             54.7449         calculate D2E/DX2 analytically  !
 ! D13   D(10,1,4,6)            54.7958         calculate D2E/DX2 analytically  !
 ! D14   D(10,1,4,8)           -67.4353         calculate D2E/DX2 analytically  !
 ! D15   D(10,1,4,9)           177.1974         calculate D2E/DX2 analytically  !
 ! D16   D(11,1,4,6)           169.5574         calculate D2E/DX2 analytically  !
 ! D17   D(11,1,4,8)            47.3263         calculate D2E/DX2 analytically  !
 ! D18   D(11,1,4,9)           -68.0409         calculate D2E/DX2 analytically  !
 ! D19   D(1,2,3,5)            111.0304         calculate D2E/DX2 analytically  !
 ! D20   D(1,2,3,14)           -12.2073         calculate D2E/DX2 analytically  !
 ! D21   D(1,2,3,15)          -127.5912         calculate D2E/DX2 analytically  !
 ! D22   D(12,2,3,5)          -127.94           calculate D2E/DX2 analytically  !
 ! D23   D(12,2,3,14)          108.8223         calculate D2E/DX2 analytically  !
 ! D24   D(12,2,3,15)           -6.5616         calculate D2E/DX2 analytically  !
 ! D25   D(13,2,3,5)           -12.7437         calculate D2E/DX2 analytically  !
 ! D26   D(13,2,3,14)         -135.9814         calculate D2E/DX2 analytically  !
 ! D27   D(13,2,3,15)          108.6346         calculate D2E/DX2 analytically  !
 ! D28   D(2,3,5,7)            -56.3765         calculate D2E/DX2 analytically  !
 ! D29   D(2,3,5,16)            66.0737         calculate D2E/DX2 analytically  !
 ! D30   D(2,3,5,17)          -178.5762         calculate D2E/DX2 analytically  !
 ! D31   D(14,3,5,7)            67.4557         calculate D2E/DX2 analytically  !
 ! D32   D(14,3,5,16)         -170.0941         calculate D2E/DX2 analytically  !
 ! D33   D(14,3,5,17)          -54.744          calculate D2E/DX2 analytically  !
 ! D34   D(15,3,5,7)          -178.4535         calculate D2E/DX2 analytically  !
 ! D35   D(15,3,5,16)          -56.0033         calculate D2E/DX2 analytically  !
 ! D36   D(15,3,5,17)           59.3468         calculate D2E/DX2 analytically  !
 ! D37   D(1,4,6,18)            66.2051         calculate D2E/DX2 analytically  !
 ! D38   D(1,4,6,19)          -174.6025         calculate D2E/DX2 analytically  !
 ! D39   D(1,4,6,20)           -54.5414         calculate D2E/DX2 analytically  !
 ! D40   D(8,4,6,18)          -171.8746         calculate D2E/DX2 analytically  !
 ! D41   D(8,4,6,19)           -52.6822         calculate D2E/DX2 analytically  !
 ! D42   D(8,4,6,20)            67.3789         calculate D2E/DX2 analytically  !
 ! D43   D(9,4,6,18)           -56.6438         calculate D2E/DX2 analytically  !
 ! D44   D(9,4,6,19)            62.5486         calculate D2E/DX2 analytically  !
 ! D45   D(9,4,6,20)          -177.3903         calculate D2E/DX2 analytically  !
 ! D46   D(3,5,7,21)            71.632          calculate D2E/DX2 analytically  !
 ! D47   D(3,5,7,22)           -47.5508         calculate D2E/DX2 analytically  !
 ! D48   D(3,5,7,23)          -167.8477         calculate D2E/DX2 analytically  !
 ! D49   D(16,5,7,21)          -51.041          calculate D2E/DX2 analytically  !
 ! D50   D(16,5,7,22)         -170.2237         calculate D2E/DX2 analytically  !
 ! D51   D(16,5,7,23)           69.4794         calculate D2E/DX2 analytically  !
 ! D52   D(17,5,7,21)         -166.5879         calculate D2E/DX2 analytically  !
 ! D53   D(17,5,7,22)           74.2294         calculate D2E/DX2 analytically  !
 ! D54   D(17,5,7,23)          -46.0675         calculate D2E/DX2 analytically  !
 --------------------------------------------------------------------------------
 Trust Radius=3.00D-01 FncErr=1.00D-07 GrdErr=1.00D-06 EigMax=2.50D+02 EigMin=1.00D-04
 Number of steps in this run=    138 maximum allowed number of steps=    138.
 GradGradGradGradGradGradGradGradGradGradGradGradGradGradGradGradGradGrad

 Leave Link  103 at Sun Sep 29 11:29:54 2019, MaxMem=   671088640 cpu:               1.4 elap:               0.7
 (Enter /shared/centos7/gaussian/g16/l202.exe)
                          Input orientation:                          
 ---------------------------------------------------------------------
 Center     Atomic      Atomic             Coordinates (Angstroms)
 Number     Number       Type             X           Y           Z
 ---------------------------------------------------------------------
      1          6           0        1.272932   -1.361158    0.429143
      2          6           0        0.037856   -0.929499    1.143441
      3          6           0        0.284209   -0.043602    2.339049
      4          6           0        1.973522   -0.289260   -0.335862
      5          6           0       -0.166000    1.389828    2.183185
      6          6           0        1.229538    0.210511   -1.504752
      7          6           0        0.431872    2.103634    0.998720
      8          1           0        2.972760   -0.684127   -0.674596
      9          1           0        2.195470    0.569381    0.341802
     10          1           0        1.011714   -2.188189   -0.264659
     11          1           0        1.981305   -1.797750    1.162791
     12          1           0       -0.498413   -1.831671    1.476886
     13          1           0       -0.644952   -0.423915    0.428308
     14          1           0        1.356808   -0.052045    2.597087
     15          1           0       -0.239187   -0.469340    3.219928
     16          1           0       -1.283919    1.421264    2.100788
     17          1           0        0.089251    1.938837    3.105517
     18          1           0        0.307798    0.735809   -1.191168
     19          1           0        1.854368    0.945803   -2.093369
     20          1           0        0.940169   -0.611196   -2.193632
     21          1           0        0.011300    1.732777    0.063219
     22          1           0        1.544163    1.940664    0.952807
     23          1           0        0.238414    3.213012    1.059868
 ---------------------------------------------------------------------
                    Distance matrix (angstroms):
                    1          2          3          4          5
     1  C    0.000000
     2  C    1.490625   0.000000
     3  C    2.522155   1.508304   0.000000
     4  C    1.491652   2.518938   3.173212   0.000000
     5  C    3.565826   2.549883   1.510531   3.707086   0.000000
     6  C    2.492384   3.119720   3.966488   1.472952   4.115725
     7  C    3.610621   3.062040   2.535529   3.143841   1.506627
     8  H    2.136826   3.461087   4.089087   1.126559   4.724406
     9  H    2.141422   2.746737   2.831547   1.116134   3.104893
    10  H    1.110665   2.124957   3.450769   2.129807   4.492344
    11  H    1.109344   2.128669   2.709383   2.126397   3.976528
    12  H    2.111116   1.101220   2.133779   3.431553   3.314727
    13  H    2.134644   1.110520   2.158450   2.731025   2.568784
    14  H    2.533929   2.150034   1.103233   3.006460   2.137582
    15  H    3.297017   2.144831   1.109570   4.191915   2.129953
    16  H    4.132040   2.861763   2.159079   4.412945   1.121392
    17  H    4.410674   3.475591   2.134372   4.511983   1.103295
    18  H    2.820313   2.880367   3.615310   2.134702   3.469651
    19  H    3.467450   4.158535   4.805273   2.151374   4.750574
    20  H    2.748112   3.471532   4.614936   2.150062   4.938039
    21  H    3.361257   2.873203   2.899897   2.845736   2.154833
    22  H    3.354075   3.247020   2.728821   2.611049   2.177592
    23  H    4.731921   4.148205   3.499133   4.150250   2.179309
                    6          7          8          9         10
     6  C    0.000000
     7  C    3.238450   0.000000
     8  H    2.127994   4.126465   0.000000
     9  H    2.114610   2.428117   1.791237   0.000000
    10  H    2.709067   4.511329   2.505185   3.061580   0.000000
    11  H    3.422580   4.201008   2.366248   2.514597   1.769227
    12  H    4.005807   4.071941   4.242025   3.782919   2.332502
    13  H    2.766394   2.805962   3.791035   3.010335   2.517421
    14  H    4.112204   2.838527   3.703342   2.485123   3.587728
    15  H    4.994192   3.464720   5.052727   3.910256   4.081855
    16  H    4.558872   2.150377   5.500431   3.990724   4.888090
    17  H    5.053904   2.140827   5.429900   3.734928   5.407529
    18  H    1.106291   2.584946   3.063509   2.437417   3.147012
    19  H    1.130281   3.595147   2.433186   2.487590   3.725072
    20  H    1.110627   4.221348   2.538545   3.065610   2.492582
    21  H    2.501985   1.090678   3.893076   2.490320   4.059841
    22  H    3.021922   1.125104   3.402772   1.636442   4.337413
    23  H    4.071193   1.127778   5.066824   3.366670   5.614743
                   11         12         13         14         15
    11  H    0.000000
    12  H    2.499762   0.000000
    13  H    3.053541   1.761467   0.000000
    14  H    2.344076   2.804241   2.974715   0.000000
    15  H    3.305612   2.227407   2.821320   1.763310   0.000000
    16  H    4.680126   3.404095   2.571022   3.064374   2.432760
    17  H    4.616940   4.149038   3.645421   2.414293   2.433162
    18  H    3.841962   3.789517   2.208030   4.008992   4.605360
    19  H    4.259786   5.098692   3.805468   4.821167   5.883598
    20  H    3.709103   4.126957   3.069569   4.841201   5.542349
    21  H    4.189821   3.868275   2.283698   3.378827   3.857056
    22  H    3.769738   4.321723   3.264744   2.590299   3.758763
    23  H    5.306223   5.115237   3.795581   3.778154   4.295775
                   16         17         18         19         20
    16  H    0.000000
    17  H    1.778470   0.000000
    18  H    3.720267   4.467274   0.000000
    19  H    5.259835   5.579442   1.802760   0.000000
    20  H    5.245904   5.942029   1.794227   1.808330   0.000000
    21  H    2.434404   3.050265   1.629522   2.943993   3.383841
    22  H    3.096076   2.598256   2.752617   3.219497   4.095958
    23  H    2.571259   2.414633   3.347911   4.206477   5.069743
                   21         22         23
    21  H    0.000000
    22  H    1.784447   0.000000
    23  H    1.798885   1.826284   0.000000
 Stoichiometry    C7H16
 Framework group  C1[X(C7H16)]
 Deg. of freedom    63
 Full point group                 C1      NOp   1
 Largest Abelian subgroup         C1      NOp   1
 Largest concise Abelian subgroup C1      NOp   1
                         Standard orientation:                         
 ---------------------------------------------------------------------
 Center     Atomic      Atomic             Coordinates (Angstroms)
 Number     Number       Type             X           Y           Z
 ---------------------------------------------------------------------
      1          6           0        1.139280   -1.205105    0.175279
      2          6           0       -0.135716   -1.238266   -0.596245
      3          6           0       -1.371684   -0.973410    0.226686
      4          6           0        1.568765    0.146530    0.637502
      5          6           0       -2.067498    0.336713   -0.058135
      6          6           0        1.965073    1.063156   -0.445237
      7          6           0       -1.190413    1.552174    0.094511
      8          1           0        2.430466    0.024595    1.352861
      9          1           0        0.745840    0.619671    1.224604
     10          1           0        1.944642   -1.645831   -0.449805
     11          1           0        1.045850   -1.871356    1.057336
     12          1           0       -0.228310   -2.231381   -1.062973
     13          1           0       -0.076631   -0.517153   -1.438718
     14          1           0       -1.123158   -1.016448    1.300700
     15          1           0       -2.103248   -1.789905    0.055529
     16          1           0       -2.484616    0.317277   -1.098883
     17          1           0       -2.934480    0.426544    0.618277
     18          1           0        1.098434    1.318234   -1.083792
     19          1           0        2.370861    2.030149   -0.023581
     20          1           0        2.752380    0.622802   -1.093101
     21          1           0       -0.460690    1.614082   -0.713727
     22          1           0       -0.615883    1.512363    1.061046
     23          1           0       -1.808293    2.495608    0.088060
 ---------------------------------------------------------------------
 Rotational constants (GHZ):           3.2996148           1.9364086           1.4104315
 Leave Link  202 at Sun Sep 29 11:29:55 2019, MaxMem=   671088640 cpu:               3.1 elap:               1.6
 (Enter /shared/centos7/gaussian/g16/l301.exe)
 Standard basis: CC-pVTZ (5D, 7F)
 Ernie: Thresh=  0.10000D-02 Tol=  0.10000D-05 Strict=F.
 Ernie:  21 primitive shells out of 310 were deleted.
 There are   485 symmetry adapted cartesian basis functions of A   symmetry.
 There are   434 symmetry adapted basis functions of A   symmetry.
   434 basis functions,   636 primitive gaussians,   485 cartesian basis functions
    29 alpha electrons       29 beta electrons
       nuclear repulsion energy       339.1930338632 Hartrees.
 IExCor= 4336 DFT=T Ex+Corr=M062X ExCW=0 ScaHFX=  0.540000
 ScaDFX=  1.000000  1.000000  1.000000  1.000000 ScalE2=  1.000000  1.000000
 IRadAn=      5 IRanWt=     -1 IRanGd=            0 ICorTp=0 IEmpDi=  4
 NAtoms=   23 NActive=   23 NUniq=   23 SFac= 1.00D+00 NAtFMM=   60 NAOKFM=F Big=F
 Integral buffers will be    131072 words long.
 Raffenetti 2 integral format.
 Two-electron integral symmetry is turned on.
 Leave Link  301 at Sun Sep 29 11:29:56 2019, MaxMem=   671088640 cpu:               1.4 elap:               0.7
 (Enter /shared/centos7/gaussian/g16/l302.exe)
 NPDir=0 NMtPBC=     1 NCelOv=     1 NCel=       1 NClECP=     1 NCelD=      1
         NCelK=      1 NCelE2=     1 NClLst=     1 CellRange=     0.0.
 One-electron integrals computed using PRISM.
 One-electron integral symmetry used in STVInt
 NBasis=   434 RedAO= T EigKep=  2.66D-04  NBF=   434
 NBsUse=   434 1.00D-06 EigRej= -1.00D+00 NBFU=   434
 Precomputing XC quadrature grid using
 IXCGrd= 4 IRadAn=           5 IRanWt=          -1 IRanGd=           0 AccXCQ= 0.00D+00.
 Generated NRdTot=       0 NPtTot=           0 NUsed=           0 NTot=          32
 NSgBfM=   485   485   485   485   485 MxSgAt=    23 MxSgA2=    23.
 Leave Link  302 at Sun Sep 29 11:31:04 2019, MaxMem=   671088640 cpu:             136.9 elap:              68.5
 (Enter /shared/centos7/gaussian/g16/l303.exe)
 DipDrv:  MaxL=1.
 Leave Link  303 at Sun Sep 29 11:31:09 2019, MaxMem=   671088640 cpu:               9.3 elap:               4.7
 (Enter /shared/centos7/gaussian/g16/l401.exe)
 ExpMin= 1.03D-01 ExpMax= 8.24D+03 ExpMxC= 2.81D+02 IAcc=3 IRadAn=         5 AccDes= 0.00D+00
 Harris functional with IExCor= 1009 and IRadAn=       5 diagonalized for initial guess.
 HarFok:  IExCor= 1009 AccDes= 0.00D+00 IRadAn=         5 IDoV= 1 UseB2=F ITyADJ=14
 ICtDFT=  3500011 ScaDFX=  1.000000  1.000000  1.000000  1.000000
 FoFCou: FMM=F IPFlag=           0 FMFlag=      100000 FMFlg1=           0
         NFxFlg=           0 DoJE=T BraDBF=F KetDBF=T FulRan=T
         wScrn=  0.000000 ICntrl=       500 IOpCl=  0 I1Cent=   200000004 NGrid=           0
         NMat0=    1 NMatS0=      1 NMatT0=    0 NMatD0=    1 NMtDS0=    0 NMtDT0=    0
 Petite list used in FoFCou.
 Harris En= -276.315010837861    
 JPrj=0 DoOrth=F DoCkMO=F.
 Leave Link  401 at Sun Sep 29 11:31:54 2019, MaxMem=   671088640 cpu:              88.8 elap:              44.4
 (Enter /shared/centos7/gaussian/g16/l502.exe)
 Integral symmetry usage will be decided dynamically.
 Closed shell SCF:
 Using DIIS extrapolation, IDIIS=  1040.
 NGot=   671088640 LenX=   670604095 LenY=   670368385
 Requested convergence on RMS density matrix=1.00D-08 within 900 cycles.
 Requested convergence on MAX density matrix=1.00D-06.
 Requested convergence on             energy=1.00D-06.
 No special actions if energy rises.
 Fock matrices will be formed incrementally for  20 cycles.
 Integral accuracy reduced to 1.0D-05 until final iterations.

 Cycle   1  Pass 0  IDiag  1:
 FoFJK:  IHMeth= 1 ICntrl=       0 DoSepK=F KAlg= 0 I1Cent=           0 FoldK=F
 IRaf= 970000000 NMat=       1 IRICut=       1 DoRegI=T DoRafI=F ISym2E= 0 IDoP0=0 IntGTp=1.
 FoFCou: FMM=F IPFlag=           0 FMFlag=      100000 FMFlg1=           0
         NFxFlg=           0 DoJE=F BraDBF=F KetDBF=F FulRan=T
         wScrn=  0.000000 ICntrl=         0 IOpCl=  0 I1Cent=           0 NGrid=           0
         NMat0=    1 NMatS0=      1 NMatT0=    0 NMatD0=    1 NMtDS0=    0 NMtDT0=    0
 Symmetry not used in FoFCou.
 E= -275.955451172591    
 DIIS: error= 2.13D-02 at cycle   1 NSaved=   1.
 NSaved= 1 IEnMin= 1 EnMin= -275.955451172591     IErMin= 1 ErrMin= 2.13D-02
 ErrMax= 2.13D-02  0.00D+00 EMaxC= 1.00D-01 BMatC= 3.75D-01 BMatP= 3.75D-01
 IDIUse=3 WtCom= 7.87D-01 WtEn= 2.13D-01
 Coeff-Com:  0.100D+01
 Coeff-En:   0.100D+01
 Coeff:      0.100D+01
 Gap=     0.370 Goal=   None    Shift=    0.000
 GapD=    0.370 DampG=1.000 DampE=0.500 DampFc=0.5000 IDamp=-1.
 Damping current iteration by 5.00D-01
 RMSDP=1.92D-03 MaxDP=6.84D-02              OVMax= 1.69D-01

 Cycle   2  Pass 0  IDiag  1:
 RMSU=  9.58D-04    CP:  9.90D-01
 E= -276.129809970152     Delta-E=       -0.174358797561 Rises=F Damp=T
 DIIS: error= 4.16D-03 at cycle   2 NSaved=   2.
 NSaved= 2 IEnMin= 2 EnMin= -276.129809970152     IErMin= 2 ErrMin= 4.16D-03
 ErrMax= 4.16D-03  0.00D+00 EMaxC= 1.00D-01 BMatC= 1.99D-02 BMatP= 3.75D-01
 IDIUse=3 WtCom= 9.58D-01 WtEn= 4.16D-02
 Coeff-Com: -0.365D-01 0.104D+01
 Coeff-En:   0.000D+00 0.100D+01
 Coeff:     -0.350D-01 0.103D+01
 Gap=     0.454 Goal=   None    Shift=    0.000
 RMSDP=5.91D-04 MaxDP=2.68D-02 DE=-1.74D-01 OVMax= 9.54D-02

 Cycle   3  Pass 0  IDiag  1:
 RMSU=  5.82D-04    CP:  9.99D-01  9.13D-01
 E= -276.309693540124     Delta-E=       -0.179883569972 Rises=F Damp=F
 DIIS: error= 3.75D-03 at cycle   3 NSaved=   3.
 NSaved= 3 IEnMin= 3 EnMin= -276.309693540124     IErMin= 3 ErrMin= 3.75D-03
 ErrMax= 3.75D-03  0.00D+00 EMaxC= 1.00D-01 BMatC= 4.09D-03 BMatP= 1.99D-02
 IDIUse=3 WtCom= 9.63D-01 WtEn= 3.75D-02
 Coeff-Com: -0.540D-01 0.288D+00 0.766D+00
 Coeff-En:   0.000D+00 0.000D+00 0.100D+01
 Coeff:     -0.519D-01 0.278D+00 0.774D+00
 Gap=     0.421 Goal=   None    Shift=    0.000
 RMSDP=1.43D-04 MaxDP=5.03D-03 DE=-1.80D-01 OVMax= 1.36D-02

 Cycle   4  Pass 0  IDiag  1:
 RMSU=  1.07D-04    CP:  9.97D-01  9.61D-01  8.60D-01
 E= -276.313288673801     Delta-E=       -0.003595133677 Rises=F Damp=F
 DIIS: error= 8.54D-04 at cycle   4 NSaved=   4.
 NSaved= 4 IEnMin= 4 EnMin= -276.313288673801     IErMin= 4 ErrMin= 8.54D-04
 ErrMax= 8.54D-04  0.00D+00 EMaxC= 1.00D-01 BMatC= 3.17D-04 BMatP= 4.09D-03
 IDIUse=3 WtCom= 9.91D-01 WtEn= 8.54D-03
 Coeff-Com: -0.132D-01 0.352D-01 0.251D+00 0.727D+00
 Coeff-En:   0.000D+00 0.000D+00 0.000D+00 0.100D+01
 Coeff:     -0.131D-01 0.349D-01 0.249D+00 0.729D+00
 Gap=     0.422 Goal=   None    Shift=    0.000
 RMSDP=3.82D-05 MaxDP=1.29D-03 DE=-3.60D-03 OVMax= 3.03D-03

 Cycle   5  Pass 0  IDiag  1:
 RMSU=  1.86D-05    CP:  9.97D-01  9.56D-01  9.04D-01  8.04D-01
 E= -276.313587068007     Delta-E=       -0.000298394206 Rises=F Damp=F
 DIIS: error= 1.65D-04 at cycle   5 NSaved=   5.
 NSaved= 5 IEnMin= 5 EnMin= -276.313587068007     IErMin= 5 ErrMin= 1.65D-04
 ErrMax= 1.65D-04  0.00D+00 EMaxC= 1.00D-01 BMatC= 1.46D-05 BMatP= 3.17D-04
 IDIUse=3 WtCom= 9.98D-01 WtEn= 1.65D-03
 Coeff-Com: -0.180D-02 0.110D-02 0.499D-01 0.241D+00 0.710D+00
 Coeff-En:   0.000D+00 0.000D+00 0.000D+00 0.000D+00 0.100D+01
 Coeff:     -0.180D-02 0.109D-02 0.498D-01 0.241D+00 0.710D+00
 Gap=     0.422 Goal=   None    Shift=    0.000
 RMSDP=6.37D-06 MaxDP=3.48D-04 DE=-2.98D-04 OVMax= 7.08D-04

 Initial convergence to 1.0D-05 achieved.  Increase integral accuracy.
 Cycle   6  Pass 1  IDiag  1:
 E= -276.313620003741     Delta-E=       -0.000032935734 Rises=F Damp=F
 DIIS: error= 4.30D-05 at cycle   1 NSaved=   1.
 NSaved= 1 IEnMin= 1 EnMin= -276.313620003741     IErMin= 1 ErrMin= 4.30D-05
 ErrMax= 4.30D-05  0.00D+00 EMaxC= 1.00D-01 BMatC= 1.97D-06 BMatP= 1.97D-06
 IDIUse=1 WtCom= 1.00D+00 WtEn= 0.00D+00
 Coeff-Com:  0.100D+01
 Coeff:      0.100D+01
 Gap=     0.422 Goal=   None    Shift=    0.000
 RMSDP=6.37D-06 MaxDP=3.48D-04 DE=-3.29D-05 OVMax= 3.13D-04

 Cycle   7  Pass 1  IDiag  1:
 RMSU=  9.25D-06    CP:  1.00D+00
 E= -276.313620731955     Delta-E=       -0.000000728214 Rises=F Damp=F
 DIIS: error= 3.39D-05 at cycle   2 NSaved=   2.
 NSaved= 2 IEnMin= 2 EnMin= -276.313620731955     IErMin= 2 ErrMin= 3.39D-05
 ErrMax= 3.39D-05  0.00D+00 EMaxC= 1.00D-01 BMatC= 6.89D-07 BMatP= 1.97D-06
 IDIUse=1 WtCom= 1.00D+00 WtEn= 0.00D+00
 Coeff-Com:  0.342D+00 0.658D+00
 Coeff:      0.342D+00 0.658D+00
 Gap=     0.422 Goal=   None    Shift=    0.000
 RMSDP=1.56D-06 MaxDP=7.02D-05 DE=-7.28D-07 OVMax= 1.74D-04

 Cycle   8  Pass 1  IDiag  1:
 RMSU=  1.55D-06    CP:  1.00D+00  9.78D-01
 E= -276.313621349485     Delta-E=       -0.000000617530 Rises=F Damp=F
 DIIS: error= 9.55D-06 at cycle   3 NSaved=   3.
 NSaved= 3 IEnMin= 3 EnMin= -276.313621349485     IErMin= 3 ErrMin= 9.55D-06
 ErrMax= 9.55D-06  0.00D+00 EMaxC= 1.00D-01 BMatC= 6.04D-08 BMatP= 6.89D-07
 IDIUse=1 WtCom= 1.00D+00 WtEn= 0.00D+00
 Coeff-Com: -0.622D-02 0.217D+00 0.789D+00
 Coeff:     -0.622D-02 0.217D+00 0.789D+00
 Gap=     0.422 Goal=   None    Shift=    0.000
 RMSDP=4.44D-07 MaxDP=1.59D-05 DE=-6.18D-07 OVMax= 4.14D-05

 Cycle   9  Pass 1  IDiag  1:
 RMSU=  3.01D-07    CP:  1.00D+00  1.00D+00  8.38D-01
 E= -276.313621407528     Delta-E=       -0.000000058043 Rises=F Damp=F
 DIIS: error= 2.17D-06 at cycle   4 NSaved=   4.
 NSaved= 4 IEnMin= 4 EnMin= -276.313621407528     IErMin= 4 ErrMin= 2.17D-06
 ErrMax= 2.17D-06  0.00D+00 EMaxC= 1.00D-01 BMatC= 1.98D-09 BMatP= 6.04D-08
 IDIUse=1 WtCom= 1.00D+00 WtEn= 0.00D+00
 Coeff-Com: -0.112D-01 0.596D-01 0.276D+00 0.676D+00
 Coeff:     -0.112D-01 0.596D-01 0.276D+00 0.676D+00
 Gap=     0.422 Goal=   None    Shift=    0.000
 RMSDP=9.11D-08 MaxDP=3.41D-06 DE=-5.80D-08 OVMax= 8.34D-06

 Cycle  10  Pass 1  IDiag  1:
 RMSU=  8.32D-08    CP:  1.00D+00  1.00D+00  8.35D-01  8.85D-01
 E= -276.313621409511     Delta-E=       -0.000000001983 Rises=F Damp=F
 DIIS: error= 3.33D-07 at cycle   5 NSaved=   5.
 NSaved= 5 IEnMin= 5 EnMin= -276.313621409511     IErMin= 5 ErrMin= 3.33D-07
 ErrMax= 3.33D-07  0.00D+00 EMaxC= 1.00D-01 BMatC= 8.70D-11 BMatP= 1.98D-09
 IDIUse=1 WtCom= 1.00D+00 WtEn= 0.00D+00
 Coeff-Com: -0.910D-03-0.127D-01-0.383D-01 0.890D-01 0.963D+00
 Coeff:     -0.910D-03-0.127D-01-0.383D-01 0.890D-01 0.963D+00
 Gap=     0.422 Goal=   None    Shift=    0.000
 RMSDP=3.51D-08 MaxDP=9.46D-07 DE=-1.98D-09 OVMax= 2.77D-06

 Cycle  11  Pass 1  IDiag  1:
 RMSU=  1.91D-08    CP:  1.00D+00  1.00D+00  8.37D-01  9.77D-01  1.09D+00
 E= -276.313621409599     Delta-E=       -0.000000000088 Rises=F Damp=F
 DIIS: error= 2.03D-07 at cycle   6 NSaved=   6.
 NSaved= 6 IEnMin= 6 EnMin= -276.313621409599     IErMin= 6 ErrMin= 2.03D-07
 ErrMax= 2.03D-07  0.00D+00 EMaxC= 1.00D-01 BMatC= 2.23D-11 BMatP= 8.70D-11
 IDIUse=1 WtCom= 1.00D+00 WtEn= 0.00D+00
 Coeff-Com:  0.367D-03-0.101D-01-0.371D-01-0.821D-02 0.440D+00 0.615D+00
 Coeff:      0.367D-03-0.101D-01-0.371D-01-0.821D-02 0.440D+00 0.615D+00
 Gap=     0.422 Goal=   None    Shift=    0.000
 RMSDP=7.30D-09 MaxDP=2.88D-07 DE=-8.79D-11 OVMax= 8.52D-07

 SCF Done:  E(RM062X) =  -276.313621410     A.U. after   11 cycles
            NFock= 11  Conv=0.73D-08     -V/T= 2.0065
 KE= 2.745343975489D+02 PE=-1.316812086530D+03 EE= 4.267710337080D+02
 Leave Link  502 at Sun Sep 29 11:48:01 2019, MaxMem=   671088640 cpu:            1935.1 elap:             967.7
 (Enter /shared/centos7/gaussian/g16/l801.exe)
 DoSCS=F DFT=T ScalE2(SS,OS)=  1.000000  1.000000
 Range of M.O.s used for correlation:     1   434
 NBasis=   434 NAE=    29 NBE=    29 NFC=     0 NFV=     0
 NROrb=    434 NOA=    29 NOB=    29 NVA=   405 NVB=   405

 **** Warning!!: The largest alpha MO coefficient is  0.10183518D+02

 Leave Link  801 at Sun Sep 29 11:48:02 2019, MaxMem=   671088640 cpu:               1.5 elap:               0.8
 (Enter /shared/centos7/gaussian/g16/l1101.exe)
 Using compressed storage, NAtomX=    23.
 Will process     24 centers per pass.
 Leave Link 1101 at Sun Sep 29 11:48:38 2019, MaxMem=   671088640 cpu:              70.9 elap:              35.5
 (Enter /shared/centos7/gaussian/g16/l1102.exe)
 Symmetrizing basis deriv contribution to polar:
 IMax=3 JMax=2 DiffMx= 0.00D+00
 Leave Link 1102 at Sun Sep 29 11:48:41 2019, MaxMem=   671088640 cpu:               7.3 elap:               3.7
 (Enter /shared/centos7/gaussian/g16/l1110.exe)
 Forming Gx(P) for the SCF density, NAtomX=    23.
 Integral derivatives from FoFJK, PRISM(SPDF).
 Do as many integral derivatives as possible in FoFJK.
 G2DrvN: MDV=     671086848.
 G2DrvN: will do    24 centers at a time, making    1 passes.
 Calling FoFCou, ICntrl=  3107 FMM=F I1Cent=   0 AccDes= 0.00D+00.
 FoFJK:  IHMeth= 1 ICntrl=    3107 DoSepK=F KAlg= 0 I1Cent=           0 FoldK=F
 IRaf=         0 NMat=       1 IRICut=       1 DoRegI=T DoRafI=F ISym2E= 0 IDoP0=0 IntGTp=1.
 FoFCou: FMM=F IPFlag=           0 FMFlag=      100000 FMFlg1=           0
         NFxFlg=           0 DoJE=F BraDBF=F KetDBF=F FulRan=T
         wScrn=  0.000000 ICntrl=      3107 IOpCl=  0 I1Cent=           0 NGrid=           0
         NMat0=    1 NMatS0=      1 NMatT0=    0 NMatD0=    1 NMtDS0=    0 NMtDT0=    0
 Symmetry not used in FoFCou.
 End of G2Drv F.D. properties file   721 does not exist.
 End of G2Drv F.D. properties file   722 does not exist.
 End of G2Drv F.D. properties file   788 does not exist.
 Leave Link 1110 at Sun Sep 29 12:32:57 2019, MaxMem=   671088640 cpu:            5311.6 elap:            2656.1
 (Enter /shared/centos7/gaussian/g16/l1002.exe)
 Minotr:  Closed shell wavefunction.
          IDoAtm=11111111111111111111111
          Direct CPHF calculation.
          Differentiating once with respect to nuclear coordinates.
          Requested convergence is 1.0D-08 RMS, and 1.0D-07 maximum.
          Secondary convergence is 1.0D-12 RMS, and 1.0D-12 maximum.
          NewPWx=T KeepS1=F KeepF1=F KeepIn=T MapXYZ=F SortEE=F KeepMc=T.
         6904 words used for storage of precomputed grid.
 Two-electron integrals replicated using symmetry.
          MDV=     671088640 using IRadAn=       1.
          Solving linear equations simultaneously, MaxMat=     380.
 FoF2E skips out because all densities are zero.
 CalDSu exits because no D1Ps are significant.
 FoFJK:  IHMeth= 1 ICntrl=       0 DoSepK=F KAlg= 0 I1Cent=           0 FoldK=F
 IRaf= 950000000 NMat=      69 IRICut=     172 DoRegI=T DoRafI=T ISym2E= 2 IDoP0=3 IntGTp=3.
 FoFCou: FMM=F IPFlag=           0 FMFlag=      100000 FMFlg1=           0
         NFxFlg=           0 DoJE=F BraDBF=F KetDBF=F FulRan=T
         wScrn=  0.000000 ICntrl=         0 IOpCl=  0 I1Cent=           0 NGrid=           0
         NMat0=   69 NMatS0=     69 NMatT0=    0 NMatD0=   69 NMtDS0=    0 NMtDT0=    0
 Integrals replicated using symmetry in FoFCou.
 Raff kept on since  92.03% of shell-pairs survive, threshold=   0.20 IRatSp=92.
          There are    72 degrees of freedom in the 1st order CPHF.  IDoFFX=6 NUNeed=     0.
     66 vectors produced by pass  0 Test12= 1.63D-14 1.39D-09 XBig12= 5.52D-02 3.33D-02.
 AX will form    66 AO Fock derivatives at one time.
     66 vectors produced by pass  1 Test12= 1.63D-14 1.39D-09 XBig12= 3.18D-03 6.83D-03.
     66 vectors produced by pass  2 Test12= 1.63D-14 1.39D-09 XBig12= 5.07D-05 9.21D-04.
     66 vectors produced by pass  3 Test12= 1.63D-14 1.39D-09 XBig12= 3.98D-07 8.99D-05.
     66 vectors produced by pass  4 Test12= 1.63D-14 1.39D-09 XBig12= 1.77D-09 4.80D-06.
     66 vectors produced by pass  5 Test12= 1.63D-14 1.39D-09 XBig12= 8.48D-12 2.56D-07.
     25 vectors produced by pass  6 Test12= 1.63D-14 1.39D-09 XBig12= 3.33D-14 1.57D-08.
 InvSVY:  IOpt=1 It=  1 EMax= 4.72D-16
 Solved reduced A of dimension   421 with    72 vectors.
 End of Minotr F.D. properties file   721 does not exist.
 End of Minotr F.D. properties file   722 does not exist.
 End of Minotr F.D. properties file   788 does not exist.
 Leave Link 1002 at Sun Sep 29 13:46:24 2019, MaxMem=   671088640 cpu:            8811.3 elap:            4406.2
 (Enter /shared/centos7/gaussian/g16/l601.exe)
 Copying SCF densities to generalized density rwf, IOpCl= 0 IROHF=0.

 **********************************************************************

            Population analysis using the SCF density.

 **********************************************************************

 Orbital symmetries:
       Occupied  (A) (A) (A) (A) (A) (A) (A) (A) (A) (A) (A) (A)
                 (A) (A) (A) (A) (A) (A) (A) (A) (A) (A) (A) (A)
                 (A) (A) (A) (A) (A)
       Virtual   (A) (A) (A) (A) (A) (A) (A) (A) (A) (A) (A) (A)
                 (A) (A) (A) (A) (A) (A) (A) (A) (A) (A) (A) (A)
                 (A) (A) (A) (A) (A) (A) (A) (A) (A) (A) (A) (A)
                 (A) (A) (A) (A) (A) (A) (A) (A) (A) (A) (A) (A)
                 (A) (A) (A) (A) (A) (A) (A) (A) (A) (A) (A) (A)
                 (A) (A) (A) (A) (A) (A) (A) (A) (A) (A) (A) (A)
                 (A) (A) (A) (A) (A) (A) (A) (A) (A) (A) (A) (A)
                 (A) (A) (A) (A) (A) (A) (A) (A) (A) (A) (A) (A)
                 (A) (A) (A) (A) (A) (A) (A) (A) (A) (A) (A) (A)
                 (A) (A) (A) (A) (A) (A) (A) (A) (A) (A) (A) (A)
                 (A) (A) (A) (A) (A) (A) (A) (A) (A) (A) (A) (A)
                 (A) (A) (A) (A) (A) (A) (A) (A) (A) (A) (A) (A)
                 (A) (A) (A) (A) (A) (A) (A) (A) (A) (A) (A) (A)
                 (A) (A) (A) (A) (A) (A) (A) (A) (A) (A) (A) (A)
                 (A) (A) (A) (A) (A) (A) (A) (A) (A) (A) (A) (A)
                 (A) (A) (A) (A) (A) (A) (A) (A) (A) (A) (A) (A)
                 (A) (A) (A) (A) (A) (A) (A) (A) (A) (A) (A) (A)
                 (A) (A) (A) (A) (A) (A) (A) (A) (A) (A) (A) (A)
                 (A) (A) (A) (A) (A) (A) (A) (A) (A) (A) (A) (A)
                 (A) (A) (A) (A) (A) (A) (A) (A) (A) (A) (A) (A)
                 (A) (A) (A) (A) (A) (A) (A) (A) (A) (A) (A) (A)
                 (A) (A) (A) (A) (A) (A) (A) (A) (A) (A) (A) (A)
                 (A) (A) (A) (A) (A) (A) (A) (A) (A) (A) (A) (A)
                 (A) (A) (A) (A) (A) (A) (A) (A) (A) (A) (A) (A)
                 (A) (A) (A) (A) (A) (A) (A) (A) (A) (A) (A) (A)
                 (A) (A) (A) (A) (A) (A) (A) (A) (A) (A) (A) (A)
                 (A) (A) (A) (A) (A) (A) (A) (A) (A) (A) (A) (A)
                 (A) (A) (A) (A) (A) (A) (A) (A) (A) (A) (A) (A)
                 (A) (A) (A) (A) (A) (A) (A) (A) (A) (A) (A) (A)
                 (A) (A) (A) (A) (A) (A) (A) (A) (A) (A) (A) (A)
                 (A) (A) (A) (A) (A) (A) (A) (A) (A) (A) (A) (A)
                 (A) (A) (A) (A) (A) (A) (A) (A) (A) (A) (A) (A)
                 (A) (A) (A) (A) (A) (A) (A) (A) (A) (A) (A) (A)
                 (A) (A) (A) (A) (A) (A) (A) (A) (A)
 The electronic state is 1-A.
 Alpha  occ. eigenvalues --  -10.52861 -10.52465 -10.52338 -10.52321 -10.52300
 Alpha  occ. eigenvalues --  -10.52261 -10.52228  -0.92528  -0.87876  -0.83105
 Alpha  occ. eigenvalues --   -0.76137  -0.71425  -0.66039  -0.62094  -0.55003
 Alpha  occ. eigenvalues --   -0.53360  -0.51771  -0.50317  -0.48881  -0.45883
 Alpha  occ. eigenvalues --   -0.44135  -0.43819  -0.42005  -0.39800  -0.38834
 Alpha  occ. eigenvalues --   -0.37701  -0.36891  -0.35953  -0.35431
 Alpha virt. eigenvalues --    0.06733   0.08100   0.08579   0.08715   0.11484
 Alpha virt. eigenvalues --    0.12744   0.12756   0.13213   0.13908   0.14995
 Alpha virt. eigenvalues --    0.16145   0.17512   0.17880   0.17968   0.19569
 Alpha virt. eigenvalues --    0.21023   0.23699   0.25215   0.25918   0.27090
 Alpha virt. eigenvalues --    0.28117   0.28706   0.28898   0.31016   0.31365
 Alpha virt. eigenvalues --    0.32245   0.33189   0.34347   0.35205   0.36258
 Alpha virt. eigenvalues --    0.38371   0.39297   0.41309   0.43684   0.44253
 Alpha virt. eigenvalues --    0.45716   0.46264   0.46605   0.47095   0.47852
 Alpha virt. eigenvalues --    0.49064   0.49247   0.50698   0.51006   0.51340
 Alpha virt. eigenvalues --    0.52472   0.53146   0.53456   0.54602   0.54660
 Alpha virt. eigenvalues --    0.55387   0.55498   0.57291   0.57834   0.58473
 Alpha virt. eigenvalues --    0.59357   0.60666   0.62802   0.63831   0.64702
 Alpha virt. eigenvalues --    0.66773   0.68419   0.70286   0.73187   0.75835
 Alpha virt. eigenvalues --    0.76500   0.80211   0.82450   0.83280   0.84933
 Alpha virt. eigenvalues --    0.86280   0.87836   0.90751   0.92528   0.94728
 Alpha virt. eigenvalues --    0.95264   0.96460   0.97058   0.99015   1.00256
 Alpha virt. eigenvalues --    1.01972   1.03410   1.04530   1.05264   1.05998
 Alpha virt. eigenvalues --    1.07167   1.07497   1.09651   1.10309   1.10749
 Alpha virt. eigenvalues --    1.11533   1.12379   1.12759   1.15276   1.16133
 Alpha virt. eigenvalues --    1.16775   1.17693   1.18574   1.18740   1.19526
 Alpha virt. eigenvalues --    1.20545   1.21962   1.23190   1.23788   1.25253
 Alpha virt. eigenvalues --    1.25621   1.26864   1.27638   1.28206   1.29201
 Alpha virt. eigenvalues --    1.29855   1.30781   1.31541   1.32837   1.33548
 Alpha virt. eigenvalues --    1.35457   1.37722   1.37928   1.39024   1.40731
 Alpha virt. eigenvalues --    1.41003   1.42862   1.44925   1.45812   1.46196
 Alpha virt. eigenvalues --    1.47703   1.49049   1.50099   1.50730   1.51814
 Alpha virt. eigenvalues --    1.53167   1.53826   1.54986   1.55924   1.56273
 Alpha virt. eigenvalues --    1.58244   1.61865   1.62439   1.64953   1.67726
 Alpha virt. eigenvalues --    1.69195   1.72837   1.74146   1.76138   1.80579
 Alpha virt. eigenvalues --    1.81285   1.85445   1.92866   2.03316   2.27206
 Alpha virt. eigenvalues --    2.29107   2.31000   2.33400   2.34963   2.37335
 Alpha virt. eigenvalues --    2.39135   2.41278   2.41747   2.43487   2.45502
 Alpha virt. eigenvalues --    2.49683   2.50431   2.53015   2.53990   2.54616
 Alpha virt. eigenvalues --    2.56115   2.57018   2.59522   2.60319   2.62417
 Alpha virt. eigenvalues --    2.63852   2.64371   2.65773   2.66403   2.66823
 Alpha virt. eigenvalues --    2.68880   2.70910   2.71481   2.72104   2.73400
 Alpha virt. eigenvalues --    2.74089   2.75515   2.76839   2.79156   2.80026
 Alpha virt. eigenvalues --    2.81048   2.81705   2.83405   2.85543   2.86951
 Alpha virt. eigenvalues --    2.88687   2.90259   2.90906   2.91236   2.92211
 Alpha virt. eigenvalues --    2.93904   2.95384   2.96567   2.97275   2.98994
 Alpha virt. eigenvalues --    3.00614   3.02567   3.03557   3.04059   3.05070
 Alpha virt. eigenvalues --    3.07160   3.08049   3.08536   3.08842   3.10145
 Alpha virt. eigenvalues --    3.10952   3.11417   3.13001   3.13762   3.15306
 Alpha virt. eigenvalues --    3.16005   3.16736   3.17579   3.18890   3.20018
 Alpha virt. eigenvalues --    3.20500   3.21730   3.22714   3.23751   3.24426
 Alpha virt. eigenvalues --    3.25862   3.27734   3.29159   3.30165   3.32414
 Alpha virt. eigenvalues --    3.32971   3.34612   3.36408   3.37506   3.38253
 Alpha virt. eigenvalues --    3.39929   3.41101   3.41841   3.42401   3.44517
 Alpha virt. eigenvalues --    3.45354   3.45750   3.46650   3.48509   3.49403
 Alpha virt. eigenvalues --    3.50758   3.51264   3.52556   3.54496   3.55830
 Alpha virt. eigenvalues --    3.57031   3.58768   3.60232   3.61621   3.62116
 Alpha virt. eigenvalues --    3.63432   3.64320   3.65650   3.67434   3.68496
 Alpha virt. eigenvalues --    3.70179   3.71053   3.72680   3.73044   3.75340
 Alpha virt. eigenvalues --    3.77298   3.77654   3.79160   3.79811   3.80475
 Alpha virt. eigenvalues --    3.82103   3.83471   3.83994   3.84952   3.86219
 Alpha virt. eigenvalues --    3.87420   3.89379   3.89808   3.91701   3.92028
 Alpha virt. eigenvalues --    3.92639   3.93036   3.94190   3.95872   3.98822
 Alpha virt. eigenvalues --    3.99516   4.00459   4.01554   4.01921   4.02826
 Alpha virt. eigenvalues --    4.03668   4.04076   4.06711   4.07859   4.07923
 Alpha virt. eigenvalues --    4.09095   4.10212   4.10958   4.13538   4.13884
 Alpha virt. eigenvalues --    4.14681   4.16165   4.17609   4.18828   4.20503
 Alpha virt. eigenvalues --    4.21334   4.21691   4.22653   4.24424   4.26272
 Alpha virt. eigenvalues --    4.27710   4.29198   4.30059   4.30701   4.31204
 Alpha virt. eigenvalues --    4.31593   4.34562   4.36580   4.37029   4.38812
 Alpha virt. eigenvalues --    4.39821   4.40728   4.42373   4.44697   4.46978
 Alpha virt. eigenvalues --    4.48153   4.50458   4.52246   4.53998   4.56635
 Alpha virt. eigenvalues --    4.60373   4.62698   4.63545   4.67034   4.67994
 Alpha virt. eigenvalues --    4.69492   4.70896   4.73395   4.76345   4.77351
 Alpha virt. eigenvalues --    4.78647   4.80782   4.81852   4.82259   4.84050
 Alpha virt. eigenvalues --    4.84530   4.85171   4.88690   4.89116   4.91778
 Alpha virt. eigenvalues --    4.93164   4.93947   4.96147   4.98426   5.00495
 Alpha virt. eigenvalues --    5.02765   5.05811   5.06226   5.07037   5.10553
 Alpha virt. eigenvalues --    5.13324   5.14055   5.17174   5.18737   5.20652
 Alpha virt. eigenvalues --    5.21206   5.22174   5.23494   5.26550   5.29078
 Alpha virt. eigenvalues --    5.29808   5.32609   5.34087   5.35581   5.36544
 Alpha virt. eigenvalues --    5.37137   5.37506   5.41017   5.44086   5.44491
 Alpha virt. eigenvalues --    5.48905   5.50725   5.52910   5.54551   5.56092
 Alpha virt. eigenvalues --    5.60241   5.63964   5.70099   5.75519   5.82320
 Alpha virt. eigenvalues --    5.85664   5.88296   5.93654   5.96092   6.00711
 Alpha virt. eigenvalues --    6.02052   6.04044   6.11983  11.93018  12.30429
 Alpha virt. eigenvalues --   12.51108  13.12628  13.46546  13.55235  13.73366
          Condensed to atoms (all electrons):
               1          2          3          4          5          6
     1  C    5.073899   0.284669  -0.043250   0.313676   0.006170  -0.061258
     2  C    0.284669   5.197253   0.260679  -0.046149  -0.043677   0.003329
     3  C   -0.043250   0.260679   5.154949   0.003150   0.303504  -0.002828
     4  C    0.313676  -0.046149   0.003150   5.130570  -0.002208   0.295306
     5  C    0.006170  -0.043677   0.303504  -0.002208   5.025409   0.001081
     6  C   -0.061258   0.003329  -0.002828   0.295306   0.001081   5.034062
     7  C   -0.002558   0.003748  -0.049574  -0.004591   0.298394  -0.013319
     8  H   -0.046170   0.010049  -0.000652   0.416933  -0.000011  -0.039706
     9  H   -0.039792  -0.015242   0.013193   0.409611  -0.005674  -0.050075
    10  H    0.424766  -0.056801   0.010565  -0.045728  -0.000867  -0.007545
    11  H    0.420035  -0.040813  -0.012363  -0.052054   0.000975   0.009610
    12  H   -0.040972   0.414882  -0.042151   0.008696   0.006218  -0.000188
    13  H   -0.044009   0.411197  -0.060966  -0.008929  -0.000040   0.002438
    14  H    0.001296  -0.066358   0.410687  -0.004624  -0.040259   0.000541
    15  H    0.005338  -0.041928   0.411258  -0.000233  -0.040926  -0.000045
    16  H    0.000692  -0.009452  -0.037274  -0.000413   0.409474   0.000273
    17  H   -0.000894   0.010540  -0.049012   0.000243   0.417595  -0.000121
    18  H   -0.004662   0.003918  -0.000291  -0.050200   0.001090   0.412890
    19  H    0.009105  -0.000391   0.000047  -0.044454   0.000031   0.407176
    20  H   -0.001270  -0.002186   0.000308  -0.046111  -0.000148   0.401323
    21  H   -0.002579   0.005545  -0.009240   0.001009  -0.044301  -0.014340
    22  H    0.001161  -0.003998   0.002546  -0.018032  -0.049352   0.002586
    23  H    0.000021  -0.000469   0.008215   0.000767  -0.036102   0.000690
               7          8          9         10         11         12
     1  C   -0.002558  -0.046170  -0.039792   0.424766   0.420035  -0.040972
     2  C    0.003748   0.010049  -0.015242  -0.056801  -0.040813   0.414882
     3  C   -0.049574  -0.000652   0.013193   0.010565  -0.012363  -0.042151
     4  C   -0.004591   0.416933   0.409611  -0.045728  -0.052054   0.008696
     5  C    0.298394  -0.000011  -0.005674  -0.000867   0.000975   0.006218
     6  C   -0.013319  -0.039706  -0.050075  -0.007545   0.009610  -0.000188
     7  C    5.076099   0.000575  -0.013180  -0.000002  -0.000062  -0.000412
     8  H    0.000575   0.585676  -0.033261  -0.005328  -0.009853  -0.000438
     9  H   -0.013180  -0.033261   0.601030   0.008825  -0.003876  -0.000231
    10  H   -0.000002  -0.005328   0.008825   0.577938  -0.027824  -0.010569
    11  H   -0.000062  -0.009853  -0.003876  -0.027824   0.579790  -0.004952
    12  H   -0.000412  -0.000438  -0.000231  -0.010569  -0.004952   0.578256
    13  H   -0.004989  -0.000085   0.000956  -0.002619   0.008082  -0.031691
    14  H   -0.005938  -0.000292   0.000374   0.000301   0.002463   0.004775
    15  H    0.008543   0.000027   0.000052  -0.000414   0.000909  -0.017940
    16  H   -0.048544   0.000012  -0.000203  -0.000020  -0.000023   0.000401
    17  H   -0.041446  -0.000014   0.000332   0.000038  -0.000003  -0.000433
    18  H   -0.014530   0.008440  -0.007824   0.000101  -0.000610   0.000101
    19  H    0.000596  -0.008639  -0.005338  -0.000041  -0.000433   0.000027
    20  H    0.000502  -0.005847   0.008991   0.004828   0.000222  -0.000198
    21  H    0.410991  -0.000102  -0.002691   0.000106  -0.000073   0.000325
    22  H    0.404670   0.001656  -0.015146  -0.000188   0.000245  -0.000165
    23  H    0.404691  -0.000022   0.001705   0.000007  -0.000003   0.000024
              13         14         15         16         17         18
     1  C   -0.044009   0.001296   0.005338   0.000692  -0.000894  -0.004662
     2  C    0.411197  -0.066358  -0.041928  -0.009452   0.010540   0.003918
     3  C   -0.060966   0.410687   0.411258  -0.037274  -0.049012  -0.000291
     4  C   -0.008929  -0.004624  -0.000233  -0.000413   0.000243  -0.050200
     5  C   -0.000040  -0.040259  -0.040926   0.409474   0.417595   0.001090
     6  C    0.002438   0.000541  -0.000045   0.000273  -0.000121   0.412890
     7  C   -0.004989  -0.005938   0.008543  -0.048544  -0.041446  -0.014530
     8  H   -0.000085  -0.000292   0.000027   0.000012  -0.000014   0.008440
     9  H    0.000956   0.000374   0.000052  -0.000203   0.000332  -0.007824
    10  H   -0.002619   0.000301  -0.000414  -0.000020   0.000038   0.000101
    11  H    0.008082   0.002463   0.000909  -0.000023  -0.000003  -0.000610
    12  H   -0.031691   0.004775  -0.017940   0.000401  -0.000433   0.000101
    13  H    0.580237   0.007101   0.005129   0.002089   0.000333  -0.005013
    14  H    0.007101   0.580409  -0.031095   0.008084  -0.007242  -0.000068
    15  H    0.005129  -0.031095   0.589157  -0.007947  -0.005705  -0.000037
    16  H    0.002089   0.008084  -0.007947   0.601071  -0.035070   0.000076
    17  H    0.000333  -0.007242  -0.005705  -0.035070   0.593221  -0.000174
    18  H   -0.005013  -0.000068  -0.000037   0.000076  -0.000174   0.614214
    19  H    0.000004   0.000018   0.000001   0.000002   0.000003  -0.032979
    20  H    0.000829  -0.000043   0.000006  -0.000026   0.000007  -0.039919
    21  H   -0.001644   0.000542  -0.000455  -0.007607   0.007931  -0.011194
    22  H    0.001233   0.002425   0.000260   0.008357  -0.003767  -0.000162
    23  H   -0.000192  -0.000025  -0.000462  -0.002376  -0.009089   0.001201
              19         20         21         22         23
     1  C    0.009105  -0.001270  -0.002579   0.001161   0.000021
     2  C   -0.000391  -0.002186   0.005545  -0.003998  -0.000469
     3  C    0.000047   0.000308  -0.009240   0.002546   0.008215
     4  C   -0.044454  -0.046111   0.001009  -0.018032   0.000767
     5  C    0.000031  -0.000148  -0.044301  -0.049352  -0.036102
     6  C    0.407176   0.401323  -0.014340   0.002586   0.000690
     7  C    0.000596   0.000502   0.410991   0.404670   0.404691
     8  H   -0.008639  -0.005847  -0.000102   0.001656  -0.000022
     9  H   -0.005338   0.008991  -0.002691  -0.015146   0.001705
    10  H   -0.000041   0.004828   0.000106  -0.000188   0.000007
    11  H   -0.000433   0.000222  -0.000073   0.000245  -0.000003
    12  H    0.000027  -0.000198   0.000325  -0.000165   0.000024
    13  H    0.000004   0.000829  -0.001644   0.001233  -0.000192
    14  H    0.000018  -0.000043   0.000542   0.002425  -0.000025
    15  H    0.000001   0.000006  -0.000455   0.000260  -0.000462
    16  H    0.000002  -0.000026  -0.007607   0.008357  -0.002376
    17  H    0.000003   0.000007   0.007931  -0.003767  -0.009089
    18  H   -0.032979  -0.039919  -0.011194  -0.000162   0.001201
    19  H    0.579708  -0.024398   0.000428   0.000315  -0.000126
    20  H   -0.024398   0.583923   0.001338  -0.000297  -0.000001
    21  H    0.000428   0.001338   0.596124  -0.039047  -0.029069
    22  H    0.000315  -0.000297  -0.039047   0.608909  -0.026440
    23  H   -0.000126  -0.000001  -0.029069  -0.026440   0.570375
 Mulliken charges:
               1
     1  C   -0.253413
     2  C   -0.278346
     3  C   -0.271500
     4  C   -0.256233
     5  C   -0.206374
     6  C   -0.381882
     7  C   -0.409663
     8  H    0.127051
     9  H    0.147463
    10  H    0.130470
    11  H    0.130611
    12  H    0.136633
    13  H    0.140549
    14  H    0.136929
    15  H    0.126508
    16  H    0.118425
    17  H    0.122726
    18  H    0.125631
    19  H    0.119336
    20  H    0.118167
    21  H    0.138002
    22  H    0.122229
    23  H    0.116680
 Sum of Mulliken charges =  -0.00000
 Mulliken charges with hydrogens summed into heavy atoms:
               1
     1  C    0.007669
     2  C   -0.001164
     3  C   -0.008063
     4  C    0.018282
     5  C    0.034776
     6  C   -0.018748
     7  C   -0.032752
 APT charges:
               1
     1  C   -0.882923
     2  C   -0.600764
     3  C   -0.744239
     4  C   -0.546446
     5  C   -0.908677
     6  C   -1.141501
     7  C   -0.906558
     8  H    0.483228
     9  H    0.213993
    10  H    0.428106
    11  H    0.378260
    12  H    0.460448
    13  H    0.236474
    14  H    0.275753
    15  H    0.473110
    16  H    0.380717
    17  H    0.480180
    18  H    0.155864
    19  H    0.453378
    20  H    0.409979
    21  H    0.194780
    22  H    0.177237
    23  H    0.529603
 Sum of APT charges =  -0.00000
 APT charges with hydrogens summed into heavy atoms:
               1
     1  C   -0.076557
     2  C    0.096157
     3  C    0.004624
     4  C    0.150774
     5  C   -0.047780
     6  C   -0.122280
     7  C   -0.004939
 Electronic spatial extent (au):  <R**2>=            974.9312
 Charge=             -0.0000 electrons
 Dipole moment (field-independent basis, Debye):
    X=             -0.0798    Y=             -0.1073    Z=              0.0322  Tot=              0.1375
 Quadrupole moment (field-independent basis, Debye-Ang):
   XX=            -49.3054   YY=            -49.3804   ZZ=            -49.0407
   XY=             -0.0859   XZ=              0.0947   YZ=              0.2505
 Traceless Quadrupole moment (field-independent basis, Debye-Ang):
   XX=             -0.0633   YY=             -0.1382   ZZ=              0.2015
   XY=             -0.0859   XZ=              0.0947   YZ=              0.2505
 Octapole moment (field-independent basis, Debye-Ang**2):
  XXX=              0.2556  YYY=             -2.2599  ZZZ=              0.5769  XYY=             -1.1970
  XXY=             -0.5742  XXZ=              0.4616  XZZ=             -0.4210  YZZ=             -0.3720
  YYZ=             -0.1094  XYZ=              0.4582
 Hexadecapole moment (field-independent basis, Debye-Ang**3):
 XXXX=           -770.6317 YYYY=           -454.1190 ZZZZ=           -161.9959 XXXY=             -2.3964
 XXXZ=             -1.4026 YYYX=              1.2602 YYYZ=              3.8879 ZZZX=              1.1059
 ZZZY=             -1.2765 XXYY=           -202.2827 XXZZ=           -154.1071 YYZZ=           -103.7193
 XXYZ=              3.8578 YYXZ=              2.4820 ZZXY=             -1.4503
 N-N= 3.391930338632D+02 E-N=-1.316812008627D+03  KE= 2.745343975489D+02
  Exact polarizability:   0.000   0.000   0.000   0.000   0.000   0.000
 Approx polarizability: 100.905  -1.062  98.642   0.404   0.193  99.076
 No NMR shielding tensors so no spin-rotation constants.
 Leave Link  601 at Sun Sep 29 13:46:52 2019, MaxMem=   671088640 cpu:              56.8 elap:              28.5
 (Enter /shared/centos7/gaussian/g16/l701.exe)
 SCFChk:  SCF convergence  7.30D-09 required  1.00D-08
 ... and contract with generalized density number  0.
 Compute integral second derivatives.
 Entering OneElI...
 Calculate overlap and kinetic energy integrals
    NBasis = 485  MinDer = 2  MaxDer = 2
 Requested accuracy = 0.1000D-12
 PrmmSu-InSpLW:  IPartL=    0 NPrtUS=   20 NPrtUL=    1 DoSpLW=F IThBeg=    0 IThEnd=   19 NThAct=   20.
 PrsmSu:  NPrtUS=  20 ThrOK=T IAlg=1 NPAlg=1 LenDen=           0 ISkipM=0 DoSpLW=F IThBeg=    0 IThEnd=   19.
 Prism:   IPart=     0 DynPar=F LinDyn=F Incr=           6.
 PRISM was handed    33193542 working-precision words and 13812 shell-pairs
 PRISM was handed    33193542 working-precision words and 13812 shell-pairs
 PRISM was handed    33193542 working-precision words and 13812 shell-pairs
 PRISM was handed    33193542 working-precision words and 13812 shell-pairs
 PRISM was handed    33193542 working-precision words and 13812 shell-pairs
 PRISM was handed    33193542 working-precision words and 13812 shell-pairs
 PRISM was handed    33193542 working-precision words and 13812 shell-pairs
 PRISM was handed    33193542 working-precision words and 13812 shell-pairs
 PRISM was handed    33193542 working-precision words and 13812 shell-pairs
 PRISM was handed    33193542 working-precision words and 13812 shell-pairs
 PRISM was handed    33193542 working-precision words and 13812 shell-pairs
 PRISM was handed    33193542 working-precision words and 13812 shell-pairs
 PRISM was handed    33193542 working-precision words and 13812 shell-pairs
 PRISM was handed    33193542 working-precision words and 13812 shell-pairs
 PRISM was handed    33193542 working-precision words and 13812 shell-pairs
 IPart=  2 NShTot=         721 NBatch=          77 AvBLen=         9.4
 PRISM was handed    33193542 working-precision words and 13812 shell-pairs
 IPart=  0 NShTot=         724 NBatch=          78 AvBLen=         9.3
 PRISM was handed    33193542 working-precision words and 13812 shell-pairs
 PRISM was handed    33193542 working-precision words and 13812 shell-pairs
 IPart= 16 NShTot=         669 NBatch=          50 AvBLen=        13.4
 PRISM was handed    33193542 working-precision words and 13812 shell-pairs
 PRISM was handed    33193542 working-precision words and 13812 shell-pairs
 IPart=  4 NShTot=         712 NBatch=          72 AvBLen=         9.9
 IPart= 19 NShTot=         661 NBatch=          47 AvBLen=        14.1
 IPart=  5 NShTot=         708 NBatch=          70 AvBLen=        10.1
 IPart= 15 NShTot=         674 NBatch=          52 AvBLen=        13.0
 IPart=  3 NShTot=         716 NBatch=          75 AvBLen=         9.5
 IPart= 13 NShTot=         675 NBatch=          52 AvBLen=        13.0
 IPart= 18 NShTot=         665 NBatch=          47 AvBLen=        14.1
 IPart= 10 NShTot=         684 NBatch=          57 AvBLen=        12.0
 IPart= 14 NShTot=         675 NBatch=          52 AvBLen=        13.0
 IPart= 17 NShTot=         666 NBatch=          48 AvBLen=        13.9
 IPart=  1 NShTot=         723 NBatch=          78 AvBLen=         9.3
 IPart=  9 NShTot=         688 NBatch=          59 AvBLen=        11.7
 IPart=  6 NShTot=         703 NBatch=          68 AvBLen=        10.3
 IPart= 11 NShTot=         683 NBatch=          57 AvBLen=        12.0
 IPart=  8 NShTot=         693 NBatch=          60 AvBLen=        11.6
 IPart=  7 NShTot=         695 NBatch=          61 AvBLen=        11.4
 IPart= 12 NShTot=         677 NBatch=          53 AvBLen=        12.8
 PrSmSu:  NxtVal=            121.
 Entering OneElI...
 Calculate potential energy integrals
    NBasis = 485  MinDer = 2  MaxDer = 2
 Requested accuracy = 0.1000D-12
 PrmmSu-InSpLW:  IPartL=    0 NPrtUS=   20 NPrtUL=    1 DoSpLW=F IThBeg=    0 IThEnd=   19 NThAct=   20.
 PrsmSu:  NPrtUS=  20 ThrOK=T IAlg=1 NPAlg=1 LenDen=           0 ISkipM=0 DoSpLW=F IThBeg=    0 IThEnd=   19.
 Prism:   IPart=     0 DynPar=F LinDyn=F Incr=         146.
 PRISM was handed    33253871 working-precision words and 12771 shell-pairs
 PRISM was handed    33253871 working-precision words and 12771 shell-pairs
 PRISM was handed    33253871 working-precision words and 12771 shell-pairs
 PRISM was handed    33253871 working-precision words and 12771 shell-pairs
 PRISM was handed    33253871 working-precision words and 12771 shell-pairs
 PRISM was handed    33253871 working-precision words and 12771 shell-pairs
 PRISM was handed    33253871 working-precision words and 12771 shell-pairs
 PRISM was handed    33253871 working-precision words and 12771 shell-pairs
 PRISM was handed    33253871 working-precision words and 12771 shell-pairs
 PRISM was handed    33253871 working-precision words and 12771 shell-pairs
 PRISM was handed    33253871 working-precision words and 12771 shell-pairs
 PRISM was handed    33253871 working-precision words and 12771 shell-pairs
 PRISM was handed    33253871 working-precision words and 12771 shell-pairs
 PRISM was handed    33253871 working-precision words and 12771 shell-pairs
 PRISM was handed    33253871 working-precision words and 12771 shell-pairs
 PRISM was handed    33253871 working-precision words and 12771 shell-pairs
 PRISM was handed    33253871 working-precision words and 12771 shell-pairs
 PRISM was handed    33253871 working-precision words and 12771 shell-pairs
 PRISM was handed    33253871 working-precision words and 12771 shell-pairs
 PRISM was handed    33253871 working-precision words and 12771 shell-pairs
 IPart=  0 NShTot=       15410 NBatch=         672 AvBLen=        22.9
 IPart= 16 NShTot=       14237 NBatch=         620 AvBLen=        23.0
 IPart=  4 NShTot=       15180 NBatch=         662 AvBLen=        22.9
 IPart=  5 NShTot=       15088 NBatch=         658 AvBLen=        22.9
 IPart= 19 NShTot=       14122 NBatch=         615 AvBLen=        23.0
 IPart=  2 NShTot=       15249 NBatch=         665 AvBLen=        22.9
 IPart= 10 NShTot=       14582 NBatch=         635 AvBLen=        23.0
 IPart= 13 NShTot=       14421 NBatch=         628 AvBLen=        23.0
 IPart= 15 NShTot=       14306 NBatch=         623 AvBLen=        23.0
 IPart= 11 NShTot=       14559 NBatch=         634 AvBLen=        23.0
 IPart= 18 NShTot=       14168 NBatch=         617 AvBLen=        23.0
 IPart= 17 NShTot=       14191 NBatch=         618 AvBLen=        23.0
 IPart=  6 NShTot=       14881 NBatch=         649 AvBLen=        22.9
 IPart=  7 NShTot=       14720 NBatch=         642 AvBLen=        22.9
 IPart=  1 NShTot=       15341 NBatch=         669 AvBLen=        22.9
 IPart= 12 NShTot=       14444 NBatch=         629 AvBLen=        23.0
 IPart=  8 NShTot=       14674 NBatch=         639 AvBLen=        23.0
 IPart=  9 NShTot=       14628 NBatch=         637 AvBLen=        23.0
 IPart= 14 NShTot=       14352 NBatch=         625 AvBLen=        23.0
 IPart=  3 NShTot=       15180 NBatch=         662 AvBLen=        22.9
 PrSmSu:  NxtVal=           2921.
 Polarizability after L701:
                1             2             3 
      1  0.000000D+00
      2  0.000000D+00  0.000000D+00
      3  0.000000D+00  0.000000D+00  0.000000D+00
 Dipole Derivatives after L701:
                 1             2             3             4             5 
      1  -0.904604D+00  0.827503D+00  0.155183D+00  0.247806D-01 -0.114890D+00
      2   0.618743D+00 -0.111596D+01  0.375436D+00 -0.116035D+00 -0.958680D+00
      3   0.318722D+00  0.280925D+00 -0.628206D+00 -0.588499D-01  0.142331D-01
                 6             7             8             9            10 
      1  -0.155470D+00 -0.688299D+00 -0.853587D+00  0.451791D+00 -0.775069D+00
      2  -0.805208D+00 -0.589483D+00 -0.820713D+00  0.413939D+00  0.196517D+00
      3  -0.868392D+00 -0.193037D+00  0.000000D+00 -0.723706D+00 -0.149625D+00
                11            12            13            14            15 
      1  -0.133221D-02 -0.110017D+01 -0.188491D+01  0.183298D+00 -0.290046D+00
      2  -0.459003D-01 -0.288021D+00  0.355666D+00 -0.200592D-01  0.122009D-01
      3  -0.278827D+00 -0.818369D+00  0.950765D-01 -0.611759D-01 -0.821061D+00
                16            17            18            19            20 
      1  -0.129163D+01 -0.751237D+00  0.788657D+00 -0.312985D+00  0.783368D+00
      2  -0.149451D+00 -0.123996D+01  0.268800D+00 -0.222134D+00 -0.141799D+01
      3  -0.245081D-01 -0.494635D-01 -0.892911D+00 -0.186064D-02  0.172587D-01
                21            22            23            24            25 
      1   0.134797D+00  0.847426D+00 -0.927802D-01  0.560613D+00 -0.135168D-01
      2  -0.682249D-01  0.194628D-01  0.162678D+00 -0.955284D-02 -0.227988D+00
      3  -0.988701D+00  0.394432D+00 -0.729278D-01  0.439579D+00 -0.391841D+00
                26            27            28            29            30 
      1   0.117276D+00  0.960209D-01  0.662960D+00 -0.287963D+00 -0.403756D+00
      2   0.308018D+00  0.827170D-01 -0.414747D+00  0.375874D+00  0.358950D+00
      3   0.235683D+00  0.347477D+00 -0.122466D+00  0.934492D-01  0.245485D+00
                31            32            33            34            35 
      1   0.118103D+00 -0.192328D+00  0.307176D+00  0.201138D+00  0.832199D-01
      2   0.704746D-01  0.538268D+00 -0.561078D+00  0.937770D-01  0.904438D+00
      3  -0.248820D-01 -0.230684D+00  0.478408D+00  0.341240D-01  0.358493D+00
                36            37            38            39            40 
      1   0.262791D-01  0.137572D+00 -0.198407D-01  0.152720D-01  0.773196D-01
      2   0.330598D+00 -0.174932D-01  0.558169D-01  0.103146D+00 -0.814252D-01
      3   0.275769D+00 -0.507249D-01 -0.395814D+00  0.516032D+00  0.113280D+00
                41            42            43            44            45 
      1  -0.318126D-02 -0.359226D+00  0.645841D+00  0.561074D+00  0.141979D+00
      2   0.130552D+00 -0.331665D+00  0.410336D+00  0.645114D+00  0.149216D+00
      3   0.524228D-02  0.619388D+00 -0.115062D-01  0.140180D-01  0.128376D+00
                46            47            48            49            50 
      1   0.457951D+00  0.163539D-01  0.809798D+00  0.969433D+00 -0.110343D+00
      2  -0.323648D-01  0.147531D+00 -0.102113D+00 -0.123194D+00  0.175400D+00
      3   0.153837D+00  0.263161D-02  0.536668D+00 -0.204873D+00  0.233225D-01
                51            52            53            54            55 
      1  -0.655413D+00 -0.104180D+00  0.748811D-01 -0.170315D+00  0.414941D+00
      2   0.916572D-01 -0.441681D+00  0.224362D+00 -0.244429D+00  0.286545D+00
      3   0.295709D+00  0.378083D+00 -0.940127D-01  0.347410D+00  0.141377D-01
                56            57            58            59            60 
      1   0.780321D+00  0.363456D+00  0.826912D+00 -0.424675D+00 -0.626806D+00
      2   0.800806D+00  0.317800D+00  0.109718D+00  0.393720D-01 -0.126375D+00
      3   0.130608D-01  0.144387D+00 -0.296297D+00  0.159603D+00  0.363652D+00
                61            62            63            64            65 
      1   0.580490D-01 -0.363600D-02  0.598821D-01 -0.216540D-01  0.162927D-01
      2   0.468455D+00  0.130768D+00 -0.389200D+00  0.385829D+00  0.419613D-01
      3  -0.256147D+00  0.110209D-01  0.395522D+00  0.305888D+00 -0.717518D-01
                66            67            68            69 
      1  -0.146844D+00  0.554425D+00 -0.587794D+00 -0.285416D-02
      2   0.420189D+00 -0.599529D+00  0.938301D+00  0.121920D-02
      3   0.511404D+00 -0.209608D-01  0.257161D-01  0.960818D-01
 Hessian after L701:
                1             2             3             4             5 
      1  0.157050D+02
      2 -0.459481D+00  0.161998D+02
      3 -0.507942D+00 -0.228814D+00  0.180609D+02
      4 -0.334133D+01  0.172043D+00  0.174796D+01  0.153530D+02
      5  0.192051D+00 -0.624819D+01  0.983782D-01 -0.535208D-01  0.167676D+02
      6  0.172998D+01  0.695987D-01 -0.522809D+01 -0.292268D+00 -0.366116D+00
      7  0.446706D+00  0.308759D-01 -0.219159D+00 -0.316166D+01 -0.648709D+00
      8 -0.683136D-01 -0.153640D+00  0.272133D-01 -0.603952D+00 -0.568232D+01
      9 -0.923515D-01  0.304758D-01 -0.109290D+00 -0.153285D+01  0.441440D+00
     10 -0.598145D+01  0.124033D+01  0.414743D+00  0.206015D+00  0.223052D+00
     11  0.118769D+01 -0.304989D+01  0.113782D+01  0.207556D+00  0.804611D-01
     12  0.383249D+00  0.113365D+01 -0.594505D+01  0.167770D+00  0.125678D+00
     13  0.186708D+00 -0.154854D+00  0.490776D-01  0.190463D+00 -0.211359D+00
     14 -0.165136D+00 -0.633922D-01 -0.151935D-01 -0.244337D+00  0.548802D-01
     15  0.510240D-01 -0.192635D-01 -0.150447D+00 -0.251338D+00  0.173808D+00
     16 -0.194927D-02  0.116207D+00 -0.497369D-01  0.357054D-01  0.284987D+00
     17  0.216724D+00  0.268830D+00 -0.139017D+00  0.238068D+00  0.660111D-01
     18 -0.448735D-01 -0.787809D-01 -0.183957D-01  0.636984D-01  0.707748D-01
     19  0.233997D-01 -0.156279D+00 -0.852859D-02 -0.119192D+00 -0.230572D+00
     20 -0.140764D+00  0.510314D-01  0.152727D-01 -0.172888D+00  0.260988D+00
     21  0.803225D-02  0.404252D-02 -0.127349D+00 -0.326249D-01  0.899496D-01
     22  0.695667D-01 -0.103780D+00 -0.276783D-01  0.967819D-01  0.724239D-01
     23 -0.998944D-01  0.123582D-01 -0.829596D-01  0.587058D-01 -0.297560D-01
     24 -0.279603D-01 -0.872012D-01  0.742500D-01  0.116778D+00  0.567072D-01
     25  0.148916D+00 -0.218728D-01 -0.415278D-01  0.224495D-01 -0.393161D-01
     26  0.422302D-01 -0.121892D+00 -0.703476D-01 -0.105484D-01 -0.173589D-01
     27  0.628113D-02 -0.111054D+00  0.818252D-01 -0.105576D-01 -0.504241D-01
     28 -0.294453D+01 -0.840784D+00 -0.105360D+01 -0.141635D+00  0.420000D-01
     29 -0.906601D+00 -0.390112D+01  0.622413D+00  0.697116D-01  0.141752D+00
     30 -0.102393D+01  0.560113D+00 -0.365744D+01 -0.649005D-01  0.239392D-01
     31 -0.446162D+01  0.197373D-01 -0.517800D-01  0.149151D-01  0.207537D-01
     32  0.997156D-01 -0.337580D+01 -0.134518D+01  0.188186D-01  0.125610D+00
     33 -0.148226D+00 -0.128858D+01 -0.280951D+01 -0.876559D-01 -0.308835D-01
     34 -0.302565D-01 -0.560003D-01 -0.829635D-01 -0.442000D+01  0.191424D+00
     35 -0.618555D-01  0.144746D+00 -0.989569D-02  0.192289D+00 -0.252468D+01
     36 -0.894305D-01 -0.771354D-02  0.360372D-01  0.946966D-01  0.987507D+00
     37  0.768095D-02  0.802075D-01 -0.156355D+00 -0.476113D+01  0.115462D+00
     38  0.390177D-01  0.140924D+00  0.844936D-03  0.114475D+00 -0.358098D+01
     39 -0.166267D+00  0.601050D-01 -0.277165D-01 -0.153525D+00 -0.155382D+01
     40  0.445633D-01  0.143654D-01 -0.565877D-02  0.600094D-01  0.318629D-01
     41  0.872841D-02 -0.480026D-01 -0.386417D-02 -0.533273D-03  0.215053D+00
     42 -0.564612D-01 -0.181434D-01 -0.258393D-01  0.257217D+00 -0.395561D-01
     43  0.124552D+00  0.398365D-01  0.247433D-02 -0.344601D-01  0.506267D-01
     44  0.503074D-01 -0.237235D-01 -0.322548D-03  0.506823D-01  0.151624D+00
     45  0.976064D-02  0.650048D-02 -0.440932D-01  0.912534D-01  0.134995D-01
     46  0.280946D-01 -0.121547D-01  0.133594D-01 -0.380783D-01  0.294526D-02
     47 -0.132480D-01 -0.893322D-02 -0.354795D-02  0.124880D-01  0.951431D-02
     48  0.251031D-01 -0.463194D-02 -0.565817D-02  0.174940D-02 -0.682254D-02
     49  0.505013D-02  0.173252D-02 -0.552773D-02  0.130553D+00 -0.108604D+00
     50 -0.202109D-02 -0.703513D-02  0.636982D-03 -0.918516D-01 -0.477960D-02
[...]
 .00024422,0.00028400,0.00119756,-0.00082661,-0.00043830,0.00026148,0.0
 0016018,-0.00020335,-0.00002847,0.00005503,-0.00009155,-0.00126766,-0.
 00129694,-0.00306387,0.00055860,0.00094340,-0.00016109,0.09913539,0.11
 696874,0.00025157,0.00063649,0.00063106,-0.01801711,-0.01147581,0.0107
 6207,0.08752570,0.05895637,-0.10280934,0.00124386,-0.00055703,-0.00011
 278,0.01340884,0.00708348,-0.00935732,0.00018146,-0.00065068,-0.000205
 22,-0.00128718,0.00033768,0.00055327,-0.00014013,0.00006531,-0.0001353
 6,0.00023310,-0.00080416,-0.00075020,-0.00000455,0.00023113,0.00005508
 ,0.00001581,-0.00007117,-0.00004580,-0.00275977,-0.00321930,-0.0024879
 1,0.00047050,0.00084887,0.00112877,-0.09812998,-0.05911169,0.11402016,
 0.00062675,0.00073295,0.00109874,-0.00795231,0.01057643,-0.01404552,-0
 .09117730,0.06292833,-0.07007708,0.00046628,-0.00026597,0.00006537,-0.
 00870128,0.01247425,-0.01320684,0.00010071,-0.00004363,0.00014574,-0.0
 0127589,0.00188098,0.00327581,0.00000112,0.00001975,-0.00010428,-0.000
 12709,-0.00017438,-0.00024979,-0.00009450,-0.00004511,0.00034833,0.000
 39724,-0.00058706,-0.00002499,0.00005952,0.00045587,0.00042491,-0.0013
 7521,-0.00202065,-0.00198597,0.01039033,-0.01473447,0.01635397,0.09783
 422,-0.00038050,0.00171270,-0.00064304,-0.00739144,0.01042547,-0.01412
 484,0.06330777,-0.14242775,0.10697450,0.00012789,0.00006175,0.00017234
 ,0.00806373,-0.01447830,0.01532611,-0.00008588,-0.00011662,-0.00014725
 ,0.00258441,-0.00226944,-0.00386480,0.00000021,0.00002210,0.00002016,-
 0.00005088,-0.00003731,0.00012121,-0.00011871,0.00017811,0.00020626,-0
 .00003092,-0.00009819,0.00061298,0.00043444,0.00055905,0.00069635,-0.0
 0201374,-0.00160716,-0.00317131,0.00627594,-0.01006632,0.01017916,-0.0
 7096747,0.15734514,-0.00031159,0.00146420,0.00062064,-0.00947733,0.012
 39867,-0.01818187,-0.07054024,0.10791321,-0.16447292,-0.00006544,-0.00
 002209,-0.00025281,0.00757395,-0.01167425,0.01146476,-0.00009701,0.000
 20056,0.00004758,0.00186747,-0.00192715,-0.00137464,0.00013685,-0.0000
 1281,0.00006476,0.00036750,0.00021183,-0.00020750,0.00011215,-0.000118
 02,0.00050635,0.00032180,-0.00100281,0.00002141,0.00005105,-0.00018558
 ,0.00075842,-0.00275016,-0.00327193,-0.00185495,-0.00596310,0.00908156
 ,-0.01077460,0.07924188,-0.11292929,0.18138582,0.00014216,0.00013731,-
 0.00013507,0.00065664,-0.00074042,-0.00129879,-0.01624923,-0.00834500,
 0.01031220,-0.00016660,-0.00010851,-0.00015683,-0.18493763,-0.09086956
 ,0.09207318,0.00006649,-0.00001259,-0.00002170,0.01097427,0.00773291,-
 0.00816680,0.00007385,0.00006264,0.00005140,0.00015349,-0.00000156,0.0
 0009903,0.00000657,0.00004620,0.00002611,-0.00005587,0.00004321,-0.000
 01217,0.00068783,0.00051226,0.00042436,0.00005264,0.00004027,-0.000044
 77,-0.00118773,0.00342839,0.00150833,0.00012199,0.00002851,-0.00049215
 ,0.20240877,0.00018550,0.00008560,0.00017841,0.00101554,0.00165761,0.0
 0041414,0.01751424,0.00986237,-0.01248292,0.00015372,-0.00005040,-0.00
 003235,-0.09083986,-0.10572541,0.05952169,-0.00001431,-0.00004527,-0.0
 0000716,-0.01630742,-0.01192720,0.01186708,-0.00005244,-0.00004447,-0.
 00008810,-0.00015166,-0.00001150,-0.00006108,-0.00004709,0.00002602,0.
 00004456,0.00000142,-0.00001664,0.00000532,-0.00048670,-0.00009525,0.0
 0039310,-0.00002995,-0.00005912,-0.00008405,0.00284948,-0.00241816,-0.
 00288363,-0.00062518,0.00092131,0.00064086,0.09503214,0.11698478,-0.00
 014229,-0.00027464,0.00020627,0.00068523,0.00158927,0.00031055,0.01247
 236,0.00681195,-0.00877081,0.00009509,0.00012490,0.00004402,0.09083822
 ,0.05865227,-0.10996707,-0.00006783,0.00002422,0.00001994,0.01495176,0
 .01108327,-0.01167618,-0.00008803,-0.00005507,-0.00001694,-0.00013431,
 -0.00001567,-0.00004820,-0.00001187,-0.00001107,-0.00001381,0.00001650
 ,0.,-0.00000970,-0.00056160,-0.00065065,-0.00019234,0.00000992,-0.0000
 4811,0.00001121,0.00179419,-0.00225329,-0.00070723,-0.00041760,-0.0001
 7735,0.00055620,-0.10150520,-0.06657771,0.11951787,0.00081395,0.000625
 71,0.00066903,-0.00260009,0.00201990,0.00125577,0.01116416,0.01113603,
 0.01513484,0.00013614,-0.00006482,-0.00006640,-0.13152215,-0.07201266,
 -0.09931386,-0.00002550,0.00001276,0.00000181,-0.00872389,-0.00520693,
 -0.00932946,-0.00000570,-0.00001344,-0.00001441,-0.00004863,-0.0000277
 3,-0.00001740,-0.00019479,0.00032524,0.00015168,0.00000120,-0.00000455
 ,-0.00001989,0.00025432,0.00028227,-0.00008238,0.00002788,-0.00004045,
 0.00012117,0.00076422,-0.00069895,-0.00035449,0.00083208,-0.00071934,-
 0.00048084,-0.01382073,-0.01114544,-0.01616904,0.14213885,-0.00102674,
 -0.00012874,-0.00114443,0.00431052,-0.00249394,-0.00139771,-0.01316513
 ,-0.01204721,-0.01493599,-0.00013517,-0.00015326,0.00000568,-0.0715511
 3,-0.10559427,-0.08400268,0.00006178,0.00000180,0.00001619,0.01551033,
 0.01043406,0.01753535,0.00009372,0.00001962,-0.00004723,0.00003609,0.0
 0005846,0.00002306,0.00025398,-0.00044200,-0.00022124,0.00000305,-0.00
 001880,0.00006728,0.00039402,0.00031329,0.00033309,0.00000593,0.000066
 25,-0.00025643,0.00018373,0.00092390,0.00025585,-0.00050539,0.00011146
 ,0.00057171,-0.00841152,-0.00793663,-0.01030678,0.07273557,0.11785564,
 -0.00094191,-0.00031212,-0.00054251,0.00339167,-0.00166909,0.00015565,
 -0.00884036,-0.00816267,-0.01150219,-0.00014025,-0.00004475,0.00002813
 ,-0.09854807,-0.08321294,-0.16794220,0.00004025,0.00001772,0.00001197,
 -0.01286741,-0.00878800,-0.01474672,0.00004652,0.00000926,-0.00001231,
 0.00003580,0.00003300,0.00003276,0.00020035,-0.00030273,-0.00016083,0.
 00003567,-0.00005011,0.00001200,-0.00014343,-0.00002559,0.00009510,-0.
 00002058,0.00026547,0.00022607,-0.00012443,0.00053707,-0.00005109,0.00
 015746,0.00018688,0.00085989,0.00865730,0.00753997,0.01160379,0.109565
 86,0.09116755,0.18247120,0.00004270,-0.00061361,-0.00035288,-0.0004025
 0,-0.00018646,0.00067694,0.00016024,0.00019565,-0.00007021,-0.00272652
 ,0.00465783,0.00094666,-0.00009860,-0.00009561,0.00004454,-0.07726144,
 0.07790175,0.03267243,0.00010900,-0.00003141,-0.00003215,0.00070655,0.
 00054647,-0.00106898,-0.00001854,0.00014741,0.00024428,0.00002521,-0.0
 0002676,0.00003702,0.00001245,0.00019624,0.00002285,0.00006409,-0.0000
 8943,-0.00012690,-0.00129499,-0.00061019,0.00114316,0.00003584,-0.0000
 7268,-0.00025936,-0.00008297,-0.00006586,-0.00006067,-0.00003523,0.000
 03565,0.00002941,0.00000333,-0.00001475,-0.00004284,0.08183742,0.00077
 264,-0.00004698,-0.00077068,0.00038333,-0.00037972,0.00017635,-0.00003
 826,0.00032448,0.00004496,0.00750981,-0.01927937,-0.00773828,0.0000249
 1,0.00012505,-0.00001157,0.07730720,-0.24761364,-0.08392564,-0.0000028
 4,0.00007718,0.00002342,0.00023435,-0.00165097,0.00402652,-0.00007081,
 0.00103341,-0.00012157,0.00001764,0.00004182,0.00005946,-0.00013762,0.
 00020303,0.00013341,-0.00013202,0.00037578,-0.00031071,-0.00071484,0.0
 0050996,-0.00023738,0.00000352,0.00009414,0.00041308,0.00003509,0.0000
 2363,-0.00019709,0.00004948,-0.00003365,-0.00002663,-0.00000652,-0.000
 01849,-0.00001671,-0.08705477,0.26993076,-0.00016404,-0.00053868,0.000
 93447,0.00121163,-0.00016723,-0.00023617,0.00059605,0.00042836,-0.0002
 7851,-0.00952507,0.02298077,0.01064180,-0.00001656,-0.00017978,-0.0000
 0486,0.03243718,-0.08490263,-0.08192698,0.00000386,0.00011780,0.000031
 69,-0.00056506,0.00417578,-0.00366019,-0.00003282,-0.00095311,0.001309
 03,0.00005333,0.00003541,-0.00007883,-0.00013044,-0.00023218,0.0000740
 3,-0.00016517,-0.00004348,-0.00003147,0.00085072,0.00039052,-0.0008114
 2,-0.00048390,-0.00017723,-0.00040149,-0.00014963,-0.00009262,0.000191
 62,-0.00006972,0.00005744,0.00003655,-0.00000258,0.00001972,0.00000117
 ,-0.03611671,0.08993692,0.08867597,0.00052307,0.00078137,-0.00074185,-
 0.00010543,0.00017886,-0.00027228,-0.00002634,-0.00010998,0.00001445,0
 .00627081,0.00160155,-0.00408123,0.00003168,-0.00002208,-0.00001352,-0
 .24819966,-0.04047423,0.11138594,-0.00003456,0.00001341,0.00000508,0.0
 0049408,-0.00059625,0.00026433,0.00031152,-0.00040871,0.00052384,0.000
 18513,0.00025295,-0.00007004,0.00017677,0.00021966,-0.00003014,0.00003
 695,-0.00011550,0.00013015,0.00024290,-0.00027289,0.00009329,-0.000037
 24,-0.00001147,-0.00002329,0.00003019,0.00002686,0.00005767,-0.0000123
 5,0.00000257,-0.00000093,-0.00000012,0.00002697,0.00002598,-0.00904044
 ,-0.00173839,0.00391730,0.26693542,0.00240395,-0.00290469,0.00370323,0
 .00079403,-0.00046231,0.00001701,-0.00011463,0.00007330,0.00004979,-0.
 02077459,-0.00488218,0.00995805,0.00005554,0.00005508,0.00002142,-0.03
 961804,-0.05414975,0.02105817,-0.00001915,-0.00003158,0.00002398,-0.00
 040606,0.00046183,-0.00084844,0.00040790,0.00070884,-0.00038402,0.0003
 3893,0.00018814,-0.00018099,-0.00125304,-0.00034932,0.00099025,-0.0001
 1963,0.00023516,-0.00017701,-0.00027300,0.00028857,-0.00045782,0.00011
 395,0.00004704,0.00006915,-0.00001972,0.00000201,-0.00009374,0.0000134
 9,-0.00001074,-0.00001745,-0.00001150,0.00001471,0.00000160,0.02513572
 ,0.00590177,-0.01313017,0.04315334,0.05765819,-0.00258846,0.00296698,-
 0.00306023,-0.00041768,0.00033738,0.00026061,0.00009081,0.00003708,0.0
 0008715,0.02170843,0.00324885,-0.01139345,-0.00004793,0.00001003,-0.00
 000544,0.11069745,0.02135806,-0.10832013,0.00001480,-0.00001274,-0.000
 02708,-0.00024867,-0.00026892,0.00123171,-0.00004302,-0.00085714,0.000
 21253,0.00015241,0.00020509,0.00010602,0.00134467,0.00057157,-0.000557
 74,0.00003743,-0.00001751,-0.00004120,-0.00012130,-0.00011466,0.000014
 73,0.00005057,0.00002414,0.00005621,0.00002665,0.00005433,-0.00000067,
 0.00000675,-0.00000373,0.00000550,0.00000948,-0.00003901,-0.00003284,0
 .00995309,0.00219286,-0.00639821,-0.12153643,-0.02661566,0.11637738,0.
 00089853,0.00025514,0.00118547,0.00031024,0.00003153,-0.00004372,0.000
 13005,-0.00006016,0.00017425,-0.00371221,-0.00127704,-0.00323102,-0.00
 001447,0.00001317,-0.00000500,-0.16434842,-0.06172309,-0.11538240,0.00
 002042,0.00000582,-0.00001000,-0.00024402,0.00015333,-0.00004185,0.000
 88345,0.00104950,0.00004224,0.00049437,0.00008563,-0.00048316,0.000046
 01,0.00011585,0.00006594,0.00000428,-0.00001808,-0.00009893,-0.0000140
 8,0.00011252,-0.00026660,-0.00004664,-0.00000465,-0.00005859,-0.000093
 47,0.00001854,0.00006008,0.00000719,-0.00000059,0.00000472,0.00000147,
 -0.00001275,-0.00000513,0.00801123,0.00366459,0.00843615,-0.01781168,-
 0.00980699,-0.01907379,0.17548794,0.00079513,0.00143432,-0.00043220,-0
 .00034525,0.00009532,-0.00019693,-0.00011547,-0.00016494,0.00011957,0.
 01572903,0.00841064,0.01636871,0.00000153,0.00005468,-0.00006309,-0.06
 185767,-0.07965438,-0.06205331,-0.00007710,-0.00005838,0.00002301,0.00
 012080,0.00085208,-0.00086981,0.00057761,-0.00269861,0.00399496,-0.000
 35148,-0.00018967,-0.00053036,0.00018767,-0.00002816,-0.00033226,0.000
 02998,0.00002967,0.00003454,0.00002096,-0.00018754,0.00004988,0.000133
 44,0.00004696,0.00016454,0.00011376,0.00010379,-0.00008277,0.00002051,
 -0.00001417,-0.00002228,0.00000722,-0.00001195,0.00000610,-0.01995594,
 -0.00961798,-0.01765149,-0.00249618,-0.00289774,-0.00308117,0.06741250
 ,0.08442849,-0.00096208,-0.00122998,0.00093911,0.00002593,0.00003579,-
 0.00018727,-0.00023774,-0.00010053,0.00006520,-0.01638970,-0.00861885,
 -0.01810008,0.00009866,0.00009343,0.00003055,-0.11511818,-0.06179053,-
 0.16108649,-0.00005119,-0.00003667,-0.00002517,0.00023489,0.00004874,0
 .00090878,-0.00050987,0.00423156,-0.00277840,0.00080393,0.00056525,-0.
 00004382,0.00011756,0.00008946,0.00051490,0.00011050,-0.00005673,0.000
 04404,0.00014905,-0.00033535,-0.00017536,0.00007319,0.00022038,0.00010
 666,0.00008204,0.00001861,0.00005661,0.00003798,-0.00003251,-0.0000350
 8,-0.00000852,0.00001603,0.00002025,-0.00759397,-0.00373212,-0.0081492
 5,0.01034405,0.00601726,0.01148163,0.12873854,0.06457446,0.17640016,0.
 00012783,-0.00008892,0.00058825,0.00011198,0.00029157,-0.00090227,-0.0
 0011926,-0.00087324,-0.00051518,-0.00007305,-0.00005263,-0.00004821,-0
 .00849537,-0.00545495,-0.00727989,0.00004035,0.00008189,0.00002026,-0.
 16327163,-0.07595713,-0.10874393,0.00004217,-0.00000594,-0.00000324,0.
 00004441,0.00000576,0.00002573,-0.00002413,0.00004817,0.00000325,0.000
 14345,-0.00020413,-0.00006422,-0.00016446,0.00006732,0.00004485,-0.000
 01974,0.00039996,0.00103700,0.00002760,0.00006582,-0.00003173,0.000164
 67,0.00017692,0.00017797,0.00080357,0.00031701,0.00044304,0.00022664,0
 .00218393,-0.00128959,-0.00010702,-0.00004513,-0.00001907,0.00004133,-
 0.00003270,-0.00002453,-0.00000577,0.00002744,0.00003443,0.17419126,-0
 .00003451,-0.00012566,0.00013731,0.00046317,-0.00028225,-0.00103165,-0
 .00031955,0.00101397,-0.00037328,0.00000410,0.00008420,0.00000737,0.01
 606876,0.01152939,0.01531685,-0.00001982,-0.00002437,0.00000810,-0.077
 15141,-0.09699484,-0.07238835,-0.00003740,-0.00000688,0.00002322,-0.00
 000125,-0.00001452,0.00000259,0.00000165,0.00002127,0.00001717,0.00001
 372,0.00000514,0.00001948,-0.00033616,-0.00015513,0.00014916,0.0009354
 2,-0.00164984,-0.00047019,0.00003460,-0.00009212,-0.00003395,-0.000267
 50,0.00005914,-0.00006138,-0.00059020,0.00122334,-0.00079293,0.0026161
 9,-0.00291638,0.00330777,-0.00002796,0.00002672,-0.00000984,-0.0000082
 3,-0.00000101,0.00001003,0.00000758,0.00001367,0.00000231,0.08215001,0
 .10530921,0.00020604,0.00005890,0.00031455,0.00002862,-0.00040251,-0.0
 0039037,0.00063685,-0.00033987,0.00015116,-0.00001728,-0.00005827,-0.0
 0001258,-0.01375913,-0.00913197,-0.01429964,0.00001336,-0.00002114,-0.
 00000989,-0.10880201,-0.07165686,-0.14992729,0.00002258,0.00001733,-0.
 00001181,0.00003028,0.00000605,-0.00000306,-0.00003780,0.00005833,0.00
 003547,0.00005625,-0.00009749,-0.00004118,-0.00005691,0.00025718,-0.00
 012575,0.00065988,-0.00110184,0.00039139,0.00001880,0.00003863,0.00003
 095,0.00001168,0.00004537,0.00003455,0.00053551,-0.00046986,0.00043465
 ,-0.00158830,0.00372304,-0.00174357,-0.00000139,0.00003673,0.00000890,
 -0.00000558,0.00001452,-0.00000053,-0.00000189,-0.00000489,0.00000535,
 0.12124228,0.07784553,0.16354958,-0.00001255,0.00005663,0.00000557,0.0
 0004169,-0.00018384,0.00011069,0.00154347,0.00008187,-0.00053402,0.000
 01068,-0.00003443,0.00006487,0.01026975,0.00679481,-0.00750586,-0.0000
 0087,-0.00003803,-0.00003002,-0.18330934,-0.08270478,0.10299800,0.0000
 0709,0.00001739,-0.00003717,-0.00001984,0.00000184,-0.00001744,-0.0000
 0027,-0.00002230,-0.00000919,0.00001038,0.00000349,-0.00000799,-0.0000
 2087,0.00005444,-0.00013766,-0.00013118,-0.00021676,0.00003273,-0.0000
 8326,-0.00061048,0.00009778,0.00015162,-0.00020215,-0.00011388,-0.0001
 2093,0.00277114,-0.00198973,0.00063322,-0.00062214,0.00052921,0.000075
 45,-0.00006803,-0.00002574,-0.00000370,0.00002280,-0.00000201,-0.00000
 374,-0.00000334,-0.00000227,-0.01513652,-0.00771739,0.01199918,0.19715
 407,-0.00000057,0.00005950,-0.00011408,0.00007181,-0.00019468,-0.00003
 543,-0.00176785,0.00097313,0.00032769,-0.00001128,-0.00004211,0.000044
 20,-0.01634590,-0.01181415,0.01266198,0.00006166,-0.00015692,-0.000047
 69,-0.08250533,-0.09632811,0.06095255,0.00001321,0.00004728,-0.0000238
 4,0.00002041,-0.00000968,-0.00000197,0.00000846,-0.00001136,0.00000484
 ,-0.00001469,0.00003745,0.00001003,0.00010889,0.00028204,0.00000803,-0
 .00020912,-0.00012635,-0.00014103,0.00082580,-0.00012355,-0.00039202,0
 .00015857,0.00044165,-0.00019126,0.00258610,-0.00244131,0.00318320,0.0
 0028541,0.00076380,-0.00047281,0.00003027,0.00001434,-0.00006389,-0.00
 002407,0.00004801,0.00001384,-0.00000935,0.00004387,0.00002062,-0.0097
 4981,-0.00678243,0.00809424,0.08934389,0.10399940,0.00004719,0.0000453
 9,-0.00002234,-0.00010798,0.00007869,0.00023596,0.00051051,-0.00135913
 ,0.00091771,0.00001634,0.00002888,0.00001767,0.01565332,0.01019578,-0.
 01242832,0.00000771,-0.00004384,-0.00003695,0.10256839,0.06105439,-0.1
 2461687,-0.00000499,0.00000781,0.00000238,0.00000230,0.00000557,-0.000
 00697,-0.00001255,0.00002356,0.00001813,-0.00001201,0.00001293,0.00000
 806,-0.00005457,-0.00002552,-0.00011175,-0.00007279,0.00025444,-0.0001
 0746,-0.00059700,0.00031684,0.00053911,-0.00015660,-0.00036932,0.00004
 014,-0.00247628,0.00271240,-0.00194534,0.00023944,-0.00065315,0.000105
 35,0.00000688,0.00006005,0.00005181,-0.00001064,0.00000983,0.00001495,
 -0.00000586,-0.00000185,-0.00000170,-0.01497409,-0.00874663,0.01236820
 ,-0.11224149,-0.07143916,0.13451858,0.00009168,0.00000048,0.00025821,0
 .00002930,-0.00022778,-0.00066425,-0.00042147,0.00172489,-0.00301332,-
 0.00001617,-0.00002309,-0.00001510,-0.00729622,0.00818093,0.00726176,0
 .00003019,-0.00004060,-0.00001196,-0.10830523,0.09067727,0.06740082,0.
 00000459,0.00002418,0.00000326,0.00004456,-0.00000852,-0.00000542,-0.0
 0001952,0.00004339,0.00005401,0.00005321,-0.00009609,-0.00002569,-0.00
 000485,0.00013037,-0.00000110,0.00001553,-0.00026920,0.00035779,0.0004
 7057,-0.00025684,-0.00022474,-0.00029667,0.00098167,0.00038404,0.00043
 085,-0.00017777,-0.00025199,-0.00005584,-0.00035490,0.00027793,-0.0000
 1525,0.00000665,-0.00003971,-0.00000833,0.00000938,0.00001129,-0.00000
 068,0.00002485,0.00002276,0.01145169,-0.01578383,-0.01119100,-0.011054
 35,0.01712351,0.01167478,0.11487240,-0.00004703,-0.00003361,0.00010696
 ,0.00030352,0.00043417,0.00017411,0.00074069,-0.00189703,0.00429345,-0
 .00001287,-0.00002988,0.00005040,0.00978747,-0.01494407,-0.01244822,0.
 00002776,-0.00001252,-0.00001025,0.09080767,-0.18236157,-0.09962988,0.
 00001872,-0.00000663,-0.00004907,-0.00004396,0.00000638,0.00000485,0.0
 0000462,-0.00003725,-0.00006771,0.00004439,-0.00000902,-0.00004617,-0.
 00007780,0.00001095,-0.00001299,-0.00003910,-0.00003621,0.00017765,0.0
 0011238,0.00016007,-0.00004166,0.00088053,-0.00086622,-0.00071242,-0.0
 0065409,0.00006886,-0.00023944,-0.00009398,0.00119867,-0.00001486,-0.0
 0000153,-0.00004128,-0.00000039,0.00002043,0.00000669,-0.00001971,-0.0
 0001301,0.00001001,-0.00000063,0.00664879,-0.01024062,-0.00691116,-0.0
 0672463,0.01132017,0.00783204,-0.10168896,0.19729994,0.00010683,-0.000
 00836,0.00034460,-0.00017743,-0.00001991,-0.00071555,-0.00132550,0.002
 64368,-0.00325902,-0.00002691,-0.00002231,-0.00005466,-0.01184516,0.01
 657967,0.01241188,-0.00000801,0.00009839,0.00002809,0.06821086,-0.1006
 9221,-0.12013185,0.00002221,-0.00001501,0.00001375,0.00003528,0.000012
 48,0.00000287,-0.00001874,0.00004269,0.00003906,0.00007552,-0.00013347
 ,-0.00002737,0.00001676,0.00000061,0.00004587,0.00016865,-0.00011451,0
 .00050555,-0.00017211,-0.00006621,-0.00004500,-0.00081429,0.00090555,0
 .00051119,0.00064732,-0.00065186,0.00063617,0.00029848,-0.00072991,0.0
 0111091,-0.00005122,-0.00001539,0.00002033,0.00002385,-0.00002894,-0.0
 0001087,0.00000057,-0.00001337,0.00000936,0.01027890,-0.01293870,-0.01
 075909,0.00681646,-0.01239803,-0.00956033,-0.07226234,0.10756510,0.128
 88410\\-0.00000107,0.00000044,-0.00000062,-0.00000038,0.00000061,-0.00
 000011,0.00000049,-0.00000061,-0.00000020,-0.00000116,-0.00000036,-0.0
 0000062,0.00000103,-0.00000042,0.00000061,-0.00000074,-0.00000006,-0.0
 0000012,0.00000186,0.00000059,0.00000119,-0.00000191,-0.00000077,-0.00
 000128,-0.00000074,-0.00000135,-0.00000095,-0.00000188,0.00000070,-0.0
 0000087,-0.00000165,-0.00000044,-0.00000109,-0.00000069,0.00000071,-0.
 00000014,-0.00000018,0.00000098,0.00000019,0.00000048,-0.00000095,0.00
 000015,0.00000004,-0.00000113,-0.00000025,0.00000084,0.00000011,0.0000
 0064,0.00000170,-0.00000088,0.00000060,0.00000009,0.00000010,0.0000000
 2,-0.00000059,-0.00000033,-0.00000043,-0.00000105,0.00000075,-0.000000
 54,0.00000129,0.00000133,0.00000109,0.00000193,0.00000024,0.00000117,0
 .00000229,0.00000072,0.00000157\\\@


 Some scientists claim that hydrogen, because it is so
 plentiful, is the basic building block of the universe. 
 I dispute that. I say that stupidity is far more
 abundant than hydrogen, and THAT is the basic building 
 block of the universe.
                   --Frank Zappa
 Job cpu time:       0 days  5 hours 30 minutes 46.7 seconds.
 Elapsed time:       0 days  2 hours 45 minutes 25.0 seconds.
 File lengths (MBytes):  RWF=   1488 Int=      0 D2E=      0 Chk=     32 Scr=     32
 Normal termination of Gaussian 16 at Mon Sep 30 09:03:07 2019.
