 Entering Gaussian System, Link 0=g16
 Input=verytight/species/CCCCCCC/conformers/CCCCCCC_430.com
 Output=verytight/species/CCCCCCC/conformers/CCCCCCC_430.log
 Initial command:
 /shared/centos7/gaussian/g16/l1.exe "/scratch/harms.n/gauss_scrdir/Gau-1382.inp" -scrdir="/scratch/harms.n/gauss_scrdir/"
 Entering Link 1 = /shared/centos7/gaussian/g16/l1.exe PID=      1383.
  
 Copyright (c) 1988,1990,1992,1993,1995,1998,2003,2009,2016,
            Gaussian, Inc.  All Rights Reserved.
  
 This is part of the Gaussian(R) 16 program.  It is based on
 the Gaussian(R) 09 system (copyright 2009, Gaussian, Inc.),
 the Gaussian(R) 03 system (copyright 2003, Gaussian, Inc.),
 the Gaussian(R) 98 system (copyright 1998, Gaussian, Inc.),
 the Gaussian(R) 94 system (copyright 1995, Gaussian, Inc.),
 the Gaussian 92(TM) system (copyright 1992, Gaussian, Inc.),
 the Gaussian 90(TM) system (copyright 1990, Gaussian, Inc.),
 the Gaussian 88(TM) system (copyright 1988, Gaussian, Inc.),
 the Gaussian 86(TM) system (copyright 1986, Carnegie Mellon
 University), and the Gaussian 82(TM) system (copyright 1983,
 Carnegie Mellon University). Gaussian is a federally registered
 trademark of Gaussian, Inc.
  
 This software contains proprietary and confidential information,
 including trade secrets, belonging to Gaussian, Inc.
  
 This software is provided under written license and may be
 used, copied, transmitted, or stored only in accord with that
 written license.
  
 The following legend is applicable only to US Government
 contracts under FAR:
  
                    RESTRICTED RIGHTS LEGEND
  
 Use, reproduction and disclosure by the US Government is
 subject to restrictions as set forth in subparagraphs (a)
 and (c) of the Commercial Computer Software - Restricted
 Rights clause in FAR 52.227-19.
  
 Gaussian, Inc.
 340 Quinnipiac St., Bldg. 40, Wallingford CT 06492
  
  
 ---------------------------------------------------------------
 Warning -- This program may not be used in any manner that
 competes with the business of Gaussian, Inc. or will provide
 assistance to any competitor of Gaussian, Inc.  The licensee
 of this program is prohibited from giving any competitor of
 Gaussian, Inc. access to this program.  By using this program,
 the user acknowledges that Gaussian, Inc. is engaged in the
 business of creating and licensing software in the field of
 computational chemistry and represents and warrants to the
 licensee that it is not a competitor of Gaussian, Inc. and that
 it will not use this program in any manner prohibited above.
 ---------------------------------------------------------------
  

 Cite this work as:
 Gaussian 16, Revision A.03,
 M. J. Frisch, G. W. Trucks, H. B. Schlegel, G. E. Scuseria, 
 M. A. Robb, J. R. Cheeseman, G. Scalmani, V. Barone, 
 G. A. Petersson, H. Nakatsuji, X. Li, M. Caricato, A. V. Marenich, 
 J. Bloino, B. G. Janesko, R. Gomperts, B. Mennucci, H. P. Hratchian, 
 J. V. Ortiz, A. F. Izmaylov, J. L. Sonnenberg, D. Williams-Young, 
 F. Ding, F. Lipparini, F. Egidi, J. Goings, B. Peng, A. Petrone, 
 T. Henderson, D. Ranasinghe, V. G. Zakrzewski, J. Gao, N. Rega, 
 G. Zheng, W. Liang, M. Hada, M. Ehara, K. Toyota, R. Fukuda, 
 J. Hasegawa, M. Ishida, T. Nakajima, Y. Honda, O. Kitao, H. Nakai, 
 T. Vreven, K. Throssell, J. A. Montgomery, Jr., J. E. Peralta, 
 F. Ogliaro, M. J. Bearpark, J. J. Heyd, E. N. Brothers, K. N. Kudin, 
 V. N. Staroverov, T. A. Keith, R. Kobayashi, J. Normand, 
 K. Raghavachari, A. P. Rendell, J. C. Burant, S. S. Iyengar, 
 J. Tomasi, M. Cossi, J. M. Millam, M. Klene, C. Adamo, R. Cammi, 
 J. W. Ochterski, R. L. Martin, K. Morokuma, O. Farkas, 
 J. B. Foresman, and D. J. Fox, Gaussian, Inc., Wallingford CT, 2016.
 
 ******************************************
 Gaussian 16:  EM64L-G16RevA.03 25-Dec-2016
                29-Sep-2019 
 ******************************************
 %nprocshared=20
 Will use up to   20 processors via shared memory.
 %mem=5GB
 ----------------------------------------------------------------------
 #p m062x/cc-pVTZ opt=(calcfc,maxcycles=900,Tight) freq IOP(7/33=1,2/16
 =3) scf=(maxcycle=900)
 ----------------------------------------------------------------------
 1/6=900,7=10,10=4,18=20,19=15,26=3,38=1/1,3;
 2/9=110,12=2,16=3,17=6,18=5,40=1/2;
 3/5=16,6=1,11=2,25=1,30=1,71=2,74=-55,140=1/1,2,3;
 4//1;
 5/5=2,7=900,38=5/2;
 8/6=4,10=90,11=11/1;
 11/6=1,8=1,9=11,15=111,16=1/1,2,10;
 10/6=1,13=1/2;
 6/7=2,8=2,9=2,10=2,28=1/1;
 7/10=1,18=20,25=1,33=1/1,2,3,16;
 1/6=900,7=10,10=4,18=20,19=15,26=3/3(2);
 2/9=110,16=3/2;
 99//99;
 2/9=110,16=3/2;
 3/5=16,6=1,11=2,25=1,30=1,71=1,74=-55/1,2,3;
 4/5=5,16=3,69=1/1;
 5/5=2,7=900,38=5/2;
 7/33=1/1,2,3,16;
 1/6=900,7=10,18=20,19=15,26=3/3(-5);
 2/9=110,16=3/2;
 6/7=2,8=2,9=2,10=2,19=2,28=1/1;
 99/9=1/99;
 Leave Link    1 at Sun Sep 29 12:00:45 2019, MaxMem=   671088640 cpu:               2.7 elap:               1.4
 (Enter /shared/centos7/gaussian/g16/l101.exe)
 ------------------------------
 Gaussian input prepared by ASE
 ------------------------------
 Symbolic Z-matrix:
 Charge =  0 Multiplicity = 1
 C                     1.62585  -1.06351   0.91671 
 C                     0.1679   -0.75403   0.89256 
 C                    -0.3376   -0.01002   2.1033 
 C                     2.4059   -0.4347   -0.18834 
 C                     0.46717   1.22317   2.43986 
 C                     1.8016   -0.59091  -1.52251 
 C                     0.04967   1.88702   3.7263 
 H                     3.44775  -0.86328  -0.19055 
 H                     2.53094   0.65342   0.02643 
 H                     1.7711   -2.164     0.87943 
 H                     2.06554  -0.73624   1.88118 
 H                    -0.40814  -1.68802   0.80022 
 H                    -0.0688   -0.17165  -0.0229 
 H                    -0.33597  -0.69098   2.9713 
 H                    -1.39719   0.27324   1.93545 
 H                     1.54899   0.93601   2.50859 
 H                     0.39174   1.95124   1.61434 
 H                     1.81669  -1.64491  -1.85828 
 H                     0.72268  -0.25498  -1.49778 
 H                     2.33431   0.01934  -2.28231 
 H                     0.16244   1.21362   4.57682 
 H                    -1.02545   2.21562   3.68175 
 H                     0.67943   2.80262   3.9186 
 
 ITRead=  0  0  0  0  0  0  0  0  0  0  0  0  0  0  0  0  0  0  0  0
 ITRead=  0  0  0
 MicOpt= -1 -1 -1 -1 -1 -1 -1 -1 -1 -1 -1 -1 -1 -1 -1 -1 -1 -1 -1 -1
 MicOpt= -1 -1 -1
 NAtoms=     23 NQM=       23 NQMF=       0 NMMI=      0 NMMIF=      0
                NMic=       0 NMicF=      0.
                    Isotopes and Nuclear Properties:
 (Nuclear quadrupole moments (NQMom) in fm**2, nuclear magnetic moments (NMagM)
  in nuclear magnetons)

  Atom         1           2           3           4           5           6           7           8           9          10
 IAtWgt=          12          12          12          12          12          12          12           1           1           1
 AtmWgt=  12.0000000  12.0000000  12.0000000  12.0000000  12.0000000  12.0000000  12.0000000   1.0078250   1.0078250   1.0078250
 NucSpn=           0           0           0           0           0           0           0           1           1           1
 AtZEff=  -0.0000000  -0.0000000  -0.0000000  -0.0000000  -0.0000000  -0.0000000  -0.0000000  -0.0000000  -0.0000000  -0.0000000
 NQMom=    0.0000000   0.0000000   0.0000000   0.0000000   0.0000000   0.0000000   0.0000000   0.0000000   0.0000000   0.0000000
 NMagM=    0.0000000   0.0000000   0.0000000   0.0000000   0.0000000   0.0000000   0.0000000   2.7928460   2.7928460   2.7928460
 AtZNuc=   6.0000000   6.0000000   6.0000000   6.0000000   6.0000000   6.0000000   6.0000000   1.0000000   1.0000000   1.0000000

  Atom        11          12          13          14          15          16          17          18          19          20
 IAtWgt=           1           1           1           1           1           1           1           1           1           1
 AtmWgt=   1.0078250   1.0078250   1.0078250   1.0078250   1.0078250   1.0078250   1.0078250   1.0078250   1.0078250   1.0078250
 NucSpn=           1           1           1           1           1           1           1           1           1           1
 AtZEff=  -0.0000000  -0.0000000  -0.0000000  -0.0000000  -0.0000000  -0.0000000  -0.0000000  -0.0000000  -0.0000000  -0.0000000
 NQMom=    0.0000000   0.0000000   0.0000000   0.0000000   0.0000000   0.0000000   0.0000000   0.0000000   0.0000000   0.0000000
 NMagM=    2.7928460   2.7928460   2.7928460   2.7928460   2.7928460   2.7928460   2.7928460   2.7928460   2.7928460   2.7928460
 AtZNuc=   1.0000000   1.0000000   1.0000000   1.0000000   1.0000000   1.0000000   1.0000000   1.0000000   1.0000000   1.0000000

  Atom        21          22          23
 IAtWgt=           1           1           1
 AtmWgt=   1.0078250   1.0078250   1.0078250
 NucSpn=           1           1           1
 AtZEff=  -0.0000000  -0.0000000  -0.0000000
 NQMom=    0.0000000   0.0000000   0.0000000
 NMagM=    2.7928460   2.7928460   2.7928460
 AtZNuc=   1.0000000   1.0000000   1.0000000
 Leave Link  101 at Sun Sep 29 12:00:49 2019, MaxMem=   671088640 cpu:               7.7 elap:               3.9
 (Enter /shared/centos7/gaussian/g16/l103.exe)

 GradGradGradGradGradGradGradGradGradGradGradGradGradGradGradGradGradGrad
 Berny optimization.
 Initialization pass.
                           ----------------------------
                           !    Initial Parameters    !
                           ! (Angstroms and Degrees)  !
 --------------------------                            --------------------------
 ! Name  Definition              Value          Derivative Info.                !
 --------------------------------------------------------------------------------
 ! R1    R(1,2)                  1.4906         calculate D2E/DX2 analytically  !
 ! R2    R(1,4)                  1.4917         calculate D2E/DX2 analytically  !
 ! R3    R(1,10)                 1.1107         calculate D2E/DX2 analytically  !
 ! R4    R(1,11)                 1.1093         calculate D2E/DX2 analytically  !
 ! R5    R(2,3)                  1.5083         calculate D2E/DX2 analytically  !
 ! R6    R(2,12)                 1.1012         calculate D2E/DX2 analytically  !
 ! R7    R(2,13)                 1.1105         calculate D2E/DX2 analytically  !
 ! R8    R(3,5)                  1.5105         calculate D2E/DX2 analytically  !
 ! R9    R(3,14)                 1.1032         calculate D2E/DX2 analytically  !
 ! R10   R(3,15)                 1.1096         calculate D2E/DX2 analytically  !
 ! R11   R(4,6)                  1.473          calculate D2E/DX2 analytically  !
 ! R12   R(4,8)                  1.1266         calculate D2E/DX2 analytically  !
 ! R13   R(4,9)                  1.1161         calculate D2E/DX2 analytically  !
 ! R14   R(5,7)                  1.5066         calculate D2E/DX2 analytically  !
 ! R15   R(5,16)                 1.1214         calculate D2E/DX2 analytically  !
 ! R16   R(5,17)                 1.1033         calculate D2E/DX2 analytically  !
 ! R17   R(6,18)                 1.1063         calculate D2E/DX2 analytically  !
 ! R18   R(6,19)                 1.1303         calculate D2E/DX2 analytically  !
 ! R19   R(6,20)                 1.1106         calculate D2E/DX2 analytically  !
 ! R20   R(7,21)                 1.0907         calculate D2E/DX2 analytically  !
 ! R21   R(7,22)                 1.1251         calculate D2E/DX2 analytically  !
 ! R22   R(7,23)                 1.1278         calculate D2E/DX2 analytically  !
 ! A1    A(2,1,4)              114.3281         calculate D2E/DX2 analytically  !
 ! A2    A(2,1,10)             109.4564         calculate D2E/DX2 analytically  !
 ! A3    A(2,1,11)             109.9076         calculate D2E/DX2 analytically  !
 ! A4    A(4,1,10)             108.9314         calculate D2E/DX2 analytically  !
 ! A5    A(4,1,11)             108.2064         calculate D2E/DX2 analytically  !
 ! A6    A(10,1,11)            105.6434         calculate D2E/DX2 analytically  !
 ! A7    A(1,2,3)              114.6581         calculate D2E/DX2 analytically  !
 ! A8    A(1,2,12)             109.6876         calculate D2E/DX2 analytically  !
 ! A9    A(1,2,13)             109.3118         calculate D2E/DX2 analytically  !
 ! A10   A(3,2,12)             108.0811         calculate D2E/DX2 analytically  !
 ! A11   A(3,2,13)             109.3662         calculate D2E/DX2 analytically  !
 ! A12   A(12,2,13)            105.3174         calculate D2E/DX2 analytically  !
 ! A13   A(2,3,5)              113.7661         calculate D2E/DX2 analytically  !
 ! A14   A(2,3,14)             109.0622         calculate D2E/DX2 analytically  !
 ! A15   A(2,3,15)             108.938          calculate D2E/DX2 analytically  !
 ! A16   A(5,3,14)             109.1369         calculate D2E/DX2 analytically  !
 ! A17   A(5,3,15)             109.5155         calculate D2E/DX2 analytically  !
 ! A18   A(14,3,15)            106.1415         calculate D2E/DX2 analytically  !
 ! A19   A(1,4,6)              114.3158         calculate D2E/DX2 analytically  !
 ! A20   A(1,4,8)              108.9475         calculate D2E/DX2 analytically  !
 ! A21   A(1,4,9)              109.0868         calculate D2E/DX2 analytically  !
 ! A22   A(6,4,8)              109.7123         calculate D2E/DX2 analytically  !
 ! A23   A(6,4,9)              108.8835         calculate D2E/DX2 analytically  !
 ! A24   A(8,4,9)              105.5252         calculate D2E/DX2 analytically  !
 ! A25   A(3,5,7)              113.724          calculate D2E/DX2 analytically  !
 ! A26   A(3,5,16)             108.5766         calculate D2E/DX2 analytically  !
 ! A27   A(3,5,17)             109.6091         calculate D2E/DX2 analytically  !
 ! A28   A(7,5,16)             109.1371         calculate D2E/DX2 analytically  !
 ! A29   A(7,5,17)             109.2186         calculate D2E/DX2 analytically  !
 ! A30   A(16,5,17)            106.308          calculate D2E/DX2 analytically  !
 ! A31   A(4,6,18)             111.7374         calculate D2E/DX2 analytically  !
 ! A32   A(4,6,19)             109.8944         calculate D2E/DX2 analytically  !
 ! A33   A(4,6,20)             111.383          calculate D2E/DX2 analytically  !
 ! A34   A(18,6,19)            107.6272         calculate D2E/DX2 analytically  !
 ! A35   A(18,6,20)            108.0184         calculate D2E/DX2 analytically  !
 ! A36   A(19,6,20)            108.0301         calculate D2E/DX2 analytically  !
 ! A37   A(5,7,21)             111.4166         calculate D2E/DX2 analytically  !
 ! A38   A(5,7,22)             111.0802         calculate D2E/DX2 analytically  !
 ! A39   A(5,7,23)             110.4001         calculate D2E/DX2 analytically  !
 ! A40   A(21,7,22)            108.059          calculate D2E/DX2 analytically  !
 ! A41   A(21,7,23)            108.0928         calculate D2E/DX2 analytically  !
 ! A42   A(22,7,23)            107.6525         calculate D2E/DX2 analytically  !
 ! D1    D(4,1,2,3)           -118.1061         calculate D2E/DX2 analytically  !
 ! D2    D(4,1,2,12)           120.0935         calculate D2E/DX2 analytically  !
 ! D3    D(4,1,2,13)             5.0895         calculate D2E/DX2 analytically  !
 ! D4    D(10,1,2,3)           119.392          calculate D2E/DX2 analytically  !
 ! D5    D(10,1,2,12)           -2.4084         calculate D2E/DX2 analytically  !
 ! D6    D(10,1,2,13)         -117.4124         calculate D2E/DX2 analytically  !
 ! D7    D(11,1,2,3)             3.792          calculate D2E/DX2 analytically  !
 ! D8    D(11,1,2,12)         -118.0085         calculate D2E/DX2 analytically  !
 ! D9    D(11,1,2,13)          126.9875         calculate D2E/DX2 analytically  !
 ! D10   D(2,1,4,6)            -47.2589         calculate D2E/DX2 analytically  !
 ! D11   D(2,1,4,8)           -170.3832         calculate D2E/DX2 analytically  !
 ! D12   D(2,1,4,9)             74.8927         calculate D2E/DX2 analytically  !
 ! D13   D(10,1,4,6)            75.5282         calculate D2E/DX2 analytically  !
 ! D14   D(10,1,4,8)           -47.596          calculate D2E/DX2 analytically  !
 ! D15   D(10,1,4,9)          -162.3201         calculate D2E/DX2 analytically  !
 ! D16   D(11,1,4,6)          -170.0844         calculate D2E/DX2 analytically  !
 ! D17   D(11,1,4,8)            66.7913         calculate D2E/DX2 analytically  !
 ! D18   D(11,1,4,9)           -47.9328         calculate D2E/DX2 analytically  !
 ! D19   D(1,2,3,5)             51.0083         calculate D2E/DX2 analytically  !
 ! D20   D(1,2,3,14)           -71.0745         calculate D2E/DX2 analytically  !
 ! D21   D(1,2,3,15)           173.4875         calculate D2E/DX2 analytically  !
 ! D22   D(12,2,3,5)           173.6802         calculate D2E/DX2 analytically  !
 ! D23   D(12,2,3,14)           51.5975         calculate D2E/DX2 analytically  !
 ! D24   D(12,2,3,15)          -63.8406         calculate D2E/DX2 analytically  !
 ! D25   D(13,2,3,5)           -72.1581         calculate D2E/DX2 analytically  !
 ! D26   D(13,2,3,14)          165.7591         calculate D2E/DX2 analytically  !
 ! D27   D(13,2,3,15)           50.3211         calculate D2E/DX2 analytically  !
 ! D28   D(2,3,5,7)           -174.1408         calculate D2E/DX2 analytically  !
 ! D29   D(2,3,5,16)           -52.4408         calculate D2E/DX2 analytically  !
 ! D30   D(2,3,5,17)            63.294          calculate D2E/DX2 analytically  !
 ! D31   D(14,3,5,7)           -52.0993         calculate D2E/DX2 analytically  !
 ! D32   D(14,3,5,16)           69.6006         calculate D2E/DX2 analytically  !
 ! D33   D(14,3,5,17)         -174.6646         calculate D2E/DX2 analytically  !
 ! D34   D(15,3,5,7)            63.6984         calculate D2E/DX2 analytically  !
 ! D35   D(15,3,5,16)         -174.6017         calculate D2E/DX2 analytically  !
 ! D36   D(15,3,5,17)          -58.8669         calculate D2E/DX2 analytically  !
 ! D37   D(1,4,6,18)           -67.6311         calculate D2E/DX2 analytically  !
 ! D38   D(1,4,6,19)            51.7738         calculate D2E/DX2 analytically  !
 ! D39   D(1,4,6,20)           171.4561         calculate D2E/DX2 analytically  !
 ! D40   D(8,4,6,18)            55.0787         calculate D2E/DX2 analytically  !
 ! D41   D(8,4,6,19)           174.4837         calculate D2E/DX2 analytically  !
 ! D42   D(8,4,6,20)           -65.834          calculate D2E/DX2 analytically  !
 ! D43   D(9,4,6,18)           170.1062         calculate D2E/DX2 analytically  !
 ! D44   D(9,4,6,19)           -70.4888         calculate D2E/DX2 analytically  !
 ! D45   D(9,4,6,20)            49.1935         calculate D2E/DX2 analytically  !
 ! D46   D(3,5,7,21)            60.31           calculate D2E/DX2 analytically  !
 ! D47   D(3,5,7,22)           -60.225          calculate D2E/DX2 analytically  !
 ! D48   D(3,5,7,23)          -179.5719         calculate D2E/DX2 analytically  !
 ! D49   D(16,5,7,21)          -61.0781         calculate D2E/DX2 analytically  !
 ! D50   D(16,5,7,22)          178.3869         calculate D2E/DX2 analytically  !
 ! D51   D(16,5,7,23)           59.04           calculate D2E/DX2 analytically  !
 ! D52   D(17,5,7,21)         -176.9101         calculate D2E/DX2 analytically  !
 ! D53   D(17,5,7,22)           62.5548         calculate D2E/DX2 analytically  !
 ! D54   D(17,5,7,23)          -56.792          calculate D2E/DX2 analytically  !
 --------------------------------------------------------------------------------
 Trust Radius=3.00D-01 FncErr=1.00D-07 GrdErr=1.00D-06 EigMax=2.50D+02 EigMin=1.00D-04
 Number of steps in this run=    138 maximum allowed number of steps=    138.
 GradGradGradGradGradGradGradGradGradGradGradGradGradGradGradGradGradGrad

 Leave Link  103 at Sun Sep 29 12:00:51 2019, MaxMem=   671088640 cpu:               2.3 elap:               1.1
 (Enter /shared/centos7/gaussian/g16/l202.exe)
                          Input orientation:                          
 ---------------------------------------------------------------------
 Center     Atomic      Atomic             Coordinates (Angstroms)
 Number     Number       Type             X           Y           Z
 ---------------------------------------------------------------------
      1          6           0        1.625845   -1.063505    0.916707
      2          6           0        0.167900   -0.754027    0.892556
      3          6           0       -0.337600   -0.010023    2.103303
      4          6           0        2.405903   -0.434699   -0.188344
      5          6           0        0.467172    1.223172    2.439863
      6          6           0        1.801601   -0.590912   -1.522512
      7          6           0        0.049674    1.887022    3.726302
      8          1           0        3.447751   -0.863284   -0.190547
      9          1           0        2.530938    0.653417    0.026426
     10          1           0        1.771103   -2.163999    0.879434
     11          1           0        2.065542   -0.736236    1.881179
     12          1           0       -0.408137   -1.688019    0.800217
     13          1           0       -0.068804   -0.171647   -0.022900
     14          1           0       -0.335968   -0.690985    2.971297
     15          1           0       -1.397190    0.273242    1.935451
     16          1           0        1.548993    0.936014    2.508592
     17          1           0        0.391738    1.951237    1.614338
     18          1           0        1.816692   -1.644911   -1.858275
     19          1           0        0.722678   -0.254982   -1.497784
     20          1           0        2.334315    0.019344   -2.282312
     21          1           0        0.162436    1.213616    4.576824
     22          1           0       -1.025454    2.215618    3.681749
     23          1           0        0.679431    2.802616    3.918601
 ---------------------------------------------------------------------
                    Distance matrix (angstroms):
                    1          2          3          4          5
     1  C    0.000000
     2  C    1.490625   0.000000
     3  C    2.524471   1.508304   0.000000
     4  C    1.491652   2.505788   3.599834   0.000000
     5  C    2.981849   2.528447   1.510531   3.662607   0.000000
     6  C    2.490787   2.920297   4.249723   1.472952   4.557633
     7  C    4.368496   3.875466   2.526438   5.125101   1.506627
     8  H    2.141364   3.455788   4.507625   1.126559   4.489566
     9  H    2.135326   2.883579   3.603066   1.116134   3.226210
    10  H    1.110665   2.135054   3.253321   2.129226   3.950710
    11  H    1.109344   2.139798   2.520281   2.118890   2.589632
    12  H    2.130885   1.101220   2.125718   3.235257   3.453931
    13  H    2.133099   1.110520   2.149213   2.494142   2.880624
    14  H    2.865104   2.139865   1.103233   4.191285   2.142767
    15  H    3.458826   2.142993   1.109570   4.413072   2.152358
    16  H    2.556967   2.715738   2.149065   3.144298   1.121392
    17  H    3.331423   2.808830   2.148851   3.605442   1.103295
    18  H    2.841651   3.328552   4.796659   2.144867   5.340515
    19  H    2.701701   2.504106   3.761917   2.140135   4.213703
    20  H    3.450827   3.920617   5.135524   2.143824   5.218655
    21  H    4.552285   4.176779   2.804573   5.518778   2.158600
    22  H    5.042568   4.245290   2.813914   5.811713   2.180633
    23  H    4.985375   4.697693   3.498656   5.507078   2.174019
                    6          7          8          9         10
     6  C    0.000000
     7  C    6.062957   0.000000
     8  H    2.134976   5.869652   0.000000
     9  H    2.116482   4.622504   1.785498   0.000000
    10  H    2.871389   5.242018   2.376524   3.040199   0.000000
    11  H    3.417000   3.788098   2.493730   2.363861   1.768811
    12  H    3.388459   4.642465   4.065669   3.836566   2.232021
    13  H    2.433728   4.278864   3.587844   2.727971   2.858135
    14  H    4.977301   2.713830   4.933910   4.324214   3.314424
    15  H    4.789210   2.811556   5.411563   4.383960   4.134417
    16  H    4.317998   2.152950   3.758737   2.684255   3.509070
    17  H    4.276688   2.140449   4.529719   2.963441   4.402034
    18  H    1.106291   6.839913   2.460205   3.056887   2.786859
    19  H    1.130281   5.686140   3.083005   2.533419   3.224082
    20  H    1.110627   6.694120   2.528685   2.402286   3.883404
    21  H    6.568491   1.090678   6.150986   5.160402   5.259922
    22  H    6.553868   1.125104   6.669623   5.333834   5.903791
    23  H    6.510069   1.127778   6.163401   4.816240   5.924150
                   11         12         13         14         15
    11  H    0.000000
    12  H    2.862421   0.000000
    13  H    2.915426   1.758423   0.000000
    14  H    2.637736   2.390161   3.050623   0.000000
    15  H    3.607285   2.472555   2.407836   1.768870   0.000000
    16  H    1.859271   3.692486   3.201974   2.532646   3.073720
    17  H    3.177316   3.814023   2.720162   3.058141   2.473670
    18  H    3.856310   3.466886   3.015660   5.372958   5.329232
    19  H    3.667734   2.934816   1.675909   4.613405   4.069393
    20  H    4.240022   4.465211   3.303997   5.935939   5.637208
    21  H    3.832785   4.796644   4.809354   2.540399   3.208362
    22  H    4.637861   4.891082   4.509838   3.070581   2.638289
    23  H    4.312293   5.574309   4.994149   3.759476   3.826613
                   16         17         18         19         20
    16  H    0.000000
    17  H    1.780339   0.000000
    18  H    5.079603   5.198251   0.000000
    19  H    4.260553   3.829128   1.805194   0.000000
    20  H    4.940625   4.763370   1.793735   1.813315   0.000000
    21  H    2.505431   3.061533   7.233135   6.274672   7.293221
    22  H    3.105070   2.520420   7.326210   5.998949   7.188998
    23  H    2.495690   2.473306   7.378764   6.219968   6.995467
                   21         22         23
    21  H    0.000000
    22  H    1.793390   0.000000
    23  H    1.795957   1.818598   0.000000
 Stoichiometry    C7H16
 Framework group  C1[X(C7H16)]
 Deg. of freedom    63
 Full point group                 C1      NOp   1
 Largest Abelian subgroup         C1      NOp   1
 Largest concise Abelian subgroup C1      NOp   1
                         Standard orientation:                         
 ---------------------------------------------------------------------
 Center     Atomic      Atomic             Coordinates (Angstroms)
 Number     Number       Type             X           Y           Z
 ---------------------------------------------------------------------
      1          6           0       -0.998969    0.214735    0.916461
      2          6           0       -0.316747    1.074801   -0.091915
      3          6           0        1.186586    0.953564   -0.108445
      4          6           0       -1.928001   -0.796445    0.333845
      5          6           0        1.681514   -0.470930   -0.195430
      6          6           0       -2.844641   -0.260722   -0.687115
      7          6           0        3.177334   -0.601569   -0.071413
      8          1           0       -2.521283   -1.270434    1.166003
      9          1           0       -1.330304   -1.624670   -0.116217
     10          1           0       -1.563033    0.854778    1.627624
     11          1           0       -0.244489   -0.320137    1.529091
     12          1           0       -0.572523    2.130804    0.087310
     13          1           0       -0.715968    0.843627   -1.102082
     14          1           0        1.596014    1.423751    0.801729
     15          1           0        1.585568    1.537448   -0.963452
     16          1           0        1.191638   -1.069533    0.616491
     17          1           0        1.355757   -0.918462   -1.149818
     18          1           0       -3.580425    0.440194   -0.249829
     19          1           0       -2.258799    0.303625   -1.471867
     20          1           0       -3.404854   -1.074087   -1.195140
     21          1           0        3.532572   -0.218285    0.885915
     22          1           0        3.702219   -0.035756   -0.890078
     23          1           0        3.485447   -1.683474   -0.151611
 ---------------------------------------------------------------------
 Rotational constants (GHZ):           5.2627538           1.1249076           1.0591614
 Leave Link  202 at Sun Sep 29 12:00:53 2019, MaxMem=   671088640 cpu:               4.0 elap:               2.0
 (Enter /shared/centos7/gaussian/g16/l301.exe)
 Standard basis: CC-pVTZ (5D, 7F)
 Ernie: Thresh=  0.10000D-02 Tol=  0.10000D-05 Strict=F.
 Ernie:  21 primitive shells out of 310 were deleted.
 There are   485 symmetry adapted cartesian basis functions of A   symmetry.
 There are   434 symmetry adapted basis functions of A   symmetry.
   434 basis functions,   636 primitive gaussians,   485 cartesian basis functions
    29 alpha electrons       29 beta electrons
       nuclear repulsion energy       325.5603555331 Hartrees.
 IExCor= 4336 DFT=T Ex+Corr=M062X ExCW=0 ScaHFX=  0.540000
 ScaDFX=  1.000000  1.000000  1.000000  1.000000 ScalE2=  1.000000  1.000000
 IRadAn=      5 IRanWt=     -1 IRanGd=            0 ICorTp=0 IEmpDi=  4
 NAtoms=   23 NActive=   23 NUniq=   23 SFac= 1.00D+00 NAtFMM=   60 NAOKFM=F Big=F
 Integral buffers will be    131072 words long.
 Raffenetti 2 integral format.
 Two-electron integral symmetry is turned on.
 Leave Link  301 at Sun Sep 29 12:00:54 2019, MaxMem=   671088640 cpu:               2.4 elap:               1.2
 (Enter /shared/centos7/gaussian/g16/l302.exe)
 NPDir=0 NMtPBC=     1 NCelOv=     1 NCel=       1 NClECP=     1 NCelD=      1
         NCelK=      1 NCelE2=     1 NClLst=     1 CellRange=     0.0.
 One-electron integrals computed using PRISM.
 One-electron integral symmetry used in STVInt
 NBasis=   434 RedAO= T EigKep=  3.01D-04  NBF=   434
 NBsUse=   434 1.00D-06 EigRej= -1.00D+00 NBFU=   434
 Precomputing XC quadrature grid using
 IXCGrd= 4 IRadAn=           5 IRanWt=          -1 IRanGd=           0 AccXCQ= 0.00D+00.
 Generated NRdTot=       0 NPtTot=           0 NUsed=           0 NTot=          32
 NSgBfM=   485   485   485   485   485 MxSgAt=    23 MxSgA2=    23.
 Leave Link  302 at Sun Sep 29 12:02:38 2019, MaxMem=   671088640 cpu:             207.6 elap:             104.0
 (Enter /shared/centos7/gaussian/g16/l303.exe)
 DipDrv:  MaxL=1.
 Leave Link  303 at Sun Sep 29 12:02:42 2019, MaxMem=   671088640 cpu:               8.5 elap:               4.3
 (Enter /shared/centos7/gaussian/g16/l401.exe)
 ExpMin= 1.03D-01 ExpMax= 8.24D+03 ExpMxC= 2.81D+02 IAcc=3 IRadAn=         5 AccDes= 0.00D+00
 Harris functional with IExCor= 1009 and IRadAn=       5 diagonalized for initial guess.
 HarFok:  IExCor= 1009 AccDes= 0.00D+00 IRadAn=         5 IDoV= 1 UseB2=F ITyADJ=14
 ICtDFT=  3500011 ScaDFX=  1.000000  1.000000  1.000000  1.000000
 FoFCou: FMM=F IPFlag=           0 FMFlag=      100000 FMFlg1=           0
         NFxFlg=           0 DoJE=T BraDBF=F KetDBF=T FulRan=T
         wScrn=  0.000000 ICntrl=       500 IOpCl=  0 I1Cent=   200000004 NGrid=           0
         NMat0=    1 NMatS0=      1 NMatT0=    0 NMatD0=    1 NMtDS0=    0 NMtDT0=    0
 Petite list used in FoFCou.
 Harris En= -276.325300908693    
 JPrj=0 DoOrth=F DoCkMO=F.
 Leave Link  401 at Sun Sep 29 12:03:39 2019, MaxMem=   671088640 cpu:             112.8 elap:              56.5
 (Enter /shared/centos7/gaussian/g16/l502.exe)
 Integral symmetry usage will be decided dynamically.
 Closed shell SCF:
 Using DIIS extrapolation, IDIIS=  1040.
 NGot=   671088640 LenX=   670604095 LenY=   670368385
 Requested convergence on RMS density matrix=1.00D-08 within 900 cycles.
 Requested convergence on MAX density matrix=1.00D-06.
 Requested convergence on             energy=1.00D-06.
 No special actions if energy rises.
 Fock matrices will be formed incrementally for  20 cycles.
 Integral accuracy reduced to 1.0D-05 until final iterations.

 Cycle   1  Pass 0  IDiag  1:
 FoFJK:  IHMeth= 1 ICntrl=       0 DoSepK=F KAlg= 0 I1Cent=           0 FoldK=F
 IRaf= 930000000 NMat=       1 IRICut=       1 DoRegI=T DoRafI=F ISym2E= 0 IDoP0=0 IntGTp=1.
 FoFCou: FMM=F IPFlag=           0 FMFlag=      100000 FMFlg1=           0
         NFxFlg=           0 DoJE=F BraDBF=F KetDBF=F FulRan=T
         wScrn=  0.000000 ICntrl=         0 IOpCl=  0 I1Cent=           0 NGrid=           0
         NMat0=    1 NMatS0=      1 NMatT0=    0 NMatD0=    1 NMtDS0=    0 NMtDT0=    0
 Symmetry not used in FoFCou.
 E= -275.958204865379    
 DIIS: error= 2.49D-02 at cycle   1 NSaved=   1.
 NSaved= 1 IEnMin= 1 EnMin= -275.958204865379     IErMin= 1 ErrMin= 2.49D-02
 ErrMax= 2.49D-02  0.00D+00 EMaxC= 1.00D-01 BMatC= 3.73D-01 BMatP= 3.73D-01
 IDIUse=3 WtCom= 7.51D-01 WtEn= 2.49D-01
 Coeff-Com:  0.100D+01
 Coeff-En:   0.100D+01
 Coeff:      0.100D+01
 Gap=     0.370 Goal=   None    Shift=    0.000
 GapD=    0.370 DampG=1.000 DampE=0.500 DampFc=0.5000 IDamp=-1.
 Damping current iteration by 5.00D-01
 RMSDP=1.90D-03 MaxDP=6.89D-02              OVMax= 1.66D-01

 Cycle   2  Pass 0  IDiag  1:
 RMSU=  9.46D-04    CP:  9.90D-01
 E= -276.137043123072     Delta-E=       -0.178838257693 Rises=F Damp=T
 DIIS: error= 4.67D-03 at cycle   2 NSaved=   2.
 NSaved= 2 IEnMin= 2 EnMin= -276.137043123072     IErMin= 2 ErrMin= 4.67D-03
 ErrMax= 4.67D-03  0.00D+00 EMaxC= 1.00D-01 BMatC= 1.82D-02 BMatP= 3.73D-01
 IDIUse=3 WtCom= 9.53D-01 WtEn= 4.67D-02
 Coeff-Com: -0.548D-01 0.105D+01
 Coeff-En:   0.000D+00 0.100D+01
 Coeff:     -0.523D-01 0.105D+01
 Gap=     0.454 Goal=   None    Shift=    0.000
 RMSDP=5.33D-04 MaxDP=2.02D-02 DE=-1.79D-01 OVMax= 8.94D-02

 Cycle   3  Pass 0  IDiag  1:
 RMSU=  5.21D-04    CP:  9.97D-01  8.98D-01
 E= -276.315358214038     Delta-E=       -0.178315090966 Rises=F Damp=F
 DIIS: error= 2.38D-03 at cycle   3 NSaved=   3.
 NSaved= 3 IEnMin= 3 EnMin= -276.315358214038     IErMin= 3 ErrMin= 2.38D-03
 ErrMax= 2.38D-03  0.00D+00 EMaxC= 1.00D-01 BMatC= 2.41D-03 BMatP= 1.82D-02
 IDIUse=3 WtCom= 9.76D-01 WtEn= 2.38D-02
 Coeff-Com: -0.496D-01 0.230D+00 0.820D+00
 Coeff-En:   0.000D+00 0.000D+00 0.100D+01
 Coeff:     -0.484D-01 0.225D+00 0.824D+00
 Gap=     0.420 Goal=   None    Shift=    0.000
 RMSDP=9.06D-05 MaxDP=2.34D-03 DE=-1.78D-01 OVMax= 9.93D-03

 Cycle   4  Pass 0  IDiag  1:
 RMSU=  7.14D-05    CP:  9.96D-01  9.45D-01  9.36D-01
 E= -276.317390900534     Delta-E=       -0.002032686496 Rises=F Damp=F
 DIIS: error= 7.21D-04 at cycle   4 NSaved=   4.
 NSaved= 4 IEnMin= 4 EnMin= -276.317390900534     IErMin= 4 ErrMin= 7.21D-04
 ErrMax= 7.21D-04  0.00D+00 EMaxC= 1.00D-01 BMatC= 3.18D-04 BMatP= 2.41D-03
 IDIUse=3 WtCom= 9.93D-01 WtEn= 7.21D-03
 Coeff-Com: -0.146D-01 0.416D-01 0.306D+00 0.667D+00
 Coeff-En:   0.000D+00 0.000D+00 0.000D+00 0.100D+01
 Coeff:     -0.145D-01 0.413D-01 0.304D+00 0.670D+00
 Gap=     0.421 Goal=   None    Shift=    0.000
 RMSDP=3.36D-05 MaxDP=1.66D-03 DE=-2.03D-03 OVMax= 3.34D-03

 Cycle   5  Pass 0  IDiag  1:
 RMSU=  1.94D-05    CP:  9.96D-01  9.37D-01  9.72D-01  7.39D-01
 E= -276.317678575332     Delta-E=       -0.000287674797 Rises=F Damp=F
 DIIS: error= 1.64D-04 at cycle   5 NSaved=   5.
 NSaved= 5 IEnMin= 5 EnMin= -276.317678575332     IErMin= 5 ErrMin= 1.64D-04
 ErrMax= 1.64D-04  0.00D+00 EMaxC= 1.00D-01 BMatC= 1.91D-05 BMatP= 3.18D-04
 IDIUse=3 WtCom= 9.98D-01 WtEn= 1.64D-03
 Coeff-Com: -0.131D-02 0.130D-03 0.512D-01 0.238D+00 0.712D+00
 Coeff-En:   0.000D+00 0.000D+00 0.000D+00 0.000D+00 0.100D+01
 Coeff:     -0.131D-02 0.130D-03 0.511D-01 0.237D+00 0.713D+00
 Gap=     0.421 Goal=   None    Shift=    0.000
 RMSDP=6.77D-06 MaxDP=3.98D-04 DE=-2.88D-04 OVMax= 7.83D-04

 Initial convergence to 1.0D-05 achieved.  Increase integral accuracy.
 Cycle   6  Pass 1  IDiag  1:
 E= -276.317698195492     Delta-E=       -0.000019620160 Rises=F Damp=F
 DIIS: error= 3.44D-05 at cycle   1 NSaved=   1.
 NSaved= 1 IEnMin= 1 EnMin= -276.317698195492     IErMin= 1 ErrMin= 3.44D-05
 ErrMax= 3.44D-05  0.00D+00 EMaxC= 1.00D-01 BMatC= 1.31D-06 BMatP= 1.31D-06
 IDIUse=1 WtCom= 1.00D+00 WtEn= 0.00D+00
 Coeff-Com:  0.100D+01
 Coeff:      0.100D+01
 Gap=     0.421 Goal=   None    Shift=    0.000
 RMSDP=6.77D-06 MaxDP=3.98D-04 DE=-1.96D-05 OVMax= 2.49D-04

 Cycle   7  Pass 1  IDiag  1:
 RMSU=  9.84D-06    CP:  1.00D+00
 E= -276.317698841229     Delta-E=       -0.000000645737 Rises=F Damp=F
 DIIS: error= 2.33D-05 at cycle   2 NSaved=   2.
 NSaved= 2 IEnMin= 2 EnMin= -276.317698841229     IErMin= 2 ErrMin= 2.33D-05
 ErrMax= 2.33D-05  0.00D+00 EMaxC= 1.00D-01 BMatC= 3.10D-07 BMatP= 1.31D-06
 IDIUse=1 WtCom= 1.00D+00 WtEn= 0.00D+00
 Coeff-Com:  0.274D+00 0.726D+00
 Coeff:      0.274D+00 0.726D+00
 Gap=     0.421 Goal=   None    Shift=    0.000
 RMSDP=1.15D-06 MaxDP=4.96D-05 DE=-6.46D-07 OVMax= 1.29D-04

 Cycle   8  Pass 1  IDiag  1:
 RMSU=  1.15D-06    CP:  1.00D+00  1.01D+00
 E= -276.317699086860     Delta-E=       -0.000000245631 Rises=F Damp=F
 DIIS: error= 9.86D-06 at cycle   3 NSaved=   3.
 NSaved= 3 IEnMin= 3 EnMin= -276.317699086860     IErMin= 3 ErrMin= 9.86D-06
 ErrMax= 9.86D-06  0.00D+00 EMaxC= 1.00D-01 BMatC= 6.44D-08 BMatP= 3.10D-07
 IDIUse=1 WtCom= 1.00D+00 WtEn= 0.00D+00
 Coeff-Com: -0.551D-02 0.304D+00 0.702D+00
 Coeff:     -0.551D-02 0.304D+00 0.702D+00
 Gap=     0.421 Goal=   None    Shift=    0.000
 RMSDP=4.43D-07 MaxDP=1.71D-05 DE=-2.46D-07 OVMax= 4.75D-05

 Cycle   9  Pass 1  IDiag  1:
 RMSU=  2.95D-07    CP:  1.00D+00  1.03D+00  7.67D-01
 E= -276.317699149279     Delta-E=       -0.000000062419 Rises=F Damp=F
 DIIS: error= 1.99D-06 at cycle   4 NSaved=   4.
 NSaved= 4 IEnMin= 4 EnMin= -276.317699149279     IErMin= 4 ErrMin= 1.99D-06
 ErrMax= 1.99D-06  0.00D+00 EMaxC= 1.00D-01 BMatC= 1.43D-09 BMatP= 6.44D-08
 IDIUse=1 WtCom= 1.00D+00 WtEn= 0.00D+00
 Coeff-Com: -0.119D-01 0.695D-01 0.219D+00 0.724D+00
 Coeff:     -0.119D-01 0.695D-01 0.219D+00 0.724D+00
 Gap=     0.421 Goal=   None    Shift=    0.000
 RMSDP=7.43D-08 MaxDP=3.16D-06 DE=-6.24D-08 OVMax= 7.47D-06

 Cycle  10  Pass 1  IDiag  1:
 RMSU=  7.06D-08    CP:  1.00D+00  1.03D+00  7.75D-01  9.52D-01
 E= -276.317699150751     Delta-E=       -0.000000001473 Rises=F Damp=F
 DIIS: error= 2.91D-07 at cycle   5 NSaved=   5.
 NSaved= 5 IEnMin= 5 EnMin= -276.317699150751     IErMin= 5 ErrMin= 2.91D-07
 ErrMax= 2.91D-07  0.00D+00 EMaxC= 1.00D-01 BMatC= 5.01D-11 BMatP= 1.43D-09
 IDIUse=1 WtCom= 1.00D+00 WtEn= 0.00D+00
 Coeff-Com: -0.448D-03-0.190D-01-0.397D-01 0.532D-01 0.101D+01
 Coeff:     -0.448D-03-0.190D-01-0.397D-01 0.532D-01 0.101D+01
 Gap=     0.421 Goal=   None    Shift=    0.000
 RMSDP=3.27D-08 MaxDP=9.60D-07 DE=-1.47D-09 OVMax= 2.37D-06

 Cycle  11  Pass 1  IDiag  1:
 RMSU=  1.64D-08    CP:  1.00D+00  1.03D+00  7.81D-01  1.04D+00  1.07D+00
 E= -276.317699150817     Delta-E=       -0.000000000065 Rises=F Damp=F
 DIIS: error= 1.21D-07 at cycle   6 NSaved=   6.
 NSaved= 6 IEnMin= 6 EnMin= -276.317699150817     IErMin= 6 ErrMin= 1.21D-07
 ErrMax= 1.21D-07  0.00D+00 EMaxC= 1.00D-01 BMatC= 1.08D-11 BMatP= 5.01D-11
 IDIUse=1 WtCom= 1.00D+00 WtEn= 0.00D+00
 Coeff-Com:  0.383D-03-0.116D-01-0.278D-01-0.135D-01 0.430D+00 0.622D+00
 Coeff:      0.383D-03-0.116D-01-0.278D-01-0.135D-01 0.430D+00 0.622D+00
 Gap=     0.421 Goal=   None    Shift=    0.000
 RMSDP=5.53D-09 MaxDP=1.75D-07 DE=-6.55D-11 OVMax= 5.54D-07

 SCF Done:  E(RM062X) =  -276.317699151     A.U. after   11 cycles
            NFock= 11  Conv=0.55D-08     -V/T= 2.0066
 KE= 2.744924122580D+02 PE=-1.289532747561D+03 EE= 4.131622806195D+02
 Leave Link  502 at Sun Sep 29 12:22:30 2019, MaxMem=   671088640 cpu:            2236.1 elap:            1131.1
 (Enter /shared/centos7/gaussian/g16/l801.exe)
 DoSCS=F DFT=T ScalE2(SS,OS)=  1.000000  1.000000
 Range of M.O.s used for correlation:     1   434
 NBasis=   434 NAE=    29 NBE=    29 NFC=     0 NFV=     0
 NROrb=    434 NOA=    29 NOB=    29 NVA=   405 NVB=   405

 **** Warning!!: The largest alpha MO coefficient is  0.11341130D+02

 Leave Link  801 at Sun Sep 29 12:22:31 2019, MaxMem=   671088640 cpu:               1.9 elap:               1.0
 (Enter /shared/centos7/gaussian/g16/l1101.exe)
 Using compressed storage, NAtomX=    23.
 Will process     24 centers per pass.
 Leave Link 1101 at Sun Sep 29 12:23:30 2019, MaxMem=   671088640 cpu:             118.3 elap:              59.2
 (Enter /shared/centos7/gaussian/g16/l1102.exe)
 Symmetrizing basis deriv contribution to polar:
 IMax=3 JMax=2 DiffMx= 0.00D+00
 Leave Link 1102 at Sun Sep 29 12:23:32 2019, MaxMem=   671088640 cpu:               4.9 elap:               2.5
 (Enter /shared/centos7/gaussian/g16/l1110.exe)
 Forming Gx(P) for the SCF density, NAtomX=    23.
 Integral derivatives from FoFJK, PRISM(SPDF).
 Do as many integral derivatives as possible in FoFJK.
 G2DrvN: MDV=     671086848.
 G2DrvN: will do    24 centers at a time, making    1 passes.
 Calling FoFCou, ICntrl=  3107 FMM=F I1Cent=   0 AccDes= 0.00D+00.
 FoFJK:  IHMeth= 1 ICntrl=    3107 DoSepK=F KAlg= 0 I1Cent=           0 FoldK=F
 IRaf=         0 NMat=       1 IRICut=       1 DoRegI=T DoRafI=F ISym2E= 0 IDoP0=0 IntGTp=1.
 FoFCou: FMM=F IPFlag=           0 FMFlag=      100000 FMFlg1=           0
         NFxFlg=           0 DoJE=F BraDBF=F KetDBF=F FulRan=T
         wScrn=  0.000000 ICntrl=      3107 IOpCl=  0 I1Cent=           0 NGrid=           0
         NMat0=    1 NMatS0=      1 NMatT0=    0 NMatD0=    1 NMtDS0=    0 NMtDT0=    0
 Symmetry not used in FoFCou.
 End of G2Drv F.D. properties file   721 does not exist.
 End of G2Drv F.D. properties file   722 does not exist.
 End of G2Drv F.D. properties file   788 does not exist.
 Leave Link 1110 at Sun Sep 29 13:08:33 2019, MaxMem=   671088640 cpu:            5381.4 elap:            2700.6
 (Enter /shared/centos7/gaussian/g16/l1002.exe)
 Minotr:  Closed shell wavefunction.
          IDoAtm=11111111111111111111111
          Direct CPHF calculation.
          Differentiating once with respect to nuclear coordinates.
          Requested convergence is 1.0D-08 RMS, and 1.0D-07 maximum.
          Secondary convergence is 1.0D-12 RMS, and 1.0D-12 maximum.
          NewPWx=T KeepS1=F KeepF1=F KeepIn=T MapXYZ=F SortEE=F KeepMc=T.
         6932 words used for storage of precomputed grid.
 Two-electron integrals replicated using symmetry.
          MDV=     671088640 using IRadAn=       1.
          Solving linear equations simultaneously, MaxMat=     380.
 FoF2E skips out because all densities are zero.
 CalDSu exits because no D1Ps are significant.
 FoFJK:  IHMeth= 1 ICntrl=       0 DoSepK=F KAlg= 0 I1Cent=           0 FoldK=F
 IRaf= 910000000 NMat=      69 IRICut=     172 DoRegI=T DoRafI=T ISym2E= 2 IDoP0=3 IntGTp=3.
 FoFCou: FMM=F IPFlag=           0 FMFlag=      100000 FMFlg1=           0
         NFxFlg=           0 DoJE=F BraDBF=F KetDBF=F FulRan=T
         wScrn=  0.000000 ICntrl=         0 IOpCl=  0 I1Cent=           0 NGrid=           0
         NMat0=   69 NMatS0=     69 NMatT0=    0 NMatD0=   69 NMtDS0=    0 NMtDT0=    0
 Integrals replicated using symmetry in FoFCou.
 Raff kept on since  87.31% of shell-pairs survive, threshold=   0.20 IRatSp=87.
          There are    72 degrees of freedom in the 1st order CPHF.  IDoFFX=6 NUNeed=     0.
     66 vectors produced by pass  0 Test12= 1.63D-14 1.39D-09 XBig12= 5.51D-02 3.12D-02.
 AX will form    66 AO Fock derivatives at one time.
     66 vectors produced by pass  1 Test12= 1.63D-14 1.39D-09 XBig12= 3.03D-03 5.68D-03.
     66 vectors produced by pass  2 Test12= 1.63D-14 1.39D-09 XBig12= 5.32D-05 1.42D-03.
     66 vectors produced by pass  3 Test12= 1.63D-14 1.39D-09 XBig12= 4.48D-07 8.91D-05.
     66 vectors produced by pass  4 Test12= 1.63D-14 1.39D-09 XBig12= 1.87D-09 4.24D-06.
     66 vectors produced by pass  5 Test12= 1.63D-14 1.39D-09 XBig12= 8.96D-12 3.47D-07.
     23 vectors produced by pass  6 Test12= 1.63D-14 1.39D-09 XBig12= 3.42D-14 1.95D-08.
 InvSVY:  IOpt=1 It=  1 EMax= 2.78D-16
 Solved reduced A of dimension   419 with    72 vectors.
 End of Minotr F.D. properties file   721 does not exist.
 End of Minotr F.D. properties file   722 does not exist.
 End of Minotr F.D. properties file   788 does not exist.
 Leave Link 1002 at Sun Sep 29 14:22:52 2019, MaxMem=   671088640 cpu:            8914.5 elap:            4458.5
 (Enter /shared/centos7/gaussian/g16/l601.exe)
 Copying SCF densities to generalized density rwf, IOpCl= 0 IROHF=0.

 **********************************************************************

            Population analysis using the SCF density.

 **********************************************************************

 Orbital symmetries:
       Occupied  (A) (A) (A) (A) (A) (A) (A) (A) (A) (A) (A) (A)
                 (A) (A) (A) (A) (A) (A) (A) (A) (A) (A) (A) (A)
                 (A) (A) (A) (A) (A)
       Virtual   (A) (A) (A) (A) (A) (A) (A) (A) (A) (A) (A) (A)
                 (A) (A) (A) (A) (A) (A) (A) (A) (A) (A) (A) (A)
                 (A) (A) (A) (A) (A) (A) (A) (A) (A) (A) (A) (A)
                 (A) (A) (A) (A) (A) (A) (A) (A) (A) (A) (A) (A)
                 (A) (A) (A) (A) (A) (A) (A) (A) (A) (A) (A) (A)
                 (A) (A) (A) (A) (A) (A) (A) (A) (A) (A) (A) (A)
                 (A) (A) (A) (A) (A) (A) (A) (A) (A) (A) (A) (A)
                 (A) (A) (A) (A) (A) (A) (A) (A) (A) (A) (A) (A)
                 (A) (A) (A) (A) (A) (A) (A) (A) (A) (A) (A) (A)
                 (A) (A) (A) (A) (A) (A) (A) (A) (A) (A) (A) (A)
                 (A) (A) (A) (A) (A) (A) (A) (A) (A) (A) (A) (A)
                 (A) (A) (A) (A) (A) (A) (A) (A) (A) (A) (A) (A)
                 (A) (A) (A) (A) (A) (A) (A) (A) (A) (A) (A) (A)
                 (A) (A) (A) (A) (A) (A) (A) (A) (A) (A) (A) (A)
                 (A) (A) (A) (A) (A) (A) (A) (A) (A) (A) (A) (A)
                 (A) (A) (A) (A) (A) (A) (A) (A) (A) (A) (A) (A)
                 (A) (A) (A) (A) (A) (A) (A) (A) (A) (A) (A) (A)
                 (A) (A) (A) (A) (A) (A) (A) (A) (A) (A) (A) (A)
                 (A) (A) (A) (A) (A) (A) (A) (A) (A) (A) (A) (A)
                 (A) (A) (A) (A) (A) (A) (A) (A) (A) (A) (A) (A)
                 (A) (A) (A) (A) (A) (A) (A) (A) (A) (A) (A) (A)
                 (A) (A) (A) (A) (A) (A) (A) (A) (A) (A) (A) (A)
                 (A) (A) (A) (A) (A) (A) (A) (A) (A) (A) (A) (A)
                 (A) (A) (A) (A) (A) (A) (A) (A) (A) (A) (A) (A)
                 (A) (A) (A) (A) (A) (A) (A) (A) (A) (A) (A) (A)
                 (A) (A) (A) (A) (A) (A) (A) (A) (A) (A) (A) (A)
                 (A) (A) (A) (A) (A) (A) (A) (A) (A) (A) (A) (A)
                 (A) (A) (A) (A) (A) (A) (A) (A) (A) (A) (A) (A)
                 (A) (A) (A) (A) (A) (A) (A) (A) (A) (A) (A) (A)
                 (A) (A) (A) (A) (A) (A) (A) (A) (A) (A) (A) (A)
                 (A) (A) (A) (A) (A) (A) (A) (A) (A) (A) (A) (A)
                 (A) (A) (A) (A) (A) (A) (A) (A) (A) (A) (A) (A)
                 (A) (A) (A) (A) (A) (A) (A) (A) (A) (A) (A) (A)
                 (A) (A) (A) (A) (A) (A) (A) (A) (A)
 The electronic state is 1-A.
 Alpha  occ. eigenvalues --  -10.52785 -10.52672 -10.52621 -10.52520 -10.52210
 Alpha  occ. eigenvalues --  -10.52147 -10.52076  -0.92446  -0.88220  -0.82593
 Alpha  occ. eigenvalues --   -0.76321  -0.70955  -0.65912  -0.62400  -0.54834
 Alpha  occ. eigenvalues --   -0.53860  -0.51662  -0.49247  -0.47939  -0.47052
 Alpha  occ. eigenvalues --   -0.44598  -0.42638  -0.41480  -0.40183  -0.39200
 Alpha  occ. eigenvalues --   -0.38426  -0.37192  -0.35681  -0.35441
 Alpha virt. eigenvalues --    0.06647   0.07873   0.08207   0.08828   0.11448
 Alpha virt. eigenvalues --    0.11551   0.12717   0.13519   0.14477   0.15524
 Alpha virt. eigenvalues --    0.16190   0.16486   0.17084   0.17823   0.19833
 Alpha virt. eigenvalues --    0.21123   0.21689   0.23187   0.24400   0.26441
 Alpha virt. eigenvalues --    0.27361   0.28010   0.29039   0.30662   0.31130
 Alpha virt. eigenvalues --    0.31992   0.32510   0.33303   0.33854   0.37142
 Alpha virt. eigenvalues --    0.38202   0.40257   0.41511   0.42769   0.43443
 Alpha virt. eigenvalues --    0.45274   0.45605   0.46224   0.46650   0.47994
 Alpha virt. eigenvalues --    0.48374   0.48864   0.50766   0.51472   0.51622
 Alpha virt. eigenvalues --    0.52024   0.52824   0.53153   0.53829   0.54594
 Alpha virt. eigenvalues --    0.54895   0.55567   0.55680   0.56468   0.57819
 Alpha virt. eigenvalues --    0.58180   0.59300   0.60537   0.62484   0.64869
 Alpha virt. eigenvalues --    0.65743   0.67963   0.71268   0.73513   0.75926
 Alpha virt. eigenvalues --    0.76425   0.78609   0.79191   0.82741   0.83602
 Alpha virt. eigenvalues --    0.84345   0.87051   0.88337   0.89545   0.91632
 Alpha virt. eigenvalues --    0.92795   0.93258   0.95247   0.97883   0.98723
 Alpha virt. eigenvalues --    1.00202   1.01479   1.01919   1.04546   1.05037
 Alpha virt. eigenvalues --    1.05336   1.06700   1.08490   1.08681   1.09036
 Alpha virt. eigenvalues --    1.10754   1.11844   1.12564   1.13317   1.15451
 Alpha virt. eigenvalues --    1.16156   1.16882   1.17305   1.19283   1.20284
 Alpha virt. eigenvalues --    1.21155   1.21796   1.22121   1.23324   1.24795
 Alpha virt. eigenvalues --    1.25233   1.26108   1.26614   1.27824   1.28384
 Alpha virt. eigenvalues --    1.29428   1.30601   1.32298   1.32801   1.33672
 Alpha virt. eigenvalues --    1.34163   1.35610   1.36207   1.37427   1.38644
 Alpha virt. eigenvalues --    1.39313   1.41354   1.41736   1.44185   1.45361
 Alpha virt. eigenvalues --    1.45999   1.46674   1.48491   1.48926   1.49979
 Alpha virt. eigenvalues --    1.51493   1.53202   1.53994   1.55389   1.56186
 Alpha virt. eigenvalues --    1.57443   1.59143   1.60327   1.61389   1.63533
 Alpha virt. eigenvalues --    1.64951   1.66840   1.69858   1.71803   1.75575
 Alpha virt. eigenvalues --    1.79004   1.81975   1.84392   1.91357   2.23246
 Alpha virt. eigenvalues --    2.27847   2.29771   2.30385   2.32247   2.34489
 Alpha virt. eigenvalues --    2.37415   2.38173   2.41727   2.43066   2.43814
 Alpha virt. eigenvalues --    2.45602   2.46646   2.49377   2.50955   2.51445
 Alpha virt. eigenvalues --    2.53973   2.55617   2.56980   2.57997   2.59035
 Alpha virt. eigenvalues --    2.60513   2.61236   2.62665   2.66014   2.66655
 Alpha virt. eigenvalues --    2.68282   2.69262   2.70634   2.72243   2.72719
 Alpha virt. eigenvalues --    2.74296   2.75041   2.76709   2.77827   2.78701
 Alpha virt. eigenvalues --    2.80561   2.81265   2.82285   2.83082   2.84070
 Alpha virt. eigenvalues --    2.84589   2.86177   2.88745   2.90596   2.91708
 Alpha virt. eigenvalues --    2.92925   2.94149   2.94837   2.98301   2.98813
 Alpha virt. eigenvalues --    3.00480   3.00876   3.02247   3.03940   3.04489
 Alpha virt. eigenvalues --    3.04800   3.07078   3.08014   3.08974   3.09768
 Alpha virt. eigenvalues --    3.09944   3.10704   3.11241   3.12176   3.13724
 Alpha virt. eigenvalues --    3.14033   3.14715   3.14923   3.16489   3.17724
 Alpha virt. eigenvalues --    3.18857   3.20873   3.21642   3.22577   3.22821
 Alpha virt. eigenvalues --    3.25082   3.25691   3.26790   3.28620   3.30003
 Alpha virt. eigenvalues --    3.31100   3.32300   3.33157   3.34026   3.35204
 Alpha virt. eigenvalues --    3.35816   3.39092   3.39585   3.40982   3.41571
 Alpha virt. eigenvalues --    3.43467   3.43652   3.44528   3.45663   3.47455
 Alpha virt. eigenvalues --    3.49110   3.50262   3.51501   3.53661   3.54476
 Alpha virt. eigenvalues --    3.55030   3.57580   3.58756   3.59131   3.61526
 Alpha virt. eigenvalues --    3.61891   3.63937   3.66124   3.66231   3.68959
 Alpha virt. eigenvalues --    3.69243   3.69681   3.71588   3.72209   3.72940
 Alpha virt. eigenvalues --    3.76294   3.77041   3.78193   3.79020   3.79659
 Alpha virt. eigenvalues --    3.80465   3.81507   3.81860   3.83041   3.83904
 Alpha virt. eigenvalues --    3.85670   3.88249   3.88513   3.89202   3.89980
 Alpha virt. eigenvalues --    3.91954   3.93605   3.94467   3.95173   3.96763
 Alpha virt. eigenvalues --    3.97206   3.97902   3.99925   4.00229   4.00996
 Alpha virt. eigenvalues --    4.01627   4.02312   4.03723   4.04242   4.04623
 Alpha virt. eigenvalues --    4.05651   4.08414   4.09142   4.10537   4.11977
 Alpha virt. eigenvalues --    4.13077   4.14157   4.15438   4.16362   4.16584
 Alpha virt. eigenvalues --    4.18936   4.20373   4.21053   4.22738   4.23718
 Alpha virt. eigenvalues --    4.25921   4.27127   4.27482   4.28896   4.29974
 Alpha virt. eigenvalues --    4.32102   4.33296   4.34632   4.36345   4.38522
 Alpha virt. eigenvalues --    4.40021   4.41221   4.44335   4.45393   4.48294
 Alpha virt. eigenvalues --    4.49395   4.51498   4.54532   4.56212   4.57273
 Alpha virt. eigenvalues --    4.59240   4.60560   4.62792   4.64965   4.66807
 Alpha virt. eigenvalues --    4.68083   4.69529   4.71027   4.75730   4.76108
 Alpha virt. eigenvalues --    4.77455   4.78084   4.78671   4.80274   4.81154
 Alpha virt. eigenvalues --    4.81860   4.84246   4.86383   4.89134   4.89956
 Alpha virt. eigenvalues --    4.91137   4.93487   4.94030   4.95306   4.98799
 Alpha virt. eigenvalues --    5.00818   5.02687   5.05412   5.06523   5.08065
 Alpha virt. eigenvalues --    5.12017   5.13644   5.17079   5.20445   5.21170
 Alpha virt. eigenvalues --    5.23285   5.24382   5.25439   5.26075   5.26289
 Alpha virt. eigenvalues --    5.27907   5.29174   5.30971   5.33015   5.33585
 Alpha virt. eigenvalues --    5.36202   5.39063   5.40508   5.43842   5.44347
 Alpha virt. eigenvalues --    5.47871   5.49280   5.50729   5.53661   5.56200
 Alpha virt. eigenvalues --    5.56579   5.60763   5.63942   5.77303   5.79496
 Alpha virt. eigenvalues --    5.81073   5.81872   5.85133   5.88104   5.92513
 Alpha virt. eigenvalues --    5.95483   6.01217   6.05426  11.89660  12.28319
 Alpha virt. eigenvalues --   12.73041  13.05257  13.25924  13.42389  13.81316
          Condensed to atoms (all electrons):
               1          2          3          4          5          6
     1  C    5.163809   0.273057  -0.047968   0.313322  -0.011046  -0.045766
     2  C    0.273057   5.137814   0.331280  -0.041424  -0.048586  -0.026839
     3  C   -0.047968   0.331280   5.049674   0.004738   0.311905   0.000845
     4  C    0.313322  -0.041424   0.004738   5.036766   0.000216   0.306233
     5  C   -0.011046  -0.048586   0.311905   0.000216   5.089211  -0.000414
     6  C   -0.045766  -0.026839   0.000845   0.306233  -0.000414   4.993721
     7  C   -0.000255   0.006814  -0.057704   0.000263   0.322732  -0.000018
     8  H   -0.048853   0.010070  -0.000548   0.416779  -0.000044  -0.042163
     9  H   -0.046289  -0.001470   0.000015   0.409898   0.001935  -0.048644
    10  H    0.405877  -0.051048   0.005819  -0.037892   0.000692  -0.004080
    11  H    0.421817  -0.056030  -0.000282  -0.046730  -0.013454   0.008578
    12  H   -0.043495   0.414335  -0.035684   0.004600   0.008585   0.001568
    13  H   -0.064158   0.419888  -0.039236  -0.002835  -0.006632  -0.015731
    14  H   -0.006249  -0.040068   0.410048   0.000380  -0.049663  -0.000163
    15  H    0.010292  -0.042231   0.413456  -0.000906  -0.041468   0.000139
    16  H    0.004987  -0.010701  -0.042769  -0.004058   0.410165   0.000075
    17  H   -0.002571   0.003744  -0.051819  -0.000102   0.399528   0.000010
    18  H    0.001151  -0.001463  -0.000011  -0.051349   0.000019   0.402966
    19  H   -0.009934  -0.007282   0.000874  -0.043595  -0.000082   0.411906
    20  H    0.008567   0.000645  -0.000032  -0.040096   0.000051   0.405236
    21  H    0.000020   0.000169  -0.006033  -0.000007  -0.046224   0.000000
    22  H   -0.000021   0.000032  -0.004430  -0.000008  -0.045726  -0.000000
    23  H    0.000054  -0.000556   0.009003  -0.000002  -0.041665   0.000000
               7          8          9         10         11         12
     1  C   -0.000255  -0.048853  -0.046289   0.405877   0.421817  -0.043495
     2  C    0.006814   0.010070  -0.001470  -0.051048  -0.056030   0.414335
     3  C   -0.057704  -0.000548   0.000015   0.005819  -0.000282  -0.035684
     4  C    0.000263   0.416779   0.409898  -0.037892  -0.046730   0.004600
     5  C    0.322732  -0.000044   0.001935   0.000692  -0.013454   0.008585
     6  C   -0.000018  -0.042163  -0.048644  -0.004080   0.008578   0.001568
     7  C    4.929126  -0.000011   0.000247   0.000036   0.000093  -0.000415
     8  H   -0.000011   0.599794  -0.032461  -0.011575  -0.003348  -0.000468
     9  H    0.000247  -0.032461   0.596548   0.009468  -0.013213  -0.000496
    10  H    0.000036  -0.011575   0.009468   0.586202  -0.031442  -0.019454
    11  H    0.000093  -0.003348  -0.013213  -0.031442   0.588464   0.005858
    12  H   -0.000415  -0.000468  -0.000496  -0.019454   0.005858   0.576360
    13  H    0.000196   0.000272   0.000681   0.006201   0.006545  -0.035276
    14  H   -0.002986  -0.000001   0.000064   0.000783   0.001474  -0.009381
    15  H   -0.003713   0.000037  -0.000013  -0.000359   0.000140  -0.004535
    16  H   -0.037909   0.000321   0.000707   0.000841  -0.006902  -0.000305
    17  H   -0.027768   0.000044  -0.000927  -0.000100   0.001767   0.000042
    18  H    0.000001  -0.009181   0.009546   0.004058  -0.000147  -0.000268
    19  H   -0.000014   0.008170  -0.004587  -0.000251  -0.000389  -0.000307
    20  H   -0.000000  -0.004510  -0.008749  -0.000206  -0.000431   0.000010
    21  H    0.409036   0.000001  -0.000008  -0.000013   0.000237   0.000019
    22  H    0.404920   0.000000   0.000005   0.000006  -0.000127  -0.000034
    23  H    0.404816  -0.000000  -0.000010  -0.000003   0.000162   0.000025
              13         14         15         16         17         18
     1  C   -0.064158  -0.006249   0.010292   0.004987  -0.002571   0.001151
     2  C    0.419888  -0.040068  -0.042231  -0.010701   0.003744  -0.001463
     3  C   -0.039236   0.410048   0.413456  -0.042769  -0.051819  -0.000011
     4  C   -0.002835   0.000380  -0.000906  -0.004058  -0.000102  -0.051349
     5  C   -0.006632  -0.049663  -0.041468   0.410165   0.399528   0.000019
     6  C   -0.015731  -0.000163   0.000139   0.000075   0.000010   0.402966
     7  C    0.000196  -0.002986  -0.003713  -0.037909  -0.027768   0.000001
     8  H    0.000272  -0.000001   0.000037   0.000321   0.000044  -0.009181
     9  H    0.000681   0.000064  -0.000013   0.000707  -0.000927   0.009546
    10  H    0.006201   0.000783  -0.000359   0.000841  -0.000100   0.004058
    11  H    0.006545   0.001474   0.000140  -0.006902   0.001767  -0.000147
    12  H   -0.035276  -0.009381  -0.004535  -0.000305   0.000042  -0.000268
    13  H    0.599585   0.008870  -0.008823  -0.000098   0.002590   0.001168
    14  H    0.008870   0.586692  -0.035641  -0.005377   0.008658   0.000010
    15  H   -0.008823  -0.035641   0.581978   0.007647  -0.007355  -0.000009
    16  H   -0.000098  -0.005377   0.007647   0.609135  -0.043612  -0.000009
    17  H    0.002590   0.008658  -0.007355  -0.043612   0.590204  -0.000006
    18  H    0.001168   0.000010  -0.000009  -0.000009  -0.000006   0.596224
    19  H   -0.006790  -0.000129   0.000177   0.000052   0.000066  -0.038146
    20  H    0.000133   0.000004  -0.000005   0.000008  -0.000008  -0.029138
    21  H   -0.000021   0.003832  -0.000033  -0.006984   0.008064  -0.000000
    22  H   -0.000030  -0.000528   0.003476   0.008646  -0.006630  -0.000000
    23  H    0.000017  -0.000007  -0.000175  -0.005951  -0.005828   0.000000
              19         20         21         22         23
     1  C   -0.009934   0.008567   0.000020  -0.000021   0.000054
     2  C   -0.007282   0.000645   0.000169   0.000032  -0.000556
     3  C    0.000874  -0.000032  -0.006033  -0.004430   0.009003
     4  C   -0.043595  -0.040096  -0.000007  -0.000008  -0.000002
     5  C   -0.000082   0.000051  -0.046224  -0.045726  -0.041665
     6  C    0.411906   0.405236   0.000000  -0.000000   0.000000
     7  C   -0.000014  -0.000000   0.409036   0.404920   0.404816
     8  H    0.008170  -0.004510   0.000001   0.000000  -0.000000
     9  H   -0.004587  -0.008749  -0.000008   0.000005  -0.000010
    10  H   -0.000251  -0.000206  -0.000013   0.000006  -0.000003
    11  H   -0.000389  -0.000431   0.000237  -0.000127   0.000162
    12  H   -0.000307   0.000010   0.000019  -0.000034   0.000025
    13  H   -0.006790   0.000133  -0.000021  -0.000030   0.000017
    14  H   -0.000129   0.000004   0.003832  -0.000528  -0.000007
    15  H    0.000177  -0.000005  -0.000033   0.003476  -0.000175
    16  H    0.000052   0.000008  -0.006984   0.008646  -0.005951
    17  H    0.000066  -0.000008   0.008064  -0.006630  -0.005828
    18  H   -0.038146  -0.029138  -0.000000  -0.000000   0.000000
    19  H    0.616650  -0.032195   0.000001   0.000001  -0.000001
    20  H   -0.032195   0.589235  -0.000000   0.000000   0.000000
    21  H    0.000001  -0.000000   0.594024  -0.038452  -0.031730
    22  H    0.000001   0.000000  -0.038452   0.606647  -0.030420
    23  H   -0.000001   0.000000  -0.031730  -0.030420   0.596941
 Mulliken charges:
               1
     1  C   -0.276349
     2  C   -0.270150
     3  C   -0.251140
     4  C   -0.224189
     5  C   -0.240033
     6  C   -0.347456
     7  C   -0.347487
     8  H    0.117675
     9  H    0.127753
    10  H    0.136439
    11  H    0.137361
    12  H    0.138715
    13  H    0.133483
    14  H    0.129379
    15  H    0.127921
    16  H    0.122090
    17  H    0.132011
    18  H    0.114582
    19  H    0.105805
    20  H    0.111482
    21  H    0.114102
    22  H    0.102674
    23  H    0.105329
 Sum of Mulliken charges =  -0.00000
 Mulliken charges with hydrogens summed into heavy atoms:
               1
     1  C   -0.002549
     2  C    0.002048
     3  C    0.006161
     4  C    0.021240
     5  C    0.014069
     6  C   -0.015586
     7  C   -0.025382
 APT charges:
               1
     1  C   -0.619697
     2  C   -0.625746
     3  C   -0.799928
     4  C   -0.635225
     5  C   -0.289902
     6  C   -1.237007
     7  C   -1.440668
     8  H    0.478608
     9  H    0.230150
    10  H    0.430131
    11  H    0.244994
    12  H    0.426465
    13  H    0.301265
    14  H    0.370883
    15  H    0.398963
    16  H    0.211615
    17  H    0.276731
    18  H    0.439790
    19  H    0.111111
    20  H    0.500123
    21  H    0.367950
    22  H    0.414385
    23  H    0.445007
 Sum of APT charges =  -0.00000
 APT charges with hydrogens summed into heavy atoms:
               1
     1  C    0.055428
     2  C    0.101984
     3  C   -0.030082
     4  C    0.073533
     5  C    0.198445
     6  C   -0.185982
     7  C   -0.213326
 Electronic spatial extent (au):  <R**2>=           1243.9663
 Charge=             -0.0000 electrons
 Dipole moment (field-independent basis, Debye):
    X=             -0.0594    Y=              0.0055    Z=              0.0473  Tot=              0.0761
 Quadrupole moment (field-independent basis, Debye-Ang):
   XX=            -50.3294   YY=            -49.0021   ZZ=            -48.7243
   XY=              0.0106   XZ=             -0.4176   YZ=              0.1700
 Traceless Quadrupole moment (field-independent basis, Debye-Ang):
   XX=             -0.9775   YY=              0.3499   ZZ=              0.6276
   XY=              0.0106   XZ=             -0.4176   YZ=              0.1700
 Octapole moment (field-independent basis, Debye-Ang**2):
  XXX=             -4.1348  YYY=              0.0748  ZZZ=             -0.2120  XYY=             -0.4534
  XXY=              0.1136  XXZ=              2.1990  XZZ=              1.3066  YZZ=              0.3264
  YYZ=              0.1577  XYZ=             -1.0052
 Hexadecapole moment (field-independent basis, Debye-Ang**3):
 XXXX=          -1366.3269 YYYY=           -259.5930 ZZZZ=           -179.1724 XXXY=              5.3006
 XXXZ=             -8.6502 YYYX=             -3.5406 YYYZ=              2.7845 ZZZX=             -1.7387
 ZZZY=             -0.9260 XXYY=           -263.4138 XXZZ=           -249.4834 YYZZ=            -72.0234
 XXYZ=              2.5296 YYXZ=             -0.6709 ZZXY=              2.8975
 N-N= 3.255603555331D+02 E-N=-1.289532689958D+03  KE= 2.744924122580D+02
  Exact polarizability:   0.000   0.000   0.000   0.000   0.000   0.000
 Approx polarizability:  99.547   0.303  98.982  -0.816   0.069  98.595
 No NMR shielding tensors so no spin-rotation constants.
 Leave Link  601 at Sun Sep 29 14:23:20 2019, MaxMem=   671088640 cpu:              56.8 elap:              28.5
 (Enter /shared/centos7/gaussian/g16/l701.exe)
 SCFChk:  SCF convergence  5.53D-09 required  1.00D-08
 ... and contract with generalized density number  0.
 Compute integral second derivatives.
 Entering OneElI...
 Calculate overlap and kinetic energy integrals
    NBasis = 485  MinDer = 2  MaxDer = 2
 Requested accuracy = 0.1000D-12
 PrmmSu-InSpLW:  IPartL=    0 NPrtUS=   20 NPrtUL=    1 DoSpLW=F IThBeg=    0 IThEnd=   19 NThAct=   20.
 PrsmSu:  NPrtUS=  20 ThrOK=T IAlg=1 NPAlg=1 LenDen=           0 ISkipM=0 DoSpLW=F IThBeg=    0 IThEnd=   19.
 Prism:   IPart=     0 DynPar=F LinDyn=F Incr=           6.
 PRISM was handed    33203920 working-precision words and 13571 shell-pairs
 PRISM was handed    33203920 working-precision words and 13571 shell-pairs
 PRISM was handed    33203920 working-precision words and 13571 shell-pairs
 PRISM was handed    33203920 working-precision words and 13571 shell-pairs
 PRISM was handed    33203920 working-precision words and 13571 shell-pairs
 PRISM was handed    33203920 working-precision words and 13571 shell-pairs
 PRISM was handed    33203920 working-precision words and 13571 shell-pairs
 PRISM was handed    33203920 working-precision words and 13571 shell-pairs
 PRISM was handed    33203920 working-precision words and 13571 shell-pairs
 PRISM was handed    33203920 working-precision words and 13571 shell-pairs
 PRISM was handed    33203920 working-precision words and 13571 shell-pairs
 PRISM was handed    33203920 working-precision words and 13571 shell-pairs
 PRISM was handed    33203920 working-precision words and 13571 shell-pairs
 PRISM was handed    33203920 working-precision words and 13571 shell-pairs
 PRISM was handed    33203920 working-precision words and 13571 shell-pairs
 PRISM was handed    33203920 working-precision words and 13571 shell-pairs
 PRISM was handed    33203920 working-precision words and 13571 shell-pairs
 PRISM was handed    33203920 working-precision words and 13571 shell-pairs
 PRISM was handed    33203920 working-precision words and 13571 shell-pairs
 PRISM was handed    33203920 working-precision words and 13571 shell-pairs
 IPart=  8 NShTot=         676 NBatch=          60 AvBLen=        11.3
 IPart=  0 NShTot=         714 NBatch=          79 AvBLen=         9.0
 IPart=  7 NShTot=         683 NBatch=          61 AvBLen=        11.2
 IPart= 11 NShTot=         668 NBatch=          56 AvBLen=        11.9
 IPart=  6 NShTot=         693 NBatch=          68 AvBLen=        10.2
 IPart= 12 NShTot=         666 NBatch=          54 AvBLen=        12.3
 IPart= 10 NShTot=         669 NBatch=          56 AvBLen=        11.9
 IPart=  2 NShTot=         710 NBatch=          77 AvBLen=         9.2
 IPart=  4 NShTot=         702 NBatch=          73 AvBLen=         9.6
 IPart=  1 NShTot=         711 NBatch=          77 AvBLen=         9.2
 IPart= 19 NShTot=         650 NBatch=          47 AvBLen=        13.8
 IPart=  9 NShTot=         671 NBatch=          57 AvBLen=        11.8
 IPart= 15 NShTot=         661 NBatch=          52 AvBLen=        12.7
 IPart= 18 NShTot=         653 NBatch=          47 AvBLen=        13.9
 IPart=  3 NShTot=         706 NBatch=          76 AvBLen=         9.3
 IPart= 17 NShTot=         657 NBatch=          50 AvBLen=        13.1
 IPart= 13 NShTot=         664 NBatch=          53 AvBLen=        12.5
 IPart= 16 NShTot=         657 NBatch=          50 AvBLen=        13.1
 IPart= 14 NShTot=         662 NBatch=          52 AvBLen=        12.7
 IPart=  5 NShTot=         698 NBatch=          71 AvBLen=         9.8
 PrSmSu:  NxtVal=            121.
 Entering OneElI...
 Calculate potential energy integrals
    NBasis = 485  MinDer = 2  MaxDer = 2
 Requested accuracy = 0.1000D-12
 PrmmSu-InSpLW:  IPartL=    0 NPrtUS=   20 NPrtUL=    1 DoSpLW=F IThBeg=    0 IThEnd=   19 NThAct=   20.
 PrsmSu:  NPrtUS=  20 ThrOK=T IAlg=1 NPAlg=1 LenDen=           0 ISkipM=0 DoSpLW=F IThBeg=    0 IThEnd=   19.
 Prism:   IPart=     0 DynPar=F LinDyn=F Incr=         139.
 PRISM was handed    33267512 working-precision words and 12101 shell-pairs
 PRISM was handed    33267512 working-precision words and 12101 shell-pairs
 PRISM was handed    33267512 working-precision words and 12101 shell-pairs
 PRISM was handed    33267512 working-precision words and 12101 shell-pairs
 PRISM was handed    33267512 working-precision words and 12101 shell-pairs
 PRISM was handed    33267512 working-precision words and 12101 shell-pairs
 PRISM was handed    33267512 working-precision words and 12101 shell-pairs
 PRISM was handed    33267512 working-precision words and 12101 shell-pairs
 PRISM was handed    33267512 working-precision words and 12101 shell-pairs
 PRISM was handed    33267512 working-precision words and 12101 shell-pairs
 PRISM was handed    33267512 working-precision words and 12101 shell-pairs
 PRISM was handed    33267512 working-precision words and 12101 shell-pairs
 PRISM was handed    33267512 working-precision words and 12101 shell-pairs
 PRISM was handed    33267512 working-precision words and 12101 shell-pairs
 PRISM was handed    33267512 working-precision words and 12101 shell-pairs
 PRISM was handed    33267512 working-precision words and 12101 shell-pairs
 PRISM was handed    33267512 working-precision words and 12101 shell-pairs
 PRISM was handed    33267512 working-precision words and 12101 shell-pairs
 PRISM was handed    33267512 working-precision words and 12101 shell-pairs
 PRISM was handed    33267512 working-precision words and 12101 shell-pairs
 IPart= 18 NShTot=       13386 NBatch=         583 AvBLen=        23.0
 IPart= 12 NShTot=       13708 NBatch=         597 AvBLen=        23.0
 IPart= 19 NShTot=       13386 NBatch=         583 AvBLen=        23.0
 IPart= 13 NShTot=       13616 NBatch=         593 AvBLen=        23.0
 IPart=  9 NShTot=       13869 NBatch=         604 AvBLen=        23.0
 IPart=  4 NShTot=       14398 NBatch=         628 AvBLen=        22.9
 IPart= 16 NShTot=       13478 NBatch=         587 AvBLen=        23.0
 IPart= 15 NShTot=       13524 NBatch=         589 AvBLen=        23.0
 IPart=  8 NShTot=       13892 NBatch=         605 AvBLen=        23.0
 IPart=  6 NShTot=       14099 NBatch=         614 AvBLen=        23.0
 IPart= 10 NShTot=       13823 NBatch=         602 AvBLen=        23.0
 IPart=  5 NShTot=       14283 NBatch=         623 AvBLen=        22.9
 IPart= 14 NShTot=       13593 NBatch=         592 AvBLen=        23.0
 IPart=  2 NShTot=       14490 NBatch=         632 AvBLen=        22.9
 IPart= 11 NShTot=       13823 NBatch=         602 AvBLen=        23.0
 IPart= 17 NShTot=       13386 NBatch=         583 AvBLen=        23.0
 IPart=  0 NShTot=       14628 NBatch=         638 AvBLen=        22.9
 IPart=  7 NShTot=       13915 NBatch=         606 AvBLen=        23.0
 IPart=  3 NShTot=       14467 NBatch=         631 AvBLen=        22.9
 IPart=  1 NShTot=       14559 NBatch=         635 AvBLen=        22.9
 PrSmSu:  NxtVal=           2781.
 Polarizability after L701:
                1             2             3 
      1  0.000000D+00
      2  0.000000D+00  0.000000D+00
      3  0.000000D+00  0.000000D+00  0.000000D+00
 Dipole Derivatives after L701:
                 1             2             3             4             5 
      1  -0.462522D+00  0.372248D+00  0.648939D+00 -0.186964D+00  0.301683D+00
      2   0.384671D+00 -0.331116D+00 -0.263344D+00  0.370277D+00 -0.113057D+01
      3  -0.160933D+00 -0.103090D+00 -0.106545D+01 -0.159479D+00 -0.209359D+00
                 6             7             8             9            10 
      1  -0.321593D+00 -0.699542D+00 -0.848289D+00 -0.502651D-01 -0.342927D+00
      2   0.274035D+00 -0.554675D+00 -0.824658D+00  0.154668D-02  0.350744D-01
      3  -0.559704D+00  0.680333D-01  0.107867D+00 -0.875584D+00  0.481102D+00
                11            12            13            14            15 
      1  -0.119894D+01  0.800353D+00  0.518352D+00  0.649290D+00  0.163251D+00
      2  -0.105852D+01  0.137641D+00 -0.322080D+00 -0.569446D+00  0.555598D-02
      3   0.209857D+00 -0.504231D+00 -0.364212D-01 -0.566567D-01 -0.818611D+00
                16            17            18            19            20 
      1  -0.190322D+01  0.539671D+00 -0.101962D+01 -0.231265D+01  0.207975D+00
      2  -0.187079D+00 -0.782902D+00 -0.257921D+00  0.273108D+00 -0.100779D+01
      3  -0.738120D-01  0.286902D-02 -0.102490D+01  0.640601D-01 -0.135199D-01
                21            22            23            24            25 
      1  -0.432962D-01  0.658286D+00  0.353003D+00 -0.670011D+00 -0.640524D-01
      2   0.476703D-02  0.264029D+00  0.305631D+00 -0.335855D+00 -0.308033D+00
      3  -0.100156D+01 -0.244439D+00 -0.162506D+00  0.471907D+00 -0.136703D-01
                26            27            28            29            30 
      1   0.337512D+00  0.183426D+00  0.425283D+00 -0.315689D+00 -0.374589D+00
      2   0.569150D+00  0.245828D+00 -0.139159D+00  0.375358D+00  0.184931D+00
      3   0.603987D-01  0.185353D+00 -0.317966D+00  0.335300D+00  0.489751D+00
                31            32            33            34            35 
      1   0.119068D+00  0.357568D-01 -0.308832D-01  0.208018D+00 -0.190916D+00
      2  -0.105260D+00  0.222113D+00 -0.516913D-01 -0.187800D+00  0.905650D+00
      3   0.428210D+00 -0.324450D+00  0.393802D+00 -0.339332D-01  0.479471D-01
                36            37            38            39            40 
      1  -0.673188D-01  0.295519D+00  0.926486D-01  0.241817D+00  0.334031D+00
      2   0.172463D+00 -0.106590D+00  0.743613D-01 -0.255924D+00  0.164280D+00
      3   0.165726D+00  0.190363D+00  0.107674D+00  0.533916D+00  0.114615D+00
                41            42            43            44            45 
      1   0.251130D+00  0.451103D+00  0.325578D+00  0.299276D+00 -0.442099D+00
      2   0.370172D+00  0.407525D+00  0.184216D+00  0.426511D+00 -0.438696D+00
      3   0.146543D+00  0.408446D+00 -0.125319D+00 -0.199132D+00  0.444800D+00
                46            47            48            49            50 
      1  -0.463430D-01 -0.242989D+00  0.270168D+00  0.116896D-01 -0.217070D+00
      2   0.166884D+00  0.334974D+00 -0.279304D+00  0.792526D-01  0.282288D+00
      3  -0.126190D+00 -0.129613D+00  0.346215D+00  0.112702D+00  0.185416D+00
                51            52            53            54            55 
      1  -0.376548D+00  0.970059D+00 -0.815811D+00 -0.502315D+00 -0.318396D+00
      2   0.269483D+00 -0.145727D+00  0.229847D+00  0.800798D-01  0.969790D-01
      3   0.536216D+00  0.220347D-01 -0.311929D-01  0.119464D+00 -0.351668D+00
                56            57            58            59            60 
      1  -0.430854D+00  0.490402D+00  0.715159D+00  0.944799D+00  0.610904D+00
      2   0.176674D+00 -0.931525D-01  0.213505D+00  0.463472D+00  0.203133D+00
      3  -0.321343D+00  0.475055D+00  0.228616D+00  0.339863D+00  0.321739D+00
                61            62            63            64            65 
      1   0.551391D+00  0.433406D+00  0.104714D+01  0.747253D+00  0.674728D+00
      2  -0.174249D-01  0.838933D-01 -0.261414D-01  0.979811D-02  0.106054D+00
      3   0.116386D+00  0.143617D+00  0.468567D+00 -0.168329D+00 -0.200476D+00
                66            67            68            69 
      1  -0.931906D+00  0.456928D+00 -0.123258D+01 -0.770566D-01
      2  -0.343884D-01 -0.168247D+00  0.778853D+00  0.494276D-01
      3   0.389847D+00 -0.139632D-01  0.639855D-01  0.992400D-01
 Hessian after L701:
                1             2             3             4             5 
      1  0.152246D+02
      2 -0.108658D+01  0.170486D+02
      3  0.143899D-01 -0.106510D-01  0.172680D+02
      4 -0.513205D+01  0.113030D+01 -0.132591D+01  0.150433D+02
      5  0.116290D+01 -0.474862D+01 -0.140639D+01 -0.262391D+00  0.170557D+02
      6 -0.131746D+01 -0.138442D+01 -0.467868D+01  0.495778D+00  0.383369D+00
      7  0.225463D+00  0.121514D+00 -0.209840D+00 -0.211628D+01 -0.352615D+00
      8  0.106070D+00 -0.682282D-01 -0.988868D-01 -0.365543D+00 -0.619377D+01
      9 -0.334461D+00 -0.128025D+00  0.505320D-01 -0.113515D+00  0.591223D-01
     10 -0.456414D+01  0.175649D+01  0.100030D+01  0.162420D+00  0.288066D+00
     11  0.169290D+01 -0.438149D+01  0.110219D+01  0.295869D+00  0.131454D+00
     12  0.989280D+00  0.111111D+01 -0.560670D+01 -0.142297D+00 -0.191847D+00
     13  0.279538D+00 -0.130657D+00 -0.326315D-01  0.196405D+00 -0.249278D+00
     14 -0.392843D-01 -0.148607D+00 -0.338940D-02 -0.232971D+00  0.147248D+00
     15 -0.145688D+00  0.448229D-01 -0.180351D+00 -0.543492D-01  0.319776D-01
     16  0.236886D+00  0.657820D-01  0.247874D+00  0.419852D-01  0.682779D-01
     17  0.103807D+00 -0.109891D+00  0.371295D-01  0.159544D+00 -0.665237D-01
     18  0.314761D+00  0.279032D-01  0.369283D-01  0.746242D-02 -0.116831D-02
     19  0.976896D-01 -0.376292D-01 -0.206304D-01  0.195569D+00 -0.148783D+00
     20 -0.319699D-01 -0.656265D-01  0.446461D-02 -0.152639D+00 -0.624752D-01
     21 -0.577116D-01  0.117794D-01 -0.718951D-01  0.592348D-02 -0.703130D-02
     22  0.136615D-01 -0.106623D+00 -0.133357D-01  0.574648D-01  0.108134D+00
     23 -0.112037D+00 -0.287809D-01 -0.379032D-02  0.111098D+00  0.579367D-01
     24 -0.127654D-01 -0.492896D-02  0.154105D+00 -0.737563D-01 -0.675708D-01
     25  0.129084D+00 -0.104674D+00 -0.693981D-01 -0.147844D-01  0.945890D-02
     26 -0.668734D-01 -0.801891D-02 -0.146767D+00  0.420303D-01  0.302365D-01
     27 -0.446546D-01 -0.979166D-01  0.203497D-01  0.309091D-02  0.294176D-02
     28 -0.373185D+01 -0.678971D+00 -0.801016D+00  0.691490D-01 -0.904456D-01
     29 -0.685378D+00 -0.356555D+01  0.906161D+00 -0.831834D-01  0.148282D+00
     30 -0.821764D+00  0.921185D+00 -0.314228D+01  0.109123D+00  0.123865D+00
     31 -0.338892D+01 -0.885683D+00  0.103356D+01  0.220868D+00 -0.746276D-01
     32 -0.962625D+00 -0.400986D+01 -0.727786D+00 -0.459945D-01  0.397465D-01
     33  0.123339D+01 -0.797718D+00 -0.367752D+01  0.492724D-01  0.203484D+00
     34  0.895312D-01 -0.801952D-01  0.332937D-01 -0.429629D+01 -0.599248D+00
     35 -0.697214D-01  0.381408D-01  0.135883D+00 -0.608094D+00 -0.207413D+01
     36  0.324926D-01  0.117339D+00  0.484482D-01 -0.541903D-01  0.278934D+00
     37  0.207542D+00 -0.188038D-01  0.119860D+00 -0.433331D+01  0.164875D+00
     38 -0.245553D-01  0.135455D+00  0.216058D+00  0.113303D+00 -0.460411D+01
     39  0.105740D+00  0.178773D+00 -0.149141D+00  0.105577D+01  0.497935D+00
     40  0.108032D-01 -0.890436D-02  0.567819D-02 -0.835148D-01  0.431002D-01
     41  0.777687D-02 -0.144083D-01  0.773043D-02  0.208758D-01  0.114450D+00
     42  0.128327D-01  0.489461D-02  0.358042D-02 -0.301891D-01  0.505859D-01
     43  0.863816D-01  0.756250D-01 -0.970190D-01 -0.954336D-01 -0.437519D-01
     44  0.910916D-01 -0.109770D-01 -0.548466D-01 -0.509069D-01  0.920509D-01
     45 -0.115404D+00 -0.565671D-01  0.183582D-01  0.346282D-01 -0.180194D-01
     46  0.452019D-01 -0.658176D-01  0.183643D-01 -0.644702D-02  0.284314D-01
     47 -0.113552D+00 -0.159715D-02 -0.161780D-01  0.756972D-02 -0.111499D-01
     48  0.481863D-01 -0.271299D-01 -0.700118D-01 -0.289796D-02  0.341183D-02
     49 -0.138583D-01 -0.236587D-02 -0.571920D-02  0.787756D-02 -0.467886D-01
     50 -0.101848D-01 -0.445872D-02  0.713676D-02 -0.635585D-01  0.119270D-01
[...]
 .00019301,0.00511451,-0.01971817,0.02250965,0.00004226,0.00014076,-0.0
 0014102,0.00040931,0.00100567,0.00149427,0.00000854,0.00003381,0.00002
 707,0.00006873,-0.00000290,-0.00004130,-0.00018721,0.00001889,-0.00004
 526,-0.00021750,0.00008592,0.00060317,-0.00025658,0.00097407,0.0007778
 9,0.00096517,-0.00100170,-0.00357531,-0.03068369,0.14996755,-0.0019430
 9,0.00071216,0.00072735,-0.00559441,0.01515186,-0.02535788,-0.03925990
 ,0.11741490,-0.20254853,0.00010259,0.00023611,0.00026495,0.00095963,-0
 .00121459,0.00080488,-0.00024945,-0.00004637,-0.00008320,0.00004941,-0
 .00047000,0.00114591,0.00009807,0.00000186,-0.00002961,-0.00008270,-0.
 00009006,0.00000475,0.00005042,-0.00005837,0.00022167,0.00114806,-0.00
 025584,0.00057323,-0.00031902,-0.00015066,0.00100237,0.00121634,-0.003
 67519,-0.00392771,0.04364874,-0.12630319,0.22470292,0.00118242,0.00080
 368,0.00075910,-0.00499031,0.00102623,-0.00030310,-0.29066607,0.057408
 08,0.00717788,0.00016109,0.00000484,0.00005449,-0.01982706,0.00274198,
 -0.00031309,-0.00010210,-0.00000653,-0.00000853,0.00084684,0.00119229,
 0.00048855,-0.00002747,0.00001288,0.00000877,0.00003228,0.00007348,-0.
 00005418,-0.00043046,0.00003974,0.00026088,0.00033691,-0.00028897,0.00
 014975,0.00053823,0.00044554,0.00020406,0.00021552,-0.00024509,0.00042
 861,-0.00630476,0.00155830,-0.00035852,0.31797661,0.00024517,-0.000817
 96,-0.00320359,0.01646783,-0.00466135,0.00009252,0.05749203,-0.0601147
 5,-0.00034781,0.00027835,-0.00075090,-0.00007163,-0.03016521,0.0041328
 7,-0.00088812,0.00010693,0.00017209,-0.00002763,-0.00087452,0.00170271
 ,0.00097619,0.00012097,0.00011937,-0.00010953,-0.00001483,0.00017412,-
 0.00010613,0.00069786,-0.00023853,-0.00036560,-0.00053434,0.00013413,-
 0.00018550,0.00009793,-0.00006118,0.00059641,-0.00046602,0.00066735,0.
 00011757,0.01852940,-0.00487162,-0.00091521,-0.06027691,0.06820797,-0.
 00090179,-0.00308126,-0.00444864,0.02912120,-0.00756237,-0.00244338,0.
 00652513,0.00036002,-0.04844870,0.00021218,-0.00036396,0.00036319,-0.0
 0185127,0.00009922,-0.00059562,0.00004046,0.00000885,0.00009125,-0.001
 02696,0.00023258,0.00036113,0.00013153,0.00015805,-0.00010095,-0.00006
 592,0.00013610,-0.00004822,0.00137788,-0.00048155,-0.00016764,0.000080
 92,0.00005130,0.00020711,-0.00047416,0.00033879,0.00114699,-0.00001570
 ,0.00093905,0.00086956,-0.02517776,0.00541932,0.00077717,-0.00840680,0
 .00492256,0.05177331,-0.00003906,0.00015260,-0.00035121,-0.00028223,0.
 00037670,0.00051168,-0.01839204,0.00264883,-0.00120915,0.00035217,-0.0
 0052343,0.00075872,-0.29462173,0.05477608,-0.01073509,-0.00022129,0.00
 044207,0.00005196,-0.00705014,0.00206731,0.00030306,-0.00013609,0.0001
 4260,-0.00009430,0.00005117,0.00095139,0.00054980,0.00023576,0.0000205
 4,0.00022109,0.00030098,-0.00021151,0.00017699,0.00019660,-0.00009829,
 -0.00003057,0.00002079,-0.00010580,0.00000266,0.00075600,-0.00000220,0
 .00030751,-0.00049772,-0.00342067,-0.00005348,0.32225919,-0.00010187,-
 0.00029686,-0.00111715,0.00045751,0.00105232,0.00028844,-0.03005445,0.
 00610578,-0.00116372,0.00036774,0.00023441,-0.00034666,0.05499046,-0.0
 5956145,0.00425790,-0.00001795,-0.00018968,0.00001170,0.01748751,-0.00
 502177,-0.00015386,0.00011218,-0.00006552,-0.00004998,0.00021412,-0.00
 016132,-0.00034091,0.00003884,0.00005611,0.00023525,0.00030771,-0.0009
 0484,0.00012829,0.00017794,0.00013391,0.00026661,0.00004158,-0.0000805
 8,-0.00003389,0.00081674,0.00134660,0.00032556,-0.00359515,-0.00483808
 ,-0.00083271,-0.05906237,0.06704345,-0.00004776,-0.00030476,0.00003899
 ,-0.00060600,0.00037401,0.00022080,-0.00249311,0.00090992,-0.00078654,
 0.00023186,-0.00074244,-0.00065959,-0.01055244,0.00405518,-0.04818829,
 -0.00003662,0.00023548,-0.00012183,0.02870397,-0.00747911,-0.00045109,
 0.00004551,0.00006428,0.00001667,0.00027851,0.00002170,-0.00173577,0.0
 0011073,0.00014652,-0.00002397,0.00000376,-0.00016939,0.00007924,0.000
 15898,-0.00001201,0.00002748,-0.00002299,0.00000762,0.00000707,0.00057
 728,-0.00032066,0.00020803,0.00014566,-0.00085635,0.00068464,0.0082014
 9,0.00061342,0.05417317,-0.00014785,0.00032613,-0.00040903,0.00064443,
 0.00073468,0.00036405,0.00262188,-0.01174329,0.01502486,0.00008393,0.0
 0059897,-0.00008142,-0.05625534,0.02391673,-0.03333158,0.00005371,-0.0
 0018043,0.00005851,0.00106873,-0.00509979,0.00788066,0.00007734,-0.000
 19697,-0.00007915,-0.00033253,-0.00009849,-0.00002161,0.00003773,-0.00
 006742,0.00020769,0.00000944,-0.00009671,0.00019880,-0.00014084,0.0002
 3616,0.00011709,0.00003163,0.00019721,-0.00035432,-0.00113999,-0.00351
 170,-0.00003956,0.00053657,0.00073676,0.00043767,-0.00497474,0.0182081
 9,-0.02575566,0.05702128,0.00006427,-0.00029723,0.00015987,0.00081684,
 0.00125008,0.00144795,0.00455347,-0.01945178,0.02306663,-0.00015888,-0
 .00052082,-0.00012972,0.02380920,-0.13016361,0.11892248,0.00005678,0.0
 0013299,-0.00008497,-0.00300229,0.01031404,-0.01617634,-0.00004926,0.0
 0021132,0.00004099,0.00044701,0.00007957,-0.00008353,0.00004010,0.0000
 4151,-0.00013993,-0.00026282,0.00011976,-0.00008048,-0.00014075,0.0005
 1283,-0.00021521,-0.00011238,-0.00004114,-0.00115347,-0.00381279,-0.00
 426924,-0.00091843,-0.00008158,0.00111207,-0.00028857,0.00126598,-0.00
 455625,0.00520347,-0.02388112,0.14548427,0.00001054,-0.00001783,-0.000
 17118,0.00017872,-0.00048377,0.00142451,0.00073800,-0.00168109,0.00153
 485,0.00030042,0.00034703,0.00010605,-0.03294989,0.11847008,-0.2123787
 3,0.00000756,-0.00002535,0.00006805,-0.00432814,0.01463640,-0.02344695
 ,0.00000189,-0.00014361,-0.00003208,0.00020055,-0.00030989,-0.00011031
 ,-0.00003462,-0.00003040,0.00001166,0.00001253,-0.00000820,0.00005814,
 0.00004354,0.00000953,0.00021720,-0.00017771,0.00054302,0.00028870,-0.
 00005766,-0.00115559,0.00088445,0.00036588,0.00031146,0.00001497,-0.00
 059993,0.00051052,-0.00146430,0.03464216,-0.12752351,0.23465981,0.0000
 1449,0.00067115,0.00048609,-0.00044473,0.00024973,-0.00017173,0.000009
 42,-0.00014485,0.00008638,0.00091720,-0.00840900,-0.00289186,-0.000031
 97,0.00000437,-0.00009757,-0.05666557,0.04566878,0.01494278,0.00003679
 ,-0.00000251,0.00001393,0.00024104,-0.00052964,0.00047468,0.00053281,-
 0.00009412,-0.00189867,0.00009773,-0.00004268,0.00024777,-0.00010033,-
 0.00014291,0.00000324,-0.00002901,-0.00007402,0.00014628,0.00018852,-0
 .00009619,0.00012608,0.00000432,0.00001917,0.00005655,0.00001248,0.000
 00087,-0.00001589,0.00004335,-0.00001667,0.00004331,-0.00002026,-0.000
 01334,-0.00001451,0.05655395,0.00000319,0.00116372,0.00076895,0.000067
 96,-0.00015494,0.00015212,-0.00004460,0.00004382,-0.00000681,-0.000068
 73,-0.00345486,-0.00103030,-0.00001804,-0.00003620,0.00004793,0.045342
 37,-0.28067119,-0.07345994,0.00000062,0.00003437,-0.00000186,-0.000453
 09,0.00037354,-0.00032105,-0.00067059,0.00149720,-0.00032818,0.0003931
 5,0.00037666,-0.00051421,-0.00000109,0.00031042,0.00002019,0.00005134,
 0.00004595,-0.00010318,-0.00007373,-0.00000028,-0.00014133,0.00000619,
 -0.00000217,-0.00002993,0.00001761,0.00000087,0.00000701,0.00000641,0.
 00000548,0.00004971,-0.00003787,0.00004746,-0.00003042,-0.04963062,0.3
 0396304,-0.00026468,-0.00212086,0.00185879,0.00007243,0.00014220,0.000
 00612,-0.00011609,-0.00004595,-0.00004698,0.00636533,-0.03178344,-0.01
 205293,-0.00016336,-0.00005491,-0.00019664,0.01484757,-0.07234363,-0.0
 6895341,0.00012568,0.00006354,0.00002605,-0.00005713,0.00041467,0.0015
 4514,-0.00167069,-0.00006553,-0.00633652,0.00030410,0.00123511,0.00002
 132,-0.00021371,0.00022802,0.00038884,0.00008769,0.00002825,-0.0000333
 2,-0.00012892,-0.00001697,-0.00001409,0.00002200,0.00001447,-0.0000232
 6,0.00001718,0.00004967,0.00003102,0.00019294,-0.00006445,0.00011389,-
 0.00008598,0.00006868,-0.00002114,-0.01436574,0.08180512,0.07779105,-0
 .00031067,-0.00045404,0.00018670,-0.00029930,0.00083203,0.00046891,0.0
 0020510,-0.00035131,0.00029324,-0.00625275,0.00136295,-0.00227134,-0.0
 0010997,0.00000400,-0.00007037,-0.29412253,0.05371188,-0.04440947,0.00
 005307,0.00000622,0.00001908,0.00119925,-0.00068443,-0.00117224,0.0002
 3884,-0.00020973,-0.00027849,0.00006494,0.00008442,-0.00017578,0.00009
 591,0.00005158,-0.00010589,0.00010738,-0.00000834,-0.00015071,-0.00016
 649,-0.00037379,0.00154453,-0.00003966,0.00008690,0.00017132,0.0000266
 6,-0.00002094,-0.00004812,0.00005583,0.00000033,0.00004879,-0.00000058
 ,-0.00002033,-0.00003136,-0.00468672,0.00074010,-0.00026688,0.32084544
 ,0.00083380,0.00018256,0.00000723,-0.00009512,-0.00007230,-0.00009011,
 -0.00007637,0.00012431,-0.00000976,-0.00446008,0.00017687,-0.00025998,
 0.00001104,0.00009281,-0.00009410,0.05362957,-0.05950056,0.00969009,-0
 .00002230,-0.00006092,0.00002219,-0.00026576,0.00096316,-0.00094193,-0
 .00049491,0.00015876,0.00043226,0.00011553,-0.00013150,-0.00009007,-0.
 00011655,-0.00012050,-0.00001339,-0.00003007,-0.00009658,0.00017054,0.
 00004913,0.00046694,-0.00010558,-0.00000198,-0.00004729,-0.00005329,0.
 00000547,-0.00001084,-0.00000724,-0.00002095,0.00000020,-0.00000663,0.
 00002915,-0.00005761,0.00004587,0.03026595,-0.00561412,0.00567125,-0.0
 5908276,0.05899008,-0.00032277,0.00000907,0.00164295,0.00000450,0.0005
 2642,-0.00065224,0.00011156,-0.00028803,0.00011980,-0.03309093,0.00753
 604,-0.00543695,-0.00013790,0.00002435,-0.00004516,-0.04364795,0.00969
 920,-0.05417737,0.00007216,0.00001299,0.00000882,-0.00114545,-0.000830
 50,-0.00676347,0.00052376,-0.00022763,0.00148271,0.00015867,0.00017166
 ,-0.00001802,0.00015001,-0.00014408,0.00032115,0.00015528,-0.00019892,
 0.00025006,0.00142059,-0.00036386,-0.00112570,-0.00003128,0.00009270,0
 .00016651,0.00000246,0.00001505,-0.00001494,0.00003007,0.00000067,0.00
 006624,-0.00000352,-0.00004118,-0.00000869,0.00945848,-0.00109570,0.00
 066884,0.04917454,-0.00978506,0.06062597,-0.00016977,-0.00017514,-0.00
 160764,0.00006980,0.00032306,-0.00010235,0.00014954,-0.00022946,0.0001
 2001,0.00466545,0.00650402,-0.00538249,-0.00002566,-0.00003412,0.00005
 666,-0.13185376,-0.09422444,0.08352363,0.00001984,0.00002647,-0.000013
 86,0.00043812,0.00034653,0.00055823,0.00012134,0.00001529,0.00063272,-
 0.00012486,-0.00003881,-0.00004495,0.00023995,0.00019219,-0.00038212,0
 .00004902,-0.00001974,-0.00002605,0.00033133,-0.00034537,-0.00000174,-
 0.00002917,0.00008780,0.00011846,-0.00000357,-0.00000698,-0.00000943,0
 .00000605,0.00000570,0.00000078,-0.00001296,0.00000321,-0.00001432,0.0
 0332246,0.00435558,-0.00472462,-0.01690720,-0.02026829,0.01712406,0.13
 971755,0.00016023,0.00013624,-0.00062078,-0.00000760,0.00001945,-0.000
 03513,-0.00007853,0.00009605,-0.00006907,0.00346798,0.00234595,-0.0034
 8912,0.00000174,0.00000475,0.00002007,-0.09406991,-0.15200873,0.092090
 36,-0.00000860,-0.00000230,-0.00000582,0.00016188,-0.00009666,0.000478
 96,0.00036207,0.00052287,0.00038488,0.00008545,0.00062167,-0.00008781,
 -0.00010542,0.00042532,0.00001959,0.00003556,-0.00001005,-0.00000349,-
 0.00010282,0.00004484,0.00005580,0.00001819,-0.00002734,-0.00002751,-0
 .00001844,0.00002104,0.00002529,-0.00002320,-0.00000199,-0.00001939,0.
 00001111,-0.00000780,0.00000474,-0.01767984,-0.01791963,0.01680158,0.0
 0432513,0.00455433,-0.00513095,0.10346913,0.16127346,-0.00315707,-0.00
 182634,-0.00602709,-0.00069693,0.00028719,-0.00004862,0.00010376,0.000
 02678,0.00005133,0.01928073,0.02056865,-0.01647879,-0.00001079,0.00006
 833,-0.00003257,0.08248565,0.09117497,-0.12669963,-0.00000580,-0.00002
 253,0.00002135,-0.00039167,0.00030959,0.00127755,0.00050099,-0.0005383
 4,0.00113642,-0.00024609,-0.00016626,0.00023983,0.00124646,0.00116367,
 -0.00131576,0.00012412,-0.00000965,-0.00004151,0.00005854,-0.00016618,
 0.00017408,-0.00001831,-0.00003276,0.00006606,0.00005208,-0.00008744,-
 0.00003186,0.00001238,0.00006630,0.00000718,0.00003275,-0.00002881,0.0
 0002275,-0.00661718,-0.00576526,0.00529043,-0.00291610,-0.00458979,0.0
 0287222,-0.08983933,-0.10040804,0.13953674,0.00003513,-0.00002773,0.00
 006757,-0.00008301,-0.00012099,0.00003852,-0.00003428,-0.00004493,-0.0
 0048690,-0.00002538,-0.00002576,-0.00001270,0.00108195,-0.00559729,0.0
 0837820,0.00000077,0.00000227,-0.00000311,-0.05451562,0.02363471,-0.03
 510203,-0.00001825,0.00002052,0.00001445,0.00002318,0.00001018,0.00001
 660,-0.00001788,0.00000612,-0.00002159,-0.00001336,0.00002772,-0.00003
 152,-0.00000496,-0.00000551,-0.00004613,-0.00003181,0.00000053,0.00000
 326,0.00020929,-0.00004582,-0.00023426,-0.00006451,0.00014019,-0.00008
 913,0.00021738,-0.00072865,-0.00014107,0.00040826,0.00109972,0.0018316
 8,-0.00000075,0.00000350,0.00000223,-0.00000548,-0.00000267,-0.0000096
 0,-0.00000141,-0.00000107,-0.00000081,0.05424725,0.00001359,0.00003579
 ,0.00000342,0.00001689,0.00005316,-0.00018915,0.00002523,0.00177500,-0
 .00059232,0.00003859,0.00005309,0.00000789,-0.00363265,0.00978102,-0.0
 1494432,-0.00000883,-0.00001207,0.00000929,0.02364765,-0.13137091,0.12
 213778,-0.00000934,-0.00002476,0.00000065,-0.00002395,-0.00001972,0.00
 000154,-0.00001736,0.00000518,0.00001566,0.00002350,-0.00001650,0.0000
 0644,0.00001168,-0.00000254,0.00009524,0.00000743,-0.00014262,0.000105
 12,0.00027447,-0.00011392,0.00033265,-0.00009694,-0.00002013,0.0001413
 9,-0.00028335,0.00067988,0.00089404,0.00061249,-0.00123256,-0.00357258
 ,0.00000101,0.00000031,-0.00000489,-0.00000122,0.00000666,-0.00000298,
 -0.00000249,-0.00000228,0.00000580,-0.02694427,0.14042826,-0.00000243,
 0.00004128,-0.00007734,0.00011997,-0.00033939,0.00030924,0.00003128,0.
 00179580,0.00092305,0.00006886,0.00022343,0.00004280,-0.00464654,0.015
 52601,-0.02418949,-0.00000313,-0.00006598,0.00002896,-0.03483204,0.121
 31370,-0.22070403,0.00002683,-0.00007620,-0.00002424,-0.00007362,-0.00
 012194,0.00001437,-0.00000921,-0.00003156,0.00000716,0.00003990,-0.000
 02115,0.00000391,0.00001825,-0.00011543,-0.00000478,0.00002271,0.00012
 331,0.00032125,-0.00028737,-0.00115964,0.00022497,-0.00006215,-0.00010
 465,-0.00006217,0.00028569,0.00020200,0.00108009,0.00192884,-0.0037548
 2,-0.00353433,0.00000073,-0.00002247,-0.00003083,0.00000389,0.00002154
 ,0.00000976,-0.00000528,0.00000686,0.00000970,0.03657058,-0.13140919,0
 .24341664,-0.00001677,-0.00018161,-0.00013167,0.00038842,0.00000723,0.
 00011216,0.00077701,-0.00073350,-0.00060926,0.00000998,-0.00012487,0.0
 0001919,-0.00865345,0.00206869,0.00036666,-0.00002512,0.00004935,-0.00
 001599,-0.29677384,0.06285484,-0.00907955,-0.00000625,0.00001928,0.000
 00396,0.00000801,0.00011587,-0.00003165,0.00006547,0.00001206,0.000003
 63,0.00000350,-0.00006824,0.00001317,-0.00000631,0.00006860,0.00006077
 ,-0.00002233,-0.00000347,0.00002980,-0.00003746,0.00000183,0.00006982,
 0.00049973,0.00069177,0.00006760,0.00121303,0.00041220,0.00176985,0.00
 035556,-0.00020971,0.00040479,0.00000707,0.00001329,0.00003072,0.00001
 426,-0.00000110,0.00000361,-0.00000629,-0.00000627,0.00000869,-0.00410
 736,0.00060449,-0.00035556,0.32229724,0.00005381,0.00000778,0.00012758
 ,-0.00025741,0.00007294,-0.00011812,0.00161742,0.00082448,0.00082659,-
 0.00004772,0.00011038,-0.00003328,0.01623710,-0.00526267,0.00065920,0.
 00002036,-0.00006233,0.00000872,0.06226714,-0.06348310,0.00289679,-0.0
 0000878,-0.00002529,0.00000966,-0.00001180,-0.00010103,0.00004405,-0.0
 0006072,-0.00000628,-0.00003358,-0.00004453,0.00005368,-0.00005027,-0.
 00001539,-0.00002303,-0.00002082,0.00001230,-0.00000186,0.00002118,0.0
 0000931,-0.00003531,0.00001096,-0.00065492,-0.00020446,-0.00029638,0.0
 0052556,-0.00106242,-0.00309274,-0.00070349,0.00056876,0.00026972,-0.0
 0000632,-0.00000510,-0.00002853,-0.00000985,0.00000813,-0.00001068,-0.
 00000389,0.00000387,-0.00000046,0.01823140,-0.00501060,-0.00011134,-0.
 07013779,0.06558682,0.00006322,-0.00000649,0.00005271,0.00001001,0.000
 21564,-0.00005987,0.00097448,0.00134874,0.00100876,-0.00005447,0.00012
 011,-0.00005575,0.02895811,-0.00816354,0.00027100,0.00003878,-0.000093
 92,0.00001007,-0.00994557,0.00320013,-0.04678510,0.00000439,-0.0000222
 0,0.00000295,-0.00000068,-0.00015799,0.00006452,-0.00005699,-0.0000206
 2,-0.00005418,-0.00005604,0.00007037,-0.00007861,-0.00003957,0.0000260
 1,0.00001160,0.00001193,0.00000434,-0.00004701,-0.00015914,-0.00002914
 ,-0.00001591,-0.00074680,-0.00010732,0.00016113,0.00128844,-0.00347179
 ,-0.00442163,-0.00012393,0.00092405,0.00112153,-0.00001365,-0.00000422
 ,-0.00004494,-0.00001718,0.00000222,-0.00001296,0.00000166,0.00000669,
 -0.00000720,-0.02632658,0.00519878,-0.00061715,0.00816354,-0.00000085,
 0.05085302,0.00003765,-0.00008281,-0.00011399,0.00067375,0.00040653,0.
 00031627,-0.00040437,0.00062062,0.00131907,-0.00000178,0.00001161,-0.0
 0000615,0.00505573,0.00976237,0.00039594,0.00000592,-0.00001592,0.0000
 0519,-0.12615954,-0.12249492,-0.01218901,0.00000234,0.00000048,-0.0000
 0081,0.00000458,-0.00003172,0.00001496,0.00002893,-0.00001611,-0.00001
 848,-0.00001335,0.00000793,-0.00002117,-0.00002635,0.00009769,0.000164
 21,-0.00000269,0.00000866,0.00000247,-0.00013263,-0.00014223,0.0000839
 6,0.00054868,0.00017438,0.00014187,0.00050673,-0.00006162,-0.00066484,
 0.00007460,-0.00041132,-0.00053012,-0.00000232,-0.00000295,-0.00001005
 ,-0.00000532,-0.00000073,-0.00000035,0.00000420,0.00000324,-0.00000607
 ,0.00270085,0.00574340,0.00115980,-0.01598409,-0.02701177,-0.00197396,
 0.13308849,-0.00014915,0.00004499,0.00000958,-0.00094486,-0.00054985,0
 .00037406,0.00213849,-0.00045581,-0.00378469,-0.00000732,-0.00007449,0
 .00002903,-0.00823034,-0.01276135,0.00042152,0.00000665,0.00003707,-0.
 00001478,-0.12180490,-0.23689783,-0.01832955,0.00005550,-0.00000136,-0
 .00003017,-0.00004633,0.00001825,-0.00000396,0.00006699,-0.00001720,-0
 .00002389,0.00000567,0.00002581,0.00003682,0.00005629,-0.00024405,-0.0
 0035678,-0.00000187,-0.00000458,-0.00010519,0.00015261,0.00045151,0.00
 002258,-0.00006558,0.00014520,0.00007452,0.00037570,0.00008260,0.00042
 816,0.00000970,0.00072337,-0.00016612,0.00000169,-0.00000433,0.0000066
 3,0.00001120,-0.00001259,0.00003143,0.00001975,0.00000696,-0.00002942,
 -0.00963215,-0.01484975,-0.00192016,0.00454705,0.00804663,0.00096103,0
 .13343522,0.25629080,-0.00014340,0.00002476,-0.00000447,-0.00097554,-0
 .00158137,0.00052193,0.00269515,-0.00152684,-0.00500267,0.00000083,-0.
 00010879,0.00003188,-0.01667244,-0.02369875,-0.00163493,-0.00000199,0.
 00004092,-0.00001094,-0.01154289,-0.01744025,-0.04862067,0.00003245,0.
 00002268,-0.00001776,-0.00002277,0.00004461,0.00000752,0.00006747,-0.0
 0000576,-0.00001582,0.00003390,0.00002794,0.00002825,0.00008111,-0.000
 36154,-0.00054052,-0.00003142,0.00011561,0.00005071,0.00013915,-0.0003
 4325,0.00021088,0.00013782,0.00029509,-0.00011937,0.00017923,0.0006684
 7,0.00112953,-0.00060734,0.00078486,0.00075504,0.00000051,0.00000384,0
 .00001257,0.00000291,-0.00001625,0.00002047,0.00001796,0.00000230,-0.0
 0002260,0.01558233,0.02175973,0.00285247,-0.00090430,-0.00107740,-0.00
 135696,0.01193128,0.02236935,0.05172542\\-0.00000023,-0.00000008,0.000
 00036,0.00000006,-0.00000007,0.00000021,-0.00000010,-0.00000018,-0.000
 00015,0.00000027,0.00000019,-0.00000012,-0.00000027,0.00000014,-0.0000
 0020,0.00000025,-0.00000025,0.00000015,-0.00000042,0.00000035,-0.00000
 028,0.00000023,0.00000010,0.00000032,0.00000002,-0.00000007,0.00000007
 ,0.00000035,-0.00000011,0.00000034,0.00000017,0.00000020,0.00000036,0.
 00000033,-0.00000016,0.00000015,0.00000015,-0.00000033,-0.00000008,-0.
 00000003,0.00000022,0.00000003,-0.00000003,-0.00000007,-0.00000017,-0.
 00000015,0.00000026,-0.00000009,-0.00000020,-0.00000001,-0.00000032,0.
 00000040,-0.00000032,0.00000032,0.00000029,-0.00000040,0.00000008,0.00
 000022,-0.00000035,0.00000018,-0.00000039,0.00000044,-0.00000025,-0.00
 000042,0.00000015,-0.00000048,-0.00000050,0.00000037,-0.00000045\\\@


 THERE ONCE WAS A GIRL NAMED IRENE,
 WHO LIVED ON DISTILLED KEROSENE,
      BUT SHE STARTED ABSORBIN'
      A NEW HYDROCARBON,
 AND SINCE THEN HAS NEVER BENZENE.
 Job cpu time:       0 days  6 hours 17 minutes 25.5 seconds.
 Elapsed time:       0 days  3 hours 15 minutes 34.2 seconds.
 File lengths (MBytes):  RWF=   1488 Int=      0 D2E=      0 Chk=     32 Scr=     32
 Normal termination of Gaussian 16 at Mon Sep 30 03:02:43 2019.
