 Entering Gaussian System, Link 0=g16
 Input=verytight/species/CCCCCCC/conformers/CCCCCCC_426.com
 Output=verytight/species/CCCCCCC/conformers/CCCCCCC_426.log
 Initial command:
 /shared/centos7/gaussian/g16/l1.exe "/scratch/harms.n/gauss_scrdir/Gau-19857.inp" -scrdir="/scratch/harms.n/gauss_scrdir/"
 Entering Link 1 = /shared/centos7/gaussian/g16/l1.exe PID=     19858.
  
 Copyright (c) 1988,1990,1992,1993,1995,1998,2003,2009,2016,
            Gaussian, Inc.  All Rights Reserved.
  
 This is part of the Gaussian(R) 16 program.  It is based on
 the Gaussian(R) 09 system (copyright 2009, Gaussian, Inc.),
 the Gaussian(R) 03 system (copyright 2003, Gaussian, Inc.),
 the Gaussian(R) 98 system (copyright 1998, Gaussian, Inc.),
 the Gaussian(R) 94 system (copyright 1995, Gaussian, Inc.),
 the Gaussian 92(TM) system (copyright 1992, Gaussian, Inc.),
 the Gaussian 90(TM) system (copyright 1990, Gaussian, Inc.),
 the Gaussian 88(TM) system (copyright 1988, Gaussian, Inc.),
 the Gaussian 86(TM) system (copyright 1986, Carnegie Mellon
 University), and the Gaussian 82(TM) system (copyright 1983,
 Carnegie Mellon University). Gaussian is a federally registered
 trademark of Gaussian, Inc.
  
 This software contains proprietary and confidential information,
 including trade secrets, belonging to Gaussian, Inc.
  
 This software is provided under written license and may be
 used, copied, transmitted, or stored only in accord with that
 written license.
  
 The following legend is applicable only to US Government
 contracts under FAR:
  
                    RESTRICTED RIGHTS LEGEND
  
 Use, reproduction and disclosure by the US Government is
 subject to restrictions as set forth in subparagraphs (a)
 and (c) of the Commercial Computer Software - Restricted
 Rights clause in FAR 52.227-19.
  
 Gaussian, Inc.
 340 Quinnipiac St., Bldg. 40, Wallingford CT 06492
  
  
 ---------------------------------------------------------------
 Warning -- This program may not be used in any manner that
 competes with the business of Gaussian, Inc. or will provide
 assistance to any competitor of Gaussian, Inc.  The licensee
 of this program is prohibited from giving any competitor of
 Gaussian, Inc. access to this program.  By using this program,
 the user acknowledges that Gaussian, Inc. is engaged in the
 business of creating and licensing software in the field of
 computational chemistry and represents and warrants to the
 licensee that it is not a competitor of Gaussian, Inc. and that
 it will not use this program in any manner prohibited above.
 ---------------------------------------------------------------
  

 Cite this work as:
 Gaussian 16, Revision A.03,
 M. J. Frisch, G. W. Trucks, H. B. Schlegel, G. E. Scuseria, 
 M. A. Robb, J. R. Cheeseman, G. Scalmani, V. Barone, 
 G. A. Petersson, H. Nakatsuji, X. Li, M. Caricato, A. V. Marenich, 
 J. Bloino, B. G. Janesko, R. Gomperts, B. Mennucci, H. P. Hratchian, 
 J. V. Ortiz, A. F. Izmaylov, J. L. Sonnenberg, D. Williams-Young, 
 F. Ding, F. Lipparini, F. Egidi, J. Goings, B. Peng, A. Petrone, 
 T. Henderson, D. Ranasinghe, V. G. Zakrzewski, J. Gao, N. Rega, 
 G. Zheng, W. Liang, M. Hada, M. Ehara, K. Toyota, R. Fukuda, 
 J. Hasegawa, M. Ishida, T. Nakajima, Y. Honda, O. Kitao, H. Nakai, 
 T. Vreven, K. Throssell, J. A. Montgomery, Jr., J. E. Peralta, 
 F. Ogliaro, M. J. Bearpark, J. J. Heyd, E. N. Brothers, K. N. Kudin, 
 V. N. Staroverov, T. A. Keith, R. Kobayashi, J. Normand, 
 K. Raghavachari, A. P. Rendell, J. C. Burant, S. S. Iyengar, 
 J. Tomasi, M. Cossi, J. M. Millam, M. Klene, C. Adamo, R. Cammi, 
 J. W. Ochterski, R. L. Martin, K. Morokuma, O. Farkas, 
 J. B. Foresman, and D. J. Fox, Gaussian, Inc., Wallingford CT, 2016.
 
 ******************************************
 Gaussian 16:  EM64L-G16RevA.03 25-Dec-2016
                29-Sep-2019 
 ******************************************
 %nprocshared=20
 Will use up to   20 processors via shared memory.
 %mem=5GB
 ----------------------------------------------------------------------
 #p m062x/cc-pVTZ opt=(calcfc,maxcycles=900,Tight) freq IOP(7/33=1,2/16
 =3) scf=(maxcycle=900)
 ----------------------------------------------------------------------
 1/6=900,7=10,10=4,18=20,19=15,26=3,38=1/1,3;
 2/9=110,12=2,16=3,17=6,18=5,40=1/2;
 3/5=16,6=1,11=2,25=1,30=1,71=2,74=-55,140=1/1,2,3;
 4//1;
 5/5=2,7=900,38=5/2;
 8/6=4,10=90,11=11/1;
 11/6=1,8=1,9=11,15=111,16=1/1,2,10;
 10/6=1,13=1/2;
 6/7=2,8=2,9=2,10=2,28=1/1;
 7/10=1,18=20,25=1,33=1/1,2,3,16;
 1/6=900,7=10,10=4,18=20,19=15,26=3/3(2);
 2/9=110,16=3/2;
 99//99;
 2/9=110,16=3/2;
 3/5=16,6=1,11=2,25=1,30=1,71=1,74=-55/1,2,3;
 4/5=5,16=3,69=1/1;
 5/5=2,7=900,38=5/2;
 7/33=1/1,2,3,16;
 1/6=900,7=10,18=20,19=15,26=3/3(-5);
 2/9=110,16=3/2;
 6/7=2,8=2,9=2,10=2,19=2,28=1/1;
 99/9=1/99;
 Leave Link    1 at Sun Sep 29 10:18:51 2019, MaxMem=   671088640 cpu:               4.1 elap:               2.0
 (Enter /shared/centos7/gaussian/g16/l101.exe)
 ------------------------------
 Gaussian input prepared by ASE
 ------------------------------
 Symbolic Z-matrix:
 Charge =  0 Multiplicity = 1
 C                     1.62799  -0.78477   0.80324 
 C                     0.15623  -0.65099   0.99814 
 C                    -0.25582  -0.06905   2.32725 
 C                     2.15111  -0.06994  -0.39692 
 C                    -0.12953   1.43215   2.43751 
 C                     3.58323  -0.29248  -0.65973 
 C                     1.24113   1.98321   2.14162 
 H                     1.96685   1.03352  -0.2644 
 H                     1.56052  -0.36791  -1.2959 
 H                     1.89132  -1.86112   0.72765 
 H                     2.16785  -0.4164    1.69962 
 H                    -0.31208  -1.64301   0.90187 
 H                    -0.28625  -0.03731   0.18521 
 H                     0.32646  -0.54537   3.13422 
 H                    -1.31641  -0.33555   2.51504 
 H                    -0.86726   1.91299   1.74319 
 H                    -0.42629   1.73445   3.45623 
 H                     4.2085    0.0086    0.20182 
 H                     3.7971   -1.38213  -0.87059 
 H                     3.91933   0.29018  -1.5435 
 H                     1.53685   1.78195   1.11127 
 H                     2.01569   1.53465   2.82331 
 H                     1.2534    3.09998   2.29835 
 
 ITRead=  0  0  0  0  0  0  0  0  0  0  0  0  0  0  0  0  0  0  0  0
 ITRead=  0  0  0
 MicOpt= -1 -1 -1 -1 -1 -1 -1 -1 -1 -1 -1 -1 -1 -1 -1 -1 -1 -1 -1 -1
 MicOpt= -1 -1 -1
 NAtoms=     23 NQM=       23 NQMF=       0 NMMI=      0 NMMIF=      0
                NMic=       0 NMicF=      0.
                    Isotopes and Nuclear Properties:
 (Nuclear quadrupole moments (NQMom) in fm**2, nuclear magnetic moments (NMagM)
  in nuclear magnetons)

  Atom         1           2           3           4           5           6           7           8           9          10
 IAtWgt=          12          12          12          12          12          12          12           1           1           1
 AtmWgt=  12.0000000  12.0000000  12.0000000  12.0000000  12.0000000  12.0000000  12.0000000   1.0078250   1.0078250   1.0078250
 NucSpn=           0           0           0           0           0           0           0           1           1           1
 AtZEff=  -0.0000000  -0.0000000  -0.0000000  -0.0000000  -0.0000000  -0.0000000  -0.0000000  -0.0000000  -0.0000000  -0.0000000
 NQMom=    0.0000000   0.0000000   0.0000000   0.0000000   0.0000000   0.0000000   0.0000000   0.0000000   0.0000000   0.0000000
 NMagM=    0.0000000   0.0000000   0.0000000   0.0000000   0.0000000   0.0000000   0.0000000   2.7928460   2.7928460   2.7928460
 AtZNuc=   6.0000000   6.0000000   6.0000000   6.0000000   6.0000000   6.0000000   6.0000000   1.0000000   1.0000000   1.0000000

  Atom        11          12          13          14          15          16          17          18          19          20
 IAtWgt=           1           1           1           1           1           1           1           1           1           1
 AtmWgt=   1.0078250   1.0078250   1.0078250   1.0078250   1.0078250   1.0078250   1.0078250   1.0078250   1.0078250   1.0078250
 NucSpn=           1           1           1           1           1           1           1           1           1           1
 AtZEff=  -0.0000000  -0.0000000  -0.0000000  -0.0000000  -0.0000000  -0.0000000  -0.0000000  -0.0000000  -0.0000000  -0.0000000
 NQMom=    0.0000000   0.0000000   0.0000000   0.0000000   0.0000000   0.0000000   0.0000000   0.0000000   0.0000000   0.0000000
 NMagM=    2.7928460   2.7928460   2.7928460   2.7928460   2.7928460   2.7928460   2.7928460   2.7928460   2.7928460   2.7928460
 AtZNuc=   1.0000000   1.0000000   1.0000000   1.0000000   1.0000000   1.0000000   1.0000000   1.0000000   1.0000000   1.0000000

  Atom        21          22          23
 IAtWgt=           1           1           1
 AtmWgt=   1.0078250   1.0078250   1.0078250
 NucSpn=           1           1           1
 AtZEff=  -0.0000000  -0.0000000  -0.0000000
 NQMom=    0.0000000   0.0000000   0.0000000
 NMagM=    2.7928460   2.7928460   2.7928460
 AtZNuc=   1.0000000   1.0000000   1.0000000
 Leave Link  101 at Sun Sep 29 10:18:52 2019, MaxMem=   671088640 cpu:               2.9 elap:               1.5
 (Enter /shared/centos7/gaussian/g16/l103.exe)

 GradGradGradGradGradGradGradGradGradGradGradGradGradGradGradGradGradGrad
 Berny optimization.
 Initialization pass.
                           ----------------------------
                           !    Initial Parameters    !
                           ! (Angstroms and Degrees)  !
 --------------------------                            --------------------------
 ! Name  Definition              Value          Derivative Info.                !
 --------------------------------------------------------------------------------
 ! R1    R(1,2)                  1.4906         calculate D2E/DX2 analytically  !
 ! R2    R(1,4)                  1.4917         calculate D2E/DX2 analytically  !
 ! R3    R(1,10)                 1.1107         calculate D2E/DX2 analytically  !
 ! R4    R(1,11)                 1.1093         calculate D2E/DX2 analytically  !
 ! R5    R(2,3)                  1.5083         calculate D2E/DX2 analytically  !
 ! R6    R(2,12)                 1.1012         calculate D2E/DX2 analytically  !
 ! R7    R(2,13)                 1.1105         calculate D2E/DX2 analytically  !
 ! R8    R(3,5)                  1.5105         calculate D2E/DX2 analytically  !
 ! R9    R(3,14)                 1.1032         calculate D2E/DX2 analytically  !
 ! R10   R(3,15)                 1.1096         calculate D2E/DX2 analytically  !
 ! R11   R(4,6)                  1.473          calculate D2E/DX2 analytically  !
 ! R12   R(4,8)                  1.1266         calculate D2E/DX2 analytically  !
 ! R13   R(4,9)                  1.1161         calculate D2E/DX2 analytically  !
 ! R14   R(5,7)                  1.5066         calculate D2E/DX2 analytically  !
 ! R15   R(5,16)                 1.1214         calculate D2E/DX2 analytically  !
 ! R16   R(5,17)                 1.1033         calculate D2E/DX2 analytically  !
 ! R17   R(6,18)                 1.1063         calculate D2E/DX2 analytically  !
 ! R18   R(6,19)                 1.1303         calculate D2E/DX2 analytically  !
 ! R19   R(6,20)                 1.1106         calculate D2E/DX2 analytically  !
 ! R20   R(7,21)                 1.0907         calculate D2E/DX2 analytically  !
 ! R21   R(7,22)                 1.1251         calculate D2E/DX2 analytically  !
 ! R22   R(7,23)                 1.1278         calculate D2E/DX2 analytically  !
 ! A1    A(2,1,4)              114.1071         calculate D2E/DX2 analytically  !
 ! A2    A(2,1,10)             109.2664         calculate D2E/DX2 analytically  !
 ! A3    A(2,1,11)             110.1842         calculate D2E/DX2 analytically  !
 ! A4    A(4,1,10)             109.057          calculate D2E/DX2 analytically  !
 ! A5    A(4,1,11)             108.6827         calculate D2E/DX2 analytically  !
 ! A6    A(10,1,11)            105.1548         calculate D2E/DX2 analytically  !
 ! A7    A(1,2,3)              114.8075         calculate D2E/DX2 analytically  !
 ! A8    A(1,2,12)             109.1238         calculate D2E/DX2 analytically  !
 ! A9    A(1,2,13)             110.3217         calculate D2E/DX2 analytically  !
 ! A10   A(3,2,12)             107.9639         calculate D2E/DX2 analytically  !
 ! A11   A(3,2,13)             108.8441         calculate D2E/DX2 analytically  !
 ! A12   A(12,2,13)            105.3297         calculate D2E/DX2 analytically  !
 ! A13   A(2,3,5)              115.1456         calculate D2E/DX2 analytically  !
 ! A14   A(2,3,14)             109.4992         calculate D2E/DX2 analytically  !
 ! A15   A(2,3,15)             108.5177         calculate D2E/DX2 analytically  !
 ! A16   A(5,3,14)             109.3636         calculate D2E/DX2 analytically  !
 ! A17   A(5,3,15)             107.8339         calculate D2E/DX2 analytically  !
 ! A18   A(14,3,15)            106.0815         calculate D2E/DX2 analytically  !
 ! A19   A(1,4,6)              114.3388         calculate D2E/DX2 analytically  !
 ! A20   A(1,4,8)              108.5055         calculate D2E/DX2 analytically  !
 ! A21   A(1,4,9)              109.5449         calculate D2E/DX2 analytically  !
 ! A22   A(6,4,8)              109.1473         calculate D2E/DX2 analytically  !
 ! A23   A(6,4,9)              109.2945         calculate D2E/DX2 analytically  !
 ! A24   A(8,4,9)              105.6462         calculate D2E/DX2 analytically  !
 ! A25   A(3,5,7)              115.1651         calculate D2E/DX2 analytically  !
 ! A26   A(3,5,16)             109.0229         calculate D2E/DX2 analytically  !
 ! A27   A(3,5,17)             108.4946         calculate D2E/DX2 analytically  !
 ! A28   A(7,5,16)             108.6667         calculate D2E/DX2 analytically  !
 ! A29   A(7,5,17)             109.0153         calculate D2E/DX2 analytically  !
 ! A30   A(16,5,17)            106.0967         calculate D2E/DX2 analytically  !
 ! A31   A(4,6,18)             111.682          calculate D2E/DX2 analytically  !
 ! A32   A(4,6,19)             111.2789         calculate D2E/DX2 analytically  !
 ! A33   A(4,6,20)             110.9132         calculate D2E/DX2 analytically  !
 ! A34   A(18,6,19)            107.5            calculate D2E/DX2 analytically  !
 ! A35   A(18,6,20)            107.8117         calculate D2E/DX2 analytically  !
 ! A36   A(19,6,20)            107.4608         calculate D2E/DX2 analytically  !
 ! A37   A(5,7,21)             111.3892         calculate D2E/DX2 analytically  !
 ! A38   A(5,7,22)             111.1919         calculate D2E/DX2 analytically  !
 ! A39   A(5,7,23)             110.1698         calculate D2E/DX2 analytically  !
 ! A40   A(21,7,22)            108.1886         calculate D2E/DX2 analytically  !
 ! A41   A(21,7,23)            108.1232         calculate D2E/DX2 analytically  !
 ! A42   A(22,7,23)            107.6436         calculate D2E/DX2 analytically  !
 ! D1    D(4,1,2,3)           -122.7754         calculate D2E/DX2 analytically  !
 ! D2    D(4,1,2,12)           115.8997         calculate D2E/DX2 analytically  !
 ! D3    D(4,1,2,13)             0.6348         calculate D2E/DX2 analytically  !
 ! D4    D(10,1,2,3)           114.858          calculate D2E/DX2 analytically  !
 ! D5    D(10,1,2,12)           -6.467          calculate D2E/DX2 analytically  !
 ! D6    D(10,1,2,13)         -121.7319         calculate D2E/DX2 analytically  !
 ! D7    D(11,1,2,3)            -0.2011         calculate D2E/DX2 analytically  !
 ! D8    D(11,1,2,12)         -121.5261         calculate D2E/DX2 analytically  !
 ! D9    D(11,1,2,13)          123.209          calculate D2E/DX2 analytically  !
 ! D10   D(2,1,4,6)           -175.033          calculate D2E/DX2 analytically  !
 ! D11   D(2,1,4,8)             62.8927         calculate D2E/DX2 analytically  !
 ! D12   D(2,1,4,9)            -51.9805         calculate D2E/DX2 analytically  !
 ! D13   D(10,1,4,6)           -52.5518         calculate D2E/DX2 analytically  !
 ! D14   D(10,1,4,8)          -174.6261         calculate D2E/DX2 analytically  !
 ! D15   D(10,1,4,9)            70.5007         calculate D2E/DX2 analytically  !
 ! D16   D(11,1,4,6)            61.5764         calculate D2E/DX2 analytically  !
 ! D17   D(11,1,4,8)           -60.4979         calculate D2E/DX2 analytically  !
 ! D18   D(11,1,4,9)          -175.3711         calculate D2E/DX2 analytically  !
 ! D19   D(1,2,3,5)             78.6227         calculate D2E/DX2 analytically  !
 ! D20   D(1,2,3,14)           -45.0727         calculate D2E/DX2 analytically  !
 ! D21   D(1,2,3,15)          -160.4455         calculate D2E/DX2 analytically  !
 ! D22   D(12,2,3,5)          -159.4208         calculate D2E/DX2 analytically  !
 ! D23   D(12,2,3,14)           76.8837         calculate D2E/DX2 analytically  !
 ! D24   D(12,2,3,15)          -38.4891         calculate D2E/DX2 analytically  !
 ! D25   D(13,2,3,5)           -45.5726         calculate D2E/DX2 analytically  !
 ! D26   D(13,2,3,14)         -169.2681         calculate D2E/DX2 analytically  !
 ! D27   D(13,2,3,15)           75.3591         calculate D2E/DX2 analytically  !
 ! D28   D(2,3,5,7)            -55.746          calculate D2E/DX2 analytically  !
 ! D29   D(2,3,5,16)            66.6682         calculate D2E/DX2 analytically  !
 ! D30   D(2,3,5,17)          -178.2083         calculate D2E/DX2 analytically  !
 ! D31   D(14,3,5,7)            68.021          calculate D2E/DX2 analytically  !
 ! D32   D(14,3,5,16)         -169.5647         calculate D2E/DX2 analytically  !
 ! D33   D(14,3,5,17)          -54.4412         calculate D2E/DX2 analytically  !
 ! D34   D(15,3,5,7)          -177.0497         calculate D2E/DX2 analytically  !
 ! D35   D(15,3,5,16)          -54.6354         calculate D2E/DX2 analytically  !
 ! D36   D(15,3,5,17)           60.4881         calculate D2E/DX2 analytically  !
 ! D37   D(1,4,6,18)           -57.8751         calculate D2E/DX2 analytically  !
 ! D38   D(1,4,6,19)            62.2652         calculate D2E/DX2 analytically  !
 ! D39   D(1,4,6,20)          -178.1614         calculate D2E/DX2 analytically  !
 ! D40   D(8,4,6,18)            63.8476         calculate D2E/DX2 analytically  !
 ! D41   D(8,4,6,19)          -176.0121         calculate D2E/DX2 analytically  !
 ! D42   D(8,4,6,20)           -56.4387         calculate D2E/DX2 analytically  !
 ! D43   D(9,4,6,18)           178.9371         calculate D2E/DX2 analytically  !
 ! D44   D(9,4,6,19)           -60.9227         calculate D2E/DX2 analytically  !
 ! D45   D(9,4,6,20)            58.6507         calculate D2E/DX2 analytically  !
 ! D46   D(3,5,7,21)            62.8351         calculate D2E/DX2 analytically  !
 ! D47   D(3,5,7,22)           -57.9226         calculate D2E/DX2 analytically  !
 ! D48   D(3,5,7,23)          -177.18           calculate D2E/DX2 analytically  !
 ! D49   D(16,5,7,21)          -59.7699         calculate D2E/DX2 analytically  !
 ! D50   D(16,5,7,22)          179.4724         calculate D2E/DX2 analytically  !
 ! D51   D(16,5,7,23)           60.215          calculate D2E/DX2 analytically  !
 ! D52   D(17,5,7,21)         -174.9821         calculate D2E/DX2 analytically  !
 ! D53   D(17,5,7,22)           64.2602         calculate D2E/DX2 analytically  !
 ! D54   D(17,5,7,23)          -54.9972         calculate D2E/DX2 analytically  !
 --------------------------------------------------------------------------------
 Trust Radius=3.00D-01 FncErr=1.00D-07 GrdErr=1.00D-06 EigMax=2.50D+02 EigMin=1.00D-04
 Number of steps in this run=    138 maximum allowed number of steps=    138.
 GradGradGradGradGradGradGradGradGradGradGradGradGradGradGradGradGradGrad

 Leave Link  103 at Sun Sep 29 10:18:53 2019, MaxMem=   671088640 cpu:               1.3 elap:               0.7
 (Enter /shared/centos7/gaussian/g16/l202.exe)
                          Input orientation:                          
 ---------------------------------------------------------------------
 Center     Atomic      Atomic             Coordinates (Angstroms)
 Number     Number       Type             X           Y           Z
 ---------------------------------------------------------------------
      1          6           0        1.627993   -0.784774    0.803244
      2          6           0        0.156231   -0.650994    0.998139
      3          6           0       -0.255819   -0.069053    2.327252
      4          6           0        2.151105   -0.069936   -0.396917
      5          6           0       -0.129531    1.432145    2.437507
      6          6           0        3.583234   -0.292475   -0.659734
      7          6           0        1.241126    1.983213    2.141620
      8          1           0        1.966850    1.033524   -0.264398
      9          1           0        1.560516   -0.367909   -1.295901
     10          1           0        1.891318   -1.861120    0.727647
     11          1           0        2.167852   -0.416396    1.699623
     12          1           0       -0.312084   -1.643012    0.901874
     13          1           0       -0.286254   -0.037307    0.185211
     14          1           0        0.326458   -0.545370    3.134221
     15          1           0       -1.316414   -0.335551    2.515038
     16          1           0       -0.867255    1.912986    1.743190
     17          1           0       -0.426292    1.734448    3.456235
     18          1           0        4.208501    0.008600    0.201819
     19          1           0        3.797098   -1.382126   -0.870589
     20          1           0        3.919331    0.290179   -1.543501
     21          1           0        1.536852    1.781948    1.111272
     22          1           0        2.015691    1.534654    2.823312
     23          1           0        1.253403    3.099981    2.298347
 ---------------------------------------------------------------------
                    Distance matrix (angstroms):
                    1          2          3          4          5
     1  C    0.000000
     2  C    1.490625   0.000000
     3  C    2.526579   1.508304   0.000000
     4  C    1.491652   2.502665   3.635159   0.000000
     5  C    3.267175   2.548119   1.510531   3.935926   0.000000
     6  C    2.491110   3.823797   4.869325   1.472952   5.133404
     7  C    3.098817   3.069787   2.546979   3.389344   1.506627
     8  H    2.135624   2.776678   3.587838   1.126559   3.442964
     9  H    2.141201   2.704584   4.063942   1.116134   4.476024
    10  H    1.110665   2.132627   3.221868   2.130838   4.225287
    11  H    1.109344   2.143300   2.527597   2.125039   3.039662
    12  H    2.123723   1.101220   2.124197   3.198238   3.442105
    13  H    2.145929   1.110520   2.142492   2.506124   2.693824
    14  H    2.680440   2.145456   1.103233   4.003038   2.145671
    15  H    3.435341   2.137562   1.109570   4.535826   2.130599
    16  H    3.793108   2.859479   2.154869   4.197921   1.121392
    17  H    4.195822   3.474464   2.134544   4.974491   1.103295
    18  H    2.765895   4.182114   4.945063   2.144185   5.083631
    19  H    2.804205   4.157235   5.326958   2.157660   5.855086
    20  H    3.451517   4.637528   5.704705   2.137981   5.791874
    21  H    2.586745   2.799665   2.849295   2.466053   2.158262
    22  H    3.100117   3.400868   2.824484   3.600406   2.182047
    23  H    4.179350   4.118755   3.510180   4.256606   2.171071
                    6          7          8          9         10
     6  C    0.000000
     7  C    4.302535   0.000000
     8  H    2.127736   2.686542   0.000000
     9  H    2.121741   4.176881   1.786930   0.000000
    10  H    2.692220   4.147405   3.060853   2.536505   0.000000
    11  H    2.754129   2.610039   2.449499   3.056856   1.763076
    12  H    4.408635   4.135087   3.703724   3.156380   2.221015
    13  H    3.968876   3.200457   2.534818   2.390303   2.891772
    14  H    5.006459   2.866288   4.090770   4.602214   3.157781
    15  H    5.838456   3.472336   4.514360   4.775042   3.976389
    16  H    5.517695   2.146846   3.582739   4.509172   4.783820
    17  H    6.093104   2.137845   4.479010   5.563282   5.073915
    18  H    1.106291   4.057984   2.508550   3.065411   3.023522
    19  H    1.130281   5.189595   3.090734   2.492353   2.532941
    20  H    1.110627   4.859966   2.449663   2.461380   3.728141
    21  H    3.409893   1.090678   1.624040   3.227526   3.680321
    22  H    4.234053   1.125104   3.128493   4.560136   3.992313
    23  H    5.068245   1.127778   3.368518   5.003918   5.242762
                   11         12         13         14         15
    11  H    0.000000
    12  H    2.879422   0.000000
    13  H    2.908571   1.758568   0.000000
    14  H    2.337828   2.568254   3.054538   0.000000
    15  H    3.579322   2.306606   2.564814   1.768174   0.000000
    16  H    3.826198   3.696099   2.562909   3.066502   2.419383
    17  H    3.800184   4.236158   3.722676   2.422373   2.441938
    18  H    2.566765   4.863495   4.495020   4.896542   5.999508
    19  H    3.192658   4.482751   4.426851   5.365073   6.221397
    20  H    3.752969   5.255660   4.558798   5.957178   6.654044
    21  H    2.361574   3.897790   2.736968   3.312670   3.820404
    22  H    2.256640   4.382696   3.837914   2.697530   3.833486
    23  H    3.682335   5.186219   4.083927   3.853115   4.295788
                   16         17         18         19         20
    16  H    0.000000
    17  H    1.777877   0.000000
    18  H    5.636117   5.920395   0.000000
    19  H    6.280589   6.802313   1.803727   0.000000
    20  H    6.028868   6.779950   1.791382   1.806752   0.000000
    21  H    2.489221   3.058601   3.333103   4.364384   3.866446
    22  H    3.101802   2.530571   3.742924   5.032486   4.923578
    23  H    2.492859   2.454946   4.762842   6.049944   5.455452
                   21         22         23
    21  H    0.000000
    22  H    1.794860   0.000000
    23  H    1.796302   1.818494   0.000000
 Stoichiometry    C7H16
 Framework group  C1[X(C7H16)]
 Deg. of freedom    63
 Full point group                 C1      NOp   1
 Largest Abelian subgroup         C1      NOp   1
 Largest concise Abelian subgroup C1      NOp   1
                         Standard orientation:                         
 ---------------------------------------------------------------------
 Center     Atomic      Atomic             Coordinates (Angstroms)
 Number     Number       Type             X           Y           Z
 ---------------------------------------------------------------------
      1          6           0       -0.771982   -0.722206   -0.412385
      2          6           0        0.409624   -1.314316    0.276947
      3          6           0        1.745869   -0.870003   -0.263439
      4          6           0       -1.696565    0.020140    0.492654
      5          6           0        2.198396    0.498273    0.189045
      6          6           0       -2.923083    0.508628   -0.160508
      7          6           0        1.233146    1.619254   -0.096651
      8          1           0       -1.139615    0.894353    0.933896
      9          1           0       -1.972797   -0.628514    1.357928
     10          1           0       -1.337536   -1.527601   -0.927229
     11          1           0       -0.440667   -0.038300   -1.220559
     12          1           0        0.359906   -2.411697    0.199701
     13          1           0        0.371624   -1.094552    1.364842
     14          1           0        1.726562   -0.902821   -1.366015
     15          1           0        2.515513   -1.604163    0.052475
     16          1           0        2.399905    0.470455    1.291832
     17          1           0        3.164759    0.724413   -0.292892
     18          1           0       -2.694286    1.172993   -1.014997
     19          1           0       -3.547482   -0.347682   -0.553439
     20          1           0       -3.552643    1.079433    0.554563
     21          1           0        0.291308    1.478378    0.435018
     22          1           0        1.008064    1.691738   -1.196625
     23          1           0        1.674958    2.604948    0.227531
 ---------------------------------------------------------------------
 Rotational constants (GHZ):           4.0568716           1.4437139           1.1712583
 Leave Link  202 at Sun Sep 29 10:18:55 2019, MaxMem=   671088640 cpu:               3.6 elap:               1.8
 (Enter /shared/centos7/gaussian/g16/l301.exe)
 Standard basis: CC-pVTZ (5D, 7F)
 Ernie: Thresh=  0.10000D-02 Tol=  0.10000D-05 Strict=F.
 Ernie:  21 primitive shells out of 310 were deleted.
 There are   485 symmetry adapted cartesian basis functions of A   symmetry.
 There are   434 symmetry adapted basis functions of A   symmetry.
   434 basis functions,   636 primitive gaussians,   485 cartesian basis functions
    29 alpha electrons       29 beta electrons
       nuclear repulsion energy       330.7956141928 Hartrees.
 IExCor= 4336 DFT=T Ex+Corr=M062X ExCW=0 ScaHFX=  0.540000
 ScaDFX=  1.000000  1.000000  1.000000  1.000000 ScalE2=  1.000000  1.000000
 IRadAn=      5 IRanWt=     -1 IRanGd=            0 ICorTp=0 IEmpDi=  4
 NAtoms=   23 NActive=   23 NUniq=   23 SFac= 1.00D+00 NAtFMM=   60 NAOKFM=F Big=F
 Integral buffers will be    131072 words long.
 Raffenetti 2 integral format.
 Two-electron integral symmetry is turned on.
 Leave Link  301 at Sun Sep 29 10:18:56 2019, MaxMem=   671088640 cpu:               1.8 elap:               0.9
 (Enter /shared/centos7/gaussian/g16/l302.exe)
 NPDir=0 NMtPBC=     1 NCelOv=     1 NCel=       1 NClECP=     1 NCelD=      1
         NCelK=      1 NCelE2=     1 NClLst=     1 CellRange=     0.0.
 One-electron integrals computed using PRISM.
 One-electron integral symmetry used in STVInt
 NBasis=   434 RedAO= T EigKep=  2.46D-04  NBF=   434
 NBsUse=   434 1.00D-06 EigRej= -1.00D+00 NBFU=   434
 Precomputing XC quadrature grid using
 IXCGrd= 4 IRadAn=           5 IRanWt=          -1 IRanGd=           0 AccXCQ= 0.00D+00.
 Generated NRdTot=       0 NPtTot=           0 NUsed=           0 NTot=          32
 NSgBfM=   485   485   485   485   485 MxSgAt=    23 MxSgA2=    23.
 Leave Link  302 at Sun Sep 29 10:20:09 2019, MaxMem=   671088640 cpu:             145.5 elap:              72.7
 (Enter /shared/centos7/gaussian/g16/l303.exe)
 DipDrv:  MaxL=1.
 Leave Link  303 at Sun Sep 29 10:20:14 2019, MaxMem=   671088640 cpu:              10.0 elap:               5.1
 (Enter /shared/centos7/gaussian/g16/l401.exe)
 ExpMin= 1.03D-01 ExpMax= 8.24D+03 ExpMxC= 2.81D+02 IAcc=3 IRadAn=         5 AccDes= 0.00D+00
 Harris functional with IExCor= 1009 and IRadAn=       5 diagonalized for initial guess.
 HarFok:  IExCor= 1009 AccDes= 0.00D+00 IRadAn=         5 IDoV= 1 UseB2=F ITyADJ=14
 ICtDFT=  3500011 ScaDFX=  1.000000  1.000000  1.000000  1.000000
 FoFCou: FMM=F IPFlag=           0 FMFlag=      100000 FMFlg1=           0
         NFxFlg=           0 DoJE=T BraDBF=F KetDBF=T FulRan=T
         wScrn=  0.000000 ICntrl=       500 IOpCl=  0 I1Cent=   200000004 NGrid=           0
         NMat0=    1 NMatS0=      1 NMatT0=    0 NMatD0=    1 NMtDS0=    0 NMtDT0=    0
 Petite list used in FoFCou.
 Harris En= -276.323523760350    
 JPrj=0 DoOrth=F DoCkMO=F.
 Leave Link  401 at Sun Sep 29 10:21:06 2019, MaxMem=   671088640 cpu:             104.4 elap:              52.2
 (Enter /shared/centos7/gaussian/g16/l502.exe)
 Integral symmetry usage will be decided dynamically.
 Closed shell SCF:
 Using DIIS extrapolation, IDIIS=  1040.
 NGot=   671088640 LenX=   670604095 LenY=   670368385
 Requested convergence on RMS density matrix=1.00D-08 within 900 cycles.
 Requested convergence on MAX density matrix=1.00D-06.
 Requested convergence on             energy=1.00D-06.
 No special actions if energy rises.
 Fock matrices will be formed incrementally for  20 cycles.
 Integral accuracy reduced to 1.0D-05 until final iterations.

 Cycle   1  Pass 0  IDiag  1:
 FoFJK:  IHMeth= 1 ICntrl=       0 DoSepK=F KAlg= 0 I1Cent=           0 FoldK=F
 IRaf= 950000000 NMat=       1 IRICut=       1 DoRegI=T DoRafI=F ISym2E= 0 IDoP0=0 IntGTp=1.
 FoFCou: FMM=F IPFlag=           0 FMFlag=      100000 FMFlg1=           0
         NFxFlg=           0 DoJE=F BraDBF=F KetDBF=F FulRan=T
         wScrn=  0.000000 ICntrl=         0 IOpCl=  0 I1Cent=           0 NGrid=           0
         NMat0=    1 NMatS0=      1 NMatT0=    0 NMatD0=    1 NMtDS0=    0 NMtDT0=    0
 Symmetry not used in FoFCou.
 E= -275.961308665382    
 DIIS: error= 2.58D-02 at cycle   1 NSaved=   1.
 NSaved= 1 IEnMin= 1 EnMin= -275.961308665382     IErMin= 1 ErrMin= 2.58D-02
 ErrMax= 2.58D-02  0.00D+00 EMaxC= 1.00D-01 BMatC= 3.73D-01 BMatP= 3.73D-01
 IDIUse=3 WtCom= 7.42D-01 WtEn= 2.58D-01
 Coeff-Com:  0.100D+01
 Coeff-En:   0.100D+01
 Coeff:      0.100D+01
 Gap=     0.380 Goal=   None    Shift=    0.000
 GapD=    0.380 DampG=1.000 DampE=0.500 DampFc=0.5000 IDamp=-1.
 Damping current iteration by 5.00D-01
 RMSDP=1.92D-03 MaxDP=7.33D-02              OVMax= 1.70D-01

 Cycle   2  Pass 0  IDiag  1:
 RMSU=  9.55D-04    CP:  9.90D-01
 E= -276.138847587184     Delta-E=       -0.177538921802 Rises=F Damp=T
 DIIS: error= 4.22D-03 at cycle   2 NSaved=   2.
 NSaved= 2 IEnMin= 2 EnMin= -276.138847587184     IErMin= 2 ErrMin= 4.22D-03
 ErrMax= 4.22D-03  0.00D+00 EMaxC= 1.00D-01 BMatC= 1.87D-02 BMatP= 3.73D-01
 IDIUse=3 WtCom= 9.58D-01 WtEn= 4.22D-02
 Coeff-Com: -0.512D-01 0.105D+01
 Coeff-En:   0.000D+00 0.100D+01
 Coeff:     -0.491D-01 0.105D+01
 Gap=     0.454 Goal=   None    Shift=    0.000
 RMSDP=5.66D-04 MaxDP=1.98D-02 DE=-1.78D-01 OVMax= 8.98D-02

 Cycle   3  Pass 0  IDiag  1:
 RMSU=  5.56D-04    CP:  9.98D-01  9.06D-01
 E= -276.316868569215     Delta-E=       -0.178020982032 Rises=F Damp=F
 DIIS: error= 2.98D-03 at cycle   3 NSaved=   3.
 NSaved= 3 IEnMin= 3 EnMin= -276.316868569215     IErMin= 3 ErrMin= 2.98D-03
 ErrMax= 2.98D-03  0.00D+00 EMaxC= 1.00D-01 BMatC= 2.99D-03 BMatP= 1.87D-02
 IDIUse=3 WtCom= 9.70D-01 WtEn= 2.98D-02
 Coeff-Com: -0.516D-01 0.256D+00 0.796D+00
 Coeff-En:   0.000D+00 0.000D+00 0.100D+01
 Coeff:     -0.500D-01 0.248D+00 0.802D+00
 Gap=     0.423 Goal=   None    Shift=    0.000
 RMSDP=1.14D-04 MaxDP=3.13D-03 DE=-1.78D-01 OVMax= 1.09D-02

 Cycle   4  Pass 0  IDiag  1:
 RMSU=  8.95D-05    CP:  9.96D-01  9.53D-01  9.04D-01
 E= -276.319452180752     Delta-E=       -0.002583611537 Rises=F Damp=F
 DIIS: error= 8.45D-04 at cycle   4 NSaved=   4.
 NSaved= 4 IEnMin= 4 EnMin= -276.319452180752     IErMin= 4 ErrMin= 8.45D-04
 ErrMax= 8.45D-04  0.00D+00 EMaxC= 1.00D-01 BMatC= 3.32D-04 BMatP= 2.99D-03
 IDIUse=3 WtCom= 9.92D-01 WtEn= 8.45D-03
 Coeff-Com: -0.139D-01 0.387D-01 0.285D+00 0.690D+00
 Coeff-En:   0.000D+00 0.000D+00 0.000D+00 0.100D+01
 Coeff:     -0.138D-01 0.384D-01 0.283D+00 0.693D+00
 Gap=     0.424 Goal=   None    Shift=    0.000
 RMSDP=3.49D-05 MaxDP=1.62D-03 DE=-2.58D-03 OVMax= 3.21D-03

 Cycle   5  Pass 0  IDiag  1:
 RMSU=  1.87D-05    CP:  9.96D-01  9.47D-01  9.41D-01  7.75D-01
 E= -276.319758228019     Delta-E=       -0.000306047267 Rises=F Damp=F
 DIIS: error= 2.06D-04 at cycle   5 NSaved=   5.
 NSaved= 5 IEnMin= 5 EnMin= -276.319758228019     IErMin= 5 ErrMin= 2.06D-04
 ErrMax= 2.06D-04  0.00D+00 EMaxC= 1.00D-01 BMatC= 1.87D-05 BMatP= 3.32D-04
 IDIUse=3 WtCom= 9.98D-01 WtEn= 2.06D-03
 Coeff-Com: -0.174D-02 0.116D-02 0.576D-01 0.248D+00 0.695D+00
 Coeff-En:   0.000D+00 0.000D+00 0.000D+00 0.000D+00 0.100D+01
 Coeff:     -0.174D-02 0.116D-02 0.575D-01 0.247D+00 0.696D+00
 Gap=     0.424 Goal=   None    Shift=    0.000
 RMSDP=6.80D-06 MaxDP=4.46D-04 DE=-3.06D-04 OVMax= 8.27D-04

 Initial convergence to 1.0D-05 achieved.  Increase integral accuracy.
 Cycle   6  Pass 1  IDiag  1:
 E= -276.319708561587     Delta-E=        0.000049666432 Rises=F Damp=F
 DIIS: error= 3.65D-05 at cycle   1 NSaved=   1.
 NSaved= 1 IEnMin= 1 EnMin= -276.319708561587     IErMin= 1 ErrMin= 3.65D-05
 ErrMax= 3.65D-05  0.00D+00 EMaxC= 1.00D-01 BMatC= 1.75D-06 BMatP= 1.75D-06
 IDIUse=1 WtCom= 1.00D+00 WtEn= 0.00D+00
 Coeff-Com:  0.100D+01
 Coeff:      0.100D+01
 Gap=     0.424 Goal=   None    Shift=    0.000
 RMSDP=6.80D-06 MaxDP=4.46D-04 DE= 4.97D-05 OVMax= 3.09D-04

 Cycle   7  Pass 1  IDiag  1:
 RMSU=  1.09D-05    CP:  1.00D+00
 E= -276.319709382241     Delta-E=       -0.000000820654 Rises=F Damp=F
 DIIS: error= 3.67D-05 at cycle   2 NSaved=   2.
 NSaved= 2 IEnMin= 2 EnMin= -276.319709382241     IErMin= 1 ErrMin= 3.65D-05
 ErrMax= 3.67D-05  0.00D+00 EMaxC= 1.00D-01 BMatC= 5.36D-07 BMatP= 1.75D-06
 IDIUse=1 WtCom= 1.00D+00 WtEn= 0.00D+00
 Coeff-Com:  0.319D+00 0.681D+00
 Coeff:      0.319D+00 0.681D+00
 Gap=     0.424 Goal=   None    Shift=    0.000
 RMSDP=1.41D-06 MaxDP=6.82D-05 DE=-8.21D-07 OVMax= 1.53D-04

 Cycle   8  Pass 1  IDiag  1:
 RMSU=  1.41D-06    CP:  1.00D+00  9.99D-01
 E= -276.319709845431     Delta-E=       -0.000000463190 Rises=F Damp=F
 DIIS: error= 1.34D-05 at cycle   3 NSaved=   3.
 NSaved= 3 IEnMin= 3 EnMin= -276.319709845431     IErMin= 3 ErrMin= 1.34D-05
 ErrMax= 1.34D-05  0.00D+00 EMaxC= 1.00D-01 BMatC= 6.72D-08 BMatP= 5.36D-07
 IDIUse=1 WtCom= 1.00D+00 WtEn= 0.00D+00
 Coeff-Com: -0.441D-03 0.253D+00 0.748D+00
 Coeff:     -0.441D-03 0.253D+00 0.748D+00
 Gap=     0.424 Goal=   None    Shift=    0.000
 RMSDP=4.38D-07 MaxDP=1.84D-05 DE=-4.63D-07 OVMax= 4.88D-05

 Cycle   9  Pass 1  IDiag  1:
 RMSU=  3.22D-07    CP:  1.00D+00  1.02D+00  8.33D-01
 E= -276.319709909461     Delta-E=       -0.000000064030 Rises=F Damp=F
 DIIS: error= 2.46D-06 at cycle   4 NSaved=   4.
 NSaved= 4 IEnMin= 4 EnMin= -276.319709909461     IErMin= 4 ErrMin= 2.46D-06
 ErrMax= 2.46D-06  0.00D+00 EMaxC= 1.00D-01 BMatC= 2.57D-09 BMatP= 6.72D-08
 IDIUse=1 WtCom= 1.00D+00 WtEn= 0.00D+00
 Coeff-Com: -0.117D-01 0.693D-01 0.275D+00 0.667D+00
 Coeff:     -0.117D-01 0.693D-01 0.275D+00 0.667D+00
 Gap=     0.424 Goal=   None    Shift=    0.000
 RMSDP=1.03D-07 MaxDP=3.83D-06 DE=-6.40D-08 OVMax= 9.07D-06

 Cycle  10  Pass 1  IDiag  1:
 RMSU=  9.02D-08    CP:  1.00D+00  1.02D+00  8.29D-01  8.66D-01
 E= -276.319709912028     Delta-E=       -0.000000002566 Rises=F Damp=F
 DIIS: error= 3.93D-07 at cycle   5 NSaved=   5.
 NSaved= 5 IEnMin= 5 EnMin= -276.319709912028     IErMin= 5 ErrMin= 3.93D-07
 ErrMax= 3.93D-07  0.00D+00 EMaxC= 1.00D-01 BMatC= 6.99D-11 BMatP= 2.57D-09
 IDIUse=1 WtCom= 1.00D+00 WtEn= 0.00D+00
 Coeff-Com: -0.101D-02-0.133D-01-0.331D-01 0.499D-01 0.998D+00
 Coeff:     -0.101D-02-0.133D-01-0.331D-01 0.499D-01 0.998D+00
 Gap=     0.424 Goal=   None    Shift=    0.000
 RMSDP=3.31D-08 MaxDP=7.82D-07 DE=-2.57D-09 OVMax= 2.62D-06

 Cycle  11  Pass 1  IDiag  1:
 RMSU=  1.88D-08    CP:  1.00D+00  1.02D+00  8.32D-01  9.41D-01  1.13D+00
 E= -276.319709912093     Delta-E=       -0.000000000066 Rises=F Damp=F
 DIIS: error= 1.85D-07 at cycle   6 NSaved=   6.
 NSaved= 6 IEnMin= 6 EnMin= -276.319709912093     IErMin= 6 ErrMin= 1.85D-07
 ErrMax= 1.85D-07  0.00D+00 EMaxC= 1.00D-01 BMatC= 1.93D-11 BMatP= 6.99D-11
 IDIUse=1 WtCom= 1.00D+00 WtEn= 0.00D+00
 Coeff-Com:  0.395D-03-0.106D-01-0.336D-01-0.257D-01 0.434D+00 0.635D+00
 Coeff:      0.395D-03-0.106D-01-0.336D-01-0.257D-01 0.434D+00 0.635D+00
 Gap=     0.424 Goal=   None    Shift=    0.000
 RMSDP=6.98D-09 MaxDP=2.86D-07 DE=-6.57D-11 OVMax= 7.52D-07

 SCF Done:  E(RM062X) =  -276.319709912     A.U. after   11 cycles
            NFock= 11  Conv=0.70D-08     -V/T= 2.0066
 KE= 2.744965475670D+02 PE=-1.299993909613D+03 EE= 4.183820379407D+02
 Leave Link  502 at Sun Sep 29 10:42:37 2019, MaxMem=   671088640 cpu:            2582.0 elap:            1291.3
 (Enter /shared/centos7/gaussian/g16/l801.exe)
 DoSCS=F DFT=T ScalE2(SS,OS)=  1.000000  1.000000
 Range of M.O.s used for correlation:     1   434
 NBasis=   434 NAE=    29 NBE=    29 NFC=     0 NFV=     0
 NROrb=    434 NOA=    29 NOB=    29 NVA=   405 NVB=   405

 **** Warning!!: The largest alpha MO coefficient is  0.13517189D+02

 Leave Link  801 at Sun Sep 29 10:42:38 2019, MaxMem=   671088640 cpu:               1.6 elap:               0.8
 (Enter /shared/centos7/gaussian/g16/l1101.exe)
 Using compressed storage, NAtomX=    23.
 Will process     24 centers per pass.
 Leave Link 1101 at Sun Sep 29 10:43:15 2019, MaxMem=   671088640 cpu:              73.5 elap:              36.8
 (Enter /shared/centos7/gaussian/g16/l1102.exe)
 Symmetrizing basis deriv contribution to polar:
 IMax=3 JMax=2 DiffMx= 0.00D+00
 Leave Link 1102 at Sun Sep 29 10:43:17 2019, MaxMem=   671088640 cpu:               5.2 elap:               2.6
 (Enter /shared/centos7/gaussian/g16/l1110.exe)
 Forming Gx(P) for the SCF density, NAtomX=    23.
 Integral derivatives from FoFJK, PRISM(SPDF).
 Do as many integral derivatives as possible in FoFJK.
 G2DrvN: MDV=     671086848.
 G2DrvN: will do    24 centers at a time, making    1 passes.
 Calling FoFCou, ICntrl=  3107 FMM=F I1Cent=   0 AccDes= 0.00D+00.
 FoFJK:  IHMeth= 1 ICntrl=    3107 DoSepK=F KAlg= 0 I1Cent=           0 FoldK=F
 IRaf=         0 NMat=       1 IRICut=       1 DoRegI=T DoRafI=F ISym2E= 0 IDoP0=0 IntGTp=1.
 FoFCou: FMM=F IPFlag=           0 FMFlag=      100000 FMFlg1=           0
         NFxFlg=           0 DoJE=F BraDBF=F KetDBF=F FulRan=T
         wScrn=  0.000000 ICntrl=      3107 IOpCl=  0 I1Cent=           0 NGrid=           0
         NMat0=    1 NMatS0=      1 NMatT0=    0 NMatD0=    1 NMtDS0=    0 NMtDT0=    0
 Symmetry not used in FoFCou.
 End of G2Drv F.D. properties file   721 does not exist.
 End of G2Drv F.D. properties file   722 does not exist.
 End of G2Drv F.D. properties file   788 does not exist.
 Leave Link 1110 at Sun Sep 29 11:28:52 2019, MaxMem=   671088640 cpu:            5468.1 elap:            2734.4
 (Enter /shared/centos7/gaussian/g16/l1002.exe)
 Minotr:  Closed shell wavefunction.
          IDoAtm=11111111111111111111111
          Direct CPHF calculation.
          Differentiating once with respect to nuclear coordinates.
          Requested convergence is 1.0D-08 RMS, and 1.0D-07 maximum.
          Secondary convergence is 1.0D-12 RMS, and 1.0D-12 maximum.
          NewPWx=T KeepS1=F KeepF1=F KeepIn=T MapXYZ=F SortEE=F KeepMc=T.
         6911 words used for storage of precomputed grid.
 Two-electron integrals replicated using symmetry.
          MDV=     671088640 using IRadAn=       1.
          Solving linear equations simultaneously, MaxMat=     380.
 FoF2E skips out because all densities are zero.
 CalDSu exits because no D1Ps are significant.
 FoFJK:  IHMeth= 1 ICntrl=       0 DoSepK=F KAlg= 0 I1Cent=           0 FoldK=F
 IRaf= 930000000 NMat=      69 IRICut=     172 DoRegI=T DoRafI=T ISym2E= 2 IDoP0=3 IntGTp=3.
 FoFCou: FMM=F IPFlag=           0 FMFlag=      100000 FMFlg1=           0
         NFxFlg=           0 DoJE=F BraDBF=F KetDBF=F FulRan=T
         wScrn=  0.000000 ICntrl=         0 IOpCl=  0 I1Cent=           0 NGrid=           0
         NMat0=   69 NMatS0=     69 NMatT0=    0 NMatD0=   69 NMtDS0=    0 NMtDT0=    0
 Integrals replicated using symmetry in FoFCou.
 Raff kept on since  89.26% of shell-pairs survive, threshold=   0.20 IRatSp=89.
          There are    72 degrees of freedom in the 1st order CPHF.  IDoFFX=6 NUNeed=     0.
     66 vectors produced by pass  0 Test12= 1.63D-14 1.39D-09 XBig12= 5.68D-02 4.14D-02.
 AX will form    66 AO Fock derivatives at one time.
     66 vectors produced by pass  1 Test12= 1.63D-14 1.39D-09 XBig12= 3.45D-03 6.55D-03.
     66 vectors produced by pass  2 Test12= 1.63D-14 1.39D-09 XBig12= 5.16D-05 8.66D-04.
     66 vectors produced by pass  3 Test12= 1.63D-14 1.39D-09 XBig12= 3.99D-07 6.09D-05.
     66 vectors produced by pass  4 Test12= 1.63D-14 1.39D-09 XBig12= 2.07D-09 4.26D-06.
     66 vectors produced by pass  5 Test12= 1.63D-14 1.39D-09 XBig12= 9.58D-12 3.33D-07.
     23 vectors produced by pass  6 Test12= 1.63D-14 1.39D-09 XBig12= 3.64D-14 1.93D-08.
 InvSVY:  IOpt=1 It=  1 EMax= 3.05D-16
 Solved reduced A of dimension   419 with    72 vectors.
 End of Minotr F.D. properties file   721 does not exist.
 End of Minotr F.D. properties file   722 does not exist.
 End of Minotr F.D. properties file   788 does not exist.
 Leave Link 1002 at Sun Sep 29 12:38:10 2019, MaxMem=   671088640 cpu:            8315.0 elap:            4158.0
 (Enter /shared/centos7/gaussian/g16/l601.exe)
 Copying SCF densities to generalized density rwf, IOpCl= 0 IROHF=0.

 **********************************************************************

            Population analysis using the SCF density.

 **********************************************************************

 Orbital symmetries:
       Occupied  (A) (A) (A) (A) (A) (A) (A) (A) (A) (A) (A) (A)
                 (A) (A) (A) (A) (A) (A) (A) (A) (A) (A) (A) (A)
                 (A) (A) (A) (A) (A)
       Virtual   (A) (A) (A) (A) (A) (A) (A) (A) (A) (A) (A) (A)
                 (A) (A) (A) (A) (A) (A) (A) (A) (A) (A) (A) (A)
                 (A) (A) (A) (A) (A) (A) (A) (A) (A) (A) (A) (A)
                 (A) (A) (A) (A) (A) (A) (A) (A) (A) (A) (A) (A)
                 (A) (A) (A) (A) (A) (A) (A) (A) (A) (A) (A) (A)
                 (A) (A) (A) (A) (A) (A) (A) (A) (A) (A) (A) (A)
                 (A) (A) (A) (A) (A) (A) (A) (A) (A) (A) (A) (A)
                 (A) (A) (A) (A) (A) (A) (A) (A) (A) (A) (A) (A)
                 (A) (A) (A) (A) (A) (A) (A) (A) (A) (A) (A) (A)
                 (A) (A) (A) (A) (A) (A) (A) (A) (A) (A) (A) (A)
                 (A) (A) (A) (A) (A) (A) (A) (A) (A) (A) (A) (A)
                 (A) (A) (A) (A) (A) (A) (A) (A) (A) (A) (A) (A)
                 (A) (A) (A) (A) (A) (A) (A) (A) (A) (A) (A) (A)
                 (A) (A) (A) (A) (A) (A) (A) (A) (A) (A) (A) (A)
                 (A) (A) (A) (A) (A) (A) (A) (A) (A) (A) (A) (A)
                 (A) (A) (A) (A) (A) (A) (A) (A) (A) (A) (A) (A)
                 (A) (A) (A) (A) (A) (A) (A) (A) (A) (A) (A) (A)
                 (A) (A) (A) (A) (A) (A) (A) (A) (A) (A) (A) (A)
                 (A) (A) (A) (A) (A) (A) (A) (A) (A) (A) (A) (A)
                 (A) (A) (A) (A) (A) (A) (A) (A) (A) (A) (A) (A)
                 (A) (A) (A) (A) (A) (A) (A) (A) (A) (A) (A) (A)
                 (A) (A) (A) (A) (A) (A) (A) (A) (A) (A) (A) (A)
                 (A) (A) (A) (A) (A) (A) (A) (A) (A) (A) (A) (A)
                 (A) (A) (A) (A) (A) (A) (A) (A) (A) (A) (A) (A)
                 (A) (A) (A) (A) (A) (A) (A) (A) (A) (A) (A) (A)
                 (A) (A) (A) (A) (A) (A) (A) (A) (A) (A) (A) (A)
                 (A) (A) (A) (A) (A) (A) (A) (A) (A) (A) (A) (A)
                 (A) (A) (A) (A) (A) (A) (A) (A) (A) (A) (A) (A)
                 (A) (A) (A) (A) (A) (A) (A) (A) (A) (A) (A) (A)
                 (A) (A) (A) (A) (A) (A) (A) (A) (A) (A) (A) (A)
                 (A) (A) (A) (A) (A) (A) (A) (A) (A) (A) (A) (A)
                 (A) (A) (A) (A) (A) (A) (A) (A) (A) (A) (A) (A)
                 (A) (A) (A) (A) (A) (A) (A) (A) (A) (A) (A) (A)
                 (A) (A) (A) (A) (A) (A) (A) (A) (A)
 The electronic state is 1-A.
 Alpha  occ. eigenvalues --  -10.52823 -10.52670 -10.52482 -10.52411 -10.52367
 Alpha  occ. eigenvalues --  -10.52282 -10.52180  -0.92356  -0.88141  -0.82864
 Alpha  occ. eigenvalues --   -0.76912  -0.69740  -0.65697  -0.63838  -0.55567
 Alpha  occ. eigenvalues --   -0.52573  -0.51019  -0.49728  -0.48030  -0.46303
 Alpha  occ. eigenvalues --   -0.45734  -0.43124  -0.41086  -0.40939  -0.38707
 Alpha  occ. eigenvalues --   -0.37993  -0.36730  -0.36268  -0.35550
 Alpha virt. eigenvalues --    0.06848   0.07579   0.08626   0.08861   0.11602
 Alpha virt. eigenvalues --    0.11929   0.12685   0.13667   0.14422   0.15479
 Alpha virt. eigenvalues --    0.15839   0.15963   0.17337   0.17811   0.18725
 Alpha virt. eigenvalues --    0.21740   0.23207   0.23299   0.25745   0.26518
 Alpha virt. eigenvalues --    0.27929   0.28222   0.29604   0.30302   0.31089
 Alpha virt. eigenvalues --    0.33046   0.33748   0.34061   0.35410   0.36284
 Alpha virt. eigenvalues --    0.37080   0.40290   0.41480   0.42376   0.43903
 Alpha virt. eigenvalues --    0.45026   0.45991   0.47266   0.47889   0.48373
 Alpha virt. eigenvalues --    0.49260   0.49617   0.50115   0.50523   0.50995
 Alpha virt. eigenvalues --    0.51685   0.52289   0.53392   0.53753   0.54471
 Alpha virt. eigenvalues --    0.55470   0.56004   0.56482   0.56715   0.58611
 Alpha virt. eigenvalues --    0.59266   0.59814   0.61048   0.62976   0.64801
 Alpha virt. eigenvalues --    0.66142   0.68157   0.71948   0.73502   0.76181
 Alpha virt. eigenvalues --    0.76662   0.77889   0.80333   0.81981   0.83058
 Alpha virt. eigenvalues --    0.85149   0.88527   0.89212   0.90886   0.92895
 Alpha virt. eigenvalues --    0.93914   0.94418   0.97288   0.97893   0.99318
 Alpha virt. eigenvalues --    1.01239   1.01864   1.03328   1.05103   1.05704
 Alpha virt. eigenvalues --    1.06480   1.08411   1.09008   1.09622   1.10599
 Alpha virt. eigenvalues --    1.11604   1.11740   1.12763   1.13231   1.14296
 Alpha virt. eigenvalues --    1.15112   1.16016   1.18026   1.18617   1.18757
 Alpha virt. eigenvalues --    1.20699   1.21463   1.22597   1.23350   1.24386
 Alpha virt. eigenvalues --    1.25001   1.25777   1.27412   1.29196   1.29542
 Alpha virt. eigenvalues --    1.30694   1.31237   1.31797   1.32178   1.33487
 Alpha virt. eigenvalues --    1.36060   1.36714   1.36956   1.37869   1.38974
 Alpha virt. eigenvalues --    1.39972   1.41345   1.42358   1.43435   1.45540
 Alpha virt. eigenvalues --    1.46465   1.47445   1.48161   1.48737   1.50447
 Alpha virt. eigenvalues --    1.52155   1.53345   1.54354   1.54635   1.56655
 Alpha virt. eigenvalues --    1.57296   1.57915   1.59539   1.61456   1.64934
 Alpha virt. eigenvalues --    1.67644   1.69626   1.71557   1.72390   1.78521
 Alpha virt. eigenvalues --    1.79176   1.81146   1.83094   1.98352   2.25414
 Alpha virt. eigenvalues --    2.27141   2.31590   2.32379   2.34702   2.35741
 Alpha virt. eigenvalues --    2.38386   2.39620   2.41410   2.44545   2.45181
 Alpha virt. eigenvalues --    2.46087   2.48279   2.49056   2.51738   2.53394
 Alpha virt. eigenvalues --    2.54603   2.56262   2.57448   2.60236   2.61480
 Alpha virt. eigenvalues --    2.62131   2.63645   2.64599   2.65549   2.66611
 Alpha virt. eigenvalues --    2.66969   2.68625   2.70697   2.71679   2.72118
 Alpha virt. eigenvalues --    2.74026   2.75676   2.76127   2.78314   2.79903
 Alpha virt. eigenvalues --    2.80012   2.81295   2.83218   2.84802   2.86335
 Alpha virt. eigenvalues --    2.86972   2.87968   2.89982   2.90688   2.91809
 Alpha virt. eigenvalues --    2.92185   2.95698   2.95861   2.96623   2.99432
 Alpha virt. eigenvalues --    3.00253   3.01621   3.03546   3.04478   3.05875
 Alpha virt. eigenvalues --    3.06852   3.07440   3.08180   3.10041   3.10112
 Alpha virt. eigenvalues --    3.10553   3.11741   3.12027   3.12815   3.13687
 Alpha virt. eigenvalues --    3.15199   3.15832   3.16306   3.18280   3.19503
 Alpha virt. eigenvalues --    3.20232   3.20964   3.22173   3.23873   3.24142
 Alpha virt. eigenvalues --    3.25141   3.25333   3.26757   3.28229   3.29514
 Alpha virt. eigenvalues --    3.29820   3.33255   3.33737   3.35353   3.36313
 Alpha virt. eigenvalues --    3.36468   3.37907   3.39472   3.40962   3.42169
 Alpha virt. eigenvalues --    3.43616   3.44716   3.45753   3.46957   3.48976
 Alpha virt. eigenvalues --    3.49586   3.51146   3.51845   3.52262   3.53744
 Alpha virt. eigenvalues --    3.55215   3.57674   3.58954   3.60489   3.62638
 Alpha virt. eigenvalues --    3.63092   3.63857   3.65148   3.66976   3.68544
 Alpha virt. eigenvalues --    3.69643   3.71655   3.72415   3.72618   3.73439
 Alpha virt. eigenvalues --    3.74181   3.76126   3.77780   3.78342   3.80096
 Alpha virt. eigenvalues --    3.80969   3.81813   3.83153   3.83917   3.84358
 Alpha virt. eigenvalues --    3.86199   3.87067   3.88359   3.89389   3.89861
 Alpha virt. eigenvalues --    3.91445   3.93657   3.94378   3.95631   3.96787
 Alpha virt. eigenvalues --    3.97351   3.97720   3.99273   4.00931   4.01269
 Alpha virt. eigenvalues --    4.02447   4.02709   4.03324   4.04255   4.06170
 Alpha virt. eigenvalues --    4.07146   4.08460   4.09338   4.09904   4.10763
 Alpha virt. eigenvalues --    4.13307   4.14747   4.15645   4.16285   4.18833
 Alpha virt. eigenvalues --    4.19648   4.20218   4.21957   4.23697   4.25624
 Alpha virt. eigenvalues --    4.26078   4.26737   4.27900   4.28693   4.29646
 Alpha virt. eigenvalues --    4.31231   4.32271   4.34553   4.36204   4.37076
 Alpha virt. eigenvalues --    4.37957   4.42110   4.43236   4.43592   4.45066
 Alpha virt. eigenvalues --    4.47623   4.49764   4.52316   4.53433   4.54587
 Alpha virt. eigenvalues --    4.62077   4.62668   4.63337   4.66800   4.68044
 Alpha virt. eigenvalues --    4.69417   4.70080   4.72014   4.73552   4.75191
 Alpha virt. eigenvalues --    4.77390   4.80131   4.80635   4.81032   4.82555
 Alpha virt. eigenvalues --    4.84387   4.85071   4.86639   4.87447   4.90279
 Alpha virt. eigenvalues --    4.91400   4.93951   4.94918   4.96502   4.98959
 Alpha virt. eigenvalues --    5.00078   5.03522   5.07956   5.09098   5.11084
 Alpha virt. eigenvalues --    5.12105   5.13716   5.14762   5.17659   5.19124
 Alpha virt. eigenvalues --    5.21508   5.23892   5.24316   5.24876   5.27716
 Alpha virt. eigenvalues --    5.29773   5.31043   5.33441   5.34840   5.35293
 Alpha virt. eigenvalues --    5.37674   5.38625   5.42940   5.45283   5.45663
 Alpha virt. eigenvalues --    5.48010   5.48379   5.50440   5.52818   5.54890
 Alpha virt. eigenvalues --    5.58903   5.60164   5.66969   5.74057   5.80079
 Alpha virt. eigenvalues --    5.82552   5.86137   5.87505   5.90609   5.94826
 Alpha virt. eigenvalues --    5.99705   6.03780   6.07510  11.81141  12.25061
 Alpha virt. eigenvalues --   12.72134  13.07624  13.36455  13.70833  13.76812
          Condensed to atoms (all electrons):
               1          2          3          4          5          6
     1  C    5.164462   0.290469  -0.040824   0.303185  -0.004685  -0.064081
     2  C    0.290469   5.152539   0.284025  -0.049145  -0.043004   0.008834
     3  C   -0.040824   0.284025   5.077971   0.005791   0.323440  -0.000660
     4  C    0.303185  -0.049145   0.005791   5.076929   0.001067   0.317522
     5  C   -0.004685  -0.043004   0.323440   0.001067   5.020555   0.000078
     6  C   -0.064081   0.008834  -0.000660   0.317522   0.000078   4.947339
     7  C    0.003970   0.003594  -0.052389  -0.015615   0.303422   0.000460
     8  H   -0.056758   0.002176  -0.000225   0.419849   0.000338  -0.040932
     9  H   -0.040032  -0.008381   0.000826   0.404008  -0.000204  -0.037110
    10  H    0.398674  -0.036915   0.003490  -0.037156  -0.000397  -0.002127
    11  H    0.418273  -0.062787   0.001400  -0.045535  -0.002168  -0.003130
    12  H   -0.044102   0.412032  -0.037735   0.005028   0.007217  -0.000562
    13  H   -0.061298   0.405685  -0.045510  -0.004266  -0.003300   0.001211
    14  H   -0.008612  -0.048548   0.409384   0.000702  -0.041658   0.000041
    15  H    0.009232  -0.046399   0.420573  -0.000638  -0.046317   0.000028
    16  H    0.000059  -0.008127  -0.039810   0.000439   0.408243   0.000002
    17  H   -0.000662   0.009928  -0.049725  -0.000082   0.419653   0.000000
    18  H   -0.002936  -0.000143   0.000033  -0.048084   0.000006   0.404959
    19  H   -0.007040  -0.000054  -0.000034  -0.045360   0.000000   0.406649
    20  H    0.009960  -0.000587   0.000034  -0.043354  -0.000005   0.407939
    21  H   -0.006571   0.010190  -0.011602  -0.011489  -0.040885   0.000988
    22  H   -0.004665  -0.003339   0.003516   0.001160  -0.050472   0.000081
    23  H    0.000535  -0.001006   0.008449   0.000443  -0.038408  -0.000075
               7          8          9         10         11         12
     1  C    0.003970  -0.056758  -0.040032   0.398674   0.418273  -0.044102
     2  C    0.003594   0.002176  -0.008381  -0.036915  -0.062787   0.412032
     3  C   -0.052389  -0.000225   0.000826   0.003490   0.001400  -0.037735
     4  C   -0.015615   0.419849   0.404008  -0.037156  -0.045535   0.005028
     5  C    0.303422   0.000338  -0.000204  -0.000397  -0.002168   0.007217
     6  C    0.000460  -0.040932  -0.037110  -0.002127  -0.003130  -0.000562
     7  C    5.052508  -0.015294   0.000710   0.000114  -0.003159  -0.000220
     8  H   -0.015294   0.610501  -0.041875   0.007785  -0.008341  -0.000120
     9  H    0.000710  -0.041875   0.597633  -0.006095   0.008385   0.000973
    10  H    0.000114   0.007785  -0.006095   0.582078  -0.037220  -0.018803
    11  H   -0.003159  -0.008341   0.008385  -0.037220   0.587575   0.006394
    12  H   -0.000220  -0.000120   0.000973  -0.018803   0.006394   0.585001
    13  H   -0.002812  -0.000673   0.001371   0.006376   0.006529  -0.032072
    14  H   -0.005708  -0.000011  -0.000053   0.001540   0.001028  -0.002476
    15  H    0.008710  -0.000047   0.000001  -0.000429   0.000608  -0.011494
    16  H   -0.047642  -0.000027  -0.000064   0.000004   0.000177  -0.000150
    17  H   -0.041066  -0.000087   0.000008   0.000047  -0.000494  -0.000439
    18  H    0.000111  -0.008166   0.008949  -0.000141   0.003275  -0.000025
    19  H   -0.000069   0.009449  -0.007692   0.004062  -0.000263   0.000057
    20  H    0.000029  -0.007364  -0.006526  -0.000034  -0.000174   0.000027
    21  H    0.396130  -0.008224   0.001326   0.000750  -0.006567  -0.000032
    22  H    0.399472   0.000473  -0.000112   0.000261  -0.002094  -0.000186
    23  H    0.411366   0.001192   0.000003  -0.000013   0.000735   0.000049
              13         14         15         16         17         18
     1  C   -0.061298  -0.008612   0.009232   0.000059  -0.000662  -0.002936
     2  C    0.405685  -0.048548  -0.046399  -0.008127   0.009928  -0.000143
     3  C   -0.045510   0.409384   0.420573  -0.039810  -0.049725   0.000033
     4  C   -0.004266   0.000702  -0.000638   0.000439  -0.000082  -0.048084
     5  C   -0.003300  -0.041658  -0.046317   0.408243   0.419653   0.000006
     6  C    0.001211   0.000041   0.000028   0.000002   0.000000   0.404959
     7  C   -0.002812  -0.005708   0.008710  -0.047642  -0.041066   0.000111
     8  H   -0.000673  -0.000011  -0.000047  -0.000027  -0.000087  -0.008166
     9  H    0.001371  -0.000053   0.000001  -0.000064   0.000008   0.008949
    10  H    0.006376   0.001540  -0.000429   0.000004   0.000047  -0.000141
    11  H    0.006529   0.001028   0.000608   0.000177  -0.000494   0.003275
    12  H   -0.032072  -0.002476  -0.011494  -0.000150  -0.000439  -0.000025
    13  H    0.585670   0.007935  -0.001219   0.004116   0.000152   0.000011
    14  H    0.007935   0.577142  -0.030580   0.008205  -0.006504  -0.000016
    15  H   -0.001219  -0.030580   0.588846  -0.007714  -0.006127  -0.000000
    16  H    0.004116   0.008205  -0.007714   0.599691  -0.033902  -0.000002
    17  H    0.000152  -0.006504  -0.006127  -0.033902   0.589448   0.000003
    18  H    0.000011  -0.000016  -0.000000  -0.000002   0.000003   0.601245
    19  H   -0.000017  -0.000001   0.000000   0.000001  -0.000000  -0.038142
    20  H   -0.000055   0.000003  -0.000001   0.000000   0.000000  -0.031606
    21  H   -0.000133   0.000793  -0.000461  -0.005406   0.008305   0.000728
    22  H    0.000530   0.003170  -0.000025   0.008421  -0.005525   0.000004
    23  H   -0.000063  -0.000175  -0.000442  -0.004610  -0.008061  -0.000020
              19         20         21         22         23
     1  C   -0.007040   0.009960  -0.006571  -0.004665   0.000535
     2  C   -0.000054  -0.000587   0.010190  -0.003339  -0.001006
     3  C   -0.000034   0.000034  -0.011602   0.003516   0.008449
     4  C   -0.045360  -0.043354  -0.011489   0.001160   0.000443
     5  C    0.000000  -0.000005  -0.040885  -0.050472  -0.038408
     6  C    0.406649   0.407939   0.000988   0.000081  -0.000075
     7  C   -0.000069   0.000029   0.396130   0.399472   0.411366
     8  H    0.009449  -0.007364  -0.008224   0.000473   0.001192
     9  H   -0.007692  -0.006526   0.001326  -0.000112   0.000003
    10  H    0.004062  -0.000034   0.000750   0.000261  -0.000013
    11  H   -0.000263  -0.000174  -0.006567  -0.002094   0.000735
    12  H    0.000057   0.000027  -0.000032  -0.000186   0.000049
    13  H   -0.000017  -0.000055  -0.000133   0.000530  -0.000063
    14  H   -0.000001   0.000003   0.000793   0.003170  -0.000175
    15  H    0.000000  -0.000001  -0.000461  -0.000025  -0.000442
    16  H    0.000001   0.000000  -0.005406   0.008421  -0.004610
    17  H   -0.000000   0.000000   0.008305  -0.005525  -0.008061
    18  H   -0.038142  -0.031606   0.000728   0.000004  -0.000020
    19  H    0.608412  -0.030654  -0.000210   0.000023   0.000003
    20  H   -0.030654   0.590928   0.000210  -0.000015   0.000001
    21  H   -0.000210   0.000210   0.607894  -0.038417  -0.034154
    22  H    0.000023  -0.000015  -0.038417   0.598399  -0.024317
    23  H    0.000003   0.000001  -0.034154  -0.024317   0.578167
 Mulliken charges:
               1
     1  C   -0.256555
     2  C   -0.271035
     3  C   -0.260417
     4  C   -0.235398
     5  C   -0.212516
     6  C   -0.347455
     7  C   -0.396621
     8  H    0.136383
     9  H    0.123949
    10  H    0.134150
    11  H    0.137552
    12  H    0.131637
    13  H    0.131832
    14  H    0.134399
    15  H    0.123894
    16  H    0.118096
    17  H    0.125131
    18  H    0.109958
    19  H    0.100880
    20  H    0.111244
    21  H    0.136837
    22  H    0.113655
    23  H    0.110400
 Sum of Mulliken charges =  -0.00000
 Mulliken charges with hydrogens summed into heavy atoms:
               1
     1  C    0.015147
     2  C   -0.007566
     3  C   -0.002124
     4  C    0.024933
     5  C    0.030711
     6  C   -0.025373
     7  C   -0.035729
 APT charges:
               1
     1  C   -0.532913
     2  C   -0.681827
     3  C   -0.850805
     4  C   -0.445904
     5  C   -0.899908
     6  C   -1.382594
     7  C   -0.922363
     8  H    0.229106
     9  H    0.379522
    10  H    0.406945
    11  H    0.240900
    12  H    0.437147
    13  H    0.270400
    14  H    0.321102
    15  H    0.487009
    16  H    0.353538
    17  H    0.519989
    18  H    0.257118
    19  H    0.416410
    20  H    0.490035
    21  H    0.143088
    22  H    0.247844
    23  H    0.516161
 Sum of APT charges =  -0.00000
 APT charges with hydrogens summed into heavy atoms:
               1
     1  C    0.114932
     2  C    0.025719
     3  C   -0.042694
     4  C    0.162723
     5  C   -0.026381
     6  C   -0.219031
     7  C   -0.015270
 Electronic spatial extent (au):  <R**2>=           1117.2531
 Charge=              0.0000 electrons
 Dipole moment (field-independent basis, Debye):
    X=              0.0454    Y=             -0.1275    Z=              0.0516  Tot=              0.1449
 Quadrupole moment (field-independent basis, Debye-Ang):
   XX=            -49.7113   YY=            -49.0116   ZZ=            -49.0429
   XY=              0.3630   XZ=             -0.3633   YZ=              0.1213
 Traceless Quadrupole moment (field-independent basis, Debye-Ang):
   XX=             -0.4561   YY=              0.2437   ZZ=              0.2124
   XY=              0.3630   XZ=             -0.3633   YZ=              0.1213
 Octapole moment (field-independent basis, Debye-Ang**2):
  XXX=              2.7385  YYY=             -2.7753  ZZZ=              0.0308  XYY=             -0.2639
  XXY=             -1.0389  XXZ=              1.3217  XZZ=              0.5670  YZZ=              0.5748
  YYZ=              0.2030  XYZ=             -0.7635
 Hexadecapole moment (field-independent basis, Debye-Ang**3):
 XXXX=          -1075.9966 YYYY=           -384.1399 ZZZZ=           -141.2323 XXXY=              5.0024
 XXXZ=             -7.6226 YYYX=              2.4871 YYYZ=              3.5352 ZZZX=             -1.5914
 ZZZY=             -1.5525 XXYY=           -238.0092 XXZZ=           -200.5773 YYZZ=            -88.6663
 XXYZ=              1.8990 YYXZ=              1.5958 ZZXY=             -0.2927
 N-N= 3.307956141928D+02 E-N=-1.299993836096D+03  KE= 2.744965475670D+02
  Exact polarizability:   0.000   0.000   0.000   0.000   0.000   0.000
 Approx polarizability:  98.573   1.739  99.112   0.277   0.262 100.268
 No NMR shielding tensors so no spin-rotation constants.
 Leave Link  601 at Sun Sep 29 12:38:40 2019, MaxMem=   671088640 cpu:              60.0 elap:              30.0
 (Enter /shared/centos7/gaussian/g16/l701.exe)
 SCFChk:  SCF convergence  6.98D-09 required  1.00D-08
 ... and contract with generalized density number  0.
 Compute integral second derivatives.
 Entering OneElI...
 Calculate overlap and kinetic energy integrals
    NBasis = 485  MinDer = 2  MaxDer = 2
 Requested accuracy = 0.1000D-12
 PrmmSu-InSpLW:  IPartL=    0 NPrtUS=   20 NPrtUL=    1 DoSpLW=F IThBeg=    0 IThEnd=   19 NThAct=   20.
 PrsmSu:  NPrtUS=  20 ThrOK=T IAlg=1 NPAlg=1 LenDen=           0 ISkipM=0 DoSpLW=F IThBeg=    0 IThEnd=   19.
 Prism:   IPart=     0 DynPar=F LinDyn=F Incr=           6.
 PRISM was handed    33199132 working-precision words and 13694 shell-pairs
 PRISM was handed    33199132 working-precision words and 13694 shell-pairs
 PRISM was handed    33199132 working-precision words and 13694 shell-pairs
 PRISM was handed    33199132 working-precision words and 13694 shell-pairs
 PRISM was handed    33199132 working-precision words and 13694 shell-pairs
 PRISM was handed    33199132 working-precision words and 13694 shell-pairs
 PRISM was handed    33199132 working-precision words and 13694 shell-pairs
 PRISM was handed    33199132 working-precision words and 13694 shell-pairs
 PRISM was handed    33199132 working-precision words and 13694 shell-pairs
 PRISM was handed    33199132 working-precision words and 13694 shell-pairs
 PRISM was handed    33199132 working-precision words and 13694 shell-pairs
 PRISM was handed    33199132 working-precision words and 13694 shell-pairs
 PRISM was handed    33199132 working-precision words and 13694 shell-pairs
 PRISM was handed    33199132 working-precision words and 13694 shell-pairs
 PRISM was handed    33199132 working-precision words and 13694 shell-pairs
 PRISM was handed    33199132 working-precision words and 13694 shell-pairs
 IPart=  0 NShTot=         719 NBatch=          79 AvBLen=         9.1
 IPart= 11 NShTot=         673 NBatch=          57 AvBLen=        11.8
 PRISM was handed    33199132 working-precision words and 13694 shell-pairs
 IPart=  2 NShTot=         711 NBatch=          73 AvBLen=         9.7
 PRISM was handed    33199132 working-precision words and 13694 shell-pairs
 IPart=  6 NShTot=         699 NBatch=          65 AvBLen=        10.8
 IPart= 16 NShTot=         661 NBatch=          49 AvBLen=        13.5
 IPart=  7 NShTot=         691 NBatch=          59 AvBLen=        11.7
 PRISM was handed    33199132 working-precision words and 13694 shell-pairs
 IPart=  4 NShTot=         710 NBatch=          73 AvBLen=         9.7
 PRISM was handed    33199132 working-precision words and 13694 shell-pairs
 IPart=  5 NShTot=         706 NBatch=          71 AvBLen=         9.9
 IPart= 18 NShTot=         659 NBatch=          48 AvBLen=        13.7
 IPart= 14 NShTot=         668 NBatch=          53 AvBLen=        12.6
 IPart=  8 NShTot=         688 NBatch=          59 AvBLen=        11.7
 IPart= 15 NShTot=         665 NBatch=          51 AvBLen=        13.0
 IPart= 17 NShTot=         660 NBatch=          49 AvBLen=        13.5
 IPart= 19 NShTot=         658 NBatch=          48 AvBLen=        13.7
 IPart=  9 NShTot=         684 NBatch=          59 AvBLen=        11.6
 IPart=  1 NShTot=         716 NBatch=          77 AvBLen=         9.3
 IPart= 13 NShTot=         669 NBatch=          54 AvBLen=        12.4
 IPart= 10 NShTot=         677 NBatch=          57 AvBLen=        11.9
 IPart=  3 NShTot=         710 NBatch=          73 AvBLen=         9.7
 IPart= 12 NShTot=         670 NBatch=          55 AvBLen=        12.2
 PrSmSu:  NxtVal=            121.
 Entering OneElI...
 Calculate potential energy integrals
    NBasis = 485  MinDer = 2  MaxDer = 2
 Requested accuracy = 0.1000D-12
 PrmmSu-InSpLW:  IPartL=    0 NPrtUS=   20 NPrtUL=    1 DoSpLW=F IThBeg=    0 IThEnd=   19 NThAct=   20.
 PrsmSu:  NPrtUS=  20 ThrOK=T IAlg=1 NPAlg=1 LenDen=           0 ISkipM=0 DoSpLW=F IThBeg=    0 IThEnd=   19.
 Prism:   IPart=     0 DynPar=F LinDyn=F Incr=         142.
 PRISM was handed    33262137 working-precision words and 12399 shell-pairs
 PRISM was handed    33262137 working-precision words and 12399 shell-pairs
 PRISM was handed    33262137 working-precision words and 12399 shell-pairs
 PRISM was handed    33262137 working-precision words and 12399 shell-pairs
 PRISM was handed    33262137 working-precision words and 12399 shell-pairs
 PRISM was handed    33262137 working-precision words and 12399 shell-pairs
 PRISM was handed    33262137 working-precision words and 12399 shell-pairs
 PRISM was handed    33262137 working-precision words and 12399 shell-pairs
 PRISM was handed    33262137 working-precision words and 12399 shell-pairs
 PRISM was handed    33262137 working-precision words and 12399 shell-pairs
 PRISM was handed    33262137 working-precision words and 12399 shell-pairs
 PRISM was handed    33262137 working-precision words and 12399 shell-pairs
 PRISM was handed    33262137 working-precision words and 12399 shell-pairs
 PRISM was handed    33262137 working-precision words and 12399 shell-pairs
 PRISM was handed    33262137 working-precision words and 12399 shell-pairs
 PRISM was handed    33262137 working-precision words and 12399 shell-pairs
 PRISM was handed    33262137 working-precision words and 12399 shell-pairs
 PRISM was handed    33262137 working-precision words and 12399 shell-pairs
 PRISM was handed    33262137 working-precision words and 12399 shell-pairs
 PRISM was handed    33262137 working-precision words and 12399 shell-pairs
 IPart= 10 NShTot=       14099 NBatch=         614 AvBLen=        23.0
 IPart=  0 NShTot=       15065 NBatch=         657 AvBLen=        22.9
 IPart=  8 NShTot=       14260 NBatch=         621 AvBLen=        23.0
 IPart=  2 NShTot=       14835 NBatch=         647 AvBLen=        22.9
 IPart= 17 NShTot=       13754 NBatch=         599 AvBLen=        23.0
 IPart= 19 NShTot=       13685 NBatch=         596 AvBLen=        23.0
 IPart=  4 NShTot=       14812 NBatch=         646 AvBLen=        22.9
 IPart=  9 NShTot=       14191 NBatch=         618 AvBLen=        23.0
 IPart= 14 NShTot=       13915 NBatch=         606 AvBLen=        23.0
 IPart= 16 NShTot=       13754 NBatch=         599 AvBLen=        23.0
 IPart=  5 NShTot=       14674 NBatch=         640 AvBLen=        22.9
 IPart=  1 NShTot=       14904 NBatch=         650 AvBLen=        22.9
 IPart=  6 NShTot=       14513 NBatch=         633 AvBLen=        22.9
 IPart=  3 NShTot=       14835 NBatch=         647 AvBLen=        22.9
 IPart= 11 NShTot=       14053 NBatch=         612 AvBLen=        23.0
 IPart= 12 NShTot=       13961 NBatch=         608 AvBLen=        23.0
 IPart= 18 NShTot=       13754 NBatch=         599 AvBLen=        23.0
 IPart=  7 NShTot=       14352 NBatch=         625 AvBLen=        23.0
 IPart= 13 NShTot=       13938 NBatch=         607 AvBLen=        23.0
 IPart= 15 NShTot=       13823 NBatch=         602 AvBLen=        23.0
 PrSmSu:  NxtVal=           2841.
 Polarizability after L701:
                1             2             3 
      1  0.000000D+00
      2  0.000000D+00  0.000000D+00
      3  0.000000D+00  0.000000D+00  0.000000D+00
 Dipole Derivatives after L701:
                 1             2             3             4             5 
      1  -0.341426D+00 -0.385739D+00 -0.487810D+00 -0.339717D-02  0.109578D+00
      2  -0.427181D+00 -0.578347D+00 -0.411685D+00 -0.107936D+00 -0.131825D+01
      3   0.138123D-01  0.439711D-01 -0.678966D+00  0.112624D-01 -0.727889D-01
                 6             7             8             9            10 
      1  -0.219705D+00 -0.105217D+01  0.932735D+00  0.548836D+00  0.635443D-01
      2   0.514856D+00  0.675694D+00 -0.666391D+00 -0.255468D+00 -0.306578D+00
      3  -0.723831D+00 -0.668452D-01  0.716859D-02 -0.833856D+00 -0.202872D-01
                11            12            13            14            15 
      1  -0.149906D+00  0.110288D+01 -0.181526D+01 -0.382965D+00 -0.546739D+00
      2  -0.632192D+00  0.542168D-01 -0.488604D+00 -0.851211D-01 -0.103495D+00
      3   0.150353D-01 -0.769065D+00  0.441295D-01  0.437518D-01 -0.799338D+00
                16            17            18            19            20 
      1  -0.219061D+01  0.420086D+00 -0.545877D+00 -0.302239D+00 -0.798477D+00
      2   0.121459D+00 -0.103550D+01  0.656833D-01  0.242847D+00 -0.148494D+01
      3   0.911713D-01 -0.290205D-01 -0.921662D+00  0.259361D-01 -0.313015D-01
                21            22            23            24            25 
      1   0.238182D+00 -0.243566D-01 -0.303836D+00 -0.146869D+00  0.342895D+00
      2   0.139453D+00  0.209437D+00  0.455906D+00  0.967439D-01  0.652845D-01
      3  -0.979909D+00  0.173682D+00  0.264948D+00  0.255768D+00 -0.137914D+00
                26            27            28            29            30 
      1   0.366121D+00 -0.546773D+00  0.357298D+00  0.368778D+00  0.221630D+00
      2   0.287512D+00 -0.197130D+00  0.242129D+00  0.595980D+00  0.238399D+00
      3  -0.274073D+00  0.508157D+00  0.152905D+00  0.249990D+00  0.267557D+00
                31            32            33            34            35 
      1   0.106371D+00 -0.712369D-01  0.945076D-01  0.169296D+00 -0.124508D+00
      2   0.237229D-01  0.174774D+00 -0.559311D-02  0.569840D-01  0.102202D+01
      3  -0.155001D+00 -0.295029D+00  0.441555D+00  0.149439D-01 -0.487839D-01
                36            37            38            39            40 
      1   0.748327D-02  0.129863D+00  0.105941D-01  0.122156D+00  0.156863D+00
      2   0.106993D+00  0.566052D-02  0.547051D-01 -0.342039D+00  0.695450D-02
      3   0.120125D+00 -0.265925D-01  0.116360D+00  0.626632D+00  0.807081D-02
                41            42            43            44            45 
      1   0.470585D-02 -0.595676D+00  0.778982D+00 -0.595996D+00  0.291911D+00
      2   0.138412D+00  0.314153D+00 -0.393252D+00  0.549050D+00 -0.189948D+00
      3   0.631696D-03  0.668031D+00  0.309119D-01 -0.271177D-01  0.132995D+00
                46            47            48            49            50 
      1   0.289064D+00 -0.172269D-01  0.821618D+00  0.114781D+01  0.247821D+00
      2   0.196181D-01  0.148441D+00  0.157688D+00  0.230790D+00  0.215834D+00
      3   0.871241D-01 -0.604364D-02  0.623107D+00 -0.122305D+00 -0.271610D-01
                51            52            53            54            55 
      1  -0.514445D+00 -0.306085D-01 -0.509834D+00  0.694105D+00  0.813848D+00
      2  -0.115162D+00  0.101180D+00  0.376213D+00 -0.359722D+00  0.102245D+00
      3   0.196322D+00 -0.821193D-01 -0.252973D+00  0.425750D+00  0.128126D+00
                56            57            58            59            60 
      1   0.960604D+00  0.459562D+00  0.851711D+00 -0.681147D+00 -0.853837D+00
      2   0.265148D+00  0.524928D-01 -0.242506D+00  0.322155D+00  0.285801D+00
      3   0.154496D+00  0.170234D+00 -0.134248D+00  0.135019D+00  0.296238D+00
                61            62            63            64            65 
      1   0.123831D+00  0.285214D-01 -0.217181D-01  0.145450D-01  0.778979D-02
      2  -0.437707D+00  0.630252D-01  0.191690D+00 -0.163576D+00  0.122700D+00
      3  -0.196736D+00 -0.411803D-01  0.242408D+00  0.109372D+00 -0.125186D-01
                66            67            68            69 
      1  -0.341723D+00  0.414148D+00  0.563538D+00  0.218300D+00
      2  -0.570784D+00  0.463334D+00  0.100887D+01  0.332856D+00
      3   0.606288D+00  0.506012D-01  0.866194D-01  0.125460D+00
 Hessian after L701:
                1             2             3             4             5 
      1  0.150367D+02
      2  0.788299D+00  0.172301D+02
      3  0.210006D+00 -0.236680D+00  0.180110D+02
      4 -0.357407D+01 -0.112087D+01  0.133541D+01  0.149542D+02
      5 -0.116667D+01 -0.551977D+01 -0.548809D+00 -0.204392D+00  0.163785D+02
      6  0.134869D+01 -0.543438D+00 -0.556313D+01 -0.560587D-01  0.285860D+00
      7  0.432515D+00 -0.824072D-01  0.210655D-01 -0.279737D+01  0.109772D+01
      8 -0.638047D-01 -0.139671D+00 -0.266024D-01  0.107642D+01 -0.557912D+01
      9  0.170405D+00 -0.248516D-01 -0.127876D+00 -0.108979D+01 -0.367648D+00
     10 -0.445037D+01 -0.138005D+01 -0.153100D+01  0.241232D+00 -0.248892D+00
     11 -0.130872D+01 -0.517083D+01  0.115445D+01 -0.294667D+00  0.157078D-01
     12 -0.151517D+01  0.117288D+01 -0.503314D+01  0.901143D-01 -0.514545D-01
     13  0.161657D+00  0.119670D+00  0.177950D-01  0.139206D+00  0.246613D+00
     14  0.108965D+00 -0.797397D-01  0.699762D-02  0.293255D+00  0.188406D+00
     15  0.480334D-01  0.238858D-01 -0.146599D+00 -0.105678D+00 -0.817323D-01
     16  0.204250D+00 -0.181810D+00 -0.116040D-01  0.200741D+00 -0.176743D+00
     17 -0.229742D+00  0.280981D-01  0.315137D-01 -0.185414D+00 -0.507111D-01
     18 -0.107858D+00  0.815882D-01 -0.607171D-01  0.493004D-01 -0.313117D-01
     19  0.660747D-01  0.353050D+00  0.757533D-02 -0.151911D+00  0.174018D+00
     20  0.285120D+00  0.136967D+00  0.238054D-01  0.136584D+00  0.293590D+00
     21  0.747244D-01  0.843385D-01 -0.227050D+00 -0.410738D-02 -0.421626D-01
     22  0.165030D+00  0.122390D+00  0.933396D-01  0.120242D-01 -0.350737D-01
     23  0.687318D-01  0.420211D-01 -0.168337D+00 -0.771106D-01  0.134407D-01
     24  0.578121D-01 -0.160292D+00 -0.250377D-01 -0.340427D-01  0.275921D-01
     25  0.531154D-01  0.387122D-01  0.881538D-01 -0.399600D-01 -0.169330D-01
     26  0.467541D-01  0.107361D+00 -0.848805D-01 -0.205547D-02  0.837134D-02
     27  0.410405D-01 -0.800007D-01 -0.330249D-01 -0.732971D-02  0.829245D-02
     28 -0.380652D+01  0.843961D+00  0.608621D+00 -0.121556D-01  0.106884D+00
     29  0.877120D+00 -0.315788D+01  0.859621D+00  0.105550D+00  0.147213D+00
     30  0.620567D+00  0.844138D+00 -0.370155D+01 -0.569338D-01  0.793307D-01
     31 -0.461056D+01  0.453864D+00 -0.527770D+00  0.743278D-01  0.178905D+00
     32  0.510712D+00 -0.374748D+01 -0.123439D+01  0.138386D+00  0.130344D+00
     33 -0.663799D+00 -0.137468D+01 -0.304439D+01 -0.207198D+00  0.145081D+00
     34 -0.241174D-02  0.117360D+00 -0.677477D-01 -0.440615D+01  0.113699D+00
     35  0.118359D+00  0.100745D+00  0.938637D-01  0.134473D+00 -0.197401D+01
     36 -0.657607D-01  0.755977D-01  0.743051D-01  0.338281D-02  0.469079D-01
     37  0.276038D-01  0.604942D-01 -0.228078D+00 -0.458725D+01 -0.849130D-02
     38  0.904822D-01  0.166264D+00  0.141512D+00 -0.102452D-01 -0.446032D+01
     39 -0.232579D+00  0.109460D+00 -0.129303D-01 -0.721136D-01  0.496802D+00
     40 -0.237125D-01  0.291306D-01  0.374529D-02 -0.143567D-01 -0.584163D-01
     41  0.251057D-01 -0.827141D-02 -0.703486D-02 -0.255480D-01  0.106403D+00
     42 -0.179938D-01 -0.104875D-01  0.226546D-01  0.132447D+00  0.635876D-01
     43  0.167314D+00 -0.629207D-01  0.255860D-01 -0.915116D-01 -0.372897D-01
     44 -0.843110D-01 -0.288296D-01 -0.346138D-02 -0.275889D-01  0.141232D+00
     45  0.350795D-01 -0.885980D-02 -0.506349D-01  0.377473D-01 -0.189370D-01
     46  0.213345D-01  0.160040D-01  0.112586D-01 -0.188925D-01 -0.111369D-01
     47  0.120061D-01 -0.827614D-02  0.472741D-02 -0.130888D-01 -0.883935D-02
     48  0.327096D-01  0.148426D-01 -0.824257D-02  0.722002D-02  0.570471D-02
     49  0.201014D-01  0.118109D-01 -0.114693D-01  0.119226D+00  0.119438D+00
     50  0.794012D-02 -0.584770D-02 -0.264129D-02  0.108148D+00  0.203876D-01
[...]
 1449,-0.10636809,0.07249957,-0.00011542,0.00011437,-0.00008997,0.02234
 117,-0.01810153,0.01846934,-0.00000695,0.00001936,0.00002163,0.0011745
 4,0.00181931,0.00091657,0.00007301,-0.00002530,-0.00008257,-0.00000784
 ,-0.00001319,-0.00007003,-0.00035470,0.00002699,0.00002639,-0.00005953
 ,-0.00019244,0.00025126,-0.00005452,-0.00032047,0.00003534,0.00008437,
 0.00017645,0.00009278,-0.08956937,0.11780215,-0.00234342,0.00103109,0.
 00157656,-0.01692772,0.01569903,-0.02135179,-0.09773394,0.07339689,-0.
 13480703,0.00009074,-0.00021068,0.00014422,0.00748669,-0.00622310,0.00
 624488,0.00006115,-0.00003807,0.00007968,0.00056672,0.00048042,0.00015
 095,-0.00009602,-0.00017022,0.00029064,-0.00004964,0.00011311,0.000130
 35,0.00087772,-0.00091340,-0.00008147,0.00056566,0.00027389,0.00005252
 ,0.00011759,-0.00013220,-0.00121937,0.00108893,-0.00129105,-0.00490065
 ,0.10414497,-0.07833446,0.15135308,0.00035432,-0.00007819,0.00287788,-
 0.00728292,-0.00275804,0.00002647,-0.25687037,-0.10503661,0.02207978,-
 0.00057604,0.00015781,-0.00034427,0.00360921,0.00299101,-0.00050085,0.
 00003194,-0.00000471,0.00028864,0.00104870,0.00046122,-0.00010631,0.00
 001695,-0.00004378,0.00001996,-0.00000387,0.00005292,0.00011302,0.0000
 9411,-0.00010745,-0.00006413,0.00042829,0.00006804,-0.00015345,0.00124
 987,0.00055108,0.00011555,-0.00041386,0.00013531,0.00041101,-0.0191299
 9,-0.00951418,0.00163314,0.27617746,0.00080663,0.00017047,-0.00124330,
 0.00331165,0.00032634,-0.00159052,-0.10438233,-0.09891775,0.01393013,0
 .00020883,-0.00003501,-0.00006544,-0.03034066,-0.01676042,0.00215961,0
 .00000376,-0.00001042,-0.00008825,0.00291268,-0.00574096,-0.00289269,-
 0.00000816,0.00001667,-0.00003772,0.00000055,-0.00000357,-0.00003131,-
 0.00012388,0.00011460,0.00003513,-0.00000733,-0.00004337,0.00006397,0.
 00075468,0.00121642,-0.00035788,-0.00004673,-0.00003532,0.00015667,0.0
 1436728,0.00778960,-0.00202757,0.11379841,0.11031256,-0.00040582,0.000
 91064,-0.00513584,0.02913616,0.01112575,-0.00505753,0.02133594,0.01334
 243,-0.04933616,0.00163362,-0.00037753,0.00041194,-0.00974964,-0.00467
 114,0.00018809,0.00001433,-0.00007980,-0.00061062,0.00066694,-0.002250
 86,-0.00020197,-0.00001812,0.00001710,0.00010299,-0.00004795,-0.000079
 94,-0.00002749,-0.00001500,-0.00025741,0.00007820,-0.00002683,0.000202
 67,-0.00000055,0.00044937,-0.00008120,0.00143371,0.00019708,0.00046456
 ,-0.00105902,-0.01696144,-0.00946358,0.00150799,-0.02627088,-0.0088377
 2,0.05693371,-0.00008976,-0.00035420,0.00006299,0.00002049,0.00009855,
 -0.00062595,-0.00231311,0.00188641,-0.00172227,0.00002362,0.00007198,0
 .00000731,-0.17445349,0.08273185,-0.09771345,-0.00001056,-0.00002716,0
 .00000359,-0.02264577,0.01195209,-0.01592855,-0.00002066,-0.00002804,0
 .00002304,-0.00000270,0.00001241,0.00003831,0.00015206,-0.00001917,-0.
 00001724,0.00010829,0.00001423,-0.00007622,0.00004260,-0.00017740,0.00
 013528,-0.00026654,-0.00001274,0.00073315,0.00118704,0.00036679,0.0002
 2357,0.00068298,0.00012469,0.00042563,0.19217873,0.00008211,0.00009031
 ,-0.00012093,-0.00065236,0.00078524,0.00199180,0.02297401,-0.01881778,
 0.01710116,0.00003269,0.00009906,-0.00001404,0.08292706,-0.09900567,0.
 06361232,-0.00001661,-0.00001111,-0.00002371,-0.01438669,0.00806999,-0
 .01056184,0.00002444,0.00001258,-0.00006086,-0.00000138,-0.00001186,0.
 00000025,-0.00021487,0.00018132,-0.00001668,-0.00002928,-0.00004906,-0
 .00003614,-0.00011770,0.00010924,-0.00000631,-0.00003137,0.00065759,-0
 .00090924,0.00030074,-0.00589072,-0.00277805,-0.00049414,0.00113693,0.
 00037778,-0.08805615,0.11359643,0.00022303,-0.00024179,-0.00001169,0.0
 0072235,-0.00053637,0.00181339,0.00791631,-0.00583887,0.00475312,-0.00
 003200,0.00003970,-0.00001972,-0.09886977,0.06459829,-0.12673333,-0.00
 000260,-0.00000259,0.00001102,0.00234995,-0.00134321,0.00132952,0.0000
 0604,0.00000655,-0.00002946,0.00000133,-0.00000089,0.00000004,0.000046
 34,0.00010940,-0.00014156,0.00000896,0.00000519,0.00000499,-0.00006444
 ,0.00004903,0.00016136,-0.00021669,0.00046121,0.00003230,0.00087582,-0
 .00234708,0.00025230,0.00004082,0.00097206,0.00032935,0.10834678,-0.06
 911360,0.13359231,-0.00009036,-0.00035107,-0.00029065,0.00148338,0.000
 84310,-0.00033692,-0.00189595,0.00066875,0.00348363,0.00007079,-0.0000
 1078,0.00002940,-0.07457917,-0.00021266,0.07723326,-0.00000039,-0.0000
 1307,-0.00002729,-0.01093097,-0.00238387,0.02844014,-0.00001543,-0.000
 00383,-0.00002942,-0.00000248,0.00001394,0.00000885,0.00008120,0.00006
 033,0.00001309,0.00012636,-0.00003246,0.00000474,-0.00009589,-0.000077
 80,0.00034280,-0.00010838,-0.00019447,0.00019746,-0.00011231,-0.000184
 34,0.00017708,0.00025446,0.00010211,-0.00045751,0.00761723,-0.00025836
 ,-0.02189085,0.08082373,-0.00056765,-0.00001858,-0.00068982,-0.0001732
 1,-0.00613700,-0.00039272,0.01044891,-0.00095985,-0.03229507,0.0003798
 9,-0.00006085,0.00007732,0.00003770,-0.04707575,0.00570855,0.00000122,
 0.00004193,-0.00013093,-0.00690690,-0.00196672,0.01789921,-0.00001577,
 0.00001282,-0.00002874,-0.00000607,0.00004020,0.00008300,0.00002938,-0
 .00000182,0.00004262,0.00020847,0.00002977,0.00010952,0.00050069,-0.00
 028211,-0.00149828,-0.00009064,0.00012994,0.00013757,0.00030387,0.0013
 0007,0.00061696,-0.00050877,0.00126398,0.00032850,-0.00518476,-0.00074
 011,0.01418057,0.00413405,0.05499131,-0.00021631,-0.00021626,-0.000181
 52,-0.00028721,-0.00215118,0.00053999,0.00255363,0.00075159,-0.0095473
 4,0.00011144,-0.00001928,0.00007839,0.07812685,0.00486980,-0.28313538,
 -0.00001200,0.00001601,-0.00006512,0.00002399,0.00025308,-0.00009839,-
 0.00000701,-0.00000209,0.00000532,-0.00000738,0.00000105,0.00001535,0.
 00009986,-0.00006779,-0.00001590,0.00000847,0.00002667,0.00001588,0.00
 041675,-0.00031116,-0.00051189,0.00003113,-0.00013761,0.00066548,0.000
 31151,-0.00018012,0.00066230,-0.00051311,-0.00024877,0.00007154,0.0051
 0516,0.00036906,-0.01705793,-0.08632956,-0.00351471,0.30614980,0.00148
 813,-0.00089295,-0.00165576,-0.00000476,0.00029482,0.00016942,0.000048
 53,0.00011025,0.00002121,-0.01920324,-0.02455683,-0.01575065,-0.000033
 12,-0.00005252,0.00002385,-0.11846756,-0.09853361,-0.06515411,-0.00000
 578,0.00001141,0.00004232,0.00141194,0.00028454,-0.00025867,-0.0062452
 2,0.00194840,0.00114166,-0.00002861,0.00002812,0.00012218,0.00003509,0
 .00050344,0.00100772,0.00034248,0.00013661,0.00003155,-0.00000872,-0.0
 0004122,-0.00005165,-0.00001896,-0.00000674,0.00002985,0.00000299,0.00
 000481,-0.00001564,0.00001566,0.00000438,0.00000073,0.00001496,0.00003
 499,0.00000821,0.13253266,0.00009899,0.00024038,0.00033900,0.00011561,
 0.00021187,0.00028659,-0.00008845,-0.00000721,-0.00003187,0.00393583,0
 .00520565,0.00346468,-0.00000667,-0.00002284,0.00001047,-0.09933346,-0
 .18173164,-0.08877398,-0.00000819,0.00001565,-0.00003761,-0.00056611,0
 .00073006,0.00035675,0.00187490,0.00115246,-0.00017988,-0.00010582,-0.
 00009392,-0.00008388,-0.00040060,0.00004316,0.00029998,0.00010719,-0.0
 0006859,-0.00005805,0.00002800,-0.00001858,0.00000878,0.00000057,-0.00
 001150,0.00000047,-0.00000816,0.00000193,0.00002701,0.00001153,0.00000
 351,0.00000031,-0.00000246,0.00000676,0.00000582,0.10803026,0.19416876
 ,0.00047509,0.00093791,0.00099481,0.00017785,0.00012780,0.00007602,-0.
 00003622,-0.00003113,-0.00003576,0.00135957,0.00255632,0.00057730,-0.0
 0000209,-0.00001541,-0.00001231,-0.06570000,-0.08881646,-0.10686671,0.
 00000986,0.00001413,0.00002651,-0.00043487,-0.00001375,-0.00012760,0.0
 0085177,0.00025926,0.00072818,-0.00006360,0.00007464,-0.00001650,-0.00
 007988,-0.00029967,0.00026793,0.00002650,-0.00006769,-0.00012176,-0.00
 004551,0.00001610,-0.00001181,0.00000903,0.00000691,-0.00001322,-0.000
 02510,0.00000619,0.00002154,-0.00000580,0.00000372,-0.00000294,0.00000
 205,0.00000887,0.00000912,0.07208321,0.09819243,0.11177025,0.00157236,
 0.00054490,-0.00165647,-0.00012365,-0.00015773,-0.00003497,0.00004620,
 -0.00011218,0.00006419,-0.00892097,0.03130386,-0.01358397,0.00000685,-
 0.00000355,-0.00001214,-0.05970547,0.05234652,-0.02399990,0.00001299,0
 .00000366,-0.00001927,-0.00661267,0.00096781,0.00112077,0.00144171,-0.
 00051311,-0.00039090,0.00002438,-0.00058119,0.00080940,-0.00001521,-0.
 00007737,0.00013292,-0.00003919,0.00000415,-0.00003374,0.00022213,-0.0
 0023101,0.00007381,-0.00002287,0.00000429,0.00005978,-0.00000971,-0.00
 000075,0.00000701,0.00000923,-0.00000601,-0.00000620,-0.00000336,-0.00
 000285,0.00000305,0.00360860,-0.01490932,0.00825566,0.06737041,-0.0005
 9216,0.00015393,0.00023786,-0.00003095,0.00036311,-0.00030591,0.000081
 43,-0.00001452,0.00000914,0.00151278,-0.00478035,0.00203243,-0.0000085
 4,0.00000478,-0.00002876,0.05321199,-0.25652876,0.09490027,0.00001032,
 -0.00000623,0.00004826,0.00104146,0.00154338,-0.00016665,0.00033668,0.
 00072471,-0.00016958,0.00040707,0.00012908,-0.00066740,0.00007327,-0.0
 0008863,0.00003195,-0.00000142,-0.00002409,0.00001022,-0.00022484,0.00
 004994,0.00005630,0.00000050,0.00000094,-0.00002454,0.00001630,0.00000
 317,-0.00002603,-0.00000530,0.00000423,0.00000387,0.00001257,-0.000003
 73,-0.00000961,0.00530123,-0.01981602,0.00979662,-0.06011656,0.2769778
 1,0.00005471,-0.00113732,0.00089640,0.00017166,-0.00010741,0.00006500,
 -0.00002294,0.00000991,-0.00001224,0.00033740,-0.00281815,0.00029165,-
 0.00001011,-0.00001251,-0.00000559,-0.02443740,0.09514247,-0.09112696,
 0.00000791,0.00000953,0.00000635,0.00066432,-0.00047760,0.00068850,-0.
 00035433,0.00022356,-0.00012843,0.00005348,0.00027436,0.00023861,-0.00
 005835,-0.00005316,-0.00002523,-0.00004365,-0.00000573,-0.00001991,0.0
 0002598,0.00006464,-0.00012158,0.00000614,0.00000836,-0.00002195,-0.00
 002337,0.00000574,0.00001764,-0.00000200,0.00000801,-0.00000167,-0.000
 00033,0.00000737,0.00000926,0.00459395,-0.01448850,0.00655531,0.026482
 34,-0.10502918,0.09441123,-0.00678038,0.00136451,-0.00195250,0.0002134
 0,0.00007719,0.00223486,-0.00070500,0.00003753,-0.00018479,-0.00765140
 ,-0.00024499,0.03324592,-0.00002628,-0.00010611,0.00005806,-0.06603050
 ,0.00054000,0.06914600,-0.00001176,0.00004791,-0.00001097,0.00138777,0
 .00029182,-0.00040048,0.00118247,-0.00073756,-0.00030183,0.00002577,-0
 .00020068,-0.00020248,0.00010460,0.00025475,-0.00000961,0.00001254,-0.
 00010029,-0.00002715,0.00002488,0.00009765,-0.00003220,0.00004152,-0.0
 0000201,-0.00002981,-0.00011923,0.00003940,0.00021821,0.00000132,0.000
 01414,-0.00000964,0.00000424,0.00005904,0.00003943,0.00453569,0.001228
 65,-0.01683452,0.00115288,-0.00101017,-0.00742896,0.07264227,0.0013039
 7,0.00001702,0.00034803,0.00005207,0.00058709,-0.00038185,0.00012942,0
 .00000182,0.00001511,0.00117752,-0.00150042,-0.00622972,-0.00000172,0.
 00000851,-0.00001493,0.00048836,-0.04748432,-0.00227830,0.00000466,-0.
 00000218,-0.00000082,-0.00032493,-0.00000469,-0.00030952,-0.00018419,0
 .00010266,0.00041329,0.00005786,0.00029921,-0.00042025,-0.00000953,0.0
 0017577,0.00045453,0.00009653,-0.00002018,-0.00000450,-0.00010054,-0.0
 0001920,0.00001962,-0.00000663,-0.00001186,0.00000195,0.00002151,-0.00
 000846,-0.00004050,0.00000639,-0.00000025,0.00000258,0.00000440,-0.000
 00804,-0.00000431,0.00737644,-0.00000095,-0.02274794,-0.00844940,0.001
 29736,0.02838057,-0.00163345,0.04656282,0.00114460,-0.00021768,0.00112
 181,-0.00035663,0.00006019,-0.00018022,0.00007926,0.00001359,0.0001016
 2,-0.00084608,0.00009811,-0.00026212,0.00000006,0.00002903,-0.00001724
 ,0.07041838,-0.00251781,-0.29789614,-0.00000255,-0.00001926,0.00000028
 ,0.00038795,-0.00037416,0.00030469,0.00049460,0.00017759,0.00034668,-0
 .00017909,-0.00012137,0.00022340,-0.00014050,0.00017162,0.00026395,0.0
 0009031,0.00001763,0.00000574,0.00007362,-0.00004669,0.00000675,-0.000
 02755,-0.00000596,0.00000514,0.00002997,-0.00001332,-0.00005562,0.0000
 0720,-0.00000648,0.00000987,0.00000418,-0.00001914,-0.00002558,0.00362
 531,0.00063052,-0.01380951,0.00272248,-0.00066834,-0.01171711,-0.07753
 805,0.00279487,0.32158013,0.00014239,0.00056462,-0.00016747,0.00041254
 ,-0.00090469,0.00019132,0.00076339,0.00081170,-0.00012652,-0.00001086,
 -0.00007488,-0.00002299,-0.00936920,-0.00254692,0.02894876,0.00002990,
 0.00005572,0.00000664,-0.06924624,-0.00820596,0.07384965,0.00004983,-0
 .00003320,-0.00001324,0.00000721,-0.00003018,-0.00003539,-0.00012899,0
 .00004614,0.00003478,-0.00023263,0.00093926,0.00013072,-0.00010348,0.0
 0026163,-0.00012838,-0.00034234,-0.00010855,-0.00062701,-0.00005061,-0
 .00006870,-0.00009845,0.00003340,0.00021456,-0.00010839,0.00104215,0.0
 0092504,-0.00005857,-0.00473477,-0.00379257,-0.00018389,-0.00004160,-0
 .00000797,-0.00000381,-0.00001518,-0.00001190,-0.00000653,-0.00000380,
 -0.00001357,-0.00000630,0.07668549,-0.00007416,-0.00084433,-0.00061672
 ,0.00001788,-0.00056950,-0.00001171,0.00032794,0.00068815,0.00091120,0
 .00014279,0.00003625,-0.00012707,-0.00465182,-0.00218727,0.01771391,0.
 00003818,-0.00000474,0.00002802,-0.00793111,-0.05002681,0.02665239,-0.
 00000338,0.00000470,-0.00005788,-0.00002069,0.00004965,0.00009880,0.00
 005510,0.00025948,0.00010404,0.00098719,-0.00129390,-0.00009418,0.0001
 2865,0.00020661,-0.00004151,-0.00036583,-0.00007575,-0.00044210,-0.000
 03589,-0.00004703,-0.00004659,0.00008878,0.00018511,-0.00022596,0.0006
 6490,0.00061662,-0.00062660,-0.00337784,-0.00138106,-0.00007874,0.0000
 1920,-0.00000300,-0.00002306,-0.00000995,0.00000938,-0.00000901,-0.000
 03211,0.00001786,0.00003679,0.01062120,0.05264837,0.00076300,-0.000502
 34,0.00021982,0.00010842,-0.00032911,0.00004864,0.00046230,-0.00026973
 ,-0.00026883,-0.00017541,-0.00027166,0.00012429,0.00063829,0.00066544,
 -0.00007391,0.00000919,0.00006427,0.00001218,0.07387446,0.02812785,-0.
 28785343,-0.00001418,0.00023371,-0.00001074,-0.00000666,0.00003266,-0.
 00013367,-0.00012575,-0.00029021,-0.00016564,-0.00033996,-0.00086878,-
 0.00030946,-0.00008935,-0.00001285,0.00015090,-0.00018932,-0.00005435,
 -0.00017039,0.00002834,0.00001511,0.00001093,0.00000309,0.00017746,0.0
 0011432,0.00049042,0.00021269,0.00063687,-0.00006015,-0.00029265,0.001
 64050,-0.00003747,-0.00000024,0.00000888,-0.00001628,-0.00001476,0.000
 00507,0.00000224,-0.00000710,-0.00001652,-0.08283425,-0.02870826,0.312
 44229,-0.00022700,-0.00031711,0.00005860,-0.00004592,-0.00009209,0.000
 02712,0.00151965,0.00126465,0.00000776,0.00012861,0.00007285,0.0000198
 9,-0.02233217,0.01326604,-0.01546807,0.00001598,0.00000199,-0.00000795
 ,-0.18618125,0.08825854,-0.09833276,-0.00000438,-0.00001261,0.00000540
 ,-0.00001186,0.00002168,0.00005647,0.00001677,-0.00002948,-0.00004785,
 0.00017548,0.00015495,0.00011212,0.00004066,0.00000161,-0.00004741,-0.
 00006146,0.00002045,0.00016686,0.00034230,-0.00105883,-0.00004865,0.00
 033179,0.00007429,0.00040373,-0.00421645,-0.00382966,0.00104831,0.0007
 1683,0.00045196,0.00048127,0.00000248,-0.00000078,-0.00000421,0.000001
 26,-0.00000388,-0.00000342,-0.00000049,-0.00000053,0.00000416,0.007446
 17,-0.00504503,0.00482671,0.20566234,0.00019873,0.00015175,-0.00009445
 ,0.00000937,-0.00017693,-0.00007765,-0.00037780,0.00208634,-0.00080961
 ,-0.00003276,-0.00007003,-0.00003324,-0.01388575,0.00800895,-0.0104637
 8,0.00001862,0.00002022,0.00002409,0.08875993,-0.10253287,0.06205557,-
 0.00000046,0.00000200,0.00001056,-0.00000612,-0.00000359,-0.00001292,0
 .00001535,-0.00002997,0.00002368,0.00008902,-0.00015658,-0.00042453,-0
 .00000157,-0.00001476,0.00000396,-0.00005085,0.00001446,0.00010472,0.0
 0049127,-0.00003360,0.00051356,0.00017320,0.00020866,0.00019584,-0.003
 88602,-0.00143175,-0.00012979,0.00092746,0.00046117,0.00006355,-0.0000
 0903,-0.00000747,-0.00000134,-0.00000305,-0.00000015,-0.00000508,-0.00
 001339,-0.00000330,0.00000370,0.00175079,-0.00254767,0.00074090,-0.094
 89416,0.10879991,-0.00070320,-0.00042039,-0.00015255,-0.00043343,0.000
 25051,-0.00039918,-0.00017152,0.00015382,0.00013137,0.00024234,0.00029
 636,-0.00001806,0.00171558,-0.00167144,0.00098446,-0.00000621,-0.00006
 296,0.00000527,-0.09803461,0.06152307,-0.11693505,-0.00002269,-0.00004
 247,0.00008023,-0.00001848,0.00000687,0.00016876,0.00008654,0.00003838
 ,0.00004323,0.00037301,0.00025707,-0.00039160,0.00016915,-0.00018065,0
 .00008672,0.00012677,-0.00016198,0.00019687,-0.00015421,-0.00034120,-0
 .00008845,0.00016107,-0.00015198,0.00000552,0.00059579,0.00025454,0.00
 123162,-0.00008770,-0.00061623,0.00035347,0.00003169,0.00002521,-0.000
 02800,0.00001655,-0.00000848,-0.00000910,-0.00000355,0.00001606,0.0000
 2968,-0.02287832,0.01431980,-0.01498064,0.10831277,-0.06790305,0.12273
 629,-0.00067725,-0.00022684,-0.00012956,-0.00029033,0.00008743,0.00035
 672,-0.00556847,-0.00176423,0.00088165,0.00024426,0.00018827,0.0000145
 6,0.00489077,-0.02798695,-0.01218707,0.00001915,-0.00001438,-0.0000157
 9,-0.05201044,0.03649571,0.01480226,-0.00000978,-0.00002641,-0.0000036
 0,-0.00002782,0.00001913,0.00012886,0.00004361,0.00011196,0.00005802,0
 .00041845,0.00037721,0.00019222,0.00010832,0.00004352,-0.00005724,0.00
 004348,0.00011811,-0.00006596,0.00007545,-0.00009901,0.00020405,0.0000
 8951,-0.00181450,-0.00041079,0.00093764,0.00080995,-0.00043603,0.00137
 628,0.00065903,0.00023573,0.00001837,0.00000649,-0.00001500,-0.0000007
 2,0.00000012,-0.00000652,-0.00000054,0.00000536,0.00001466,-0.00233275
 ,0.00845601,0.00268232,-0.00331934,0.02072723,0.01068265,0.05597216,0.
 00014547,0.00028247,0.00004863,0.00000038,0.00022047,0.00035630,-0.004
 39089,-0.00005589,0.00098010,-0.00000967,-0.00007508,0.00006241,0.0035
 5331,-0.01515051,-0.00609288,-0.00001578,0.00000593,-0.00004752,0.0354
 2388,-0.26985623,-0.09554819,-0.00000068,0.00000973,-0.00002494,0.0000
 0387,-0.00000184,-0.00003448,-0.00001415,0.00000229,-0.00001316,-0.000
 08137,-0.00014898,-0.00001995,-0.00000097,0.00001796,-0.00009289,-0.00
 000462,0.00008361,-0.00008683,0.00004598,0.00044712,0.00006253,0.00003
 844,-0.00119117,-0.00060060,-0.00019086,0.00059528,-0.00024796,0.00033
 630,0.00035771,0.00058500,0.00000398,0.00000154,0.00001556,-0.00000116
 ,0.00000066,0.00000912,0.00002817,-0.00000627,-0.00002345,-0.00039157,
 0.00425890,0.00135197,0.00169516,-0.01274479,-0.00558088,-0.03617320,0
 .29294709,0.00020261,-0.00003750,0.00025523,0.00010503,0.00018208,0.00
 018359,0.00066254,0.00040480,0.00024935,-0.00004782,-0.00004984,0.0000
 6055,-0.00030653,0.00368372,0.00007018,-0.00002206,-0.00000223,-0.0000
 1830,0.01427353,-0.09598713,-0.08865844,-0.00000073,0.00002724,0.00004
 502,0.00001464,-0.00001389,-0.00005068,-0.00005145,-0.00021366,-0.0001
 1108,-0.00033469,-0.00014551,-0.00024963,-0.00007622,-0.00010798,0.000
 10542,0.00017780,0.00007240,0.00022746,0.00007591,-0.00028006,0.000022
 37,0.00020104,0.00007952,0.00026826,-0.00010674,-0.00028344,-0.0001597
 7,-0.00042629,0.00027820,0.00042267,-0.00000893,0.00000599,0.00001025,
 0.00000586,-0.00000767,0.00000474,0.00002183,-0.00000686,-0.00001970,0
 .00413767,-0.02875559,-0.01143147,-0.00157087,0.01621530,0.00694913,-0
 .01692612,0.10494212,0.09182483\\0.00000083,0.00000017,0.00000026,-0.0
 0000040,0.00000009,0.00000089,0.00000003,-0.00000072,0.00000057,-0.000
 00055,-0.00000053,-0.00000074,0.00000073,-0.00000018,0.00000021,-0.000
 00112,0.00000025,-0.00000079,-0.00000012,0.00000051,0.00000012,-0.0000
 0077,0.00000010,-0.00000038,-0.00000043,0.00000016,0.00000001,0.000000
 90,0.00000010,-0.00000033,-0.00000013,-0.00000003,-0.00000061,-0.00000
 041,0.00000006,0.00000079,-0.00000014,-0.00000034,0.00000051,0.0000008
 3,-0.00000009,0.00000030,0.00000054,-0.00000006,0.00000095,0.00000034,
 -0.00000035,0.00000082,0.00000079,-0.00000021,0.00000063,-0.00000053,0
 .00000035,-0.00000105,-0.00000040,0.00000058,-0.00000106,-0.00000104,0
 .00000036,-0.00000089,-0.00000009,0.00000004,-0.00000003,0.00000077,0.
 00000007,-0.00000012,0.00000037,-0.00000034,-0.00000007\\\@


 Everywhere is walking distance if you have the time.
                                    -- Steven Wright
 Job cpu time:       0 days  5 hours 18 minutes  9.4 seconds.
 Elapsed time:       0 days  2 hours 39 minutes  6.4 seconds.
 File lengths (MBytes):  RWF=   1488 Int=      0 D2E=      0 Chk=     32 Scr=     32
 Normal termination of Gaussian 16 at Sun Sep 29 23:34:45 2019.
