 Entering Gaussian System, Link 0=g16
 Input=verytight/species/CCCCCCC/conformers/CCCCCCC_423.com
 Output=verytight/species/CCCCCCC/conformers/CCCCCCC_423.log
 Initial command:
 /shared/centos7/gaussian/g16/l1.exe "/scratch/harms.n/gauss_scrdir/Gau-30811.inp" -scrdir="/scratch/harms.n/gauss_scrdir/"
 Entering Link 1 = /shared/centos7/gaussian/g16/l1.exe PID=     30813.
  
 Copyright (c) 1988,1990,1992,1993,1995,1998,2003,2009,2016,
            Gaussian, Inc.  All Rights Reserved.
  
 This is part of the Gaussian(R) 16 program.  It is based on
 the Gaussian(R) 09 system (copyright 2009, Gaussian, Inc.),
 the Gaussian(R) 03 system (copyright 2003, Gaussian, Inc.),
 the Gaussian(R) 98 system (copyright 1998, Gaussian, Inc.),
 the Gaussian(R) 94 system (copyright 1995, Gaussian, Inc.),
 the Gaussian 92(TM) system (copyright 1992, Gaussian, Inc.),
 the Gaussian 90(TM) system (copyright 1990, Gaussian, Inc.),
 the Gaussian 88(TM) system (copyright 1988, Gaussian, Inc.),
 the Gaussian 86(TM) system (copyright 1986, Carnegie Mellon
 University), and the Gaussian 82(TM) system (copyright 1983,
 Carnegie Mellon University). Gaussian is a federally registered
 trademark of Gaussian, Inc.
  
 This software contains proprietary and confidential information,
 including trade secrets, belonging to Gaussian, Inc.
  
 This software is provided under written license and may be
 used, copied, transmitted, or stored only in accord with that
 written license.
  
 The following legend is applicable only to US Government
 contracts under FAR:
  
                    RESTRICTED RIGHTS LEGEND
  
 Use, reproduction and disclosure by the US Government is
 subject to restrictions as set forth in subparagraphs (a)
 and (c) of the Commercial Computer Software - Restricted
 Rights clause in FAR 52.227-19.
  
 Gaussian, Inc.
 340 Quinnipiac St., Bldg. 40, Wallingford CT 06492
  
  
 ---------------------------------------------------------------
 Warning -- This program may not be used in any manner that
 competes with the business of Gaussian, Inc. or will provide
 assistance to any competitor of Gaussian, Inc.  The licensee
 of this program is prohibited from giving any competitor of
 Gaussian, Inc. access to this program.  By using this program,
 the user acknowledges that Gaussian, Inc. is engaged in the
 business of creating and licensing software in the field of
 computational chemistry and represents and warrants to the
 licensee that it is not a competitor of Gaussian, Inc. and that
 it will not use this program in any manner prohibited above.
 ---------------------------------------------------------------
  

 Cite this work as:
 Gaussian 16, Revision A.03,
 M. J. Frisch, G. W. Trucks, H. B. Schlegel, G. E. Scuseria, 
 M. A. Robb, J. R. Cheeseman, G. Scalmani, V. Barone, 
 G. A. Petersson, H. Nakatsuji, X. Li, M. Caricato, A. V. Marenich, 
 J. Bloino, B. G. Janesko, R. Gomperts, B. Mennucci, H. P. Hratchian, 
 J. V. Ortiz, A. F. Izmaylov, J. L. Sonnenberg, D. Williams-Young, 
 F. Ding, F. Lipparini, F. Egidi, J. Goings, B. Peng, A. Petrone, 
 T. Henderson, D. Ranasinghe, V. G. Zakrzewski, J. Gao, N. Rega, 
 G. Zheng, W. Liang, M. Hada, M. Ehara, K. Toyota, R. Fukuda, 
 J. Hasegawa, M. Ishida, T. Nakajima, Y. Honda, O. Kitao, H. Nakai, 
 T. Vreven, K. Throssell, J. A. Montgomery, Jr., J. E. Peralta, 
 F. Ogliaro, M. J. Bearpark, J. J. Heyd, E. N. Brothers, K. N. Kudin, 
 V. N. Staroverov, T. A. Keith, R. Kobayashi, J. Normand, 
 K. Raghavachari, A. P. Rendell, J. C. Burant, S. S. Iyengar, 
 J. Tomasi, M. Cossi, J. M. Millam, M. Klene, C. Adamo, R. Cammi, 
 J. W. Ochterski, R. L. Martin, K. Morokuma, O. Farkas, 
 J. B. Foresman, and D. J. Fox, Gaussian, Inc., Wallingford CT, 2016.
 
 ******************************************
 Gaussian 16:  EM64L-G16RevA.03 25-Dec-2016
                29-Sep-2019 
 ******************************************
 %nprocshared=20
 Will use up to   20 processors via shared memory.
 %mem=5GB
 ----------------------------------------------------------------------
 #p m062x/cc-pVTZ opt=(calcfc,maxcycles=900,Tight) freq IOP(7/33=1,2/16
 =3) scf=(maxcycle=900)
 ----------------------------------------------------------------------
 1/6=900,7=10,10=4,18=20,19=15,26=3,38=1/1,3;
 2/9=110,12=2,16=3,17=6,18=5,40=1/2;
 3/5=16,6=1,11=2,25=1,30=1,71=2,74=-55,140=1/1,2,3;
 4//1;
 5/5=2,7=900,38=5/2;
 8/6=4,10=90,11=11/1;
 11/6=1,8=1,9=11,15=111,16=1/1,2,10;
 10/6=1,13=1/2;
 6/7=2,8=2,9=2,10=2,28=1/1;
 7/10=1,18=20,25=1,33=1/1,2,3,16;
 1/6=900,7=10,10=4,18=20,19=15,26=3/3(2);
 2/9=110,16=3/2;
 99//99;
 2/9=110,16=3/2;
 3/5=16,6=1,11=2,25=1,30=1,71=1,74=-55/1,2,3;
 4/5=5,16=3,69=1/1;
 5/5=2,7=900,38=5/2;
 7/33=1/1,2,3,16;
 1/6=900,7=10,18=20,19=15,26=3/3(-5);
 2/9=110,16=3/2;
 6/7=2,8=2,9=2,10=2,19=2,28=1/1;
 99/9=1/99;
 Leave Link    1 at Sun Sep 29 12:42:22 2019, MaxMem=   671088640 cpu:               3.3 elap:               1.7
 (Enter /shared/centos7/gaussian/g16/l101.exe)
 ------------------------------
 Gaussian input prepared by ASE
 ------------------------------
 Symbolic Z-matrix:
 Charge =  0 Multiplicity = 1
 C                     1.34637  -0.96766   0.92938 
 C                     0.21171  -0.03625   0.67056 
 C                    -0.62109  -0.32848  -0.55257 
 C                     2.65444  -0.5415    0.35288 
 C                    -0.25808   0.45664  -1.79092 
 C                     3.02897   0.84542   0.67808 
 C                     0.81221  -0.16178  -2.65229 
 H                     2.62468  -0.66191  -0.76683 
 H                     3.4499   -1.24012   0.70633 
 H                     1.10109  -1.98439   0.55566 
 H                     1.46846  -1.07661   2.02659 
 H                     0.60091   0.99256   0.6181 
 H                    -0.46331  -0.057     1.55214 
 H                    -1.67277  -0.10047  -0.30944 
 H                    -0.59533  -1.41464  -0.77779 
 H                    -1.18029   0.57511  -2.41783 
 H                     0.0486    1.47776  -1.50719 
 H                     3.31651   0.95135   1.74109 
 H                     3.90282   1.19166   0.05036 
 H                     2.17562   1.53076   0.48937 
 H                     0.50826  -1.14401  -3.0162 
 H                     1.77694  -0.28184  -2.08596 
 H                     1.01964   0.49386  -3.54615 
 
 ITRead=  0  0  0  0  0  0  0  0  0  0  0  0  0  0  0  0  0  0  0  0
 ITRead=  0  0  0
 MicOpt= -1 -1 -1 -1 -1 -1 -1 -1 -1 -1 -1 -1 -1 -1 -1 -1 -1 -1 -1 -1
 MicOpt= -1 -1 -1
 NAtoms=     23 NQM=       23 NQMF=       0 NMMI=      0 NMMIF=      0
                NMic=       0 NMicF=      0.
                    Isotopes and Nuclear Properties:
 (Nuclear quadrupole moments (NQMom) in fm**2, nuclear magnetic moments (NMagM)
  in nuclear magnetons)

  Atom         1           2           3           4           5           6           7           8           9          10
 IAtWgt=          12          12          12          12          12          12          12           1           1           1
 AtmWgt=  12.0000000  12.0000000  12.0000000  12.0000000  12.0000000  12.0000000  12.0000000   1.0078250   1.0078250   1.0078250
 NucSpn=           0           0           0           0           0           0           0           1           1           1
 AtZEff=  -0.0000000  -0.0000000  -0.0000000  -0.0000000  -0.0000000  -0.0000000  -0.0000000  -0.0000000  -0.0000000  -0.0000000
 NQMom=    0.0000000   0.0000000   0.0000000   0.0000000   0.0000000   0.0000000   0.0000000   0.0000000   0.0000000   0.0000000
 NMagM=    0.0000000   0.0000000   0.0000000   0.0000000   0.0000000   0.0000000   0.0000000   2.7928460   2.7928460   2.7928460
 AtZNuc=   6.0000000   6.0000000   6.0000000   6.0000000   6.0000000   6.0000000   6.0000000   1.0000000   1.0000000   1.0000000

  Atom        11          12          13          14          15          16          17          18          19          20
 IAtWgt=           1           1           1           1           1           1           1           1           1           1
 AtmWgt=   1.0078250   1.0078250   1.0078250   1.0078250   1.0078250   1.0078250   1.0078250   1.0078250   1.0078250   1.0078250
 NucSpn=           1           1           1           1           1           1           1           1           1           1
 AtZEff=  -0.0000000  -0.0000000  -0.0000000  -0.0000000  -0.0000000  -0.0000000  -0.0000000  -0.0000000  -0.0000000  -0.0000000
 NQMom=    0.0000000   0.0000000   0.0000000   0.0000000   0.0000000   0.0000000   0.0000000   0.0000000   0.0000000   0.0000000
 NMagM=    2.7928460   2.7928460   2.7928460   2.7928460   2.7928460   2.7928460   2.7928460   2.7928460   2.7928460   2.7928460
 AtZNuc=   1.0000000   1.0000000   1.0000000   1.0000000   1.0000000   1.0000000   1.0000000   1.0000000   1.0000000   1.0000000

  Atom        21          22          23
 IAtWgt=           1           1           1
 AtmWgt=   1.0078250   1.0078250   1.0078250
 NucSpn=           1           1           1
 AtZEff=  -0.0000000  -0.0000000  -0.0000000
 NQMom=    0.0000000   0.0000000   0.0000000
 NMagM=    2.7928460   2.7928460   2.7928460
 AtZNuc=   1.0000000   1.0000000   1.0000000
 Leave Link  101 at Sun Sep 29 12:42:25 2019, MaxMem=   671088640 cpu:               5.5 elap:               2.8
 (Enter /shared/centos7/gaussian/g16/l103.exe)

 GradGradGradGradGradGradGradGradGradGradGradGradGradGradGradGradGradGrad
 Berny optimization.
 Initialization pass.
                           ----------------------------
                           !    Initial Parameters    !
                           ! (Angstroms and Degrees)  !
 --------------------------                            --------------------------
 ! Name  Definition              Value          Derivative Info.                !
 --------------------------------------------------------------------------------
 ! R1    R(1,2)                  1.4906         calculate D2E/DX2 analytically  !
 ! R2    R(1,4)                  1.4917         calculate D2E/DX2 analytically  !
 ! R3    R(1,10)                 1.1107         calculate D2E/DX2 analytically  !
 ! R4    R(1,11)                 1.1093         calculate D2E/DX2 analytically  !
 ! R5    R(2,3)                  1.5083         calculate D2E/DX2 analytically  !
 ! R6    R(2,12)                 1.1012         calculate D2E/DX2 analytically  !
 ! R7    R(2,13)                 1.1105         calculate D2E/DX2 analytically  !
 ! R8    R(3,5)                  1.5105         calculate D2E/DX2 analytically  !
 ! R9    R(3,14)                 1.1032         calculate D2E/DX2 analytically  !
 ! R10   R(3,15)                 1.1096         calculate D2E/DX2 analytically  !
 ! R11   R(4,6)                  1.473          calculate D2E/DX2 analytically  !
 ! R12   R(4,8)                  1.1266         calculate D2E/DX2 analytically  !
 ! R13   R(4,9)                  1.1161         calculate D2E/DX2 analytically  !
 ! R14   R(5,7)                  1.5066         calculate D2E/DX2 analytically  !
 ! R15   R(5,16)                 1.1214         calculate D2E/DX2 analytically  !
 ! R16   R(5,17)                 1.1033         calculate D2E/DX2 analytically  !
 ! R17   R(6,18)                 1.1063         calculate D2E/DX2 analytically  !
 ! R18   R(6,19)                 1.1303         calculate D2E/DX2 analytically  !
 ! R19   R(6,20)                 1.1106         calculate D2E/DX2 analytically  !
 ! R20   R(7,21)                 1.0907         calculate D2E/DX2 analytically  !
 ! R21   R(7,22)                 1.1251         calculate D2E/DX2 analytically  !
 ! R22   R(7,23)                 1.1278         calculate D2E/DX2 analytically  !
 ! A1    A(2,1,4)              114.9543         calculate D2E/DX2 analytically  !
 ! A2    A(2,1,10)             110.2105         calculate D2E/DX2 analytically  !
 ! A3    A(2,1,11)             108.474          calculate D2E/DX2 analytically  !
 ! A4    A(4,1,10)             108.9742         calculate D2E/DX2 analytically  !
 ! A5    A(4,1,11)             108.2887         calculate D2E/DX2 analytically  !
 ! A6    A(10,1,11)            105.4984         calculate D2E/DX2 analytically  !
 ! A7    A(1,2,3)              116.1062         calculate D2E/DX2 analytically  !
 ! A8    A(1,2,12)             108.8448         calculate D2E/DX2 analytically  !
 ! A9    A(1,2,13)             108.2504         calculate D2E/DX2 analytically  !
 ! A10   A(3,2,12)             109.7253         calculate D2E/DX2 analytically  !
 ! A11   A(3,2,13)             107.7291         calculate D2E/DX2 analytically  !
 ! A12   A(12,2,13)            105.6701         calculate D2E/DX2 analytically  !
 ! A13   A(2,3,5)              115.5578         calculate D2E/DX2 analytically  !
 ! A14   A(2,3,14)             107.9141         calculate D2E/DX2 analytically  !
 ! A15   A(2,3,15)             109.9645         calculate D2E/DX2 analytically  !
 ! A16   A(5,3,14)             107.5981         calculate D2E/DX2 analytically  !
 ! A17   A(5,3,15)             109.6826         calculate D2E/DX2 analytically  !
 ! A18   A(14,3,15)            105.6152         calculate D2E/DX2 analytically  !
 ! A19   A(1,4,6)              113.995          calculate D2E/DX2 analytically  !
 ! A20   A(1,4,8)              109.2952         calculate D2E/DX2 analytically  !
 ! A21   A(1,4,9)              108.8907         calculate D2E/DX2 analytically  !
 ! A22   A(6,4,8)              109.0745         calculate D2E/DX2 analytically  !
 ! A23   A(6,4,9)              109.7696         calculate D2E/DX2 analytically  !
 ! A24   A(8,4,9)              105.4668         calculate D2E/DX2 analytically  !
 ! A25   A(3,5,7)              115.2191         calculate D2E/DX2 analytically  !
 ! A26   A(3,5,16)             108.3966         calculate D2E/DX2 analytically  !
 ! A27   A(3,5,17)             109.6954         calculate D2E/DX2 analytically  !
 ! A28   A(7,5,16)             107.9359         calculate D2E/DX2 analytically  !
 ! A29   A(7,5,17)             109.2361         calculate D2E/DX2 analytically  !
 ! A30   A(16,5,17)            105.9376         calculate D2E/DX2 analytically  !
 ! A31   A(4,6,18)             111.6163         calculate D2E/DX2 analytically  !
 ! A32   A(4,6,19)             111.2481         calculate D2E/DX2 analytically  !
 ! A33   A(4,6,20)             110.3741         calculate D2E/DX2 analytically  !
 ! A34   A(18,6,19)            107.6597         calculate D2E/DX2 analytically  !
 ! A35   A(18,6,20)            107.6908         calculate D2E/DX2 analytically  !
 ! A36   A(19,6,20)            108.0978         calculate D2E/DX2 analytically  !
 ! A37   A(5,7,21)             111.2499         calculate D2E/DX2 analytically  !
 ! A38   A(5,7,22)             111.4165         calculate D2E/DX2 analytically  !
 ! A39   A(5,7,23)             110.1921         calculate D2E/DX2 analytically  !
 ! A40   A(21,7,22)            108.108          calculate D2E/DX2 analytically  !
 ! A41   A(21,7,23)            108.0813         calculate D2E/DX2 analytically  !
 ! A42   A(22,7,23)            107.6547         calculate D2E/DX2 analytically  !
 ! D1    D(4,1,2,3)             92.8499         calculate D2E/DX2 analytically  !
 ! D2    D(4,1,2,12)           -31.5102         calculate D2E/DX2 analytically  !
 ! D3    D(4,1,2,13)          -145.9073         calculate D2E/DX2 analytically  !
 ! D4    D(10,1,2,3)           -30.7548         calculate D2E/DX2 analytically  !
 ! D5    D(10,1,2,12)         -155.1148         calculate D2E/DX2 analytically  !
 ! D6    D(10,1,2,13)           90.488          calculate D2E/DX2 analytically  !
 ! D7    D(11,1,2,3)          -145.7919         calculate D2E/DX2 analytically  !
 ! D8    D(11,1,2,12)           89.8481         calculate D2E/DX2 analytically  !
 ! D9    D(11,1,2,13)          -24.5491         calculate D2E/DX2 analytically  !
 ! D10   D(2,1,4,6)             50.3949         calculate D2E/DX2 analytically  !
 ! D11   D(2,1,4,8)            -71.938          calculate D2E/DX2 analytically  !
 ! D12   D(2,1,4,9)            173.326          calculate D2E/DX2 analytically  !
 ! D13   D(10,1,4,6)           174.6536         calculate D2E/DX2 analytically  !
 ! D14   D(10,1,4,8)            52.3207         calculate D2E/DX2 analytically  !
 ! D15   D(10,1,4,9)           -62.4154         calculate D2E/DX2 analytically  !
 ! D16   D(11,1,4,6)           -71.0642         calculate D2E/DX2 analytically  !
 ! D17   D(11,1,4,8)           166.6029         calculate D2E/DX2 analytically  !
 ! D18   D(11,1,4,9)            51.8669         calculate D2E/DX2 analytically  !
 ! D19   D(1,2,3,5)            -96.6878         calculate D2E/DX2 analytically  !
 ! D20   D(1,2,3,14)           142.8615         calculate D2E/DX2 analytically  !
 ! D21   D(1,2,3,15)            28.1274         calculate D2E/DX2 analytically  !
 ! D22   D(12,2,3,5)            27.2177         calculate D2E/DX2 analytically  !
 ! D23   D(12,2,3,14)          -93.233          calculate D2E/DX2 analytically  !
 ! D24   D(12,2,3,15)          152.0329         calculate D2E/DX2 analytically  !
 ! D25   D(13,2,3,5)           141.7918         calculate D2E/DX2 analytically  !
 ! D26   D(13,2,3,14)           21.3412         calculate D2E/DX2 analytically  !
 ! D27   D(13,2,3,15)          -93.393          calculate D2E/DX2 analytically  !
 ! D28   D(2,3,5,7)             87.6894         calculate D2E/DX2 analytically  !
 ! D29   D(2,3,5,16)          -151.2884         calculate D2E/DX2 analytically  !
 ! D30   D(2,3,5,17)           -36.0483         calculate D2E/DX2 analytically  !
 ! D31   D(14,3,5,7)          -151.6885         calculate D2E/DX2 analytically  !
 ! D32   D(14,3,5,16)          -30.6663         calculate D2E/DX2 analytically  !
 ! D33   D(14,3,5,17)           84.5739         calculate D2E/DX2 analytically  !
 ! D34   D(15,3,5,7)           -37.2716         calculate D2E/DX2 analytically  !
 ! D35   D(15,3,5,16)           83.7506         calculate D2E/DX2 analytically  !
 ! D36   D(15,3,5,17)         -161.0092         calculate D2E/DX2 analytically  !
 ! D37   D(1,4,6,18)            71.756          calculate D2E/DX2 analytically  !
 ! D38   D(1,4,6,19)          -167.9661         calculate D2E/DX2 analytically  !
 ! D39   D(1,4,6,20)           -47.9695         calculate D2E/DX2 analytically  !
 ! D40   D(8,4,6,18)          -165.7901         calculate D2E/DX2 analytically  !
 ! D41   D(8,4,6,19)           -45.5122         calculate D2E/DX2 analytically  !
 ! D42   D(8,4,6,20)            74.4844         calculate D2E/DX2 analytically  !
 ! D43   D(9,4,6,18)           -50.6946         calculate D2E/DX2 analytically  !
 ! D44   D(9,4,6,19)            69.5833         calculate D2E/DX2 analytically  !
 ! D45   D(9,4,6,20)          -170.4201         calculate D2E/DX2 analytically  !
 ! D46   D(3,5,7,21)            60.4417         calculate D2E/DX2 analytically  !
 ! D47   D(3,5,7,22)           -60.2717         calculate D2E/DX2 analytically  !
 ! D48   D(3,5,7,23)          -179.7016         calculate D2E/DX2 analytically  !
 ! D49   D(16,5,7,21)          -60.8306         calculate D2E/DX2 analytically  !
 ! D50   D(16,5,7,22)          178.4559         calculate D2E/DX2 analytically  !
 ! D51   D(16,5,7,23)           59.0261         calculate D2E/DX2 analytically  !
 ! D52   D(17,5,7,21)         -175.5787         calculate D2E/DX2 analytically  !
 ! D53   D(17,5,7,22)           63.7078         calculate D2E/DX2 analytically  !
 ! D54   D(17,5,7,23)          -55.722          calculate D2E/DX2 analytically  !
 --------------------------------------------------------------------------------
 Trust Radius=3.00D-01 FncErr=1.00D-07 GrdErr=1.00D-06 EigMax=2.50D+02 EigMin=1.00D-04
 Number of steps in this run=    138 maximum allowed number of steps=    138.
 GradGradGradGradGradGradGradGradGradGradGradGradGradGradGradGradGradGrad

 Leave Link  103 at Sun Sep 29 12:42:26 2019, MaxMem=   671088640 cpu:               1.1 elap:               0.6
 (Enter /shared/centos7/gaussian/g16/l202.exe)
                          Input orientation:                          
 ---------------------------------------------------------------------
 Center     Atomic      Atomic             Coordinates (Angstroms)
 Number     Number       Type             X           Y           Z
 ---------------------------------------------------------------------
      1          6           0        1.346370   -0.967660    0.929383
      2          6           0        0.211709   -0.036253    0.670559
      3          6           0       -0.621089   -0.328475   -0.552566
      4          6           0        2.654444   -0.541502    0.352879
      5          6           0       -0.258081    0.456638   -1.790922
      6          6           0        3.028971    0.845423    0.678080
      7          6           0        0.812208   -0.161785   -2.652294
      8          1           0        2.624684   -0.661912   -0.766832
      9          1           0        3.449903   -1.240122    0.706335
     10          1           0        1.101093   -1.984392    0.555656
     11          1           0        1.468461   -1.076606    2.026592
     12          1           0        0.600906    0.992561    0.618097
     13          1           0       -0.463306   -0.057003    1.552137
     14          1           0       -1.672768   -0.100473   -0.309440
     15          1           0       -0.595325   -1.414641   -0.777789
     16          1           0       -1.180290    0.575108   -2.417833
     17          1           0        0.048602    1.477765   -1.507187
     18          1           0        3.316506    0.951350    1.741086
     19          1           0        3.902824    1.191663    0.050359
     20          1           0        2.175625    1.530755    0.489371
     21          1           0        0.508257   -1.144009   -3.016198
     22          1           0        1.776940   -0.281841   -2.085957
     23          1           0        1.019641    0.493862   -3.546152
 ---------------------------------------------------------------------
                    Distance matrix (angstroms):
                    1          2          3          4          5
     1  C    0.000000
     2  C    1.490625   0.000000
     3  C    2.544725   1.508304   0.000000
     4  C    1.491652   2.514588   3.405045   0.000000
     5  C    3.464527   2.553925   1.510531   3.751662   0.000000
     6  C    2.486276   2.952012   4.026843   1.472952   4.129387
     7  C    3.709875   3.379010   2.547740   3.545290   1.506627
     8  H    2.145859   2.877497   3.269882   1.126559   3.257338
     9  H    2.132800   3.454921   4.357627   1.116134   4.781677
    10  H    1.110665   2.144633   2.633653   2.129777   3.648617
    11  H    1.109344   2.121458   3.402643   2.119955   4.461525
    12  H    2.120160   1.101220   2.146826   2.576957   2.613130
    13  H    2.119445   1.110520   2.127996   3.375400   3.388508
    14  H    3.376668   2.125035   1.103233   4.399766   2.122852
    15  H    2.623816   2.156147   1.109570   3.549899   2.154497
    16  H    4.468556   3.442323   2.146715   4.860951   1.121392
    17  H    3.687977   2.657335   2.149951   3.785194   1.103295
    18  H    2.867560   3.429454   4.733229   2.143375   5.049505
    19  H    3.459887   3.939132   4.810419   2.157274   4.609090
    20  H    2.668961   2.518990   3.516245   2.131232   3.503768
    21  H    4.037468   3.860990   2.830194   4.039779   2.156536
    22  H    3.122181   3.179409   2.846754   2.604872   2.184882
    23  H    4.719451   4.326018   3.511380   4.352816   2.171357
                    6          7          8          9         10
     6  C    0.000000
     7  C    4.125518   0.000000
     8  H    2.126800   2.662736   0.000000
     9  H    2.127787   4.404615   1.784806   0.000000
    10  H    3.426303   3.700850   2.412313   2.468512   0.000000
    11  H    2.819197   4.812437   3.051564   2.386615   1.767113
    12  H    2.433259   3.474568   2.958206   3.620696   3.019326
    13  H    3.711381   4.394901   3.908863   4.174728   2.674910
    14  H    4.896556   3.415820   4.358040   5.345311   3.462924
    15  H    4.512535   2.657925   3.306838   4.312418   2.231709
    16  H    5.232172   2.137295   4.328261   5.873173   4.538433
    17  H    3.749380   2.140674   3.429656   4.884202   4.165283
    18  H    1.106291   5.178066   3.061191   2.427150   3.864179
    19  H    1.130281   4.322969   2.395242   2.559105   4.265249
    20  H    1.110627   3.820165   2.566611   3.057551   3.676312
    21  H    4.894848   1.090678   3.125913   4.745500   3.716966
    22  H    3.237006   1.125104   1.613448   3.393229   3.214586
    23  H    4.690964   1.127778   3.411246   5.195818   4.793037
                   11         12         13         14         15
    11  H    0.000000
    12  H    2.649143   0.000000
    13  H    2.235268   1.762544   0.000000
    14  H    4.034501   2.687869   2.220395   0.000000
    15  H    3.498291   3.028876   2.699845   1.762745   0.000000
    16  H    5.431110   3.544544   4.083416   2.268097   2.644055
    17  H    4.585674   2.248843   3.460784   2.624604   3.051667
    18  H    2.758512   2.938926   3.916562   5.495803   5.219681
    19  H    3.869970   3.356283   4.783053   5.734658   5.264219
    20  H    3.108289   1.669120   3.257975   4.255483   4.237832
    21  H    5.133836   4.216826   4.795331   3.629377   2.510301
    22  H    4.199985   3.212330   4.278432   3.884507   2.936355
    23  H    5.807176   4.214856   5.338084   4.251895   3.730192
                   16         17         18         19         20
    16  H    0.000000
    17  H    1.776018   0.000000
    18  H    6.136720   4.637627   0.000000
    19  H    5.684202   4.166873   1.805569   0.000000
    20  H    4.541724   2.917752   1.790003   1.814093   0.000000
    21  H    2.482860   3.059755   5.908346   5.136363   4.714181
    22  H    3.096726   2.533444   4.305495   3.354764   3.174393
    23  H    2.473742   2.463404   5.782714   4.662035   4.323991
                   21         22         23
    21  H    0.000000
    22  H    1.793946   0.000000
    23  H    1.795825   1.818623   0.000000
 Stoichiometry    C7H16
 Framework group  C1[X(C7H16)]
 Deg. of freedom    63
 Full point group                 C1      NOp   1
 Largest Abelian subgroup         C1      NOp   1
 Largest concise Abelian subgroup C1      NOp   1
                         Standard orientation:                         
 ---------------------------------------------------------------------
 Center     Atomic      Atomic             Coordinates (Angstroms)
 Number     Number       Type             X           Y           Z
 ---------------------------------------------------------------------
      1          6           0        1.126353    0.889466    0.678592
      2          6           0        0.134808    1.273539   -0.366057
      3          6           0       -1.317077    1.079614   -0.006331
      4          6           0        1.638230   -0.507918    0.576965
      5          6           0       -1.943890   -0.204518   -0.496039
      6          6           0        2.122204   -0.872385   -0.765614
      7          6           0       -1.793539   -1.385270    0.427620
      8          1           0        0.825171   -1.225341    0.882537
      9          1           0        2.455525   -0.648600    1.323954
     10          1           0        0.696392    1.043828    1.690957
     11          1           0        1.990435    1.582234    0.614731
     12          1           0        0.364450    0.725359   -1.293122
     13          1           0        0.282766    2.347238   -0.607996
     14          1           0       -1.889111    1.916911   -0.440884
     15          1           0       -1.449983    1.165269    1.091915
     16          1           0       -3.039836   -0.026072   -0.652821
     17          1           0       -1.534345   -0.463854   -1.487138
     18          1           0        3.077198   -0.368031   -1.005393
     19          1           0        2.291882   -1.986561   -0.851385
     20          1           0        1.380819   -0.575871   -1.537573
     21          1           0       -2.258231   -1.191922    1.395222
     22          1           0       -0.710459   -1.634118    0.603324
     23          1           0       -2.285206   -2.295634   -0.021140
 ---------------------------------------------------------------------
 Rotational constants (GHZ):           3.3429850           1.6587048           1.3567881
 Leave Link  202 at Sun Sep 29 12:42:27 2019, MaxMem=   671088640 cpu:               3.6 elap:               1.8
 (Enter /shared/centos7/gaussian/g16/l301.exe)
 Standard basis: CC-pVTZ (5D, 7F)
 Ernie: Thresh=  0.10000D-02 Tol=  0.10000D-05 Strict=F.
 Ernie:  21 primitive shells out of 310 were deleted.
 There are   485 symmetry adapted cartesian basis functions of A   symmetry.
 There are   434 symmetry adapted basis functions of A   symmetry.
   434 basis functions,   636 primitive gaussians,   485 cartesian basis functions
    29 alpha electrons       29 beta electrons
       nuclear repulsion energy       333.7369258538 Hartrees.
 IExCor= 4336 DFT=T Ex+Corr=M062X ExCW=0 ScaHFX=  0.540000
 ScaDFX=  1.000000  1.000000  1.000000  1.000000 ScalE2=  1.000000  1.000000
 IRadAn=      5 IRanWt=     -1 IRanGd=            0 ICorTp=0 IEmpDi=  4
 NAtoms=   23 NActive=   23 NUniq=   23 SFac= 1.00D+00 NAtFMM=   60 NAOKFM=F Big=F
 Integral buffers will be    131072 words long.
 Raffenetti 2 integral format.
 Two-electron integral symmetry is turned on.
 Leave Link  301 at Sun Sep 29 12:42:28 2019, MaxMem=   671088640 cpu:               2.0 elap:               1.0
 (Enter /shared/centos7/gaussian/g16/l302.exe)
 NPDir=0 NMtPBC=     1 NCelOv=     1 NCel=       1 NClECP=     1 NCelD=      1
         NCelK=      1 NCelE2=     1 NClLst=     1 CellRange=     0.0.
 One-electron integrals computed using PRISM.
 One-electron integral symmetry used in STVInt
 NBasis=   434 RedAO= T EigKep=  3.30D-04  NBF=   434
 NBsUse=   434 1.00D-06 EigRej= -1.00D+00 NBFU=   434
 Precomputing XC quadrature grid using
 IXCGrd= 4 IRadAn=           5 IRanWt=          -1 IRanGd=           0 AccXCQ= 0.00D+00.
 Generated NRdTot=       0 NPtTot=           0 NUsed=           0 NTot=          32
 NSgBfM=   485   485   485   485   485 MxSgAt=    23 MxSgA2=    23.
 Leave Link  302 at Sun Sep 29 12:44:01 2019, MaxMem=   671088640 cpu:             184.6 elap:              92.3
 (Enter /shared/centos7/gaussian/g16/l303.exe)
 DipDrv:  MaxL=1.
 Leave Link  303 at Sun Sep 29 12:44:08 2019, MaxMem=   671088640 cpu:              15.2 elap:               7.7
 (Enter /shared/centos7/gaussian/g16/l401.exe)
 ExpMin= 1.03D-01 ExpMax= 8.24D+03 ExpMxC= 2.81D+02 IAcc=3 IRadAn=         5 AccDes= 0.00D+00
 Harris functional with IExCor= 1009 and IRadAn=       5 diagonalized for initial guess.
 HarFok:  IExCor= 1009 AccDes= 0.00D+00 IRadAn=         5 IDoV= 1 UseB2=F ITyADJ=14
 ICtDFT=  3500011 ScaDFX=  1.000000  1.000000  1.000000  1.000000
 FoFCou: FMM=F IPFlag=           0 FMFlag=      100000 FMFlg1=           0
         NFxFlg=           0 DoJE=T BraDBF=F KetDBF=T FulRan=T
         wScrn=  0.000000 ICntrl=       500 IOpCl=  0 I1Cent=   200000004 NGrid=           0
         NMat0=    1 NMatS0=      1 NMatT0=    0 NMatD0=    1 NMtDS0=    0 NMtDT0=    0
 Petite list used in FoFCou.
 Harris En= -276.318571899442    
 JPrj=0 DoOrth=F DoCkMO=F.
 Leave Link  401 at Sun Sep 29 12:45:17 2019, MaxMem=   671088640 cpu:             134.6 elap:              69.0
 (Enter /shared/centos7/gaussian/g16/l502.exe)
 Integral symmetry usage will be decided dynamically.
 Closed shell SCF:
 Using DIIS extrapolation, IDIIS=  1040.
 NGot=   671088640 LenX=   670604095 LenY=   670368385
 Requested convergence on RMS density matrix=1.00D-08 within 900 cycles.
 Requested convergence on MAX density matrix=1.00D-06.
 Requested convergence on             energy=1.00D-06.
 No special actions if energy rises.
 Fock matrices will be formed incrementally for  20 cycles.
 Integral accuracy reduced to 1.0D-05 until final iterations.

 Cycle   1  Pass 0  IDiag  1:
 FoFJK:  IHMeth= 1 ICntrl=       0 DoSepK=F KAlg= 0 I1Cent=           0 FoldK=F
 IRaf= 960000000 NMat=       1 IRICut=       1 DoRegI=T DoRafI=F ISym2E= 0 IDoP0=0 IntGTp=1.
 FoFCou: FMM=F IPFlag=           0 FMFlag=      100000 FMFlg1=           0
         NFxFlg=           0 DoJE=F BraDBF=F KetDBF=F FulRan=T
         wScrn=  0.000000 ICntrl=         0 IOpCl=  0 I1Cent=           0 NGrid=           0
         NMat0=    1 NMatS0=      1 NMatT0=    0 NMatD0=    1 NMtDS0=    0 NMtDT0=    0
 Symmetry not used in FoFCou.
 E= -275.951328328384    
 DIIS: error= 2.71D-02 at cycle   1 NSaved=   1.
 NSaved= 1 IEnMin= 1 EnMin= -275.951328328384     IErMin= 1 ErrMin= 2.71D-02
 ErrMax= 2.71D-02  0.00D+00 EMaxC= 1.00D-01 BMatC= 3.75D-01 BMatP= 3.75D-01
 IDIUse=3 WtCom= 7.29D-01 WtEn= 2.71D-01
 Coeff-Com:  0.100D+01
 Coeff-En:   0.100D+01
 Coeff:      0.100D+01
 Gap=     0.370 Goal=   None    Shift=    0.000
 GapD=    0.370 DampG=1.000 DampE=0.500 DampFc=0.5000 IDamp=-1.
 Damping current iteration by 5.00D-01
 RMSDP=1.90D-03 MaxDP=6.36D-02              OVMax= 1.65D-01

 Cycle   2  Pass 0  IDiag  1:
 RMSU=  9.50D-04    CP:  9.90D-01
 E= -276.127487168524     Delta-E=       -0.176158840141 Rises=F Damp=T
 DIIS: error= 4.07D-03 at cycle   2 NSaved=   2.
 NSaved= 2 IEnMin= 2 EnMin= -276.127487168524     IErMin= 2 ErrMin= 4.07D-03
 ErrMax= 4.07D-03  0.00D+00 EMaxC= 1.00D-01 BMatC= 1.95D-02 BMatP= 3.75D-01
 IDIUse=3 WtCom= 9.59D-01 WtEn= 4.07D-02
 Coeff-Com: -0.427D-01 0.104D+01
 Coeff-En:   0.000D+00 0.100D+01
 Coeff:     -0.409D-01 0.104D+01
 Gap=     0.449 Goal=   None    Shift=    0.000
 RMSDP=5.45D-04 MaxDP=2.04D-02 DE=-1.76D-01 OVMax= 9.32D-02

 Cycle   3  Pass 0  IDiag  1:
 RMSU=  5.38D-04    CP:  9.98D-01  9.29D-01
 E= -276.306997614358     Delta-E=       -0.179510445834 Rises=F Damp=F
 DIIS: error= 2.87D-03 at cycle   3 NSaved=   3.
 NSaved= 3 IEnMin= 3 EnMin= -276.306997614358     IErMin= 3 ErrMin= 2.87D-03
 ErrMax= 2.87D-03  0.00D+00 EMaxC= 1.00D-01 BMatC= 3.61D-03 BMatP= 1.95D-02
 IDIUse=3 WtCom= 9.71D-01 WtEn= 2.87D-02
 Coeff-Com: -0.532D-01 0.275D+00 0.778D+00
 Coeff-En:   0.000D+00 0.000D+00 0.100D+01
 Coeff:     -0.517D-01 0.267D+00 0.785D+00
 Gap=     0.418 Goal=   None    Shift=    0.000
 RMSDP=1.13D-04 MaxDP=3.43D-03 DE=-1.80D-01 OVMax= 1.28D-02

 Cycle   4  Pass 0  IDiag  1:
 RMSU=  9.07D-05    CP:  9.96D-01  9.76D-01  9.08D-01
 E= -276.310147005956     Delta-E=       -0.003149391598 Rises=F Damp=F
 DIIS: error= 8.41D-04 at cycle   4 NSaved=   4.
 NSaved= 4 IEnMin= 4 EnMin= -276.310147005956     IErMin= 4 ErrMin= 8.41D-04
 ErrMax= 8.41D-04  0.00D+00 EMaxC= 1.00D-01 BMatC= 3.12D-04 BMatP= 3.61D-03
 IDIUse=3 WtCom= 9.92D-01 WtEn= 8.41D-03
 Coeff-Com: -0.137D-01 0.375D-01 0.262D+00 0.715D+00
 Coeff-En:   0.000D+00 0.000D+00 0.000D+00 0.100D+01
 Coeff:     -0.136D-01 0.372D-01 0.259D+00 0.717D+00
 Gap=     0.419 Goal=   None    Shift=    0.000
 RMSDP=3.40D-05 MaxDP=1.18D-03 DE=-3.15D-03 OVMax= 3.05D-03

 Cycle   5  Pass 0  IDiag  1:
 RMSU=  1.91D-05    CP:  9.96D-01  9.71D-01  9.44D-01  7.80D-01
 E= -276.310437711062     Delta-E=       -0.000290705106 Rises=F Damp=F
 DIIS: error= 1.34D-04 at cycle   5 NSaved=   5.
 NSaved= 5 IEnMin= 5 EnMin= -276.310437711062     IErMin= 5 ErrMin= 1.34D-04
 ErrMax= 1.34D-04  0.00D+00 EMaxC= 1.00D-01 BMatC= 1.70D-05 BMatP= 3.12D-04
 IDIUse=3 WtCom= 9.99D-01 WtEn= 1.34D-03
 Coeff-Com: -0.186D-02 0.135D-02 0.528D-01 0.249D+00 0.698D+00
 Coeff-En:   0.000D+00 0.000D+00 0.000D+00 0.000D+00 0.100D+01
 Coeff:     -0.186D-02 0.135D-02 0.528D-01 0.249D+00 0.699D+00
 Gap=     0.419 Goal=   None    Shift=    0.000
 RMSDP=6.49D-06 MaxDP=3.14D-04 DE=-2.91D-04 OVMax= 7.24D-04

 Initial convergence to 1.0D-05 achieved.  Increase integral accuracy.
 Cycle   6  Pass 1  IDiag  1:
 E= -276.310382957477     Delta-E=        0.000054753585 Rises=F Damp=F
 DIIS: error= 4.73D-05 at cycle   1 NSaved=   1.
 NSaved= 1 IEnMin= 1 EnMin= -276.310382957477     IErMin= 1 ErrMin= 4.73D-05
 ErrMax= 4.73D-05  0.00D+00 EMaxC= 1.00D-01 BMatC= 1.92D-06 BMatP= 1.92D-06
 IDIUse=1 WtCom= 1.00D+00 WtEn= 0.00D+00
 Coeff-Com:  0.100D+01
 Coeff:      0.100D+01
 Gap=     0.419 Goal=   None    Shift=    0.000
 RMSDP=6.49D-06 MaxDP=3.14D-04 DE= 5.48D-05 OVMax= 2.81D-04

 Cycle   7  Pass 1  IDiag  1:
 RMSU=  1.08D-05    CP:  1.00D+00
 E= -276.310383719138     Delta-E=       -0.000000761661 Rises=F Damp=F
 DIIS: error= 2.45D-05 at cycle   2 NSaved=   2.
 NSaved= 2 IEnMin= 2 EnMin= -276.310383719138     IErMin= 2 ErrMin= 2.45D-05
 ErrMax= 2.45D-05  0.00D+00 EMaxC= 1.00D-01 BMatC= 5.45D-07 BMatP= 1.92D-06
 IDIUse=1 WtCom= 1.00D+00 WtEn= 0.00D+00
 Coeff-Com:  0.307D+00 0.693D+00
 Coeff:      0.307D+00 0.693D+00
 Gap=     0.419 Goal=   None    Shift=    0.000
 RMSDP=1.44D-06 MaxDP=5.79D-05 DE=-7.62D-07 OVMax= 1.63D-04

 Cycle   8  Pass 1  IDiag  1:
 RMSU=  1.44D-06    CP:  1.00D+00  9.90D-01
 E= -276.310384190204     Delta-E=       -0.000000471066 Rises=F Damp=F
 DIIS: error= 8.66D-06 at cycle   3 NSaved=   3.
 NSaved= 3 IEnMin= 3 EnMin= -276.310384190204     IErMin= 3 ErrMin= 8.66D-06
 ErrMax= 8.66D-06  0.00D+00 EMaxC= 1.00D-01 BMatC= 6.80D-08 BMatP= 5.45D-07
 IDIUse=1 WtCom= 1.00D+00 WtEn= 0.00D+00
 Coeff-Com: -0.527D-02 0.251D+00 0.754D+00
 Coeff:     -0.527D-02 0.251D+00 0.754D+00
 Gap=     0.419 Goal=   None    Shift=    0.000
 RMSDP=4.43D-07 MaxDP=1.70D-05 DE=-4.71D-07 OVMax= 4.38D-05

 Cycle   9  Pass 1  IDiag  1:
 RMSU=  2.90D-07    CP:  1.00D+00  1.01D+00  8.07D-01
 E= -276.310384255668     Delta-E=       -0.000000065463 Rises=F Damp=F
 DIIS: error= 2.40D-06 at cycle   4 NSaved=   4.
 NSaved= 4 IEnMin= 4 EnMin= -276.310384255668     IErMin= 4 ErrMin= 2.40D-06
 ErrMax= 2.40D-06  0.00D+00 EMaxC= 1.00D-01 BMatC= 2.02D-09 BMatP= 6.80D-08
 IDIUse=1 WtCom= 1.00D+00 WtEn= 0.00D+00
 Coeff-Com: -0.105D-01 0.692D-01 0.263D+00 0.678D+00
 Coeff:     -0.105D-01 0.692D-01 0.263D+00 0.678D+00
 Gap=     0.419 Goal=   None    Shift=    0.000
 RMSDP=8.98D-08 MaxDP=3.67D-06 DE=-6.55D-08 OVMax= 8.85D-06

 Cycle  10  Pass 1  IDiag  1:
 RMSU=  8.33D-08    CP:  1.00D+00  1.01D+00  8.05D-01  9.03D-01
 E= -276.310384257679     Delta-E=       -0.000000002011 Rises=F Damp=F
 DIIS: error= 3.90D-07 at cycle   5 NSaved=   5.
 NSaved= 5 IEnMin= 5 EnMin= -276.310384257679     IErMin= 5 ErrMin= 3.90D-07
 ErrMax= 3.90D-07  0.00D+00 EMaxC= 1.00D-01 BMatC= 8.30D-11 BMatP= 2.02D-09
 IDIUse=1 WtCom= 1.00D+00 WtEn= 0.00D+00
 Coeff-Com: -0.832D-03-0.145D-01-0.366D-01 0.817D-01 0.970D+00
 Coeff:     -0.832D-03-0.145D-01-0.366D-01 0.817D-01 0.970D+00
 Gap=     0.419 Goal=   None    Shift=    0.000
 RMSDP=3.34D-08 MaxDP=7.79D-07 DE=-2.01D-09 OVMax= 2.92D-06

 Cycle  11  Pass 1  IDiag  1:
 RMSU=  1.83D-08    CP:  1.00D+00  1.01D+00  8.06D-01  9.93D-01  1.10D+00
 E= -276.310384257768     Delta-E=       -0.000000000089 Rises=F Damp=F
 DIIS: error= 1.50D-07 at cycle   6 NSaved=   6.
 NSaved= 6 IEnMin= 6 EnMin= -276.310384257768     IErMin= 6 ErrMin= 1.50D-07
 ErrMax= 1.50D-07  0.00D+00 EMaxC= 1.00D-01 BMatC= 2.11D-11 BMatP= 8.30D-11
 IDIUse=1 WtCom= 1.00D+00 WtEn= 0.00D+00
 Coeff-Com:  0.334D-03-0.115D-01-0.352D-01-0.120D-01 0.435D+00 0.623D+00
 Coeff:      0.334D-03-0.115D-01-0.352D-01-0.120D-01 0.435D+00 0.623D+00
 Gap=     0.419 Goal=   None    Shift=    0.000
 RMSDP=7.25D-09 MaxDP=2.79D-07 DE=-8.86D-11 OVMax= 7.17D-07

 SCF Done:  E(RM062X) =  -276.310384258     A.U. after   11 cycles
            NFock= 11  Conv=0.72D-08     -V/T= 2.0065
 KE= 2.745226360646D+02 PE=-1.305902506906D+03 EE= 4.213325607298D+02
 Leave Link  502 at Sun Sep 29 13:06:21 2019, MaxMem=   671088640 cpu:            2515.8 elap:            1263.8
 (Enter /shared/centos7/gaussian/g16/l801.exe)
 DoSCS=F DFT=T ScalE2(SS,OS)=  1.000000  1.000000
 Range of M.O.s used for correlation:     1   434
 NBasis=   434 NAE=    29 NBE=    29 NFC=     0 NFV=     0
 NROrb=    434 NOA=    29 NOB=    29 NVA=   405 NVB=   405

 **** Warning!!: The largest alpha MO coefficient is  0.11738554D+02

 Leave Link  801 at Sun Sep 29 13:06:22 2019, MaxMem=   671088640 cpu:               2.3 elap:               1.2
 (Enter /shared/centos7/gaussian/g16/l1101.exe)
 Using compressed storage, NAtomX=    23.
 Will process     24 centers per pass.
 Leave Link 1101 at Sun Sep 29 13:07:24 2019, MaxMem=   671088640 cpu:             123.5 elap:              61.8
 (Enter /shared/centos7/gaussian/g16/l1102.exe)
 Symmetrizing basis deriv contribution to polar:
 IMax=3 JMax=2 DiffMx= 0.00D+00
 Leave Link 1102 at Sun Sep 29 13:07:27 2019, MaxMem=   671088640 cpu:               5.5 elap:               2.8
 (Enter /shared/centos7/gaussian/g16/l1110.exe)
 Forming Gx(P) for the SCF density, NAtomX=    23.
 Integral derivatives from FoFJK, PRISM(SPDF).
 Do as many integral derivatives as possible in FoFJK.
 G2DrvN: MDV=     671086848.
 G2DrvN: will do    24 centers at a time, making    1 passes.
 Calling FoFCou, ICntrl=  3107 FMM=F I1Cent=   0 AccDes= 0.00D+00.
 FoFJK:  IHMeth= 1 ICntrl=    3107 DoSepK=F KAlg= 0 I1Cent=           0 FoldK=F
 IRaf=         0 NMat=       1 IRICut=       1 DoRegI=T DoRafI=F ISym2E= 0 IDoP0=0 IntGTp=1.
 FoFCou: FMM=F IPFlag=           0 FMFlag=      100000 FMFlg1=           0
         NFxFlg=           0 DoJE=F BraDBF=F KetDBF=F FulRan=T
         wScrn=  0.000000 ICntrl=      3107 IOpCl=  0 I1Cent=           0 NGrid=           0
         NMat0=    1 NMatS0=      1 NMatT0=    0 NMatD0=    1 NMtDS0=    0 NMtDT0=    0
 Symmetry not used in FoFCou.
 End of G2Drv F.D. properties file   721 does not exist.
 End of G2Drv F.D. properties file   722 does not exist.
 End of G2Drv F.D. properties file   788 does not exist.
 Leave Link 1110 at Sun Sep 29 13:56:30 2019, MaxMem=   671088640 cpu:            5885.6 elap:            2943.4
 (Enter /shared/centos7/gaussian/g16/l1002.exe)
 Minotr:  Closed shell wavefunction.
          IDoAtm=11111111111111111111111
          Direct CPHF calculation.
          Differentiating once with respect to nuclear coordinates.
          Requested convergence is 1.0D-08 RMS, and 1.0D-07 maximum.
          Secondary convergence is 1.0D-12 RMS, and 1.0D-12 maximum.
          NewPWx=T KeepS1=F KeepF1=F KeepIn=T MapXYZ=F SortEE=F KeepMc=T.
         6911 words used for storage of precomputed grid.
 Two-electron integrals replicated using symmetry.
          MDV=     671088640 using IRadAn=       1.
          Solving linear equations simultaneously, MaxMat=     380.
 FoF2E skips out because all densities are zero.
 CalDSu exits because no D1Ps are significant.
 FoFJK:  IHMeth= 1 ICntrl=       0 DoSepK=F KAlg= 0 I1Cent=           0 FoldK=F
 IRaf= 940000000 NMat=      69 IRICut=     172 DoRegI=T DoRafI=T ISym2E= 2 IDoP0=3 IntGTp=3.
 FoFCou: FMM=F IPFlag=           0 FMFlag=      100000 FMFlg1=           0
         NFxFlg=           0 DoJE=F BraDBF=F KetDBF=F FulRan=T
         wScrn=  0.000000 ICntrl=         0 IOpCl=  0 I1Cent=           0 NGrid=           0
         NMat0=   69 NMatS0=     69 NMatT0=    0 NMatD0=   69 NMtDS0=    0 NMtDT0=    0
 Integrals replicated using symmetry in FoFCou.
 Raff kept on since  91.22% of shell-pairs survive, threshold=   0.20 IRatSp=91.
          There are    72 degrees of freedom in the 1st order CPHF.  IDoFFX=6 NUNeed=     0.
     66 vectors produced by pass  0 Test12= 1.63D-14 1.39D-09 XBig12= 5.59D-02 3.99D-02.
 AX will form    66 AO Fock derivatives at one time.
     66 vectors produced by pass  1 Test12= 1.63D-14 1.39D-09 XBig12= 3.28D-03 6.72D-03.
     66 vectors produced by pass  2 Test12= 1.63D-14 1.39D-09 XBig12= 4.70D-05 9.56D-04.
     66 vectors produced by pass  3 Test12= 1.63D-14 1.39D-09 XBig12= 3.54D-07 6.27D-05.
     66 vectors produced by pass  4 Test12= 1.63D-14 1.39D-09 XBig12= 1.88D-09 5.10D-06.
     66 vectors produced by pass  5 Test12= 1.63D-14 1.39D-09 XBig12= 8.79D-12 2.90D-07.
     25 vectors produced by pass  6 Test12= 1.63D-14 1.39D-09 XBig12= 3.00D-14 1.61D-08.
 InvSVY:  IOpt=1 It=  1 EMax= 2.22D-16
 Solved reduced A of dimension   421 with    72 vectors.
 End of Minotr F.D. properties file   721 does not exist.
 End of Minotr F.D. properties file   722 does not exist.
 End of Minotr F.D. properties file   788 does not exist.
 Leave Link 1002 at Sun Sep 29 15:23:48 2019, MaxMem=   671088640 cpu:           10327.8 elap:            5237.1
 (Enter /shared/centos7/gaussian/g16/l601.exe)
 Copying SCF densities to generalized density rwf, IOpCl= 0 IROHF=0.

 **********************************************************************

            Population analysis using the SCF density.

 **********************************************************************

 Orbital symmetries:
       Occupied  (A) (A) (A) (A) (A) (A) (A) (A) (A) (A) (A) (A)
                 (A) (A) (A) (A) (A) (A) (A) (A) (A) (A) (A) (A)
                 (A) (A) (A) (A) (A)
       Virtual   (A) (A) (A) (A) (A) (A) (A) (A) (A) (A) (A) (A)
                 (A) (A) (A) (A) (A) (A) (A) (A) (A) (A) (A) (A)
                 (A) (A) (A) (A) (A) (A) (A) (A) (A) (A) (A) (A)
                 (A) (A) (A) (A) (A) (A) (A) (A) (A) (A) (A) (A)
                 (A) (A) (A) (A) (A) (A) (A) (A) (A) (A) (A) (A)
                 (A) (A) (A) (A) (A) (A) (A) (A) (A) (A) (A) (A)
                 (A) (A) (A) (A) (A) (A) (A) (A) (A) (A) (A) (A)
                 (A) (A) (A) (A) (A) (A) (A) (A) (A) (A) (A) (A)
                 (A) (A) (A) (A) (A) (A) (A) (A) (A) (A) (A) (A)
                 (A) (A) (A) (A) (A) (A) (A) (A) (A) (A) (A) (A)
                 (A) (A) (A) (A) (A) (A) (A) (A) (A) (A) (A) (A)
                 (A) (A) (A) (A) (A) (A) (A) (A) (A) (A) (A) (A)
                 (A) (A) (A) (A) (A) (A) (A) (A) (A) (A) (A) (A)
                 (A) (A) (A) (A) (A) (A) (A) (A) (A) (A) (A) (A)
                 (A) (A) (A) (A) (A) (A) (A) (A) (A) (A) (A) (A)
                 (A) (A) (A) (A) (A) (A) (A) (A) (A) (A) (A) (A)
                 (A) (A) (A) (A) (A) (A) (A) (A) (A) (A) (A) (A)
                 (A) (A) (A) (A) (A) (A) (A) (A) (A) (A) (A) (A)
                 (A) (A) (A) (A) (A) (A) (A) (A) (A) (A) (A) (A)
                 (A) (A) (A) (A) (A) (A) (A) (A) (A) (A) (A) (A)
                 (A) (A) (A) (A) (A) (A) (A) (A) (A) (A) (A) (A)
                 (A) (A) (A) (A) (A) (A) (A) (A) (A) (A) (A) (A)
                 (A) (A) (A) (A) (A) (A) (A) (A) (A) (A) (A) (A)
                 (A) (A) (A) (A) (A) (A) (A) (A) (A) (A) (A) (A)
                 (A) (A) (A) (A) (A) (A) (A) (A) (A) (A) (A) (A)
                 (A) (A) (A) (A) (A) (A) (A) (A) (A) (A) (A) (A)
                 (A) (A) (A) (A) (A) (A) (A) (A) (A) (A) (A) (A)
                 (A) (A) (A) (A) (A) (A) (A) (A) (A) (A) (A) (A)
                 (A) (A) (A) (A) (A) (A) (A) (A) (A) (A) (A) (A)
                 (A) (A) (A) (A) (A) (A) (A) (A) (A) (A) (A) (A)
                 (A) (A) (A) (A) (A) (A) (A) (A) (A) (A) (A) (A)
                 (A) (A) (A) (A) (A) (A) (A) (A) (A) (A) (A) (A)
                 (A) (A) (A) (A) (A) (A) (A) (A) (A) (A) (A) (A)
                 (A) (A) (A) (A) (A) (A) (A) (A) (A)
 The electronic state is 1-A.
 Alpha  occ. eigenvalues --  -10.52787 -10.52506 -10.52402 -10.52378 -10.52318
 Alpha  occ. eigenvalues --  -10.52256 -10.52031  -0.92370  -0.88116  -0.82701
 Alpha  occ. eigenvalues --   -0.76599  -0.70904  -0.65919  -0.62599  -0.55242
 Alpha  occ. eigenvalues --   -0.52979  -0.51184  -0.50097  -0.47953  -0.47355
 Alpha  occ. eigenvalues --   -0.44393  -0.43557  -0.42230  -0.40046  -0.38721
 Alpha  occ. eigenvalues --   -0.37301  -0.36653  -0.35930  -0.35573
 Alpha virt. eigenvalues --    0.06304   0.08053   0.08623   0.08727   0.11400
 Alpha virt. eigenvalues --    0.12522   0.12910   0.13358   0.13962   0.15748
 Alpha virt. eigenvalues --    0.16174   0.16635   0.16995   0.18448   0.19010
 Alpha virt. eigenvalues --    0.20961   0.23051   0.23967   0.25609   0.27004
 Alpha virt. eigenvalues --    0.28223   0.28649   0.29624   0.30092   0.31679
 Alpha virt. eigenvalues --    0.32279   0.32599   0.33940   0.36167   0.37069
 Alpha virt. eigenvalues --    0.38645   0.40140   0.40993   0.43479   0.43540
 Alpha virt. eigenvalues --    0.44706   0.45780   0.46794   0.47492   0.47957
 Alpha virt. eigenvalues --    0.48477   0.49403   0.49985   0.51504   0.51999
 Alpha virt. eigenvalues --    0.52103   0.52761   0.53205   0.54185   0.55220
 Alpha virt. eigenvalues --    0.55509   0.56061   0.56388   0.56765   0.58191
 Alpha virt. eigenvalues --    0.58540   0.58859   0.59805   0.63078   0.64104
 Alpha virt. eigenvalues --    0.64519   0.65671   0.71263   0.74470   0.76627
 Alpha virt. eigenvalues --    0.78720   0.79511   0.81280   0.81966   0.84481
 Alpha virt. eigenvalues --    0.84810   0.86507   0.88561   0.90731   0.92346
 Alpha virt. eigenvalues --    0.94838   0.95768   0.97037   0.97693   0.97965
 Alpha virt. eigenvalues --    0.99695   1.00749   1.03813   1.04660   1.05395
 Alpha virt. eigenvalues --    1.06485   1.08140   1.09105   1.09476   1.10703
 Alpha virt. eigenvalues --    1.12023   1.12614   1.13554   1.15538   1.15853
 Alpha virt. eigenvalues --    1.17126   1.18204   1.18777   1.19255   1.20362
 Alpha virt. eigenvalues --    1.21455   1.22269   1.22997   1.24085   1.24899
 Alpha virt. eigenvalues --    1.25259   1.25372   1.26118   1.27310   1.27539
 Alpha virt. eigenvalues --    1.28333   1.29788   1.30332   1.30744   1.32376
 Alpha virt. eigenvalues --    1.34454   1.35263   1.36617   1.37187   1.39667
 Alpha virt. eigenvalues --    1.40992   1.43025   1.43646   1.44215   1.44917
 Alpha virt. eigenvalues --    1.46460   1.47200   1.48744   1.50507   1.51170
 Alpha virt. eigenvalues --    1.52253   1.52397   1.53307   1.54010   1.56750
 Alpha virt. eigenvalues --    1.57915   1.58559   1.62652   1.65046   1.66569
 Alpha virt. eigenvalues --    1.68818   1.70222   1.72978   1.74692   1.77766
 Alpha virt. eigenvalues --    1.78939   1.82487   1.89785   2.07120   2.23901
 Alpha virt. eigenvalues --    2.25917   2.27503   2.31661   2.34420   2.35272
 Alpha virt. eigenvalues --    2.37478   2.38484   2.39812   2.42391   2.43548
 Alpha virt. eigenvalues --    2.47376   2.48537   2.50163   2.51954   2.52296
 Alpha virt. eigenvalues --    2.54943   2.56768   2.58054   2.59565   2.60299
 Alpha virt. eigenvalues --    2.62509   2.64040   2.64984   2.65670   2.66734
 Alpha virt. eigenvalues --    2.68282   2.69149   2.70290   2.71579   2.74127
 Alpha virt. eigenvalues --    2.74480   2.74624   2.77053   2.78253   2.79458
 Alpha virt. eigenvalues --    2.81670   2.82561   2.83036   2.83737   2.84619
 Alpha virt. eigenvalues --    2.85886   2.87285   2.89587   2.90907   2.92028
 Alpha virt. eigenvalues --    2.93530   2.95481   2.97399   2.97933   2.99480
 Alpha virt. eigenvalues --    3.00112   3.01218   3.02105   3.03662   3.05031
 Alpha virt. eigenvalues --    3.05970   3.06880   3.07830   3.08138   3.09157
 Alpha virt. eigenvalues --    3.09499   3.10308   3.10912   3.11976   3.13934
 Alpha virt. eigenvalues --    3.15182   3.16157   3.16881   3.17557   3.18731
 Alpha virt. eigenvalues --    3.19099   3.20218   3.21175   3.22952   3.24268
 Alpha virt. eigenvalues --    3.26224   3.27430   3.28449   3.29702   3.30890
 Alpha virt. eigenvalues --    3.32413   3.33657   3.35953   3.36008   3.36617
 Alpha virt. eigenvalues --    3.38863   3.39825   3.40058   3.41428   3.43833
 Alpha virt. eigenvalues --    3.44121   3.44582   3.46744   3.46977   3.47983
 Alpha virt. eigenvalues --    3.49010   3.50563   3.52088   3.52769   3.55206
 Alpha virt. eigenvalues --    3.55522   3.57615   3.58024   3.58824   3.60472
 Alpha virt. eigenvalues --    3.61737   3.62720   3.65369   3.66007   3.69178
 Alpha virt. eigenvalues --    3.70455   3.71291   3.71394   3.73429   3.74626
 Alpha virt. eigenvalues --    3.77144   3.77314   3.78723   3.79081   3.79887
 Alpha virt. eigenvalues --    3.80875   3.82206   3.83015   3.84818   3.85450
 Alpha virt. eigenvalues --    3.86891   3.88234   3.89578   3.91279   3.92156
 Alpha virt. eigenvalues --    3.92340   3.93854   3.94411   3.96434   3.97153
 Alpha virt. eigenvalues --    3.97719   3.99259   4.00328   4.00929   4.01432
 Alpha virt. eigenvalues --    4.03183   4.04838   4.05422   4.06667   4.07931
 Alpha virt. eigenvalues --    4.08735   4.09114   4.09950   4.11422   4.12213
 Alpha virt. eigenvalues --    4.12570   4.14815   4.16110   4.17578   4.18319
 Alpha virt. eigenvalues --    4.19670   4.20297   4.22466   4.23288   4.23755
 Alpha virt. eigenvalues --    4.24453   4.26306   4.27020   4.28285   4.29120
 Alpha virt. eigenvalues --    4.30443   4.31218   4.32661   4.34238   4.35833
 Alpha virt. eigenvalues --    4.37219   4.40052   4.40409   4.42106   4.42909
 Alpha virt. eigenvalues --    4.45904   4.48668   4.52271   4.54075   4.57161
 Alpha virt. eigenvalues --    4.61834   4.62782   4.64147   4.66053   4.66992
 Alpha virt. eigenvalues --    4.69046   4.70021   4.73730   4.75135   4.75212
 Alpha virt. eigenvalues --    4.77197   4.79025   4.79904   4.80199   4.82129
 Alpha virt. eigenvalues --    4.82788   4.82890   4.87452   4.87634   4.91852
 Alpha virt. eigenvalues --    4.93120   4.94101   4.95865   4.98324   4.99658
 Alpha virt. eigenvalues --    5.01640   5.03650   5.06382   5.08104   5.09279
 Alpha virt. eigenvalues --    5.10680   5.13075   5.14044   5.15788   5.18163
 Alpha virt. eigenvalues --    5.19914   5.24673   5.25645   5.26331   5.27741
 Alpha virt. eigenvalues --    5.28960   5.30870   5.32382   5.34069   5.34541
 Alpha virt. eigenvalues --    5.36268   5.37659   5.39207   5.44471   5.45228
 Alpha virt. eigenvalues --    5.48170   5.49761   5.51722   5.53472   5.54744
 Alpha virt. eigenvalues --    5.57164   5.65692   5.69299   5.74596   5.81723
 Alpha virt. eigenvalues --    5.83521   5.84582   5.87063   5.93601   5.96067
 Alpha virt. eigenvalues --    6.01879   6.03568   6.11513  11.53653  12.26863
 Alpha virt. eigenvalues --   12.55724  13.13596  13.28608  13.50396  13.76753
          Condensed to atoms (all electrons):
               1          2          3          4          5          6
     1  C    5.094788   0.286960  -0.047828   0.316240   0.004765  -0.058690
     2  C    0.286960   5.144875   0.301792  -0.044445  -0.043114  -0.017450
     3  C   -0.047828   0.301792   5.099518   0.009197   0.303654  -0.001270
     4  C    0.316240  -0.044445   0.009197   5.121687   0.000231   0.303872
     5  C    0.004765  -0.043114   0.303654   0.000231   5.050451   0.000580
     6  C   -0.058690  -0.017450  -0.001270   0.303872   0.000580   4.998857
     7  C    0.000261   0.005418  -0.054131  -0.009355   0.308695   0.000322
     8  H   -0.045318  -0.003256   0.003219   0.409942  -0.001624  -0.050999
     9  H   -0.044493   0.010234  -0.000899   0.417314   0.000111  -0.039516
    10  H    0.418042  -0.049386  -0.011605  -0.047395   0.000607   0.008953
    11  H    0.419847  -0.054434   0.008928  -0.045779  -0.000597  -0.003172
    12  H   -0.045663   0.415585  -0.049621  -0.011799  -0.010814  -0.011205
    13  H   -0.044256   0.418961  -0.045776   0.007407   0.008122   0.001405
    14  H    0.007970  -0.046847   0.419247  -0.000477  -0.046153  -0.000095
    15  H   -0.008921  -0.048862   0.404138  -0.000521  -0.043965   0.000054
    16  H   -0.000629   0.007914  -0.044770  -0.000044   0.413716   0.000012
    17  H    0.000746  -0.007300  -0.052105  -0.000647   0.409325  -0.000136
    18  H    0.002164  -0.001562   0.000148  -0.048668  -0.000004   0.405971
    19  H    0.008556   0.000354   0.000050  -0.040069  -0.000119   0.402366
    20  H   -0.010602  -0.002051  -0.001446  -0.045870   0.001483   0.411527
    21  H   -0.000007  -0.000112  -0.004984   0.000179  -0.043773   0.000025
    22  H   -0.002163   0.002792  -0.000598  -0.008708  -0.043726  -0.000609
    23  H    0.000028  -0.000741   0.008598   0.000367  -0.037877  -0.000002
               7          8          9         10         11         12
     1  C    0.000261  -0.045318  -0.044493   0.418042   0.419847  -0.045663
     2  C    0.005418  -0.003256   0.010234  -0.049386  -0.054434   0.415585
     3  C   -0.054131   0.003219  -0.000899  -0.011605   0.008928  -0.049621
     4  C   -0.009355   0.409942   0.417314  -0.047395  -0.045779  -0.011799
     5  C    0.308695  -0.001624   0.000111   0.000607  -0.000597  -0.010814
     6  C    0.000322  -0.050999  -0.039516   0.008953  -0.003172  -0.011205
     7  C    5.014254  -0.016360   0.000671   0.000121  -0.000118   0.000041
     8  H   -0.016360   0.596328  -0.034146  -0.008436   0.009420   0.001107
     9  H    0.000671  -0.034146   0.580245  -0.005062  -0.010607  -0.000129
    10  H    0.000121  -0.008436  -0.005062   0.576762  -0.027708   0.007433
    11  H   -0.000118   0.009420  -0.010607  -0.027708   0.585456   0.002270
    12  H    0.000041   0.001107  -0.000129   0.007433   0.002270   0.591902
    13  H   -0.000403  -0.000449  -0.000412   0.001883  -0.017803  -0.034021
    14  H    0.008412  -0.000049   0.000027   0.000781  -0.000500   0.002926
    15  H   -0.007400   0.000403  -0.000217   0.004479   0.000505   0.007279
    16  H   -0.042799   0.000041   0.000003  -0.000067   0.000033   0.000618
    17  H   -0.043093  -0.000119  -0.000022   0.000144  -0.000078   0.002637
    18  H   -0.000100   0.009702  -0.011125  -0.000153   0.004007   0.001483
    19  H    0.000259  -0.010458  -0.002969  -0.000388  -0.000264   0.000413
    20  H    0.000136  -0.004832   0.008374  -0.000417  -0.000294  -0.012087
    21  H    0.408136   0.000723  -0.000061   0.000080  -0.000001   0.000067
    22  H    0.397982  -0.010148   0.001698  -0.000256   0.000051  -0.000037
    23  H    0.405611   0.001249  -0.000027  -0.000009   0.000000  -0.000080
              13         14         15         16         17         18
     1  C   -0.044256   0.007970  -0.008921  -0.000629   0.000746   0.002164
     2  C    0.418961  -0.046847  -0.048862   0.007914  -0.007300  -0.001562
     3  C   -0.045776   0.419247   0.404138  -0.044770  -0.052105   0.000148
     4  C    0.007407  -0.000477  -0.000521  -0.000044  -0.000647  -0.048668
     5  C    0.008122  -0.046153  -0.043965   0.413716   0.409325  -0.000004
     6  C    0.001405  -0.000095   0.000054   0.000012  -0.000136   0.405971
     7  C   -0.000403   0.008412  -0.007400  -0.042799  -0.043093  -0.000100
     8  H   -0.000449  -0.000049   0.000403   0.000041  -0.000119   0.009702
     9  H   -0.000412   0.000027  -0.000217   0.000003  -0.000022  -0.011125
    10  H    0.001883   0.000781   0.004479  -0.000067   0.000144  -0.000153
    11  H   -0.017803  -0.000500   0.000505   0.000033  -0.000078   0.004007
    12  H   -0.034021   0.002926   0.007279   0.000618   0.002637   0.001483
    13  H    0.591103  -0.017714   0.002770  -0.000534   0.000856  -0.000270
    14  H   -0.017714   0.591573  -0.031055  -0.014621   0.000550   0.000004
    15  H    0.002770  -0.031055   0.586483   0.000120   0.007514   0.000006
    16  H   -0.000534  -0.014621   0.000120   0.603099  -0.033752  -0.000001
    17  H    0.000856   0.000550   0.007514  -0.033752   0.592066   0.000005
    18  H   -0.000270   0.000004   0.000006  -0.000001   0.000005   0.584866
    19  H   -0.000004   0.000001   0.000017   0.000001   0.000080  -0.027699
    20  H    0.000946  -0.000043  -0.000170   0.000040  -0.000116  -0.038354
    21  H   -0.000016   0.000214   0.003464  -0.007485   0.008123   0.000002
    22  H   -0.000012  -0.000285  -0.000483   0.008445  -0.005868  -0.000131
    23  H    0.000033  -0.000549   0.000358  -0.006946  -0.005344   0.000004
              19         20         21         22         23
     1  C    0.008556  -0.010602  -0.000007  -0.002163   0.000028
     2  C    0.000354  -0.002051  -0.000112   0.002792  -0.000741
     3  C    0.000050  -0.001446  -0.004984  -0.000598   0.008598
     4  C   -0.040069  -0.045870   0.000179  -0.008708   0.000367
     5  C   -0.000119   0.001483  -0.043773  -0.043726  -0.037877
     6  C    0.402366   0.411527   0.000025  -0.000609  -0.000002
     7  C    0.000259   0.000136   0.408136   0.397982   0.405611
     8  H   -0.010458  -0.004832   0.000723  -0.010148   0.001249
     9  H   -0.002969   0.008374  -0.000061   0.001698  -0.000027
    10  H   -0.000388  -0.000417   0.000080  -0.000256  -0.000009
    11  H   -0.000264  -0.000294  -0.000001   0.000051   0.000000
    12  H    0.000413  -0.012087   0.000067  -0.000037  -0.000080
    13  H   -0.000004   0.000946  -0.000016  -0.000012   0.000033
    14  H    0.000001  -0.000043   0.000214  -0.000285  -0.000549
    15  H    0.000017  -0.000170   0.003464  -0.000483   0.000358
    16  H    0.000001   0.000040  -0.007485   0.008445  -0.006946
    17  H    0.000080  -0.000116   0.008123  -0.005868  -0.005344
    18  H   -0.027699  -0.038354   0.000002  -0.000131   0.000004
    19  H    0.594490  -0.033114  -0.000004   0.000332  -0.000014
    20  H   -0.033114   0.612821  -0.000008   0.000384  -0.000014
    21  H   -0.000004  -0.000008   0.583327  -0.039208  -0.028602
    22  H    0.000332   0.000384  -0.039208   0.604659  -0.031019
    23  H   -0.000014  -0.000014  -0.028602  -0.031019   0.585029
 Mulliken charges:
               1
     1  C   -0.251799
     2  C   -0.275324
     3  C   -0.243457
     4  C   -0.282660
     5  C   -0.229977
     6  C   -0.350800
     7  C   -0.376560
     8  H    0.154058
     9  H    0.131008
    10  H    0.131597
    11  H    0.130839
    12  H    0.141696
    13  H    0.128184
    14  H    0.126681
    15  H    0.124003
    16  H    0.117606
    17  H    0.126534
    18  H    0.119703
    19  H    0.108185
    20  H    0.113708
    21  H    0.119921
    22  H    0.126909
    23  H    0.109946
 Sum of Mulliken charges =  -0.00000
 Mulliken charges with hydrogens summed into heavy atoms:
               1
     1  C    0.010637
     2  C   -0.005444
     3  C    0.007227
     4  C    0.002406
     5  C    0.014162
     6  C   -0.009205
     7  C   -0.019784
 APT charges:
               1
     1  C   -0.800893
     2  C   -0.615913
     3  C   -0.756897
     4  C   -0.614950
     5  C   -0.750083
     6  C   -1.145960
     7  C   -1.059732
     8  H    0.232156
     9  H    0.497488
    10  H    0.312192
    11  H    0.453561
    12  H    0.253856
    13  H    0.450268
    14  H    0.467086
    15  H    0.292902
    16  H    0.514787
    17  H    0.254683
    18  H    0.468006
    19  H    0.411377
    20  H    0.135860
    21  H    0.379180
    22  H    0.129108
    23  H    0.491920
 Sum of APT charges =  -0.00000
 APT charges with hydrogens summed into heavy atoms:
               1
     1  C   -0.035140
     2  C    0.088211
     3  C    0.003092
     4  C    0.114694
     5  C    0.019386
     6  C   -0.130718
     7  C   -0.059525
 Electronic spatial extent (au):  <R**2>=           1035.1551
 Charge=             -0.0000 electrons
 Dipole moment (field-independent basis, Debye):
    X=              0.0094    Y=              0.1329    Z=             -0.0002  Tot=              0.1333
 Quadrupole moment (field-independent basis, Debye-Ang):
   XX=            -48.9118   YY=            -49.3534   ZZ=            -49.3329
   XY=              0.0276   XZ=              0.1833   YZ=              0.0475
 Traceless Quadrupole moment (field-independent basis, Debye-Ang):
   XX=              0.2876   YY=             -0.1540   ZZ=             -0.1335
   XY=              0.0276   XZ=              0.1833   YZ=              0.0475
 Octapole moment (field-independent basis, Debye-Ang**2):
  XXX=              0.5563  YYY=              1.4298  ZZZ=              1.2513  XYY=              0.2835
  XXY=              1.3976  XXZ=              1.0644  XZZ=             -1.1649  YZZ=              0.6626
  YYZ=             -1.3332  XYZ=             -0.6752
 Hexadecapole moment (field-independent basis, Debye-Ang**3):
 XXXX=           -851.7632 YYYY=           -402.2078 ZZZZ=           -203.8056 XXXY=              2.7613
 XXXZ=              3.5734 YYYX=             -1.6176 YYYZ=              0.2083 ZZZX=              0.1676
 ZZZY=              0.6956 XXYY=           -210.8952 XXZZ=           -179.8207 YYZZ=           -105.3465
 XXYZ=             -1.5028 YYXZ=              2.8810 ZZXY=              0.1263
 N-N= 3.337369258538D+02 E-N=-1.305902431685D+03  KE= 2.745226360646D+02
  Exact polarizability:   0.000   0.000   0.000   0.000   0.000   0.000
 Approx polarizability: 100.829   0.361  98.943   0.019   0.184  97.910
 No NMR shielding tensors so no spin-rotation constants.
 Leave Link  601 at Sun Sep 29 15:24:12 2019, MaxMem=   671088640 cpu:              48.2 elap:              24.2
 (Enter /shared/centos7/gaussian/g16/l701.exe)
 SCFChk:  SCF convergence  7.25D-09 required  1.00D-08
 ... and contract with generalized density number  0.
 Compute integral second derivatives.
 Entering OneElI...
 Calculate overlap and kinetic energy integrals
    NBasis = 485  MinDer = 2  MaxDer = 2
 Requested accuracy = 0.1000D-12
 PrmmSu-InSpLW:  IPartL=    0 NPrtUS=   20 NPrtUL=    1 DoSpLW=F IThBeg=    0 IThEnd=   19 NThAct=   20.
 PrsmSu:  NPrtUS=  20 ThrOK=T IAlg=1 NPAlg=1 LenDen=           0 ISkipM=0 DoSpLW=F IThBeg=    0 IThEnd=   19.
 Prism:   IPart=     0 DynPar=F LinDyn=F Incr=           6.
 PRISM was handed    33195827 working-precision words and 13780 shell-pairs
 PRISM was handed    33195827 working-precision words and 13780 shell-pairs
 PRISM was handed    33195827 working-precision words and 13780 shell-pairs
 PRISM was handed    33195827 working-precision words and 13780 shell-pairs
 PRISM was handed    33195827 working-precision words and 13780 shell-pairs
 PRISM was handed    33195827 working-precision words and 13780 shell-pairs
 PRISM was handed    33195827 working-precision words and 13780 shell-pairs
 PRISM was handed    33195827 working-precision words and 13780 shell-pairs
 PRISM was handed    33195827 working-precision words and 13780 shell-pairs
 PRISM was handed    33195827 working-precision words and 13780 shell-pairs
 PRISM was handed    33195827 working-precision words and 13780 shell-pairs
 PRISM was handed    33195827 working-precision words and 13780 shell-pairs
 PRISM was handed    33195827 working-precision words and 13780 shell-pairs
 PRISM was handed    33195827 working-precision words and 13780 shell-pairs
 PRISM was handed    33195827 working-precision words and 13780 shell-pairs
 PRISM was handed    33195827 working-precision words and 13780 shell-pairs
 PRISM was handed    33195827 working-precision words and 13780 shell-pairs
 PRISM was handed    33195827 working-precision words and 13780 shell-pairs
 IPart=  0 NShTot=         723 NBatch=          79 AvBLen=         9.2
 IPart=  8 NShTot=         693 NBatch=          60 AvBLen=        11.6
 IPart= 16 NShTot=         667 NBatch=          50 AvBLen=        13.3
 PRISM was handed    33195827 working-precision words and 13780 shell-pairs
 IPart= 19 NShTot=         659 NBatch=          47 AvBLen=        14.0
 PRISM was handed    33195827 working-precision words and 13780 shell-pairs
 IPart=  6 NShTot=         705 NBatch=          70 AvBLen=        10.1
 IPart= 12 NShTot=         674 NBatch=          53 AvBLen=        12.7
 IPart= 10 NShTot=         682 NBatch=          57 AvBLen=        12.0
 IPart=  5 NShTot=         709 NBatch=          72 AvBLen=         9.8
 IPart= 14 NShTot=         671 NBatch=          52 AvBLen=        12.9
 IPart=  7 NShTot=         696 NBatch=          62 AvBLen=        11.2
 IPart= 17 NShTot=         666 NBatch=          50 AvBLen=        13.3
 IPart=  2 NShTot=         716 NBatch=          75 AvBLen=         9.5
 IPart= 18 NShTot=         662 NBatch=          48 AvBLen=        13.8
 IPart=  4 NShTot=         711 NBatch=          73 AvBLen=         9.7
 IPart=  9 NShTot=         687 NBatch=          58 AvBLen=        11.8
 IPart= 11 NShTot=         680 NBatch=          56 AvBLen=        12.1
 IPart=  3 NShTot=         716 NBatch=          75 AvBLen=         9.5
 IPart=  1 NShTot=         721 NBatch=          78 AvBLen=         9.2
 IPart= 13 NShTot=         673 NBatch=          52 AvBLen=        12.9
 IPart= 15 NShTot=         669 NBatch=          52 AvBLen=        12.9
 PrSmSu:  NxtVal=            121.
 Entering OneElI...
 Calculate potential energy integrals
    NBasis = 485  MinDer = 2  MaxDer = 2
 Requested accuracy = 0.1000D-12
 PrmmSu-InSpLW:  IPartL=    0 NPrtUS=   20 NPrtUL=    1 DoSpLW=F IThBeg=    0 IThEnd=   19 NThAct=   20.
 PrsmSu:  NPrtUS=  20 ThrOK=T IAlg=1 NPAlg=1 LenDen=           0 ISkipM=0 DoSpLW=F IThBeg=    0 IThEnd=   19.
 Prism:   IPart=     0 DynPar=F LinDyn=F Incr=         145.
 PRISM was handed    33258479 working-precision words and 12630 shell-pairs
 PRISM was handed    33258479 working-precision words and 12630 shell-pairs
 PRISM was handed    33258479 working-precision words and 12630 shell-pairs
 PRISM was handed    33258479 working-precision words and 12630 shell-pairs
 PRISM was handed    33258479 working-precision words and 12630 shell-pairs
 PRISM was handed    33258479 working-precision words and 12630 shell-pairs
 PRISM was handed    33258479 working-precision words and 12630 shell-pairs
 PRISM was handed    33258479 working-precision words and 12630 shell-pairs
 PRISM was handed    33258479 working-precision words and 12630 shell-pairs
 PRISM was handed    33258479 working-precision words and 12630 shell-pairs
 PRISM was handed    33258479 working-precision words and 12630 shell-pairs
 PRISM was handed    33258479 working-precision words and 12630 shell-pairs
 PRISM was handed    33258479 working-precision words and 12630 shell-pairs
 PRISM was handed    33258479 working-precision words and 12630 shell-pairs
 PRISM was handed    33258479 working-precision words and 12630 shell-pairs
 PRISM was handed    33258479 working-precision words and 12630 shell-pairs
 PRISM was handed    33258479 working-precision words and 12630 shell-pairs
 PRISM was handed    33258479 working-precision words and 12630 shell-pairs
 PRISM was handed    33258479 working-precision words and 12630 shell-pairs
 PRISM was handed    33258479 working-precision words and 12630 shell-pairs
 IPart= 18 NShTot=       13984 NBatch=         609 AvBLen=        23.0
 IPart=  0 NShTot=       15226 NBatch=         664 AvBLen=        22.9
 IPart= 10 NShTot=       14467 NBatch=         630 AvBLen=        23.0
 IPart= 16 NShTot=       14076 NBatch=         613 AvBLen=        23.0
 IPart=  1 NShTot=       15180 NBatch=         662 AvBLen=        22.9
 IPart= 12 NShTot=       14329 NBatch=         624 AvBLen=        23.0
 IPart=  9 NShTot=       14467 NBatch=         630 AvBLen=        23.0
 IPart=  4 NShTot=       14973 NBatch=         653 AvBLen=        22.9
 IPart= 11 NShTot=       14421 NBatch=         628 AvBLen=        23.0
 IPart= 14 NShTot=       14214 NBatch=         619 AvBLen=        23.0
 IPart=  6 NShTot=       14720 NBatch=         642 AvBLen=        22.9
 IPart=  5 NShTot=       14881 NBatch=         649 AvBLen=        22.9
 IPart= 17 NShTot=       14053 NBatch=         612 AvBLen=        23.0
 IPart=  7 NShTot=       14582 NBatch=         636 AvBLen=        22.9
 IPart= 13 NShTot=       14260 NBatch=         621 AvBLen=        23.0
 IPart=  8 NShTot=       14490 NBatch=         631 AvBLen=        23.0
 IPart=  3 NShTot=       14996 NBatch=         654 AvBLen=        22.9
 IPart= 15 NShTot=       14168 NBatch=         617 AvBLen=        23.0
 IPart=  2 NShTot=       15134 NBatch=         660 AvBLen=        22.9
 IPart= 19 NShTot=       13869 NBatch=         604 AvBLen=        23.0
 PrSmSu:  NxtVal=           2901.
 Polarizability after L701:
                1             2             3 
      1  0.000000D+00
      2  0.000000D+00  0.000000D+00
      3  0.000000D+00  0.000000D+00  0.000000D+00
 Dipole Derivatives after L701:
                 1             2             3             4             5 
      1  -0.870612D+00 -0.755568D+00 -0.328133D+00 -0.125795D-01 -0.100138D+00
      2  -0.513019D+00 -0.674713D+00 -0.564264D+00 -0.237953D+00 -0.111810D+01
      3   0.970027D-01 -0.410871D+00 -0.857354D+00  0.182540D+00  0.230064D-01
                 6             7             8             9            10 
      1   0.223547D+00 -0.694177D+00  0.901489D+00  0.367331D+00 -0.707120D+00
      2   0.688233D+00  0.682458D+00 -0.916516D+00 -0.192852D+00 -0.187340D+00
      3  -0.717062D+00 -0.722441D-01  0.158630D+00 -0.659997D+00 -0.237756D+00
                11            12            13            14            15 
      1   0.511787D+00 -0.106753D+01 -0.140764D+01 -0.252969D-01 -0.959276D+00
      2  -0.548319D+00  0.493161D+00  0.435532D-01 -0.411621D-01 -0.256038D+00
      3   0.465754D+00 -0.589412D+00 -0.592181D-01 -0.174194D+00 -0.801447D+00
                16            17            18            19            20 
      1  -0.142376D+01  0.298394D+00  0.104857D+01 -0.908036D+00 -0.877727D+00
      2   0.140764D+00 -0.104819D+01 -0.411897D+00 -0.351700D-01 -0.134317D+01
      3   0.245619D-01 -0.463687D-01 -0.965931D+00  0.676830D-01 -0.511573D-01
                21            22            23            24            25 
      1   0.695413D+00 -0.232425D-01 -0.181665D+00  0.546213D-01  0.861090D+00
      2   0.224967D+00  0.400649D+00  0.481014D+00 -0.743485D-01 -0.192909D+00
      3  -0.927995D+00 -0.280325D+00 -0.190122D+00  0.238698D+00  0.385551D+00
                26            27            28            29            30 
      1  -0.838684D-01  0.570178D+00  0.440180D-01  0.116422D-01  0.211503D+00
      2   0.167104D+00 -0.142436D+00 -0.166423D+00  0.172720D+00  0.342581D+00
      3  -0.358398D-01  0.464270D+00 -0.263901D+00  0.572089D-01  0.719838D+00
                31            32            33            34            35 
      1   0.715176D+00  0.462594D+00 -0.309825D-01  0.199599D+00 -0.110373D+00
      2   0.430188D+00  0.535726D+00 -0.721417D-01  0.506535D-01  0.109705D-01
      3   0.181612D+00  0.105422D+00  0.109780D+00 -0.143335D+00  0.336939D+00
                36            37            38            39            40 
      1  -0.119157D+00  0.202511D+00  0.960210D-01  0.334982D-02  0.519877D+00
      2  -0.181527D+00  0.104703D+00  0.992658D+00 -0.186059D+00 -0.330896D+00
      3   0.550997D+00 -0.244776D-02 -0.215027D+00  0.155634D+00  0.100573D+00
                41            42            43            44            45 
      1  -0.495709D+00  0.291965D+00  0.178404D+00 -0.334520D-01 -0.502770D+00
      2   0.691304D+00 -0.305165D+00 -0.367425D-01  0.144288D+00  0.403919D+00
      3  -0.149173D+00  0.190078D+00 -0.357629D-01  0.255075D-01  0.556014D+00
                46            47            48            49            50 
      1   0.123376D+01 -0.192335D+00  0.125997D+00 -0.521096D-01  0.150114D+00
      2   0.714783D-02  0.168313D+00 -0.107534D-01 -0.621842D-01  0.191582D+00
      3   0.222602D+00 -0.525017D-01  0.142284D+00 -0.228656D+00  0.150208D+00
                51            52            53            54            55 
      1   0.438837D+00  0.113806D+01  0.527126D+00 -0.227816D+00  0.188619D+00
      2   0.145936D+00 -0.680945D-01  0.602348D-01  0.289654D-01 -0.918854D-01
      3   0.624576D+00 -0.313342D+00 -0.154554D+00  0.205718D+00 -0.428223D-01
                56            57            58            59            60 
      1  -0.849053D+00 -0.734705D-01 -0.149060D+00  0.145593D+00 -0.289067D+00
      2   0.904846D+00  0.430208D-01  0.988387D-01  0.503594D-01  0.123677D+00
      3   0.298620D+00  0.140665D+00  0.418573D+00 -0.220806D+00  0.506281D+00
                61            62            63            64            65 
      1   0.463593D+00 -0.153630D+00 -0.754489D+00 -0.741933D-02  0.499806D-01
      2   0.143716D+00  0.581737D-01 -0.354561D+00 -0.604238D+00  0.227990D+00
      3  -0.246007D+00  0.983990D-01  0.615772D+00  0.221288D+00 -0.452982D-01
                66            67            68            69 
      1  -0.643125D-01  0.511036D+00  0.704075D+00  0.385690D+00
      2  -0.128080D+00  0.424184D+00  0.832884D+00  0.385662D+00
      3   0.166754D+00  0.238312D-01  0.262163D-01  0.131839D+00
 Hessian after L701:
                1             2             3             4             5 
      1  0.159750D+02
      2  0.888056D+00  0.164274D+02
      3 -0.635048D+00 -0.276534D+00  0.174557D+02
      4 -0.442418D+01 -0.734556D+00  0.182778D+01  0.155012D+02
      5 -0.745130D+00 -0.590744D+01 -0.811469D+00  0.115037D+00  0.171080D+02
      6  0.181567D+01 -0.784011D+00 -0.446041D+01 -0.358050D+00  0.560019D+00
      7  0.365607D+00 -0.672732D-01  0.232004D-01 -0.234959D+01  0.555226D+00
      8  0.325160D-02 -0.104235D+00 -0.585377D-02  0.534153D+00 -0.593824D+01
      9  0.151842D+00 -0.372565D-01 -0.652795D-01 -0.763421D+00 -0.148130D+00
     10 -0.574683D+01 -0.144238D+01 -0.122946D+00  0.126968D+00 -0.264578D+00
     11 -0.138449D+01 -0.281925D+01  0.232422D+00 -0.241320D+00  0.133073D+00
     12 -0.127678D+00  0.247689D+00 -0.631845D+01  0.149591D+00 -0.142928D+00
     13  0.180758D+00  0.117048D+00  0.124185D+00  0.218991D+00  0.239596D+00
     14  0.116841D+00 -0.101575D+00  0.349002D-01  0.231497D+00  0.653977D-01
     15  0.129438D+00  0.413040D-01 -0.115205D+00 -0.351512D-01 -0.994703D-02
     16  0.260048D-01 -0.119663D+00 -0.111794D+00 -0.799587D-03 -0.164314D+00
     17 -0.204636D+00  0.117093D+00  0.174144D+00 -0.163806D+00  0.767134D-02
     18 -0.150736D+00  0.141728D+00  0.784212D-01  0.281117D-01 -0.230091D-01
     19  0.864247D-01  0.155122D+00 -0.124478D-02  0.118843D-01  0.253468D+00
     20  0.143768D+00 -0.363317D-02  0.509322D-03  0.211040D+00  0.108540D+00
     21  0.426247D-01  0.216939D-01 -0.127159D+00 -0.572280D-01 -0.882622D-01
     22  0.171958D+00  0.508517D-01 -0.255256D-01 -0.156569D-01  0.131590D-01
     23 -0.196255D-01 -0.181075D+00 -0.407309D-01 -0.211939D-01  0.170233D-01
     24 -0.986248D-02  0.184858D-02  0.133195D+00  0.136972D-01 -0.239955D-01
     25  0.721448D-01  0.885095D-01  0.491766D-02  0.785287D-01 -0.102589D+00
     26  0.920118D-01 -0.375616D-01  0.527711D-01 -0.916630D-01  0.155172D-01
     27  0.307945D-02  0.545229D-01  0.110860D+00  0.938725D-01 -0.744314D-01
     28 -0.416698D+01 -0.130867D+00 -0.825062D+00  0.108625D+00  0.120009D-01
     29 -0.179455D+00 -0.440255D+01  0.465293D+00 -0.311774D-02  0.137219D+00
     30 -0.978980D+00  0.415572D+00 -0.215463D+01 -0.129128D+00  0.517096D-01
     31 -0.280565D+01  0.127628D+01 -0.458577D-01 -0.438753D-01  0.415040D-01
     32  0.131481D+01 -0.333566D+01 -0.258180D-01  0.234023D-01  0.177546D+00
     33 -0.325353D-02  0.800033D-02 -0.434052D+01 -0.146928D+00 -0.469477D-02
     34  0.898136D-01 -0.254911D-01 -0.140120D+00 -0.473170D+01 -0.319460D+00
     35  0.125230D-02  0.155164D+00  0.717504D-01 -0.279140D+00 -0.416997D+01
     36 -0.131931D+00  0.487659D-02 -0.116283D+00 -0.609511D+00  0.130880D+01
     37  0.321940D-01  0.881903D-01 -0.806040D-01 -0.436144D+01  0.335610D+00
     38  0.946385D-01  0.119249D+00  0.747952D-01  0.342417D+00 -0.208816D+01
     39 -0.829933D-01  0.640115D-01  0.150826D-01 -0.110743D+00 -0.624977D+00
     40  0.120103D+00 -0.635650D-01  0.641223D-01 -0.113174D+00 -0.971476D-02
     41 -0.797505D-01 -0.144664D-01 -0.259213D-01 -0.797013D-03  0.161431D+00
     42  0.696830D-01 -0.289766D-01 -0.274983D-01  0.123223D-01 -0.284004D-01
     43 -0.321910D-01 -0.116432D-01 -0.194233D-02 -0.983844D-01 -0.103552D-01
     44 -0.244694D-02 -0.314385D-03  0.136204D-02  0.207284D-01  0.135953D+00
     45 -0.232637D-01  0.124490D-01  0.146141D-01  0.149714D+00  0.970613D-02
     46  0.122852D-01 -0.261876D-02 -0.191408D-02  0.148614D+00  0.758548D-01
     47 -0.116539D-02 -0.644811D-02  0.391094D-03  0.586350D-01 -0.244940D-01
     48  0.548339D-02 -0.102053D-03 -0.709673D-02  0.227811D-01  0.810283D-02
     49  0.723272D-02  0.133435D-01  0.171246D-01 -0.185476D-01 -0.148671D-01
     50  0.179155D-01 -0.900334D-02  0.110144D-01  0.164752D-02 -0.101171D-01
[...]
 ! D18   D(11,1,4,9)            56.0535         calculate D2E/DX2 analytically  !
 ! D19   D(1,2,3,5)            171.5496         calculate D2E/DX2 analytically  !
 ! D20   D(1,2,3,14)            49.4238         calculate D2E/DX2 analytically  !
 ! D21   D(1,2,3,15)           -66.4934         calculate D2E/DX2 analytically  !
 ! D22   D(12,2,3,5)           -65.6362         calculate D2E/DX2 analytically  !
 ! D23   D(12,2,3,14)          172.238          calculate D2E/DX2 analytically  !
 ! D24   D(12,2,3,15)           56.3208         calculate D2E/DX2 analytically  !
 ! D25   D(13,2,3,5)            50.0972         calculate D2E/DX2 analytically  !
 ! D26   D(13,2,3,14)          -72.0286         calculate D2E/DX2 analytically  !
 ! D27   D(13,2,3,15)          172.0542         calculate D2E/DX2 analytically  !
 ! D28   D(2,3,5,7)             61.9637         calculate D2E/DX2 analytically  !
 ! D29   D(2,3,5,16)          -176.2185         calculate D2E/DX2 analytically  !
 ! D30   D(2,3,5,17)           -60.3232         calculate D2E/DX2 analytically  !
 ! D31   D(14,3,5,7)          -176.2058         calculate D2E/DX2 analytically  !
 ! D32   D(14,3,5,16)          -54.3879         calculate D2E/DX2 analytically  !
 ! D33   D(14,3,5,17)           61.5074         calculate D2E/DX2 analytically  !
 ! D34   D(15,3,5,7)           -60.5163         calculate D2E/DX2 analytically  !
 ! D35   D(15,3,5,16)           61.3016         calculate D2E/DX2 analytically  !
 ! D36   D(15,3,5,17)          177.1969         calculate D2E/DX2 analytically  !
 ! D37   D(1,4,6,18)            54.0924         calculate D2E/DX2 analytically  !
 ! D38   D(1,4,6,19)           174.1865         calculate D2E/DX2 analytically  !
 ! D39   D(1,4,6,20)           -65.6968         calculate D2E/DX2 analytically  !
 ! D40   D(8,4,6,18)           176.9399         calculate D2E/DX2 analytically  !
 ! D41   D(8,4,6,19)           -62.9661         calculate D2E/DX2 analytically  !
 ! D42   D(8,4,6,20)            57.1507         calculate D2E/DX2 analytically  !
 ! D43   D(9,4,6,18)           -67.1959         calculate D2E/DX2 analytically  !
 ! D44   D(9,4,6,19)            52.8981         calculate D2E/DX2 analytically  !
 ! D45   D(9,4,6,20)           173.0148         calculate D2E/DX2 analytically  !
 ! D46   D(3,5,7,21)            54.2764         calculate D2E/DX2 analytically  !
 ! D47   D(3,5,7,22)           -65.6153         calculate D2E/DX2 analytically  !
 ! D48   D(3,5,7,23)           174.204          calculate D2E/DX2 analytically  !
 ! D49   D(16,5,7,21)          -67.4175         calculate D2E/DX2 analytically  !
 ! D50   D(16,5,7,22)          172.6907         calculate D2E/DX2 analytically  !
 ! D51   D(16,5,7,23)           52.5101         calculate D2E/DX2 analytically  !
 ! D52   D(17,5,7,21)          176.3864         calculate D2E/DX2 analytically  !
 ! D53   D(17,5,7,22)           56.4946         calculate D2E/DX2 analytically  !
 ! D54   D(17,5,7,23)          -63.686          calculate D2E/DX2 analytically  !
 --------------------------------------------------------------------------------
 Trust Radius=3.00D-01 FncErr=1.00D-07 GrdErr=1.00D-07 EigMax=2.50D+02 EigMin=1.00D-04
 Number of steps in this run=      2 maximum allowed number of steps=      2.
 GradGradGradGradGradGradGradGradGradGradGradGradGradGradGradGradGradGrad

 Leave Link  103 at Mon Sep 30 10:53:44 2019, MaxMem=   671088640 cpu:               1.6 elap:               0.8
 (Enter /shared/centos7/gaussian/g16/l202.exe)
                          Input orientation:                          
 ---------------------------------------------------------------------
 Center     Atomic      Atomic             Coordinates (Angstroms)
 Number     Number       Type             X           Y           Z
 ---------------------------------------------------------------------
      1          6           0        1.132812   -0.476151    1.428755
      2          6           0        0.490778    0.276205    0.263636
      3          6           0        0.204796   -0.608556   -0.946116
      4          6           0        2.445246   -1.179141    1.079678
      5          6           0       -0.617561    0.083841   -2.030551
      6          6           0        3.498484   -0.237493    0.506556
      7          6           0        0.079562    1.301231   -2.628875
      8          1           0        2.253558   -1.987389    0.370451
      9          1           0        2.836467   -1.654326    1.981166
     10          1           0        0.423268   -1.216531    1.807716
     11          1           0        1.316143    0.226048    2.246526
     12          1           0        1.133857    1.108668   -0.029984
     13          1           0       -0.447398    0.723868    0.604243
     14          1           0       -0.321249   -1.507063   -0.610065
     15          1           0        1.147640   -0.950309   -1.384116
     16          1           0       -0.834345   -0.633056   -2.824820
     17          1           0       -1.582447    0.384097   -1.613200
     18          1           0        3.667335    0.608759    1.175362
     19          1           0        4.450407   -0.748077    0.364957
     20          1           0        3.192413    0.163185   -0.460838
     21          1           0        1.073512    1.034949   -2.994558
     22          1           0        0.199066    2.095926   -1.892902
     23          1           0       -0.486059    1.709767   -3.465657
 ---------------------------------------------------------------------
                    Distance matrix (angstroms):
                    1          2          3          4          5
     1  C    0.000000
     2  C    1.528316   0.000000
     3  C    2.553185   1.525807   0.000000
     4  C    1.529226   2.569806   3.073927   0.000000
     5  C    3.917167   2.555135   1.526985   4.544166   0.000000
     6  C    2.550258   3.060914   3.618884   1.524625   4.845823
     7  C    4.553326   3.096191   2.548460   5.049958   1.525127
     8  H    2.158684   2.871004   2.798563   1.092252   4.277631
     9  H    2.143756   3.489859   4.072874   1.091574   5.571841
    10  H    1.093264   2.148721   2.828596   2.149380   4.184088
    11  H    1.093364   2.148394   3.482042   2.147315   4.696043
    12  H    2.153966   1.092134   2.156689   2.860972   2.849562
    13  H    2.148704   1.093887   2.145768   3.494978   2.716750
    14  H    2.708110   2.145410   1.094061   3.258261   2.153266
    15  H    2.852592   2.156592   1.094346   2.793998   2.145526
    16  H    4.689054   3.481561   2.147078   5.128259   1.091696
    17  H    4.167271   2.798645   2.150488   5.090935   1.093317
    18  H    2.768582   3.321499   4.239304   2.167773   5.377151
    19  H    3.494573   4.091220   4.445625   2.171937   5.666996
    20  H    2.867275   2.799369   3.123608   2.175612   4.121431
    21  H    4.674680   3.395747   2.766205   4.835623   2.166482
    22  H    4.303588   2.836748   2.865425   4.960607   2.175849
    23  H    5.599486   4.113020   3.492848   6.131754   2.172662
                    6          7          8          9         10
     6  C    0.000000
     7  C    4.887497   0.000000
     8  H    2.151860   4.953508   0.000000
     9  H    2.149456   6.130931   1.745026   0.000000
    10  H    3.479726   5.112788   2.451513   2.458714   0.000000
    11  H    2.829308   5.143412   3.049214   2.432613   1.752374
    12  H    2.773353   2.811201   3.316572   3.818080   3.047725
    13  H    4.062480   3.326272   3.834154   4.281996   2.443677
    14  H    4.177201   3.481775   2.796740   4.087461   2.546445
    15  H    3.099873   2.785615   2.318856   3.830522   3.283806
    16  H    5.479776   2.148275   4.645333   6.133136   4.835538
    17  H    5.540361   2.152906   4.926840   6.049911   4.276397
    18  H    1.091767   5.274832   3.063761   2.541892   3.775649
    19  H    1.089450   5.680403   2.522314   2.457279   4.303353
    20  H    1.090905   3.960476   2.489469   3.064870   3.836420
    21  H    4.444929   1.092047   4.674433   5.924359   5.343577
    22  H    4.699830   1.089714   5.100703   6.002389   4.971641
    23  H    5.953728   1.089510   5.990842   7.212779   6.099063
                   11         12         13         14         15
    11  H    0.000000
    12  H    2.448417   0.000000
    13  H    2.460690   1.746620   0.000000
    14  H    3.720865   3.048913   2.543130   0.000000
    15  H    3.820179   2.464395   3.049685   1.751218   0.000000
    16  H    5.575052   3.836473   3.708024   2.435630   2.470738
    17  H    4.829522   3.226435   2.514126   2.484630   3.047375
    18  H    2.611889   2.849786   4.155774   4.855230   3.915416
    19  H    3.783230   3.821385   5.119802   4.929039   3.742782
    20  H    3.294566   2.305911   3.833665   3.893304   2.504676
    21  H    5.308686   2.966104   3.919350   3.754063   2.557395
    22  H    4.677517   2.306290   2.921676   3.859784   3.230821
    23  H    6.170769   3.845685   4.187789   4.304598   3.752038
                   16         17         18         19         20
    16  H    0.000000
    17  H    1.749938   0.000000
    18  H    6.148877   5.948677   0.000000
    19  H    6.173857   6.449050   1.763791   0.000000
    20  H    4.736791   4.916912   1.761034   1.759228   0.000000
    21  H    2.539876   3.063638   4.929278   5.086151   3.416057
    22  H    3.063292   2.486440   4.863620   5.591080   3.840107
    23  H    2.453731   2.528056   6.324710   6.714409   4.995198
                   21         22         23
    21  H    0.000000
    22  H    1.761809   0.000000
    23  H    1.763399   1.758430   0.000000
 Stoichiometry    C7H16
 Framework group  C1[X(C7H16)]
 Deg. of freedom    63
 Full point group                 C1      NOp   1
 RotChk:  IX=1 Diff= 1.77D-15
 Largest Abelian subgroup         C1      NOp   1
 Largest concise Abelian subgroup C1      NOp   1
                         Standard orientation:                         
 ---------------------------------------------------------------------
 Center     Atomic      Atomic             Coordinates (Angstroms)
 Number     Number       Type             X           Y           Z
 ---------------------------------------------------------------------
      1          6           0        1.441100    1.023037   -0.461359
      2          6           0       -0.018722    0.624810   -0.676035
      3          6           0       -0.819232    0.531904    0.619588
      4          6           0        2.219274    0.091653    0.468964
      5          6           0       -2.317784    0.336421    0.400931
      6          6           0        2.203572   -1.363588    0.014531
      7          6           0       -2.655278   -0.960509   -0.327135
      8          1           0        1.817282    0.162026    1.482109
      9          1           0        3.251612    0.441358    0.528281
     10          1           0        1.476739    2.038606   -0.058150
     11          1           0        1.946253    1.055227   -1.430496
     12          1           0       -0.061097   -0.328707   -1.206854
     13          1           0       -0.493721    1.358737   -1.333541
     14          1           0       -0.653494    1.442350    1.203187
     15          1           0       -0.441648   -0.295834    1.227760
     16          1           0       -2.822954    0.347654    1.368648
     17          1           0       -2.712355    1.185428   -0.163730
     18          1           0        2.551172   -1.451720   -1.016663
     19          1           0        2.848611   -1.980090    0.639633
     20          1           0        1.198778   -1.785887    0.060650
     21          1           0       -2.214781   -1.817060    0.187501
     22          1           0       -2.275768   -0.956489   -1.348621
     23          1           0       -3.732213   -1.117968   -0.376630
 ---------------------------------------------------------------------
 Rotational constants (GHZ):           4.3507907           1.2302141           1.1043731
 Leave Link  202 at Mon Sep 30 10:53:46 2019, MaxMem=   671088640 cpu:               4.1 elap:               2.1
 (Enter /shared/centos7/gaussian/g16/l301.exe)
 Standard basis: CC-pVTZ (5D, 7F)
 Ernie: Thresh=  0.10000D-02 Tol=  0.10000D-05 Strict=F.
 Ernie:  21 primitive shells out of 310 were deleted.
 There are   485 symmetry adapted cartesian basis functions of A   symmetry.
 There are   434 symmetry adapted basis functions of A   symmetry.
   434 basis functions,   636 primitive gaussians,   485 cartesian basis functions
    29 alpha electrons       29 beta electrons
       nuclear repulsion energy       324.8855935023 Hartrees.
 IExCor= 4336 DFT=T Ex+Corr=M062X ExCW=0 ScaHFX=  0.540000
 ScaDFX=  1.000000  1.000000  1.000000  1.000000 ScalE2=  1.000000  1.000000
 IRadAn=      5 IRanWt=     -1 IRanGd=            0 ICorTp=0 IEmpDi=  4
 NAtoms=   23 NActive=   23 NUniq=   23 SFac= 1.00D+00 NAtFMM=   60 NAOKFM=F Big=F
 Integral buffers will be    131072 words long.
 Raffenetti 2 integral format.
 Two-electron integral symmetry is turned on.
 Leave Link  301 at Mon Sep 30 10:53:47 2019, MaxMem=   671088640 cpu:               3.1 elap:               1.6
 (Enter /shared/centos7/gaussian/g16/l302.exe)
 NPDir=0 NMtPBC=     1 NCelOv=     1 NCel=       1 NClECP=     1 NCelD=      1
         NCelK=      1 NCelE2=     1 NClLst=     1 CellRange=     0.0.
 One-electron integrals computed using PRISM.
 One-electron integral symmetry used in STVInt
 NBasis=   434 RedAO= T EigKep=  3.06D-04  NBF=   434
 NBsUse=   434 1.00D-06 EigRej= -1.00D+00 NBFU=   434
 Precomputing XC quadrature grid using
 IXCGrd= 4 IRadAn=           5 IRanWt=          -1 IRanGd=           0 AccXCQ= 0.00D+00.
 Generated NRdTot=       0 NPtTot=           0 NUsed=           0 NTot=          32
 NSgBfM=   485   485   485   485   485 MxSgAt=    23 MxSgA2=    23.
 Leave Link  302 at Mon Sep 30 10:54:54 2019, MaxMem=   671088640 cpu:             132.1 elap:              66.1
 (Enter /shared/centos7/gaussian/g16/l303.exe)
 DipDrv:  MaxL=1.
 Leave Link  303 at Mon Sep 30 10:54:58 2019, MaxMem=   671088640 cpu:               7.9 elap:               4.0
 (Enter /shared/centos7/gaussian/g16/l401.exe)
 Initial guess from the checkpoint file:  "/scratch/harms.n/gauss_scrdir/Gau-30813.chk"
 B after Tr=     0.000000   -0.000000    0.000000
         Rot=    1.000000   -0.000000    0.000000    0.000000 Ang=   0.00 deg.
 Guess basis will be translated and rotated to current coordinates.
 JPrj=2 DoOrth=T DoCkMO=T.
 Leave Link  401 at Mon Sep 30 10:56:16 2019, MaxMem=   671088640 cpu:             157.8 elap:              78.9
 (Enter /shared/centos7/gaussian/g16/l502.exe)
 Integral symmetry usage will be decided dynamically.
 Closed shell SCF:
 Using DIIS extrapolation, IDIIS=  1040.
 NGot=   671088640 LenX=   670604095 LenY=   670368385
 Requested convergence on RMS density matrix=1.00D-08 within 900 cycles.
 Requested convergence on MAX density matrix=1.00D-06.
 Requested convergence on             energy=1.00D-06.
 No special actions if energy rises.
 Fock matrices will be formed incrementally for  20 cycles.

 Cycle   1  Pass 1  IDiag  1:
 FoFJK:  IHMeth= 1 ICntrl=       0 DoSepK=F KAlg= 0 I1Cent=           0 FoldK=F
 IRaf= 940000000 NMat=       1 IRICut=       1 DoRegI=T DoRafI=F ISym2E= 0 IDoP0=0 IntGTp=1.
 FoFCou: FMM=F IPFlag=           0 FMFlag=      100000 FMFlg1=           0
         NFxFlg=           0 DoJE=F BraDBF=F KetDBF=F FulRan=T
         wScrn=  0.000000 ICntrl=         0 IOpCl=  0 I1Cent=           0 NGrid=           0
         NMat0=    1 NMatS0=      1 NMatT0=    0 NMatD0=    1 NMtDS0=    0 NMtDT0=    0
 Symmetry not used in FoFCou.
 E= -276.339574256080    
 DIIS: error= 1.83D-08 at cycle   1 NSaved=   1.
 NSaved= 1 IEnMin= 1 EnMin= -276.339574256080     IErMin= 1 ErrMin= 1.83D-08
 ErrMax= 1.83D-08  0.00D+00 EMaxC= 1.00D-01 BMatC= 2.15D-13 BMatP= 2.15D-13
 IDIUse=1 WtCom= 1.00D+00 WtEn= 0.00D+00
 Coeff-Com:  0.100D+01
 Coeff:      0.100D+01
 Gap=     0.425 Goal=   None    Shift=    0.000
 RMSDP=1.50D-09 MaxDP=6.26D-08              OVMax= 1.43D-07

 SCF Done:  E(RM062X) =  -276.339574256     A.U. after    1 cycles
            NFock=  1  Conv=0.15D-08     -V/T= 2.0065
 KE= 2.745461934676D+02 PE=-1.288271248839D+03 EE= 4.124998876132D+02
 Leave Link  502 at Mon Sep 30 10:58:11 2019, MaxMem=   671088640 cpu:             229.8 elap:             114.9
 (Enter /shared/centos7/gaussian/g16/l801.exe)
 DoSCS=F DFT=T ScalE2(SS,OS)=  1.000000  1.000000
 Range of M.O.s used for correlation:     1   434
 NBasis=   434 NAE=    29 NBE=    29 NFC=     0 NFV=     0
 NROrb=    434 NOA=    29 NOB=    29 NVA=   405 NVB=   405
 Leave Link  801 at Mon Sep 30 10:58:12 2019, MaxMem=   671088640 cpu:               1.3 elap:               0.7
 (Enter /shared/centos7/gaussian/g16/l1101.exe)
 Using compressed storage, NAtomX=    23.
 Will process     24 centers per pass.
 Leave Link 1101 at Mon Sep 30 10:58:48 2019, MaxMem=   671088640 cpu:              71.5 elap:              35.8
 (Enter /shared/centos7/gaussian/g16/l1102.exe)
 Symmetrizing basis deriv contribution to polar:
 IMax=3 JMax=2 DiffMx= 0.00D+00
 Leave Link 1102 at Mon Sep 30 10:58:50 2019, MaxMem=   671088640 cpu:               4.7 elap:               2.4
 (Enter /shared/centos7/gaussian/g16/l1110.exe)
 Forming Gx(P) for the SCF density, NAtomX=    23.
 Integral derivatives from FoFJK, PRISM(SPDF).
 Do as many integral derivatives as possible in FoFJK.
 G2DrvN: MDV=     671086848.
 G2DrvN: will do    24 centers at a time, making    1 passes.
 Calling FoFCou, ICntrl=  3107 FMM=F I1Cent=   0 AccDes= 0.00D+00.
 FoFJK:  IHMeth= 1 ICntrl=    3107 DoSepK=F KAlg= 0 I1Cent=           0 FoldK=F
 IRaf=         0 NMat=       1 IRICut=       1 DoRegI=T DoRafI=F ISym2E= 0 IDoP0=0 IntGTp=1.
 FoFCou: FMM=F IPFlag=           0 FMFlag=      100000 FMFlg1=           0
         NFxFlg=           0 DoJE=F BraDBF=F KetDBF=F FulRan=T
         wScrn=  0.000000 ICntrl=      3107 IOpCl=  0 I1Cent=           0 NGrid=           0
         NMat0=    1 NMatS0=      1 NMatT0=    0 NMatD0=    1 NMtDS0=    0 NMtDT0=    0
 Symmetry not used in FoFCou.
 End of G2Drv F.D. properties file   721 does not exist.
 End of G2Drv F.D. properties file   722 does not exist.
 End of G2Drv F.D. properties file   788 does not exist.
 Leave Link 1110 at Mon Sep 30 11:42:25 2019, MaxMem=   671088640 cpu:            5214.6 elap:            2615.1
 (Enter /shared/centos7/gaussian/g16/l1002.exe)
 Minotr:  Closed shell wavefunction.
          IDoAtm=11111111111111111111111
          Direct CPHF calculation.
          Differentiating once with respect to electric field.
                with respect to dipole field.
          Differentiating once with respect to nuclear coordinates.
          Requested convergence is 1.0D-08 RMS, and 1.0D-07 maximum.
          Secondary convergence is 1.0D-12 RMS, and 1.0D-12 maximum.
          NewPWx=T KeepS1=F KeepF1=F KeepIn=T MapXYZ=F SortEE=F KeepMc=T.
         6925 words used for storage of precomputed grid.
 Two-electron integrals replicated using symmetry.
          MDV=     671088640 using IRadAn=       1.
          Solving linear equations simultaneously, MaxMat=     380.
 FoF2E skips out because all densities are zero.
 CalDSu exits because no D1Ps are significant.
 FoFJK:  IHMeth= 1 ICntrl=       0 DoSepK=F KAlg= 0 I1Cent=           0 FoldK=F
 IRaf= 920000000 NMat=      69 IRICut=     172 DoRegI=T DoRafI=T ISym2E= 2 IDoP0=3 IntGTp=3.
 FoFCou: FMM=F IPFlag=           0 FMFlag=      100000 FMFlg1=           0
         NFxFlg=           0 DoJE=F BraDBF=F KetDBF=F FulRan=T
         wScrn=  0.000000 ICntrl=         0 IOpCl=  0 I1Cent=           0 NGrid=           0
         NMat0=   69 NMatS0=     69 NMatT0=    0 NMatD0=   69 NMtDS0=    0 NMtDT0=    0
 Integrals replicated using symmetry in FoFCou.
 Raff kept on since  88.00% of shell-pairs survive, threshold=   0.20 IRatSp=88.
