 Entering Gaussian System, Link 0=g16
 Input=verytight/species/CCCCCCC/conformers/CCCCCCC_350.com
 Output=verytight/species/CCCCCCC/conformers/CCCCCCC_350.log
 Initial command:
 /shared/centos7/gaussian/g16/l1.exe "/scratch/harms.n/gauss_scrdir/Gau-21460.inp" -scrdir="/scratch/harms.n/gauss_scrdir/"
 Entering Link 1 = /shared/centos7/gaussian/g16/l1.exe PID=     21461.
  
 Copyright (c) 1988,1990,1992,1993,1995,1998,2003,2009,2016,
            Gaussian, Inc.  All Rights Reserved.
  
 This is part of the Gaussian(R) 16 program.  It is based on
 the Gaussian(R) 09 system (copyright 2009, Gaussian, Inc.),
 the Gaussian(R) 03 system (copyright 2003, Gaussian, Inc.),
 the Gaussian(R) 98 system (copyright 1998, Gaussian, Inc.),
 the Gaussian(R) 94 system (copyright 1995, Gaussian, Inc.),
 the Gaussian 92(TM) system (copyright 1992, Gaussian, Inc.),
 the Gaussian 90(TM) system (copyright 1990, Gaussian, Inc.),
 the Gaussian 88(TM) system (copyright 1988, Gaussian, Inc.),
 the Gaussian 86(TM) system (copyright 1986, Carnegie Mellon
 University), and the Gaussian 82(TM) system (copyright 1983,
 Carnegie Mellon University). Gaussian is a federally registered
 trademark of Gaussian, Inc.
  
 This software contains proprietary and confidential information,
 including trade secrets, belonging to Gaussian, Inc.
  
 This software is provided under written license and may be
 used, copied, transmitted, or stored only in accord with that
 written license.
  
 The following legend is applicable only to US Government
 contracts under FAR:
  
                    RESTRICTED RIGHTS LEGEND
  
 Use, reproduction and disclosure by the US Government is
 subject to restrictions as set forth in subparagraphs (a)
 and (c) of the Commercial Computer Software - Restricted
 Rights clause in FAR 52.227-19.
  
 Gaussian, Inc.
 340 Quinnipiac St., Bldg. 40, Wallingford CT 06492
  
  
 ---------------------------------------------------------------
 Warning -- This program may not be used in any manner that
 competes with the business of Gaussian, Inc. or will provide
 assistance to any competitor of Gaussian, Inc.  The licensee
 of this program is prohibited from giving any competitor of
 Gaussian, Inc. access to this program.  By using this program,
 the user acknowledges that Gaussian, Inc. is engaged in the
 business of creating and licensing software in the field of
 computational chemistry and represents and warrants to the
 licensee that it is not a competitor of Gaussian, Inc. and that
 it will not use this program in any manner prohibited above.
 ---------------------------------------------------------------
  

 Cite this work as:
 Gaussian 16, Revision A.03,
 M. J. Frisch, G. W. Trucks, H. B. Schlegel, G. E. Scuseria, 
 M. A. Robb, J. R. Cheeseman, G. Scalmani, V. Barone, 
 G. A. Petersson, H. Nakatsuji, X. Li, M. Caricato, A. V. Marenich, 
 J. Bloino, B. G. Janesko, R. Gomperts, B. Mennucci, H. P. Hratchian, 
 J. V. Ortiz, A. F. Izmaylov, J. L. Sonnenberg, D. Williams-Young, 
 F. Ding, F. Lipparini, F. Egidi, J. Goings, B. Peng, A. Petrone, 
 T. Henderson, D. Ranasinghe, V. G. Zakrzewski, J. Gao, N. Rega, 
 G. Zheng, W. Liang, M. Hada, M. Ehara, K. Toyota, R. Fukuda, 
 J. Hasegawa, M. Ishida, T. Nakajima, Y. Honda, O. Kitao, H. Nakai, 
 T. Vreven, K. Throssell, J. A. Montgomery, Jr., J. E. Peralta, 
 F. Ogliaro, M. J. Bearpark, J. J. Heyd, E. N. Brothers, K. N. Kudin, 
 V. N. Staroverov, T. A. Keith, R. Kobayashi, J. Normand, 
 K. Raghavachari, A. P. Rendell, J. C. Burant, S. S. Iyengar, 
 J. Tomasi, M. Cossi, J. M. Millam, M. Klene, C. Adamo, R. Cammi, 
 J. W. Ochterski, R. L. Martin, K. Morokuma, O. Farkas, 
 J. B. Foresman, and D. J. Fox, Gaussian, Inc., Wallingford CT, 2016.
 
 ******************************************
 Gaussian 16:  EM64L-G16RevA.03 25-Dec-2016
                29-Sep-2019 
 ******************************************
 %nprocshared=20
 Will use up to   20 processors via shared memory.
 %mem=5GB
 ----------------------------------------------------------------------
 #p m062x/cc-pVTZ opt=(calcfc,maxcycles=900,Tight) freq IOP(7/33=1,2/16
 =3) scf=(maxcycle=900)
 ----------------------------------------------------------------------
 1/6=900,7=10,10=4,18=20,19=15,26=3,38=1/1,3;
 2/9=110,12=2,16=3,17=6,18=5,40=1/2;
 3/5=16,6=1,11=2,25=1,30=1,71=2,74=-55,140=1/1,2,3;
 4//1;
 5/5=2,7=900,38=5/2;
 8/6=4,10=90,11=11/1;
 11/6=1,8=1,9=11,15=111,16=1/1,2,10;
 10/6=1,13=1/2;
 6/7=2,8=2,9=2,10=2,28=1/1;
 7/10=1,18=20,25=1,33=1/1,2,3,16;
 1/6=900,7=10,10=4,18=20,19=15,26=3/3(2);
 2/9=110,16=3/2;
 99//99;
 2/9=110,16=3/2;
 3/5=16,6=1,11=2,25=1,30=1,71=1,74=-55/1,2,3;
 4/5=5,16=3,69=1/1;
 5/5=2,7=900,38=5/2;
 7/33=1/1,2,3,16;
 1/6=900,7=10,18=20,19=15,26=3/3(-5);
 2/9=110,16=3/2;
 6/7=2,8=2,9=2,10=2,19=2,28=1/1;
 99/9=1/99;
 Leave Link    1 at Sun Sep 29 09:46:59 2019, MaxMem=   671088640 cpu:               3.9 elap:               2.0
 (Enter /shared/centos7/gaussian/g16/l101.exe)
 ------------------------------
 Gaussian input prepared by ASE
 ------------------------------
 Symbolic Z-matrix:
 Charge =  0 Multiplicity = 1
 C                     1.63648  -0.87514   0.45546 
 C                     0.42509  -0.11566   0.87698 
 C                     0.22794  -0.06224   2.37139 
 C                     1.99561  -0.68673  -0.98 
 C                     1.02843   0.99682   3.09202 
 C                     2.26332   0.71188  -1.35658 
 C                     2.46619   1.12286   2.65973 
 H                     1.16434  -1.08924  -1.62507 
 H                     2.88822  -1.31341  -1.21722 
 H                     1.47513  -1.95715   0.64727 
 H                     2.49393  -0.58094   1.09489 
 H                    -0.46425  -0.57673   0.41961 
 H                     0.47585   0.91495   0.46644 
 H                     0.46442  -1.04935   2.8036 
 H                    -0.84605   0.11446   2.58699 
 H                     0.52841   1.99091   2.95319 
 H                     0.98986   0.78766   4.17462 
 H                     1.43076   1.3726   -1.04971 
 H                     3.20182   1.09817  -0.85904 
 H                     2.39957   0.81432  -2.45405 
 H                     2.54489   1.66468   1.71642 
 H                     2.94076   0.1135    2.51199 
 H                     3.06504   1.68332   3.43377 
 
 ITRead=  0  0  0  0  0  0  0  0  0  0  0  0  0  0  0  0  0  0  0  0
 ITRead=  0  0  0
 MicOpt= -1 -1 -1 -1 -1 -1 -1 -1 -1 -1 -1 -1 -1 -1 -1 -1 -1 -1 -1 -1
 MicOpt= -1 -1 -1
 NAtoms=     23 NQM=       23 NQMF=       0 NMMI=      0 NMMIF=      0
                NMic=       0 NMicF=      0.
                    Isotopes and Nuclear Properties:
 (Nuclear quadrupole moments (NQMom) in fm**2, nuclear magnetic moments (NMagM)
  in nuclear magnetons)

  Atom         1           2           3           4           5           6           7           8           9          10
 IAtWgt=          12          12          12          12          12          12          12           1           1           1
 AtmWgt=  12.0000000  12.0000000  12.0000000  12.0000000  12.0000000  12.0000000  12.0000000   1.0078250   1.0078250   1.0078250
 NucSpn=           0           0           0           0           0           0           0           1           1           1
 AtZEff=  -0.0000000  -0.0000000  -0.0000000  -0.0000000  -0.0000000  -0.0000000  -0.0000000  -0.0000000  -0.0000000  -0.0000000
 NQMom=    0.0000000   0.0000000   0.0000000   0.0000000   0.0000000   0.0000000   0.0000000   0.0000000   0.0000000   0.0000000
 NMagM=    0.0000000   0.0000000   0.0000000   0.0000000   0.0000000   0.0000000   0.0000000   2.7928460   2.7928460   2.7928460
 AtZNuc=   6.0000000   6.0000000   6.0000000   6.0000000   6.0000000   6.0000000   6.0000000   1.0000000   1.0000000   1.0000000

  Atom        11          12          13          14          15          16          17          18          19          20
 IAtWgt=           1           1           1           1           1           1           1           1           1           1
 AtmWgt=   1.0078250   1.0078250   1.0078250   1.0078250   1.0078250   1.0078250   1.0078250   1.0078250   1.0078250   1.0078250
 NucSpn=           1           1           1           1           1           1           1           1           1           1
 AtZEff=  -0.0000000  -0.0000000  -0.0000000  -0.0000000  -0.0000000  -0.0000000  -0.0000000  -0.0000000  -0.0000000  -0.0000000
 NQMom=    0.0000000   0.0000000   0.0000000   0.0000000   0.0000000   0.0000000   0.0000000   0.0000000   0.0000000   0.0000000
 NMagM=    2.7928460   2.7928460   2.7928460   2.7928460   2.7928460   2.7928460   2.7928460   2.7928460   2.7928460   2.7928460
 AtZNuc=   1.0000000   1.0000000   1.0000000   1.0000000   1.0000000   1.0000000   1.0000000   1.0000000   1.0000000   1.0000000

  Atom        21          22          23
 IAtWgt=           1           1           1
 AtmWgt=   1.0078250   1.0078250   1.0078250
 NucSpn=           1           1           1
 AtZEff=  -0.0000000  -0.0000000  -0.0000000
 NQMom=    0.0000000   0.0000000   0.0000000
 NMagM=    2.7928460   2.7928460   2.7928460
 AtZNuc=   1.0000000   1.0000000   1.0000000
 Leave Link  101 at Sun Sep 29 09:47:00 2019, MaxMem=   671088640 cpu:               2.3 elap:               1.2
 (Enter /shared/centos7/gaussian/g16/l103.exe)

 GradGradGradGradGradGradGradGradGradGradGradGradGradGradGradGradGradGrad
 Berny optimization.
 Initialization pass.
                           ----------------------------
                           !    Initial Parameters    !
                           ! (Angstroms and Degrees)  !
 --------------------------                            --------------------------
 ! Name  Definition              Value          Derivative Info.                !
 --------------------------------------------------------------------------------
 ! R1    R(1,2)                  1.4906         calculate D2E/DX2 analytically  !
 ! R2    R(1,4)                  1.4917         calculate D2E/DX2 analytically  !
 ! R3    R(1,10)                 1.1107         calculate D2E/DX2 analytically  !
 ! R4    R(1,11)                 1.1093         calculate D2E/DX2 analytically  !
 ! R5    R(2,3)                  1.5083         calculate D2E/DX2 analytically  !
 ! R6    R(2,12)                 1.1012         calculate D2E/DX2 analytically  !
 ! R7    R(2,13)                 1.1105         calculate D2E/DX2 analytically  !
 ! R8    R(3,5)                  1.5105         calculate D2E/DX2 analytically  !
 ! R9    R(3,14)                 1.1032         calculate D2E/DX2 analytically  !
 ! R10   R(3,15)                 1.1096         calculate D2E/DX2 analytically  !
 ! R11   R(4,6)                  1.473          calculate D2E/DX2 analytically  !
 ! R12   R(4,8)                  1.1266         calculate D2E/DX2 analytically  !
 ! R13   R(4,9)                  1.1161         calculate D2E/DX2 analytically  !
 ! R14   R(5,7)                  1.5066         calculate D2E/DX2 analytically  !
 ! R15   R(5,16)                 1.1214         calculate D2E/DX2 analytically  !
 ! R16   R(5,17)                 1.1033         calculate D2E/DX2 analytically  !
 ! R17   R(6,18)                 1.1063         calculate D2E/DX2 analytically  !
 ! R18   R(6,19)                 1.1303         calculate D2E/DX2 analytically  !
 ! R19   R(6,20)                 1.1106         calculate D2E/DX2 analytically  !
 ! R20   R(7,21)                 1.0907         calculate D2E/DX2 analytically  !
 ! R21   R(7,22)                 1.1251         calculate D2E/DX2 analytically  !
 ! R22   R(7,23)                 1.1278         calculate D2E/DX2 analytically  !
 ! A1    A(2,1,4)              113.7926         calculate D2E/DX2 analytically  !
 ! A2    A(2,1,10)             109.2366         calculate D2E/DX2 analytically  !
 ! A3    A(2,1,11)             109.2703         calculate D2E/DX2 analytically  !
 ! A4    A(4,1,10)             108.9187         calculate D2E/DX2 analytically  !
 ! A5    A(4,1,11)             109.579          calculate D2E/DX2 analytically  !
 ! A6    A(10,1,11)            105.7294         calculate D2E/DX2 analytically  !
 ! A7    A(1,2,3)              113.8563         calculate D2E/DX2 analytically  !
 ! A8    A(1,2,12)             108.9979         calculate D2E/DX2 analytically  !
 ! A9    A(1,2,13)             109.3391         calculate D2E/DX2 analytically  !
 ! A10   A(3,2,12)             108.7095         calculate D2E/DX2 analytically  !
 ! A11   A(3,2,13)             109.8388         calculate D2E/DX2 analytically  !
 ! A12   A(12,2,13)            105.7798         calculate D2E/DX2 analytically  !
 ! A13   A(2,3,5)              115.3561         calculate D2E/DX2 analytically  !
 ! A14   A(2,3,14)             109.1751         calculate D2E/DX2 analytically  !
 ! A15   A(2,3,15)             108.9462         calculate D2E/DX2 analytically  !
 ! A16   A(5,3,14)             109.0757         calculate D2E/DX2 analytically  !
 ! A17   A(5,3,15)             107.9747         calculate D2E/DX2 analytically  !
 ! A18   A(14,3,15)            105.8926         calculate D2E/DX2 analytically  !
 ! A19   A(1,4,6)              114.1877         calculate D2E/DX2 analytically  !
 ! A20   A(1,4,8)              109.1623         calculate D2E/DX2 analytically  !
 ! A21   A(1,4,9)              109.0353         calculate D2E/DX2 analytically  !
 ! A22   A(6,4,8)              109.086          calculate D2E/DX2 analytically  !
 ! A23   A(6,4,9)              109.4779         calculate D2E/DX2 analytically  !
 ! A24   A(8,4,9)              105.5333         calculate D2E/DX2 analytically  !
 ! A25   A(3,5,7)              115.3084         calculate D2E/DX2 analytically  !
 ! A26   A(3,5,16)             109.0361         calculate D2E/DX2 analytically  !
 ! A27   A(3,5,17)             108.4626         calculate D2E/DX2 analytically  !
 ! A28   A(7,5,16)             108.4104         calculate D2E/DX2 analytically  !
 ! A29   A(7,5,17)             109.3157         calculate D2E/DX2 analytically  !
 ! A30   A(16,5,17)            105.8994         calculate D2E/DX2 analytically  !
 ! A31   A(4,6,18)             111.0631         calculate D2E/DX2 analytically  !
 ! A32   A(4,6,19)             111.2777         calculate D2E/DX2 analytically  !
 ! A33   A(4,6,20)             111.2542         calculate D2E/DX2 analytically  !
 ! A34   A(18,6,19)            107.3768         calculate D2E/DX2 analytically  !
 ! A35   A(18,6,20)            108.1402         calculate D2E/DX2 analytically  !
 ! A36   A(19,6,20)            107.5531         calculate D2E/DX2 analytically  !
 ! A37   A(5,7,21)             111.0125         calculate D2E/DX2 analytically  !
 ! A38   A(5,7,22)             111.4162         calculate D2E/DX2 analytically  !
 ! A39   A(5,7,23)             110.5712         calculate D2E/DX2 analytically  !
 ! A40   A(21,7,22)            107.5576         calculate D2E/DX2 analytically  !
 ! A41   A(21,7,23)            107.9642         calculate D2E/DX2 analytically  !
 ! A42   A(22,7,23)            108.179          calculate D2E/DX2 analytically  !
 ! D1    D(4,1,2,3)           -167.5946         calculate D2E/DX2 analytically  !
 ! D2    D(4,1,2,12)            70.8586         calculate D2E/DX2 analytically  !
 ! D3    D(4,1,2,13)           -44.3323         calculate D2E/DX2 analytically  !
 ! D4    D(10,1,2,3)            70.4574         calculate D2E/DX2 analytically  !
 ! D5    D(10,1,2,12)          -51.0893         calculate D2E/DX2 analytically  !
 ! D6    D(10,1,2,13)         -166.2803         calculate D2E/DX2 analytically  !
 ! D7    D(11,1,2,3)           -44.7671         calculate D2E/DX2 analytically  !
 ! D8    D(11,1,2,12)         -166.3139         calculate D2E/DX2 analytically  !
 ! D9    D(11,1,2,13)           78.4952         calculate D2E/DX2 analytically  !
 ! D10   D(2,1,4,6)             59.0647         calculate D2E/DX2 analytically  !
 ! D11   D(2,1,4,8)            -63.3176         calculate D2E/DX2 analytically  !
 ! D12   D(2,1,4,9)           -178.1396         calculate D2E/DX2 analytically  !
 ! D13   D(10,1,4,6)          -178.8117         calculate D2E/DX2 analytically  !
 ! D14   D(10,1,4,8)            58.806          calculate D2E/DX2 analytically  !
 ! D15   D(10,1,4,9)           -56.0159         calculate D2E/DX2 analytically  !
 ! D16   D(11,1,4,6)           -63.5936         calculate D2E/DX2 analytically  !
 ! D17   D(11,1,4,8)           174.0241         calculate D2E/DX2 analytically  !
 ! D18   D(11,1,4,9)            59.2022         calculate D2E/DX2 analytically  !
 ! D19   D(1,2,3,5)             82.2295         calculate D2E/DX2 analytically  !
 ! D20   D(1,2,3,14)           -40.9798         calculate D2E/DX2 analytically  !
 ! D21   D(1,2,3,15)          -156.1875         calculate D2E/DX2 analytically  !
 ! D22   D(12,2,3,5)          -156.0639         calculate D2E/DX2 analytically  !
 ! D23   D(12,2,3,14)           80.7268         calculate D2E/DX2 analytically  !
 ! D24   D(12,2,3,15)          -34.4808         calculate D2E/DX2 analytically  !
 ! D25   D(13,2,3,5)           -40.7603         calculate D2E/DX2 analytically  !
 ! D26   D(13,2,3,14)         -163.9697         calculate D2E/DX2 analytically  !
 ! D27   D(13,2,3,15)           80.8227         calculate D2E/DX2 analytically  !
 ! D28   D(2,3,5,7)            -43.8506         calculate D2E/DX2 analytically  !
 ! D29   D(2,3,5,16)            78.3388         calculate D2E/DX2 analytically  !
 ! D30   D(2,3,5,17)          -166.7813         calculate D2E/DX2 analytically  !
 ! D31   D(14,3,5,7)            79.4113         calculate D2E/DX2 analytically  !
 ! D32   D(14,3,5,16)         -158.3994         calculate D2E/DX2 analytically  !
 ! D33   D(14,3,5,17)          -43.5194         calculate D2E/DX2 analytically  !
 ! D34   D(15,3,5,7)          -165.9559         calculate D2E/DX2 analytically  !
 ! D35   D(15,3,5,16)          -43.7665         calculate D2E/DX2 analytically  !
 ! D36   D(15,3,5,17)           71.1135         calculate D2E/DX2 analytically  !
 ! D37   D(1,4,6,18)           -52.3531         calculate D2E/DX2 analytically  !
 ! D38   D(1,4,6,19)            67.2133         calculate D2E/DX2 analytically  !
 ! D39   D(1,4,6,20)          -172.8695         calculate D2E/DX2 analytically  !
 ! D40   D(8,4,6,18)            70.0709         calculate D2E/DX2 analytically  !
 ! D41   D(8,4,6,19)          -170.3627         calculate D2E/DX2 analytically  !
 ! D42   D(8,4,6,20)           -50.4455         calculate D2E/DX2 analytically  !
 ! D43   D(9,4,6,18)          -174.9078         calculate D2E/DX2 analytically  !
 ! D44   D(9,4,6,19)           -55.3414         calculate D2E/DX2 analytically  !
 ! D45   D(9,4,6,20)            64.5758         calculate D2E/DX2 analytically  !
 ! D46   D(3,5,7,21)            77.7281         calculate D2E/DX2 analytically  !
 ! D47   D(3,5,7,22)           -42.1251         calculate D2E/DX2 analytically  !
 ! D48   D(3,5,7,23)          -162.4666         calculate D2E/DX2 analytically  !
 ! D49   D(16,5,7,21)          -44.796          calculate D2E/DX2 analytically  !
 ! D50   D(16,5,7,22)         -164.6492         calculate D2E/DX2 analytically  !
 ! D51   D(16,5,7,23)           75.0092         calculate D2E/DX2 analytically  !
 ! D52   D(17,5,7,21)         -159.7959         calculate D2E/DX2 analytically  !
 ! D53   D(17,5,7,22)           80.3509         calculate D2E/DX2 analytically  !
 ! D54   D(17,5,7,23)          -39.9906         calculate D2E/DX2 analytically  !
 --------------------------------------------------------------------------------
 Trust Radius=3.00D-01 FncErr=1.00D-07 GrdErr=1.00D-06 EigMax=2.50D+02 EigMin=1.00D-04
 Number of steps in this run=    138 maximum allowed number of steps=    138.
 GradGradGradGradGradGradGradGradGradGradGradGradGradGradGradGradGradGrad

 Leave Link  103 at Sun Sep 29 09:47:01 2019, MaxMem=   671088640 cpu:               1.8 elap:               0.9
 (Enter /shared/centos7/gaussian/g16/l202.exe)
                          Input orientation:                          
 ---------------------------------------------------------------------
 Center     Atomic      Atomic             Coordinates (Angstroms)
 Number     Number       Type             X           Y           Z
 ---------------------------------------------------------------------
      1          6           0        1.636479   -0.875142    0.455458
      2          6           0        0.425087   -0.115657    0.876976
      3          6           0        0.227937   -0.062236    2.371386
      4          6           0        1.995608   -0.686725   -0.980004
      5          6           0        1.028433    0.996817    3.092022
      6          6           0        2.263322    0.711883   -1.356580
      7          6           0        2.466194    1.122864    2.659726
      8          1           0        1.164341   -1.089244   -1.625070
      9          1           0        2.888219   -1.313405   -1.217221
     10          1           0        1.475133   -1.957154    0.647272
     11          1           0        2.493926   -0.580944    1.094892
     12          1           0       -0.464246   -0.576730    0.419610
     13          1           0        0.475848    0.914946    0.466444
     14          1           0        0.464418   -1.049348    2.803602
     15          1           0       -0.846046    0.114456    2.586989
     16          1           0        0.528414    1.990913    2.953186
     17          1           0        0.989858    0.787661    4.174623
     18          1           0        1.430762    1.372604   -1.049707
     19          1           0        3.201818    1.098171   -0.859043
     20          1           0        2.399573    0.814319   -2.454048
     21          1           0        2.544886    1.664677    1.716420
     22          1           0        2.940762    0.113499    2.511988
     23          1           0        3.065044    1.683325    3.433772
 ---------------------------------------------------------------------
                    Distance matrix (angstroms):
                    1          2          3          4          5
     1  C    0.000000
     2  C    1.490625   0.000000
     3  C    2.513082   1.508304   0.000000
     4  C    1.491652   2.498205   3.840111   0.000000
     5  C    3.290200   2.551088   1.510531   4.511223   0.000000
     6  C    2.488989   3.008771   4.317381   1.472952   4.625602
     7  C    3.088567   2.979639   2.548999   4.091906   1.506627
     8  H    2.144144   2.784708   4.231224   1.126559   5.159561
     9  H    2.134663   3.447794   4.639032   1.116134   5.231205
    10  H    1.110665   2.132246   2.849347   2.129064   3.860348
    11  H    1.109344   2.131684   2.652018   2.136517   2.936925
    12  H    2.122117   1.101220   2.133834   2.832296   3.441790
    13  H    2.133447   1.110520   2.155260   2.639551   2.684345
    14  H    2.630181   2.141311   1.103233   4.097769   2.141982
    15  H    3.418429   2.143099   1.109570   4.630370   2.132437
    16  H    3.959888   2.959554   2.155040   4.979195   1.121392
    17  H    4.124950   3.465462   2.134130   5.454863   1.103295
    18  H    2.712969   2.634086   3.899927   2.136527   4.178157
    19  H    2.841155   3.492474   4.541605   2.157645   4.510519
    20  H    3.449901   3.982357   5.363689   2.142225   5.715962
    21  H    2.977567   2.892716   2.963015   3.619600   2.153589
    22  H    2.628284   3.009052   2.722144   3.705089   2.184878
    23  H    4.178145   4.091810   3.496401   5.122718   2.176206
                    6          7          8          9         10
     6  C    0.000000
     7  C    4.042373   0.000000
     8  H    2.126947   4.994769   0.000000
     9  H    2.124079   4.598285   1.785594   0.000000
    10  H    3.429348   3.810339   2.452223   2.426430   0.000000
    11  H    2.781061   2.313533   3.069912   2.457200   1.769818
    12  H    3.500715   4.061307   2.663772   3.802753   2.391358
    13  H    2.561194   2.969038   2.977454   3.690503   3.046347
    14  H    4.862624   2.957416   4.483817   4.702292   2.548610
    15  H    5.057354   3.463107   4.819957   5.518653   3.666325
    16  H    4.818704   2.143506   5.554475   5.820609   4.669127
    17  H    5.676413   2.141692   6.098332   6.090175   4.495743
    18  H    1.106291   3.859324   2.542187   3.060537   3.737512
    19  H    1.130281   3.594925   3.085919   2.458116   3.819089
    20  H    1.110627   5.123506   2.415896   2.509128   4.260732
    21  H    3.229617   1.090678   4.544837   4.194413   3.924934
    22  H    3.972758   1.125104   4.660205   3.993221   3.148466
    23  H    4.953173   1.127778   6.073853   5.535647   4.852369
                   11         12         13         14         15
    11  H    0.000000
    12  H    3.034272   0.000000
    13  H    2.589454   1.763822   0.000000
    14  H    2.694066   2.601769   3.053013   0.000000
    15  H    3.723620   2.306738   2.623909   1.765978   0.000000
    16  H    3.732418   3.741279   2.710046   3.044611   2.354640
    17  H    3.690534   4.251600   3.745797   2.351677   2.518795
    18  H    3.089656   3.090283   1.849331   4.652705   4.471280
    19  H    2.671779   4.228507   3.036675   5.051748   5.406295
    20  H    3.814530   4.288868   3.498588   5.904317   6.036216
    21  H    2.330602   3.969949   2.530900   3.588348   3.828772
    22  H    1.640144   4.055680   3.301873   2.751278   3.787551
    23  H    3.305064   5.162258   4.012402   3.824639   4.298257
                   16         17         18         19         20
    16  H    0.000000
    17  H    1.775572   0.000000
    18  H    4.149661   5.275431   0.000000
    19  H    4.741008   5.506993   1.802305   0.000000
    20  H    5.841557   6.776967   1.795119   1.807819   0.000000
    21  H    2.387923   3.038096   2.996338   2.717627   4.258759
    22  H    3.088488   2.650449   4.068306   3.521588   5.044358
    23  H    2.600012   2.378544   4.782155   4.334670   5.988693
                   21         22         23
    21  H    0.000000
    22  H    1.787680   0.000000
    23  H    1.794493   1.824687   0.000000
 Stoichiometry    C7H16
 Framework group  C1[X(C7H16)]
 Deg. of freedom    63
 Full point group                 C1      NOp   1
 Largest Abelian subgroup         C1      NOp   1
 Largest concise Abelian subgroup C1      NOp   1
                         Standard orientation:                         
 ---------------------------------------------------------------------
 Center     Atomic      Atomic             Coordinates (Angstroms)
 Number     Number       Type             X           Y           Z
 ---------------------------------------------------------------------
      1          6           0        0.780089   -0.546067    0.736116
      2          6           0       -0.037892   -1.003751   -0.422933
      3          6           0       -1.517938   -1.064839   -0.138829
      4          6           0        2.188422   -0.205509    0.381653
      5          6           0       -2.254140    0.248802   -0.257387
      6          6           0        2.316008    0.858943   -0.628423
      7          6           0       -1.560615    1.434017    0.362463
      8          1           0        2.710185   -1.131687    0.008699
      9          1           0        2.734948    0.092951    1.307929
     10          1           0        0.786176   -1.337764    1.515060
     11          1           0        0.291684    0.332957    1.204539
     12          1           0        0.304358   -2.004248   -0.730434
     13          1           0        0.151893   -0.339254   -1.292232
     14          1           0       -1.676124   -1.476832    0.872291
     15          1           0       -1.989509   -1.785948   -0.837948
     16          1           0       -2.433768    0.470841   -1.341801
     17          1           0       -3.252855    0.131837    0.196649
     18          1           0        1.708749    0.631402   -1.524715
     19          1           0        1.961350    1.852953   -0.223827
     20          1           0        3.371822    0.985278   -0.949031
     21          1           0       -0.755112    1.794903   -0.278243
     22          1           0       -1.109628    1.171110    1.359132
     23          1           0       -2.287778    2.281918    0.517971
 ---------------------------------------------------------------------
 Rotational constants (GHZ):           4.0086976           1.4610964           1.2528763
 Leave Link  202 at Sun Sep 29 09:47:03 2019, MaxMem=   671088640 cpu:               3.4 elap:               1.7
 (Enter /shared/centos7/gaussian/g16/l301.exe)
 Standard basis: CC-pVTZ (5D, 7F)
 Ernie: Thresh=  0.10000D-02 Tol=  0.10000D-05 Strict=F.
 Ernie:  21 primitive shells out of 310 were deleted.
 There are   485 symmetry adapted cartesian basis functions of A   symmetry.
 There are   434 symmetry adapted basis functions of A   symmetry.
   434 basis functions,   636 primitive gaussians,   485 cartesian basis functions
    29 alpha electrons       29 beta electrons
       nuclear repulsion energy       332.4746353069 Hartrees.
 IExCor= 4336 DFT=T Ex+Corr=M062X ExCW=0 ScaHFX=  0.540000
 ScaDFX=  1.000000  1.000000  1.000000  1.000000 ScalE2=  1.000000  1.000000
 IRadAn=      5 IRanWt=     -1 IRanGd=            0 ICorTp=0 IEmpDi=  4
 NAtoms=   23 NActive=   23 NUniq=   23 SFac= 1.00D+00 NAtFMM=   60 NAOKFM=F Big=F
 Integral buffers will be    131072 words long.
 Raffenetti 2 integral format.
 Two-electron integral symmetry is turned on.
 Leave Link  301 at Sun Sep 29 09:47:05 2019, MaxMem=   671088640 cpu:               3.0 elap:               1.5
 (Enter /shared/centos7/gaussian/g16/l302.exe)
 NPDir=0 NMtPBC=     1 NCelOv=     1 NCel=       1 NClECP=     1 NCelD=      1
         NCelK=      1 NCelE2=     1 NClLst=     1 CellRange=     0.0.
 One-electron integrals computed using PRISM.
 One-electron integral symmetry used in STVInt
 NBasis=   434 RedAO= T EigKep=  2.96D-04  NBF=   434
 NBsUse=   434 1.00D-06 EigRej= -1.00D+00 NBFU=   434
 Precomputing XC quadrature grid using
 IXCGrd= 4 IRadAn=           5 IRanWt=          -1 IRanGd=           0 AccXCQ= 0.00D+00.
 Generated NRdTot=       0 NPtTot=           0 NUsed=           0 NTot=          32
 NSgBfM=   485   485   485   485   485 MxSgAt=    23 MxSgA2=    23.
 Leave Link  302 at Sun Sep 29 09:48:28 2019, MaxMem=   671088640 cpu:             167.5 elap:              83.8
 (Enter /shared/centos7/gaussian/g16/l303.exe)
 DipDrv:  MaxL=1.
 Leave Link  303 at Sun Sep 29 09:48:32 2019, MaxMem=   671088640 cpu:               8.0 elap:               4.0
 (Enter /shared/centos7/gaussian/g16/l401.exe)
 ExpMin= 1.03D-01 ExpMax= 8.24D+03 ExpMxC= 2.81D+02 IAcc=3 IRadAn=         5 AccDes= 0.00D+00
 Harris functional with IExCor= 1009 and IRadAn=       5 diagonalized for initial guess.
 HarFok:  IExCor= 1009 AccDes= 0.00D+00 IRadAn=         5 IDoV= 1 UseB2=F ITyADJ=14
 ICtDFT=  3500011 ScaDFX=  1.000000  1.000000  1.000000  1.000000
 FoFCou: FMM=F IPFlag=           0 FMFlag=      100000 FMFlg1=           0
         NFxFlg=           0 DoJE=T BraDBF=F KetDBF=T FulRan=T
         wScrn=  0.000000 ICntrl=       500 IOpCl=  0 I1Cent=   200000004 NGrid=           0
         NMat0=    1 NMatS0=      1 NMatT0=    0 NMatD0=    1 NMtDS0=    0 NMtDT0=    0
 Petite list used in FoFCou.
 Harris En= -276.322139489334    
 JPrj=0 DoOrth=F DoCkMO=F.
 Leave Link  401 at Sun Sep 29 09:49:17 2019, MaxMem=   671088640 cpu:              90.1 elap:              45.1
 (Enter /shared/centos7/gaussian/g16/l502.exe)
 Integral symmetry usage will be decided dynamically.
 Closed shell SCF:
 Using DIIS extrapolation, IDIIS=  1040.
 NGot=   671088640 LenX=   670604095 LenY=   670368385
 Requested convergence on RMS density matrix=1.00D-08 within 900 cycles.
 Requested convergence on MAX density matrix=1.00D-06.
 Requested convergence on             energy=1.00D-06.
 No special actions if energy rises.
 Fock matrices will be formed incrementally for  20 cycles.
 Integral accuracy reduced to 1.0D-05 until final iterations.

 Cycle   1  Pass 0  IDiag  1:
 FoFJK:  IHMeth= 1 ICntrl=       0 DoSepK=F KAlg= 0 I1Cent=           0 FoldK=F
 IRaf= 950000000 NMat=       1 IRICut=       1 DoRegI=T DoRafI=F ISym2E= 0 IDoP0=0 IntGTp=1.
 FoFCou: FMM=F IPFlag=           0 FMFlag=      100000 FMFlg1=           0
         NFxFlg=           0 DoJE=F BraDBF=F KetDBF=F FulRan=T
         wScrn=  0.000000 ICntrl=         0 IOpCl=  0 I1Cent=           0 NGrid=           0
         NMat0=    1 NMatS0=      1 NMatT0=    0 NMatD0=    1 NMtDS0=    0 NMtDT0=    0
 Symmetry not used in FoFCou.
 E= -275.958279557914    
 DIIS: error= 2.34D-02 at cycle   1 NSaved=   1.
 NSaved= 1 IEnMin= 1 EnMin= -275.958279557914     IErMin= 1 ErrMin= 2.34D-02
 ErrMax= 2.34D-02  0.00D+00 EMaxC= 1.00D-01 BMatC= 3.74D-01 BMatP= 3.74D-01
 IDIUse=3 WtCom= 7.66D-01 WtEn= 2.34D-01
 Coeff-Com:  0.100D+01
 Coeff-En:   0.100D+01
 Coeff:      0.100D+01
 Gap=     0.356 Goal=   None    Shift=    0.000
 GapD=    0.356 DampG=1.000 DampE=0.500 DampFc=0.5000 IDamp=-1.
 Damping current iteration by 5.00D-01
 RMSDP=1.90D-03 MaxDP=6.24D-02              OVMax= 1.66D-01

 Cycle   2  Pass 0  IDiag  1:
 RMSU=  9.49D-04    CP:  9.90D-01
 E= -276.135114580425     Delta-E=       -0.176835022511 Rises=F Damp=T
 DIIS: error= 4.04D-03 at cycle   2 NSaved=   2.
 NSaved= 2 IEnMin= 2 EnMin= -276.135114580425     IErMin= 2 ErrMin= 4.04D-03
 ErrMax= 4.04D-03  0.00D+00 EMaxC= 1.00D-01 BMatC= 1.91D-02 BMatP= 3.74D-01
 IDIUse=3 WtCom= 9.60D-01 WtEn= 4.04D-02
 Coeff-Com: -0.452D-01 0.105D+01
 Coeff-En:   0.000D+00 0.100D+01
 Coeff:     -0.434D-01 0.104D+01
 Gap=     0.446 Goal=   None    Shift=    0.000
 RMSDP=5.55D-04 MaxDP=2.13D-02 DE=-1.77D-01 OVMax= 8.99D-02

 Cycle   3  Pass 0  IDiag  1:
 RMSU=  5.45D-04    CP:  9.97D-01  9.02D-01
 E= -276.314570847117     Delta-E=       -0.179456266692 Rises=F Damp=F
 DIIS: error= 2.55D-03 at cycle   3 NSaved=   3.
 NSaved= 3 IEnMin= 3 EnMin= -276.314570847117     IErMin= 3 ErrMin= 2.55D-03
 ErrMax= 2.55D-03  0.00D+00 EMaxC= 1.00D-01 BMatC= 3.17D-03 BMatP= 1.91D-02
 IDIUse=3 WtCom= 9.74D-01 WtEn= 2.55D-02
 Coeff-Com: -0.522D-01 0.260D+00 0.792D+00
 Coeff-En:   0.000D+00 0.000D+00 0.100D+01
 Coeff:     -0.508D-01 0.254D+00 0.797D+00
 Gap=     0.415 Goal=   None    Shift=    0.000
 RMSDP=1.13D-04 MaxDP=3.11D-03 DE=-1.79D-01 OVMax= 1.10D-02

 Cycle   4  Pass 0  IDiag  1:
 RMSU=  8.59D-05    CP:  9.96D-01  9.51D-01  8.97D-01
 E= -276.317381472690     Delta-E=       -0.002810625573 Rises=F Damp=F
 DIIS: error= 6.69D-04 at cycle   4 NSaved=   4.
 NSaved= 4 IEnMin= 4 EnMin= -276.317381472690     IErMin= 4 ErrMin= 6.69D-04
 ErrMax= 6.69D-04  0.00D+00 EMaxC= 1.00D-01 BMatC= 2.53D-04 BMatP= 3.17D-03
 IDIUse=3 WtCom= 9.93D-01 WtEn= 6.69D-03
 Coeff-Com: -0.126D-01 0.332D-01 0.254D+00 0.726D+00
 Coeff-En:   0.000D+00 0.000D+00 0.000D+00 0.100D+01
 Coeff:     -0.125D-01 0.330D-01 0.252D+00 0.728D+00
 Gap=     0.416 Goal=   None    Shift=    0.000
 RMSDP=3.44D-05 MaxDP=1.06D-03 DE=-2.81D-03 OVMax= 2.95D-03

 Cycle   5  Pass 0  IDiag  1:
 RMSU=  1.81D-05    CP:  9.96D-01  9.44D-01  9.36D-01  7.76D-01
 E= -276.317620710361     Delta-E=       -0.000239237671 Rises=F Damp=F
 DIIS: error= 1.20D-04 at cycle   5 NSaved=   5.
 NSaved= 5 IEnMin= 5 EnMin= -276.317620710361     IErMin= 5 ErrMin= 1.20D-04
 ErrMax= 1.20D-04  0.00D+00 EMaxC= 1.00D-01 BMatC= 1.46D-05 BMatP= 2.53D-04
 IDIUse=3 WtCom= 9.99D-01 WtEn= 1.20D-03
 Coeff-Com: -0.165D-02 0.960D-03 0.510D-01 0.251D+00 0.699D+00
 Coeff-En:   0.000D+00 0.000D+00 0.000D+00 0.000D+00 0.100D+01
 Coeff:     -0.164D-02 0.959D-03 0.509D-01 0.250D+00 0.699D+00
 Gap=     0.415 Goal=   None    Shift=    0.000
 RMSDP=6.37D-06 MaxDP=2.88D-04 DE=-2.39D-04 OVMax= 6.93D-04

 Initial convergence to 1.0D-05 achieved.  Increase integral accuracy.
 Cycle   6  Pass 1  IDiag  1:
 E= -276.317585911681     Delta-E=        0.000034798680 Rises=F Damp=F
 DIIS: error= 3.65D-05 at cycle   1 NSaved=   1.
 NSaved= 1 IEnMin= 1 EnMin= -276.317585911681     IErMin= 1 ErrMin= 3.65D-05
 ErrMax= 3.65D-05  0.00D+00 EMaxC= 1.00D-01 BMatC= 1.64D-06 BMatP= 1.64D-06
 IDIUse=1 WtCom= 1.00D+00 WtEn= 0.00D+00
 Coeff-Com:  0.100D+01
 Coeff:      0.100D+01
 Gap=     0.416 Goal=   None    Shift=    0.000
 RMSDP=6.37D-06 MaxDP=2.88D-04 DE= 3.48D-05 OVMax= 3.26D-04

 Cycle   7  Pass 1  IDiag  1:
 RMSU=  9.46D-06    CP:  1.00D+00
 E= -276.317586569279     Delta-E=       -0.000000657598 Rises=F Damp=F
 DIIS: error= 2.61D-05 at cycle   2 NSaved=   2.
 NSaved= 2 IEnMin= 2 EnMin= -276.317586569279     IErMin= 2 ErrMin= 2.61D-05
 ErrMax= 2.61D-05  0.00D+00 EMaxC= 1.00D-01 BMatC= 7.22D-07 BMatP= 1.64D-06
 IDIUse=1 WtCom= 1.00D+00 WtEn= 0.00D+00
 Coeff-Com:  0.378D+00 0.622D+00
 Coeff:      0.378D+00 0.622D+00
 Gap=     0.416 Goal=   None    Shift=    0.000
 RMSDP=1.48D-06 MaxDP=6.71D-05 DE=-6.58D-07 OVMax= 1.61D-04

 Cycle   8  Pass 1  IDiag  1:
 RMSU=  1.47D-06    CP:  1.00D+00  9.83D-01
 E= -276.317587224969     Delta-E=       -0.000000655691 Rises=F Damp=F
 DIIS: error= 6.65D-06 at cycle   3 NSaved=   3.
 NSaved= 3 IEnMin= 3 EnMin= -276.317587224969     IErMin= 3 ErrMin= 6.65D-06
 ErrMax= 6.65D-06  0.00D+00 EMaxC= 1.00D-01 BMatC= 4.30D-08 BMatP= 7.22D-07
 IDIUse=1 WtCom= 1.00D+00 WtEn= 0.00D+00
 Coeff-Com: -0.646D-02 0.182D+00 0.824D+00
 Coeff:     -0.646D-02 0.182D+00 0.824D+00
 Gap=     0.416 Goal=   None    Shift=    0.000
 RMSDP=4.32D-07 MaxDP=1.50D-05 DE=-6.56D-07 OVMax= 4.00D-05

 Cycle   9  Pass 1  IDiag  1:
 RMSU=  3.26D-07    CP:  1.00D+00  1.01D+00  8.77D-01
 E= -276.317587266659     Delta-E=       -0.000000041690 Rises=F Damp=F
 DIIS: error= 2.15D-06 at cycle   4 NSaved=   4.
 NSaved= 4 IEnMin= 4 EnMin= -276.317587266659     IErMin= 4 ErrMin= 2.15D-06
 ErrMax= 2.15D-06  0.00D+00 EMaxC= 1.00D-01 BMatC= 1.78D-09 BMatP= 4.30D-08
 IDIUse=1 WtCom= 1.00D+00 WtEn= 0.00D+00
 Coeff-Com: -0.139D-01 0.434D-01 0.281D+00 0.690D+00
 Coeff:     -0.139D-01 0.434D-01 0.281D+00 0.690D+00
 Gap=     0.416 Goal=   None    Shift=    0.000
 RMSDP=8.82D-08 MaxDP=2.71D-06 DE=-4.17D-08 OVMax= 7.68D-06

 Cycle  10  Pass 1  IDiag  1:
 RMSU=  8.07D-08    CP:  1.00D+00  1.01D+00  8.75D-01  9.03D-01
 E= -276.317587268491     Delta-E=       -0.000000001831 Rises=F Damp=F
 DIIS: error= 3.41D-07 at cycle   5 NSaved=   5.
 NSaved= 5 IEnMin= 5 EnMin= -276.317587268491     IErMin= 5 ErrMin= 3.41D-07
 ErrMax= 3.41D-07  0.00D+00 EMaxC= 1.00D-01 BMatC= 7.28D-11 BMatP= 1.78D-09
 IDIUse=1 WtCom= 1.00D+00 WtEn= 0.00D+00
 Coeff-Com: -0.146D-02-0.853D-02-0.264D-01 0.945D-01 0.942D+00
 Coeff:     -0.146D-02-0.853D-02-0.264D-01 0.945D-01 0.942D+00
 Gap=     0.416 Goal=   None    Shift=    0.000
 RMSDP=3.27D-08 MaxDP=8.34D-07 DE=-1.83D-09 OVMax= 2.47D-06

 Cycle  11  Pass 1  IDiag  1:
 RMSU=  1.78D-08    CP:  1.00D+00  1.01D+00  8.77D-01  9.82D-01  1.10D+00
 E= -276.317587268572     Delta-E=       -0.000000000081 Rises=F Damp=F
 DIIS: error= 1.46D-07 at cycle   6 NSaved=   6.
 NSaved= 6 IEnMin= 6 EnMin= -276.317587268572     IErMin= 6 ErrMin= 1.46D-07
 ErrMax= 1.46D-07  0.00D+00 EMaxC= 1.00D-01 BMatC= 1.93D-11 BMatP= 7.28D-11
 IDIUse=1 WtCom= 1.00D+00 WtEn= 0.00D+00
 Coeff-Com:  0.473D-03-0.728D-02-0.344D-01-0.150D-01 0.416D+00 0.641D+00
 Coeff:      0.473D-03-0.728D-02-0.344D-01-0.150D-01 0.416D+00 0.641D+00
 Gap=     0.416 Goal=   None    Shift=    0.000
 RMSDP=7.28D-09 MaxDP=2.78D-07 DE=-8.14D-11 OVMax= 7.31D-07

 SCF Done:  E(RM062X) =  -276.317587269     A.U. after   11 cycles
            NFock= 11  Conv=0.73D-08     -V/T= 2.0066
 KE= 2.745051824469D+02 PE=-1.303374132344D+03 EE= 4.200767273216D+02
 Leave Link  502 at Sun Sep 29 10:04:53 2019, MaxMem=   671088640 cpu:            1871.7 elap:             936.0
 (Enter /shared/centos7/gaussian/g16/l801.exe)
 DoSCS=F DFT=T ScalE2(SS,OS)=  1.000000  1.000000
 Range of M.O.s used for correlation:     1   434
 NBasis=   434 NAE=    29 NBE=    29 NFC=     0 NFV=     0
 NROrb=    434 NOA=    29 NOB=    29 NVA=   405 NVB=   405

 **** Warning!!: The largest alpha MO coefficient is  0.13244687D+02

 Leave Link  801 at Sun Sep 29 10:04:54 2019, MaxMem=   671088640 cpu:               1.3 elap:               0.7
 (Enter /shared/centos7/gaussian/g16/l1101.exe)
 Using compressed storage, NAtomX=    23.
 Will process     24 centers per pass.
 Leave Link 1101 at Sun Sep 29 10:05:36 2019, MaxMem=   671088640 cpu:              83.9 elap:              42.0
 (Enter /shared/centos7/gaussian/g16/l1102.exe)
 Symmetrizing basis deriv contribution to polar:
 IMax=3 JMax=2 DiffMx= 0.00D+00
 Leave Link 1102 at Sun Sep 29 10:05:38 2019, MaxMem=   671088640 cpu:               4.3 elap:               2.2
 (Enter /shared/centos7/gaussian/g16/l1110.exe)
 Forming Gx(P) for the SCF density, NAtomX=    23.
 Integral derivatives from FoFJK, PRISM(SPDF).
 Do as many integral derivatives as possible in FoFJK.
 G2DrvN: MDV=     671086848.
 G2DrvN: will do    24 centers at a time, making    1 passes.
 Calling FoFCou, ICntrl=  3107 FMM=F I1Cent=   0 AccDes= 0.00D+00.
 FoFJK:  IHMeth= 1 ICntrl=    3107 DoSepK=F KAlg= 0 I1Cent=           0 FoldK=F
 IRaf=         0 NMat=       1 IRICut=       1 DoRegI=T DoRafI=F ISym2E= 0 IDoP0=0 IntGTp=1.
 FoFCou: FMM=F IPFlag=           0 FMFlag=      100000 FMFlg1=           0
         NFxFlg=           0 DoJE=F BraDBF=F KetDBF=F FulRan=T
         wScrn=  0.000000 ICntrl=      3107 IOpCl=  0 I1Cent=           0 NGrid=           0
         NMat0=    1 NMatS0=      1 NMatT0=    0 NMatD0=    1 NMtDS0=    0 NMtDT0=    0
 Symmetry not used in FoFCou.
 End of G2Drv F.D. properties file   721 does not exist.
 End of G2Drv F.D. properties file   722 does not exist.
 End of G2Drv F.D. properties file   788 does not exist.
 Leave Link 1110 at Sun Sep 29 10:47:23 2019, MaxMem=   671088640 cpu:            5009.1 elap:            2504.8
 (Enter /shared/centos7/gaussian/g16/l1002.exe)
 Minotr:  Closed shell wavefunction.
          IDoAtm=11111111111111111111111
          Direct CPHF calculation.
          Differentiating once with respect to nuclear coordinates.
          Requested convergence is 1.0D-08 RMS, and 1.0D-07 maximum.
          Secondary convergence is 1.0D-12 RMS, and 1.0D-12 maximum.
          NewPWx=T KeepS1=F KeepF1=F KeepIn=T MapXYZ=F SortEE=F KeepMc=T.
         6904 words used for storage of precomputed grid.
 Two-electron integrals replicated using symmetry.
          MDV=     671088640 using IRadAn=       1.
          Solving linear equations simultaneously, MaxMat=     380.
 FoF2E skips out because all densities are zero.
 CalDSu exits because no D1Ps are significant.
 FoFJK:  IHMeth= 1 ICntrl=       0 DoSepK=F KAlg= 0 I1Cent=           0 FoldK=F
 IRaf= 940000000 NMat=      69 IRICut=     172 DoRegI=T DoRafI=T ISym2E= 2 IDoP0=3 IntGTp=3.
 FoFCou: FMM=F IPFlag=           0 FMFlag=      100000 FMFlg1=           0
         NFxFlg=           0 DoJE=F BraDBF=F KetDBF=F FulRan=T
         wScrn=  0.000000 ICntrl=         0 IOpCl=  0 I1Cent=           0 NGrid=           0
         NMat0=   69 NMatS0=     69 NMatT0=    0 NMatD0=   69 NMtDS0=    0 NMtDT0=    0
 Integrals replicated using symmetry in FoFCou.
 Raff kept on since  89.98% of shell-pairs survive, threshold=   0.20 IRatSp=90.
          There are    72 degrees of freedom in the 1st order CPHF.  IDoFFX=6 NUNeed=     0.
     66 vectors produced by pass  0 Test12= 1.63D-14 1.39D-09 XBig12= 5.53D-02 4.42D-02.
 AX will form    66 AO Fock derivatives at one time.
     66 vectors produced by pass  1 Test12= 1.63D-14 1.39D-09 XBig12= 3.00D-03 6.28D-03.
     66 vectors produced by pass  2 Test12= 1.63D-14 1.39D-09 XBig12= 4.54D-05 8.65D-04.
     66 vectors produced by pass  3 Test12= 1.63D-14 1.39D-09 XBig12= 3.82D-07 6.44D-05.
     66 vectors produced by pass  4 Test12= 1.63D-14 1.39D-09 XBig12= 1.97D-09 4.20D-06.
     66 vectors produced by pass  5 Test12= 1.63D-14 1.39D-09 XBig12= 9.87D-12 3.40D-07.
     22 vectors produced by pass  6 Test12= 1.63D-14 1.39D-09 XBig12= 3.30D-14 1.51D-08.
 InvSVY:  IOpt=1 It=  1 EMax= 3.33D-16
 Solved reduced A of dimension   418 with    72 vectors.
 End of Minotr F.D. properties file   721 does not exist.
 End of Minotr F.D. properties file   722 does not exist.
 End of Minotr F.D. properties file   788 does not exist.
 Leave Link 1002 at Sun Sep 29 11:56:22 2019, MaxMem=   671088640 cpu:            8276.8 elap:            4138.7
 (Enter /shared/centos7/gaussian/g16/l601.exe)
 Copying SCF densities to generalized density rwf, IOpCl= 0 IROHF=0.

 **********************************************************************

            Population analysis using the SCF density.

 **********************************************************************

 Orbital symmetries:
       Occupied  (A) (A) (A) (A) (A) (A) (A) (A) (A) (A) (A) (A)
                 (A) (A) (A) (A) (A) (A) (A) (A) (A) (A) (A) (A)
                 (A) (A) (A) (A) (A)
       Virtual   (A) (A) (A) (A) (A) (A) (A) (A) (A) (A) (A) (A)
                 (A) (A) (A) (A) (A) (A) (A) (A) (A) (A) (A) (A)
                 (A) (A) (A) (A) (A) (A) (A) (A) (A) (A) (A) (A)
                 (A) (A) (A) (A) (A) (A) (A) (A) (A) (A) (A) (A)
                 (A) (A) (A) (A) (A) (A) (A) (A) (A) (A) (A) (A)
                 (A) (A) (A) (A) (A) (A) (A) (A) (A) (A) (A) (A)
                 (A) (A) (A) (A) (A) (A) (A) (A) (A) (A) (A) (A)
                 (A) (A) (A) (A) (A) (A) (A) (A) (A) (A) (A) (A)
                 (A) (A) (A) (A) (A) (A) (A) (A) (A) (A) (A) (A)
                 (A) (A) (A) (A) (A) (A) (A) (A) (A) (A) (A) (A)
                 (A) (A) (A) (A) (A) (A) (A) (A) (A) (A) (A) (A)
                 (A) (A) (A) (A) (A) (A) (A) (A) (A) (A) (A) (A)
                 (A) (A) (A) (A) (A) (A) (A) (A) (A) (A) (A) (A)
                 (A) (A) (A) (A) (A) (A) (A) (A) (A) (A) (A) (A)
                 (A) (A) (A) (A) (A) (A) (A) (A) (A) (A) (A) (A)
                 (A) (A) (A) (A) (A) (A) (A) (A) (A) (A) (A) (A)
                 (A) (A) (A) (A) (A) (A) (A) (A) (A) (A) (A) (A)
                 (A) (A) (A) (A) (A) (A) (A) (A) (A) (A) (A) (A)
                 (A) (A) (A) (A) (A) (A) (A) (A) (A) (A) (A) (A)
                 (A) (A) (A) (A) (A) (A) (A) (A) (A) (A) (A) (A)
                 (A) (A) (A) (A) (A) (A) (A) (A) (A) (A) (A) (A)
                 (A) (A) (A) (A) (A) (A) (A) (A) (A) (A) (A) (A)
                 (A) (A) (A) (A) (A) (A) (A) (A) (A) (A) (A) (A)
                 (A) (A) (A) (A) (A) (A) (A) (A) (A) (A) (A) (A)
                 (A) (A) (A) (A) (A) (A) (A) (A) (A) (A) (A) (A)
                 (A) (A) (A) (A) (A) (A) (A) (A) (A) (A) (A) (A)
                 (A) (A) (A) (A) (A) (A) (A) (A) (A) (A) (A) (A)
                 (A) (A) (A) (A) (A) (A) (A) (A) (A) (A) (A) (A)
                 (A) (A) (A) (A) (A) (A) (A) (A) (A) (A) (A) (A)
                 (A) (A) (A) (A) (A) (A) (A) (A) (A) (A) (A) (A)
                 (A) (A) (A) (A) (A) (A) (A) (A) (A) (A) (A) (A)
                 (A) (A) (A) (A) (A) (A) (A) (A) (A) (A) (A) (A)
                 (A) (A) (A) (A) (A) (A) (A) (A) (A) (A) (A) (A)
                 (A) (A) (A) (A) (A) (A) (A) (A) (A)
 The electronic state is 1-A.
 Alpha  occ. eigenvalues --  -10.52878 -10.52566 -10.52549 -10.52482 -10.52303
 Alpha  occ. eigenvalues --  -10.52196 -10.51883  -0.92396  -0.88236  -0.82297
 Alpha  occ. eigenvalues --   -0.76916  -0.71145  -0.64423  -0.63557  -0.55031
 Alpha  occ. eigenvalues --   -0.52521  -0.52049  -0.50708  -0.47403  -0.46145
 Alpha  occ. eigenvalues --   -0.44617  -0.43444  -0.42131  -0.40715  -0.39163
 Alpha  occ. eigenvalues --   -0.37671  -0.36774  -0.36019  -0.34878
 Alpha virt. eigenvalues --    0.06676   0.07683   0.08490   0.09049   0.11827
 Alpha virt. eigenvalues --    0.12057   0.12454   0.13419   0.13502   0.15128
 Alpha virt. eigenvalues --    0.15560   0.17140   0.17516   0.17948   0.20236
 Alpha virt. eigenvalues --    0.22621   0.22864   0.23831   0.24580   0.25609
 Alpha virt. eigenvalues --    0.27684   0.29029   0.29518   0.30839   0.31151
 Alpha virt. eigenvalues --    0.32304   0.32794   0.33970   0.34351   0.35985
 Alpha virt. eigenvalues --    0.37126   0.39583   0.42506   0.43724   0.45025
 Alpha virt. eigenvalues --    0.45594   0.46426   0.46679   0.47078   0.48682
 Alpha virt. eigenvalues --    0.48822   0.49152   0.50654   0.51154   0.51376
 Alpha virt. eigenvalues --    0.51805   0.52467   0.53410   0.54274   0.54457
 Alpha virt. eigenvalues --    0.55224   0.56459   0.56565   0.57553   0.58387
 Alpha virt. eigenvalues --    0.58649   0.59802   0.60921   0.63140   0.65803
 Alpha virt. eigenvalues --    0.66698   0.68905   0.70904   0.72488   0.75331
 Alpha virt. eigenvalues --    0.76519   0.79666   0.81003   0.82961   0.84097
 Alpha virt. eigenvalues --    0.86072   0.87340   0.89290   0.90232   0.92682
 Alpha virt. eigenvalues --    0.93647   0.95494   0.96938   0.98444   1.00104
 Alpha virt. eigenvalues --    1.00520   1.02400   1.03209   1.04004   1.04939
 Alpha virt. eigenvalues --    1.06108   1.07416   1.07983   1.09594   1.10122
 Alpha virt. eigenvalues --    1.11471   1.12207   1.13415   1.14243   1.15605
 Alpha virt. eigenvalues --    1.15875   1.17151   1.18321   1.18707   1.19201
 Alpha virt. eigenvalues --    1.20485   1.21293   1.22086   1.22774   1.23531
 Alpha virt. eigenvalues --    1.25410   1.26449   1.27086   1.28905   1.29200
 Alpha virt. eigenvalues --    1.30378   1.30981   1.31991   1.32526   1.32871
 Alpha virt. eigenvalues --    1.34416   1.36279   1.37693   1.38680   1.39682
 Alpha virt. eigenvalues --    1.41828   1.42100   1.42928   1.44208   1.46480
 Alpha virt. eigenvalues --    1.47170   1.47617   1.48504   1.49614   1.50129
 Alpha virt. eigenvalues --    1.52151   1.52748   1.54040   1.54891   1.55807
 Alpha virt. eigenvalues --    1.58272   1.61019   1.62126   1.63760   1.65688
 Alpha virt. eigenvalues --    1.66037   1.69378   1.71636   1.74488   1.75535
 Alpha virt. eigenvalues --    1.79668   1.84785   1.87635   1.95696   2.22929
 Alpha virt. eigenvalues --    2.26522   2.29505   2.32105   2.35097   2.36098
 Alpha virt. eigenvalues --    2.39267   2.40648   2.42334   2.43865   2.47095
 Alpha virt. eigenvalues --    2.47983   2.49756   2.50548   2.51874   2.53328
 Alpha virt. eigenvalues --    2.54572   2.56783   2.58444   2.58906   2.60330
 Alpha virt. eigenvalues --    2.62457   2.63103   2.63167   2.65402   2.67033
 Alpha virt. eigenvalues --    2.68203   2.68789   2.70012   2.70506   2.72648
 Alpha virt. eigenvalues --    2.73352   2.75244   2.76460   2.78540   2.79251
 Alpha virt. eigenvalues --    2.79644   2.82816   2.83486   2.85138   2.87405
 Alpha virt. eigenvalues --    2.87636   2.88036   2.89610   2.90586   2.94278
 Alpha virt. eigenvalues --    2.94640   2.95356   2.95595   2.97512   2.98577
 Alpha virt. eigenvalues --    3.00858   3.01267   3.02968   3.04487   3.05924
 Alpha virt. eigenvalues --    3.06139   3.06731   3.08299   3.08413   3.09228
 Alpha virt. eigenvalues --    3.11207   3.11633   3.12293   3.13290   3.14093
 Alpha virt. eigenvalues --    3.14579   3.15200   3.15927   3.17170   3.17878
 Alpha virt. eigenvalues --    3.19024   3.20444   3.20844   3.22055   3.23763
 Alpha virt. eigenvalues --    3.25466   3.26287   3.27362   3.28952   3.30245
 Alpha virt. eigenvalues --    3.31816   3.33569   3.33637   3.36495   3.37186
 Alpha virt. eigenvalues --    3.38228   3.39420   3.41164   3.42005   3.43115
 Alpha virt. eigenvalues --    3.43806   3.45009   3.45620   3.46851   3.47926
 Alpha virt. eigenvalues --    3.50576   3.51181   3.54146   3.54650   3.56323
 Alpha virt. eigenvalues --    3.56699   3.57174   3.58973   3.61772   3.62860
 Alpha virt. eigenvalues --    3.63443   3.65782   3.66173   3.68799   3.69923
 Alpha virt. eigenvalues --    3.70201   3.71112   3.71918   3.72519   3.74187
 Alpha virt. eigenvalues --    3.75390   3.76038   3.76556   3.79681   3.80885
 Alpha virt. eigenvalues --    3.81289   3.82194   3.83982   3.84757   3.85155
 Alpha virt. eigenvalues --    3.85926   3.88234   3.88286   3.88836   3.89715
 Alpha virt. eigenvalues --    3.90855   3.91128   3.94584   3.94791   3.96634
 Alpha virt. eigenvalues --    3.97570   3.99369   4.00565   4.01480   4.01855
 Alpha virt. eigenvalues --    4.03160   4.03752   4.04967   4.05448   4.07332
 Alpha virt. eigenvalues --    4.08452   4.09002   4.10353   4.10918   4.12888
 Alpha virt. eigenvalues --    4.13533   4.15095   4.16136   4.17460   4.18102
 Alpha virt. eigenvalues --    4.18803   4.20378   4.20592   4.22236   4.22868
 Alpha virt. eigenvalues --    4.24338   4.25657   4.27512   4.29899   4.30426
 Alpha virt. eigenvalues --    4.31661   4.33375   4.33804   4.36139   4.36702
 Alpha virt. eigenvalues --    4.38151   4.40555   4.42408   4.45524   4.47552
 Alpha virt. eigenvalues --    4.48790   4.52075   4.53283   4.54860   4.57015
 Alpha virt. eigenvalues --    4.58862   4.62421   4.65801   4.66271   4.67726
 Alpha virt. eigenvalues --    4.69543   4.69987   4.73594   4.74829   4.75674
 Alpha virt. eigenvalues --    4.76542   4.78809   4.79358   4.80059   4.82086
 Alpha virt. eigenvalues --    4.83126   4.85783   4.86357   4.90095   4.92140
 Alpha virt. eigenvalues --    4.92831   4.93484   4.95754   4.98449   5.00361
 Alpha virt. eigenvalues --    5.02698   5.03657   5.04867   5.07600   5.10122
 Alpha virt. eigenvalues --    5.11798   5.14457   5.16851   5.17801   5.20640
 Alpha virt. eigenvalues --    5.22603   5.23344   5.24929   5.26529   5.27751
 Alpha virt. eigenvalues --    5.28565   5.29893   5.30861   5.33614   5.35625
 Alpha virt. eigenvalues --    5.37316   5.40186   5.42834   5.43352   5.45244
 Alpha virt. eigenvalues --    5.47948   5.48492   5.51540   5.54395   5.58188
 Alpha virt. eigenvalues --    5.60560   5.62662   5.69594   5.70476   5.80566
 Alpha virt. eigenvalues --    5.83306   5.88748   5.89708   5.92914   5.94075
 Alpha virt. eigenvalues --    5.99998   6.02808   6.04401  11.93312  12.25315
 Alpha virt. eigenvalues --   12.71825  13.01139  13.34180  13.45119  13.70817
          Condensed to atoms (all electrons):
               1          2          3          4          5          6
     1  C    5.146069   0.287268  -0.039890   0.330478  -0.006469  -0.053630
     2  C    0.287268   5.180686   0.287776  -0.051980  -0.044802  -0.009545
     3  C   -0.039890   0.287776   5.074186   0.006332   0.323241   0.000450
     4  C    0.330478  -0.051980   0.006332   5.016690   0.000409   0.301825
     5  C   -0.006469  -0.044802   0.323241   0.000409   5.020465  -0.000228
     6  C   -0.053630  -0.009545   0.000450   0.301825  -0.000228   5.017386
     7  C   -0.009924   0.004755  -0.049539  -0.000050   0.295859  -0.000193
     8  H   -0.044726  -0.007182   0.000253   0.408839  -0.000046  -0.047651
     9  H   -0.046854   0.010463  -0.000441   0.416402   0.000016  -0.043498
    10  H    0.408311  -0.039702  -0.006058  -0.033465   0.000293   0.008619
    11  H    0.429006  -0.065993   0.006761  -0.043471  -0.001068  -0.005588
    12  H   -0.043816   0.405866  -0.031250  -0.002172   0.006338   0.000298
    13  H   -0.052137   0.413299  -0.048433  -0.002526  -0.000669  -0.005787
    14  H   -0.004435  -0.054891   0.408041   0.000871  -0.039528  -0.000115
    15  H    0.007910  -0.043171   0.417218  -0.000507  -0.045542   0.000014
    16  H    0.000189  -0.006790  -0.038799   0.000104   0.409471  -0.000069
    17  H   -0.000766   0.010413  -0.050861   0.000002   0.421360   0.000009
    18  H   -0.008483  -0.001232   0.000552  -0.044903   0.000085   0.408130
    19  H    0.002766  -0.002187   0.000092  -0.053660   0.000043   0.404769
    20  H    0.008369   0.000352  -0.000008  -0.038945  -0.000006   0.406403
    21  H   -0.002361   0.007568  -0.008106  -0.001452  -0.041102   0.001413
    22  H   -0.017664  -0.006065   0.004938   0.001985  -0.049342  -0.000163
    23  H    0.001260  -0.001191   0.008419  -0.000059  -0.037900   0.000021
               7          8          9         10         11         12
     1  C   -0.009924  -0.044726  -0.046854   0.408311   0.429006  -0.043816
     2  C    0.004755  -0.007182   0.010463  -0.039702  -0.065993   0.405866
     3  C   -0.049539   0.000253  -0.000441  -0.006058   0.006761  -0.031250
     4  C   -0.000050   0.408839   0.416402  -0.033465  -0.043471  -0.002172
     5  C    0.295859  -0.000046   0.000016   0.000293  -0.001068   0.006338
     6  C   -0.000193  -0.047651  -0.043498   0.008619  -0.005588   0.000298
     7  C    5.029518  -0.000129   0.000055   0.000838  -0.017045  -0.000376
     8  H   -0.000129   0.608962  -0.033105  -0.006619   0.010148   0.003852
     9  H    0.000055  -0.033105   0.597367  -0.007654  -0.008135  -0.000000
    10  H    0.000838  -0.006619  -0.007654   0.573284  -0.035465  -0.010982
    11  H   -0.017045   0.010148  -0.008135  -0.035465   0.590227   0.008730
    12  H   -0.000376   0.003852  -0.000000  -0.010982   0.008730   0.568700
    13  H   -0.005391  -0.000367  -0.000229   0.008364  -0.002897  -0.032667
    14  H   -0.004965   0.000002  -0.000061   0.003749  -0.001276  -0.001265
    15  H    0.008922  -0.000004   0.000028   0.000016  -0.000269  -0.012214
    16  H   -0.048067  -0.000005   0.000001   0.000007  -0.000284  -0.000361
    17  H   -0.040671  -0.000001  -0.000004   0.000081  -0.000443  -0.000404
    18  H   -0.000181  -0.004699   0.008352  -0.000484  -0.000178   0.001551
    19  H   -0.001214   0.009082  -0.009285   0.000144   0.003534   0.000018
    20  H    0.000055  -0.008513  -0.004819  -0.000419  -0.000019  -0.000116
    21  H    0.405013   0.000032  -0.000055   0.000277  -0.004304   0.000145
    22  H    0.408046  -0.000191   0.000161   0.001868  -0.019327  -0.000549
    23  H    0.403911   0.000007  -0.000003  -0.000067   0.002649   0.000063
              13         14         15         16         17         18
     1  C   -0.052137  -0.004435   0.007910   0.000189  -0.000766  -0.008483
     2  C    0.413299  -0.054891  -0.043171  -0.006790   0.010413  -0.001232
     3  C   -0.048433   0.408041   0.417218  -0.038799  -0.050861   0.000552
     4  C   -0.002526   0.000871  -0.000507   0.000104   0.000002  -0.044903
     5  C   -0.000669  -0.039528  -0.045542   0.409471   0.421360   0.000085
     6  C   -0.005787  -0.000115   0.000014  -0.000069   0.000009   0.408130
     7  C   -0.005391  -0.004965   0.008922  -0.048067  -0.040671  -0.000181
     8  H   -0.000367   0.000002  -0.000004  -0.000005  -0.000001  -0.004699
     9  H   -0.000229  -0.000061   0.000028   0.000001  -0.000004   0.008352
    10  H    0.008364   0.003749   0.000016   0.000007   0.000081  -0.000484
    11  H   -0.002897  -0.001276  -0.000269  -0.000284  -0.000443  -0.000178
    12  H   -0.032667  -0.001265  -0.012214  -0.000361  -0.000404   0.001551
    13  H    0.587662   0.008784  -0.000917   0.003570   0.000138  -0.010002
    14  H    0.008784   0.586428  -0.031533   0.008251  -0.010202  -0.000112
    15  H   -0.000917  -0.031533   0.590191  -0.010887  -0.002739   0.000061
    16  H    0.003570   0.008251  -0.010887   0.604527  -0.034991   0.000017
    17  H    0.000138  -0.010202  -0.002739  -0.034991   0.593342  -0.000020
    18  H   -0.010002  -0.000112   0.000061   0.000017  -0.000020   0.600712
    19  H    0.000618   0.000015  -0.000001  -0.000004  -0.000000  -0.042344
    20  H    0.000316   0.000004  -0.000002  -0.000001   0.000001  -0.029238
    21  H   -0.000722   0.000148  -0.000425  -0.010605   0.007748  -0.000746
    22  H    0.001809   0.003022   0.000016   0.008540  -0.001913   0.000070
    23  H   -0.000125  -0.000179  -0.000419  -0.001308  -0.011507   0.000006
              19         20         21         22         23
     1  C    0.002766   0.008369  -0.002361  -0.017664   0.001260
     2  C   -0.002187   0.000352   0.007568  -0.006065  -0.001191
     3  C    0.000092  -0.000008  -0.008106   0.004938   0.008419
     4  C   -0.053660  -0.038945  -0.001452   0.001985  -0.000059
     5  C    0.000043  -0.000006  -0.041102  -0.049342  -0.037900
     6  C    0.404769   0.406403   0.001413  -0.000163   0.000021
     7  C   -0.001214   0.000055   0.405013   0.408046   0.403911
     8  H    0.009082  -0.008513   0.000032  -0.000191   0.000007
     9  H   -0.009285  -0.004819  -0.000055   0.000161  -0.000003
    10  H    0.000144  -0.000419   0.000277   0.001868  -0.000067
    11  H    0.003534  -0.000019  -0.004304  -0.019327   0.002649
    12  H    0.000018  -0.000116   0.000145  -0.000549   0.000063
    13  H    0.000618   0.000316  -0.000722   0.001809  -0.000125
    14  H    0.000015   0.000004   0.000148   0.003022  -0.000179
    15  H   -0.000001  -0.000002  -0.000425   0.000016  -0.000419
    16  H   -0.000004  -0.000001  -0.010605   0.008540  -0.001308
    17  H   -0.000000   0.000001   0.007748  -0.001913  -0.011507
    18  H   -0.042344  -0.029238  -0.000746   0.000070   0.000006
    19  H    0.599832  -0.025504   0.000041  -0.000341   0.000117
    20  H   -0.025504   0.570456   0.000119  -0.000013  -0.000002
    21  H    0.000041   0.000119   0.585145  -0.041857  -0.027220
    22  H   -0.000341  -0.000013  -0.041857   0.622878  -0.029758
    23  H    0.000117  -0.000002  -0.027220  -0.029758   0.578207
 Mulliken charges:
               1
     1  C   -0.290470
     2  C   -0.273716
     3  C   -0.264875
     4  C   -0.210747
     5  C   -0.210879
     6  C   -0.382870
     7  C   -0.379228
     8  H    0.112064
     9  H    0.121298
    10  H    0.135065
    11  H    0.154707
    12  H    0.140610
    13  H    0.138309
    14  H    0.129245
    15  H    0.124253
    16  H    0.117493
    17  H    0.121429
    18  H    0.123083
    19  H    0.113470
    20  H    0.121530
    21  H    0.131306
    22  H    0.113848
    23  H    0.115077
 Sum of Mulliken charges =  -0.00000
 Mulliken charges with hydrogens summed into heavy atoms:
               1
     1  C   -0.000699
     2  C    0.005203
     3  C   -0.011376
     4  C    0.022614
     5  C    0.028043
     6  C   -0.024788
     7  C   -0.018997
 APT charges:
               1
     1  C   -0.542775
     2  C   -0.558297
     3  C   -0.847326
     4  C   -0.893113
     5  C   -0.926875
     6  C   -1.063756
     7  C   -0.904577
     8  H    0.404914
     9  H    0.441075
    10  H    0.398890
    11  H    0.268869
    12  H    0.412068
    13  H    0.261670
    14  H    0.343843
    15  H    0.451473
    16  H    0.361029
    17  H    0.519033
    18  H    0.147835
    19  H    0.245942
    20  H    0.590710
    21  H    0.185112
    22  H    0.153594
    23  H    0.550664
 Sum of APT charges =  -0.00000
 APT charges with hydrogens summed into heavy atoms:
               1
     1  C    0.124983
     2  C    0.115441
     3  C   -0.052010
     4  C   -0.047124
     5  C   -0.046814
     6  C   -0.079269
     7  C   -0.015207
 Electronic spatial extent (au):  <R**2>=           1082.6667
 Charge=             -0.0000 electrons
 Dipole moment (field-independent basis, Debye):
    X=             -0.0731    Y=             -0.0637    Z=              0.0225  Tot=              0.0995
 Quadrupole moment (field-independent basis, Debye-Ang):
   XX=            -49.2411   YY=            -49.3846   ZZ=            -48.9511
   XY=             -0.1817   XZ=              0.0293   YZ=              0.1706
 Traceless Quadrupole moment (field-independent basis, Debye-Ang):
   XX=             -0.0489   YY=             -0.1923   ZZ=              0.2412
   XY=             -0.1817   XZ=              0.0293   YZ=              0.1706
 Octapole moment (field-independent basis, Debye-Ang**2):
  XXX=             -0.1781  YYY=             -2.3655  ZZZ=              0.1615  XYY=             -0.3570
  XXY=              0.3422  XXZ=              0.6388  XZZ=             -0.6368  YZZ=             -0.5956
  YYZ=              0.1815  XYZ=              0.4392
 Hexadecapole moment (field-independent basis, Debye-Ang**3):
 XXXX=           -997.1491 YYYY=           -355.5588 ZZZZ=           -179.4591 XXXY=             -1.2363
 XXXZ=             -6.1190 YYYX=             -3.8922 YYYZ=              1.9791 ZZZX=              4.0209
 ZZZY=             -0.7369 XXYY=           -227.3082 XXZZ=           -197.8103 YYZZ=            -89.8646
 XXYZ=              2.7288 YYXZ=              1.6297 ZZXY=              1.1115
 N-N= 3.324746353069D+02 E-N=-1.303374065047D+03  KE= 2.745051824469D+02
  Exact polarizability:   0.000   0.000   0.000   0.000   0.000   0.000
 Approx polarizability:  99.580  -1.263  99.213   0.016   0.180  98.790
 No NMR shielding tensors so no spin-rotation constants.
 Leave Link  601 at Sun Sep 29 11:56:44 2019, MaxMem=   671088640 cpu:              44.3 elap:              22.2
 (Enter /shared/centos7/gaussian/g16/l701.exe)
 SCFChk:  SCF convergence  7.28D-09 required  1.00D-08
 ... and contract with generalized density number  0.
 Compute integral second derivatives.
 Entering OneElI...
 Calculate overlap and kinetic energy integrals
    NBasis = 485  MinDer = 2  MaxDer = 2
 Requested accuracy = 0.1000D-12
 PrmmSu-InSpLW:  IPartL=    0 NPrtUS=   20 NPrtUL=    1 DoSpLW=F IThBeg=    0 IThEnd=   19 NThAct=   20.
 PrsmSu:  NPrtUS=  20 ThrOK=T IAlg=1 NPAlg=1 LenDen=           0 ISkipM=0 DoSpLW=F IThBeg=    0 IThEnd=   19.
 Prism:   IPart=     0 DynPar=F LinDyn=F Incr=           6.
 PRISM was handed    33197683 working-precision words and 13729 shell-pairs
 PRISM was handed    33197683 working-precision words and 13729 shell-pairs
 PRISM was handed    33197683 working-precision words and 13729 shell-pairs
 PRISM was handed    33197683 working-precision words and 13729 shell-pairs
 PRISM was handed    33197683 working-precision words and 13729 shell-pairs
 PRISM was handed    33197683 working-precision words and 13729 shell-pairs
 PRISM was handed    33197683 working-precision words and 13729 shell-pairs
 PRISM was handed    33197683 working-precision words and 13729 shell-pairs
 PRISM was handed    33197683 working-precision words and 13729 shell-pairs
 IPart=  0 NShTot=         723 NBatch=          79 AvBLen=         9.2
 PRISM was handed    33197683 working-precision words and 13729 shell-pairs
 IPart=  1 NShTot=         722 NBatch=          79 AvBLen=         9.1
 PRISM was handed    33197683 working-precision words and 13729 shell-pairs
 PRISM was handed    33197683 working-precision words and 13729 shell-pairs
 IPart= 17 NShTot=         663 NBatch=          50 AvBLen=        13.3
 PRISM was handed    33197683 working-precision words and 13729 shell-pairs
 PRISM was handed    33197683 working-precision words and 13729 shell-pairs
 PRISM was handed    33197683 working-precision words and 13729 shell-pairs
 PRISM was handed    33197683 working-precision words and 13729 shell-pairs
 IPart=  9 NShTot=         685 NBatch=          58 AvBLen=        11.8
 PRISM was handed    33197683 working-precision words and 13729 shell-pairs
 PRISM was handed    33197683 working-precision words and 13729 shell-pairs
 IPart= 11 NShTot=         678 NBatch=          56 AvBLen=        12.1
 IPart=  2 NShTot=         716 NBatch=          76 AvBLen=         9.4
 IPart=  4 NShTot=         710 NBatch=          73 AvBLen=         9.7
 IPart= 12 NShTot=         673 NBatch=          54 AvBLen=        12.5
 IPart=  6 NShTot=         699 NBatch=          66 AvBLen=        10.6
 PRISM was handed    33197683 working-precision words and 13729 shell-pairs
 PRISM was handed    33197683 working-precision words and 13729 shell-pairs
 IPart= 10 NShTot=         680 NBatch=          57 AvBLen=        11.9
 IPart= 13 NShTot=         669 NBatch=          53 AvBLen=        12.6
 IPart= 16 NShTot=         663 NBatch=          50 AvBLen=        13.3
 IPart=  8 NShTot=         688 NBatch=          58 AvBLen=        11.9
 IPart=  7 NShTot=         691 NBatch=          58 AvBLen=        11.9
 IPart=  3 NShTot=         714 NBatch=          74 AvBLen=         9.6
 IPart= 19 NShTot=         661 NBatch=          49 AvBLen=        13.5
 IPart= 15 NShTot=         665 NBatch=          52 AvBLen=        12.8
 IPart=  5 NShTot=         703 NBatch=          69 AvBLen=        10.2
 IPart= 18 NShTot=         661 NBatch=          49 AvBLen=        13.5
 IPart= 14 NShTot=         665 NBatch=          52 AvBLen=        12.8
 PrSmSu:  NxtVal=            121.
 Entering OneElI...
 Calculate potential energy integrals
    NBasis = 485  MinDer = 2  MaxDer = 2
 Requested accuracy = 0.1000D-12
 PrmmSu-InSpLW:  IPartL=    0 NPrtUS=   20 NPrtUL=    1 DoSpLW=F IThBeg=    0 IThEnd=   19 NThAct=   20.
 PrsmSu:  NPrtUS=  20 ThrOK=T IAlg=1 NPAlg=1 LenDen=           0 ISkipM=0 DoSpLW=F IThBeg=    0 IThEnd=   19.
 Prism:   IPart=     0 DynPar=F LinDyn=F Incr=         143.
 PRISM was handed    33259929 working-precision words and 12496 shell-pairs
 PRISM was handed    33259929 working-precision words and 12496 shell-pairs
 PRISM was handed    33259929 working-precision words and 12496 shell-pairs
 PRISM was handed    33259929 working-precision words and 12496 shell-pairs
 PRISM was handed    33259929 working-precision words and 12496 shell-pairs
 PRISM was handed    33259929 working-precision words and 12496 shell-pairs
 PRISM was handed    33259929 working-precision words and 12496 shell-pairs
 PRISM was handed    33259929 working-precision words and 12496 shell-pairs
 PRISM was handed    33259929 working-precision words and 12496 shell-pairs
 PRISM was handed    33259929 working-precision words and 12496 shell-pairs
 PRISM was handed    33259929 working-precision words and 12496 shell-pairs
 PRISM was handed    33259929 working-precision words and 12496 shell-pairs
 PRISM was handed    33259929 working-precision words and 12496 shell-pairs
 PRISM was handed    33259929 working-precision words and 12496 shell-pairs
 PRISM was handed    33259929 working-precision words and 12496 shell-pairs
 PRISM was handed    33259929 working-precision words and 12496 shell-pairs
 PRISM was handed    33259929 working-precision words and 12496 shell-pairs
 PRISM was handed    33259929 working-precision words and 12496 shell-pairs
 PRISM was handed    33259929 working-precision words and 12496 shell-pairs
 PRISM was handed    33259929 working-precision words and 12496 shell-pairs
 IPart= 16 NShTot=       13938 NBatch=         607 AvBLen=        23.0
 IPart= 10 NShTot=       14214 NBatch=         619 AvBLen=        23.0
 IPart=  0 NShTot=       15065 NBatch=         657 AvBLen=        22.9
 IPart= 18 NShTot=       13800 NBatch=         601 AvBLen=        23.0
 IPart= 17 NShTot=       13823 NBatch=         602 AvBLen=        23.0
 IPart=  6 NShTot=       14697 NBatch=         641 AvBLen=        22.9
 IPart=  7 NShTot=       14513 NBatch=         633 AvBLen=        22.9
 IPart=  8 NShTot=       14421 NBatch=         628 AvBLen=        23.0
 IPart= 19 NShTot=       13777 NBatch=         600 AvBLen=        23.0
 IPart= 11 NShTot=       14191 NBatch=         618 AvBLen=        23.0
 IPart=  9 NShTot=       14329 NBatch=         624 AvBLen=        23.0
 IPart= 12 NShTot=       14099 NBatch=         614 AvBLen=        23.0
 IPart= 13 NShTot=       14007 NBatch=         610 AvBLen=        23.0
 IPart=  4 NShTot=       14858 NBatch=         648 AvBLen=        22.9
 IPart= 15 NShTot=       13984 NBatch=         609 AvBLen=        23.0
 IPart= 14 NShTot=       14007 NBatch=         610 AvBLen=        23.0
 IPart=  1 NShTot=       14973 NBatch=         653 AvBLen=        22.9
 IPart=  2 NShTot=       14973 NBatch=         653 AvBLen=        22.9
 IPart=  5 NShTot=       14835 NBatch=         647 AvBLen=        22.9
 IPart=  3 NShTot=       14904 NBatch=         650 AvBLen=        22.9
 PrSmSu:  NxtVal=           2861.
 Polarizability after L701:
                1             2             3 
      1  0.000000D+00
      2  0.000000D+00  0.000000D+00
      3  0.000000D+00  0.000000D+00  0.000000D+00
 Dipole Derivatives after L701:
                 1             2             3             4             5 
      1   0.208191D-01  0.771284D-01 -0.363566D+00 -0.683857D-01  0.198693D+00
      2   0.227399D-01 -0.750359D+00  0.438870D+00  0.432391D+00 -0.930871D+00
      3   0.236650D+00  0.790698D-01 -0.898786D+00  0.179280D+00  0.898679D-01
                 6             7             8             9            10 
      1   0.728382D-01 -0.668954D+00 -0.103391D+01  0.175144D+00 -0.156696D+01
      2  -0.426735D+00 -0.570289D+00 -0.104997D+01  0.904617D-01  0.230084D+00
      3  -0.675635D+00 -0.149722D+00 -0.179579D+00 -0.823051D+00 -0.355761D+00
                11            12            13            14            15 
      1   0.934651D+00 -0.806162D+00 -0.196529D+01  0.109036D+00 -0.570918D+00
      2  -0.504958D+00 -0.292939D+00  0.194068D+00 -0.226652D-01  0.262279D+00
      3  -0.228585D+00 -0.607426D+00  0.326516D-01  0.191993D+00 -0.792671D+00
                16            17            18            19            20 
      1  -0.104896D+01 -0.109471D+01  0.958328D+00 -0.383778D+00  0.910097D+00
      2  -0.185616D-01 -0.112342D+01  0.920343D-01 -0.173581D+00 -0.135501D+01
      3   0.187840D-01  0.327661D-01 -0.101889D+01  0.276314D-01 -0.127396D-02
                21            22            23            24            25 
      1   0.544431D+00  0.597944D+00 -0.757383D+00 -0.341283D+00  0.611439D+00
      2  -0.209638D+00 -0.199572D+00  0.478751D+00  0.137489D+00  0.345299D-01
      3  -0.974946D+00 -0.261945D-01  0.343921D-02  0.138047D+00  0.229763D+00
                26            27            28            29            30 
      1   0.300905D+00  0.794187D+00  0.155835D+00 -0.196692D+00  0.200854D+00
      2   0.157757D+00  0.358893D-01 -0.155277D-01  0.519927D+00 -0.338235D+00
      3   0.144040D+00  0.554029D+00  0.411761D-01 -0.411251D+00  0.520908D+00
                31            32            33            34            35 
      1   0.140755D+00  0.475695D-01  0.634198D-01  0.182731D+00 -0.113888D+00
      2  -0.114773D+00  0.324739D+00  0.546481D-01 -0.195383D+00  0.846645D+00
      3  -0.238693D+00  0.384685D+00  0.341112D+00 -0.459851D-01  0.253494D+00
                36            37            38            39            40 
      1  -0.688226D-02  0.171054D+00  0.532344D-01 -0.443717D-01  0.262178D+00
      2   0.181327D+00 -0.177843D-01  0.104926D+00  0.629724D-01  0.912147D-01
      3   0.206829D+00 -0.138211D+00 -0.330276D+00  0.509029D+00 -0.664745D-01
                41            42            43            44            45 
      1   0.194006D+00 -0.537211D+00  0.443963D+00  0.442456D+00  0.478617D+00
      2   0.312856D+00 -0.482896D+00  0.247949D+00  0.560086D+00  0.438084D+00
      3  -0.121896D+00  0.456494D+00  0.139101D+00  0.214628D+00  0.350371D+00
                46            47            48            49            50 
      1   0.262081D+00 -0.150344D+00  0.816586D+00  0.122214D+01  0.996075D-01
      2  -0.179432D-01  0.187861D+00 -0.163175D+00 -0.432499D-01  0.158595D+00
      3   0.760662D-01 -0.932311D-01  0.633144D+00 -0.986048D-01 -0.114138D-01
                51            52            53            54            55 
      1  -0.496983D+00 -0.252736D+00 -0.655116D-01 -0.415589D+00 -0.130063D+00
      2   0.128862D-01 -0.111743D+00  0.112977D+00 -0.132372D+00 -0.240289D+00
      3   0.176365D+00  0.399354D+00  0.135571D+00  0.583266D+00  0.172343D-01
                56            57            58            59            60 
      1   0.576655D+00  0.215050D+00  0.141204D+01  0.779580D-01 -0.371250D+00
      2   0.735974D+00  0.254028D+00  0.363008D+00  0.142980D+00 -0.119617D+00
      3  -0.294131D-01  0.131915D+00 -0.358699D+00 -0.361002D-01  0.217113D+00
                61            62            63            64            65 
      1  -0.202099D-01 -0.584458D-01  0.930302D-01 -0.129919D+00  0.921024D-01
      2   0.475061D+00  0.318568D+00 -0.355778D+00  0.253555D+00  0.418976D-02
      3  -0.115682D+00 -0.458090D-01  0.256977D+00  0.329690D+00 -0.186265D+00
                66            67            68            69 
      1  -0.311548D+00  0.752280D+00 -0.643219D+00 -0.146720D+00
      2   0.305552D+00 -0.625902D+00  0.770420D+00  0.154865D+00
      3   0.586512D+00 -0.133355D+00  0.145539D+00  0.129291D+00
 Hessian after L701:
                1             2             3             4             5 
      1  0.152911D+02
      2 -0.732359D+00  0.177647D+02
      3 -0.305883D+00 -0.573137D-01  0.178656D+02
      4 -0.477851D+01  0.664566D+00  0.189810D+01  0.150058D+02
      5  0.732697D+00 -0.591622D+01  0.851163D+00 -0.313100D-01  0.174363D+02
      6  0.189401D+01  0.821548D+00 -0.419592D+01 -0.622086D+00 -0.190269D+00
      7  0.361662D+00  0.181484D+00  0.120218D+00 -0.217309D+01 -0.544698D-01
      8  0.123470D+00 -0.146956D+00  0.449225D-01 -0.204239D-01 -0.598884D+01
      9  0.241515D+00  0.763663D-01 -0.795772D-01 -0.544155D+00  0.247705D-01
     10 -0.273829D+01  0.103990D+01 -0.921288D+00  0.271908D+00  0.137541D+00
     11  0.101060D+01 -0.599852D+01 -0.285773D+00  0.246941D+00 -0.403717D-01
     12 -0.933764D+00 -0.292727D+00 -0.613462D+01  0.215827D+00  0.874239D-01
     13  0.149318D+00 -0.939411D-01  0.776446D-01  0.283713D+00 -0.199964D+00
     14 -0.866833D-01 -0.100079D+00 -0.184392D-01 -0.203384D+00  0.325054D-01
     15  0.107358D+00 -0.298778D-01 -0.107392D+00 -0.163448D+00  0.983641D-01
     16  0.964593D-01  0.221844D+00 -0.133206D+00  0.102678D+00  0.218398D+00
     17  0.166937D+00  0.752235D-01 -0.152384D+00  0.182282D+00 -0.428460D-01
     18 -0.149082D+00 -0.194467D+00  0.249631D-01  0.227254D-01  0.102061D-01
     19  0.143592D+00 -0.294372D+00 -0.144271D-01 -0.487376D-01 -0.298797D+00
     20 -0.202984D+00  0.842157D-02  0.121191D-01 -0.242347D+00  0.197899D+00
     21  0.997566D-01 -0.728597D-01 -0.181560D+00 -0.442781D-01  0.107361D+00
     22 -0.672266D-01  0.168774D-01  0.119638D+00  0.161605D-02  0.706473D-02
     23 -0.297205D-02  0.150056D+00 -0.920397D-02 -0.149161D-01 -0.531166D-02
     24  0.707274D-01  0.405349D-02  0.540101D-01  0.406244D-02  0.408062D-02
     25 -0.921685D-01 -0.700807D-01 -0.372083D-01  0.116693D+00  0.699987D-01
     26 -0.519463D-01  0.791525D-01 -0.114977D-02  0.660033D-01 -0.293579D-01
     27 -0.319267D-01 -0.310469D-02  0.145390D+00  0.121036D+00  0.466278D-01
     28 -0.443847D+01 -0.432205D-01  0.615902D-02  0.690299D-01 -0.705253D-02
     29  0.173673D-02 -0.320219D+01 -0.126861D+01 -0.199673D-01  0.148251D+00
     30 -0.444285D-01 -0.128419D+01 -0.302593D+01 -0.535273D-01 -0.626899D-01
     31 -0.431535D+01 -0.999472D+00 -0.600992D+00  0.221305D+00 -0.114079D+00
     32 -0.109291D+01 -0.304934D+01  0.105450D+01 -0.712456D-01  0.107250D+00
     33 -0.750747D+00  0.120406D+01 -0.411209D+01 -0.788201D-01 -0.225116D+00
     34  0.878909D-01 -0.895402D-01 -0.885740D-01 -0.425882D+01 -0.670654D+00
     35 -0.755577D-01  0.122657D+00 -0.105575D+00 -0.719609D+00 -0.244300D+01
     36 -0.780590D-01 -0.903311D-01 -0.577472D-01 -0.274780D+00  0.690492D+00
     37  0.126152D+00  0.234272D-01 -0.143231D+00 -0.470313D+01  0.310112D+00
     38  0.261817D-02  0.197440D+00 -0.512471D-01  0.297635D+00 -0.382313D+01
     39 -0.123187D+00 -0.197724D-01 -0.153196D+00 -0.503563D+00 -0.142533D+01
     40  0.902721D-02 -0.122278D-02  0.864579D-02 -0.867997D-01 -0.463913D-01
     41  0.143777D-01 -0.227192D-01 -0.107833D-02 -0.749119D-01  0.143216D+00
     42 -0.209109D-01 -0.578551D-02 -0.738438D-02  0.143578D+00  0.572040D-03
     43  0.929545D-01  0.609172D-01  0.779490D-01 -0.909276D-01 -0.851620D-02
     44  0.825286D-01 -0.139882D-01  0.390517D-01 -0.183071D-01  0.128439D+00
     45  0.916944D-01  0.397775D-01 -0.436006D-02 -0.734953D-02  0.352510D-01
     46  0.202286D-01 -0.123245D-01  0.141744D-01 -0.215444D-01 -0.149655D-02
     47 -0.129752D-01 -0.893898D-02 -0.486993D-02  0.330304D-02  0.193436D-02
     48  0.367315D-01 -0.136218D-01 -0.187302D-02  0.455082D-02 -0.104629D-01
     49  0.308302D-01 -0.774664D-02 -0.856341D-02  0.175840D+00 -0.804605D-01
     50 -0.825590D-03 -0.975149D-02 -0.108754D-02 -0.645433D-01 -0.356539D-01
[...]
   A26        1.89970  -0.00055  -0.00060  -0.00027  -0.00089   1.89881
   A27        1.89131  -0.00017   0.00121   0.00235   0.00355   1.89486
   A28        1.90423  -0.00024  -0.00294   0.00631   0.00335   1.90758
   A29        1.90473  -0.00043   0.00209  -0.00111   0.00099   1.90572
   A30        1.85691   0.00008   0.00185  -0.00105   0.00080   1.85771
   A31        1.94927  -0.00040   0.00243  -0.00167   0.00075   1.95002
   A32        1.92971   0.00001  -0.00214   0.00314   0.00100   1.93071
   A33        1.94402  -0.00017   0.00247  -0.00249  -0.00003   1.94400
   A34        1.87714   0.00028  -0.00288   0.00257  -0.00031   1.87682
   A35        1.87883   0.00018   0.00086  -0.00172  -0.00087   1.87796
   A36        1.88195   0.00012  -0.00093   0.00028  -0.00065   1.88129
   A37        1.94334   0.00001  -0.00283   0.00241  -0.00042   1.94292
   A38        1.93627   0.00018   0.00182  -0.00235  -0.00053   1.93574
   A39        1.93895  -0.00034   0.00079   0.00095   0.00174   1.94069
   A40        1.87844   0.00018  -0.00030   0.00117   0.00087   1.87931
   A41        1.87793   0.00002   0.00115  -0.00216  -0.00102   1.87691
   A42        1.88628  -0.00003  -0.00062  -0.00006  -0.00068   1.88560
    D1        2.98221  -0.00018   0.01320   0.01393   0.02714   3.00936
    D2        0.85215   0.00021   0.00545   0.01734   0.02279   0.87493
    D3       -1.15393   0.00034   0.00991   0.01193   0.02185  -1.13208
    D4        0.86460  -0.00004   0.01094   0.01464   0.02559   0.89019
    D5       -1.26547   0.00034   0.00319   0.01805   0.02123  -1.24423
    D6        3.01165   0.00047   0.00765   0.01264   0.02029   3.03194
    D7       -1.16067  -0.00022   0.01359   0.01576   0.02935  -1.13132
    D8        2.99245   0.00016   0.00583   0.01917   0.02499   3.01744
    D9        0.98638   0.00029   0.01030   0.01376   0.02405   1.01043
   D10        1.06470  -0.00007   0.02388  -0.02616  -0.00227   1.06242
   D11       -1.07203   0.00014   0.02397  -0.02568  -0.00171  -1.07374
   D12       -3.09472   0.00006   0.02315  -0.02265   0.00050  -3.09422
   D13       -3.10902  -0.00011   0.02530  -0.02566  -0.00035  -3.10937
   D14        1.03744   0.00010   0.02539  -0.02517   0.00022   1.03766
   D15       -0.98525   0.00003   0.02457  -0.02215   0.00242  -0.98282
   D16       -1.09253   0.00006   0.02232  -0.02470  -0.00237  -1.09490
   D17        3.05394   0.00027   0.02241  -0.02421  -0.00181   3.05213
   D18        1.03124   0.00019   0.02159  -0.02119   0.00040   1.03164
   D19        1.56243   0.00090   0.01187   0.05125   0.06311   1.62554
   D20       -0.58210   0.00028   0.01694   0.04853   0.06547  -0.51663
   D21       -2.60229   0.00046   0.01683   0.04284   0.05967  -2.54262
   D22       -2.60901   0.00047   0.01976   0.04528   0.06504  -2.54397
   D23        1.52964  -0.00015   0.02484   0.04255   0.06740   1.59704
   D24       -0.49054   0.00003   0.02473   0.03687   0.06160  -0.42894
   D25       -0.59899   0.00063   0.01330   0.05412   0.06743  -0.53156
   D26       -2.74352   0.00001   0.01838   0.05140   0.06979  -2.67374
   D27        1.51948   0.00019   0.01827   0.04572   0.06398   1.58346
   D28       -1.00891  -0.00039  -0.01466  -0.04158  -0.05624  -1.06516
   D29        1.12927  -0.00027  -0.01988  -0.03773  -0.05761   1.07166
   D30       -3.14139  -0.00055  -0.01738  -0.03786  -0.05523   3.08657
   D31        1.13344   0.00027  -0.02009  -0.03723  -0.05733   1.07611
   D32       -3.01157   0.00040  -0.02532  -0.03338  -0.05869  -3.07026
   D33       -0.99904   0.00011  -0.02281  -0.03351  -0.05631  -1.05535
   D34       -3.14005  -0.00006  -0.01941  -0.03507  -0.05449   3.08865
   D35       -1.00187   0.00007  -0.02463  -0.03122  -0.05585  -1.05772
   D36        1.01066  -0.00021  -0.02213  -0.03134  -0.05347   0.95719
   D37       -1.17947  -0.00010  -0.01756   0.00471  -0.01284  -1.19231
   D38        0.91009   0.00000  -0.02103   0.00896  -0.01207   0.89802
   D39        3.00225   0.00005  -0.02201   0.00977  -0.01223   2.99002
   D40        0.95114   0.00002  -0.02080   0.00761  -0.01319   0.93795
   D41        3.04070   0.00013  -0.02427   0.01186  -0.01242   3.02828
   D42       -1.15032   0.00018  -0.02525   0.01267  -0.01259  -1.16290
   D43        2.97980   0.00006  -0.01866   0.00474  -0.01392   2.96587
   D44       -1.21383   0.00017  -0.02213   0.00899  -0.01315  -1.22698
   D45        0.87834   0.00022  -0.02310   0.00979  -0.01331   0.86502
   D46        1.22359  -0.00007  -0.03716   0.02258  -0.01458   1.20902
   D47       -0.86809  -0.00042  -0.03611   0.02107  -0.01504  -0.88313
   D48       -2.96675  -0.00027  -0.03707   0.02209  -0.01498  -2.98173
   D49       -0.91214  -0.00003  -0.03318   0.02230  -0.01088  -0.92302
   D50       -3.00382  -0.00038  -0.03213   0.02079  -0.01134  -3.01516
   D51        1.18070  -0.00023  -0.03309   0.02181  -0.01128   1.16942
   D52       -2.93441   0.00024  -0.03492   0.02067  -0.01425  -2.94866
   D53        1.25709  -0.00012  -0.03387   0.01916  -0.01471   1.24238
   D54       -0.84157   0.00004  -0.03483   0.02018  -0.01465  -0.85622
         Item               Value     Threshold  Converged?
 Maximum Force            0.002233     0.000015     NO 
 RMS     Force            0.000489     0.000010     NO 
 Maximum Displacement     0.141663     0.000060     NO 
 RMS     Displacement     0.042251     0.000040     NO 
 Predicted change in Energy=-1.131285D-04
 Lowest energy point so far.  Saving SCF results.
 GradGradGradGradGradGradGradGradGradGradGradGradGradGradGradGradGradGrad

 Leave Link  103 at Sun Sep 29 14:53:59 2019, MaxMem=   671088640 cpu:             259.1 elap:             129.9
 (Enter /shared/centos7/gaussian/g16/l202.exe)
                          Input orientation:                          
 ---------------------------------------------------------------------
 Center     Atomic      Atomic             Coordinates (Angstroms)
 Number     Number       Type             X           Y           Z
 ---------------------------------------------------------------------
      1          6           0        1.768502   -0.750407    0.371829
      2          6           0        0.564563    0.054009    0.874736
      3          6           0        0.296555   -0.079888    2.380271
      4          6           0        1.910329   -0.752551   -1.150092
      5          6           0        0.959148    1.003872    3.231441
      6          6           0        2.107159    0.642199   -1.743083
      7          6           0        2.482330    1.030162    3.138917
      8          1           0        1.023876   -1.215959   -1.589311
      9          1           0        2.756790   -1.382498   -1.427329
     10          1           0        1.664866   -1.779839    0.723128
     11          1           0        2.692210   -0.371507    0.813040
     12          1           0       -0.312487   -0.276059    0.311849
     13          1           0        0.691340    1.113360    0.635985
     14          1           0        0.632658   -1.064023    2.720453
     15          1           0       -0.778215   -0.042557    2.563528
     16          1           0        0.562539    1.977071    2.933272
     17          1           0        0.665355    0.856313    4.272566
     18          1           0        1.210704    1.252834   -1.643615
     19          1           0        2.918800    1.164722   -1.234887
     20          1           0        2.355427    0.591935   -2.802017
     21          1           0        2.813906    1.366393    2.156722
     22          1           0        2.899580    0.037028    3.307129
     23          1           0        2.909835    1.704939    3.878163
 ---------------------------------------------------------------------
                    Distance matrix (angstroms):
                    1          2          3          4          5
     1  C    0.000000
     2  C    1.532798   0.000000
     3  C    2.578771   1.535054   0.000000
     4  C    1.528517   2.561553   3.939569   0.000000
     5  C    3.451077   2.571380   1.529070   4.815351   0.000000
     6  C    2.554779   3.094923   4.560893   1.528302   5.118069
     7  C    3.367010   3.123655   2.566197   4.679835   1.526216
     8  H    2.148785   2.809860   4.192520   1.092456   5.307682
     9  H    2.147841   3.488397   4.716711   1.090958   5.534475
    10  H    1.092649   2.143980   2.740116   2.150471   3.812968
    11  H    1.091545   2.170657   2.877571   2.147189   3.277779
    12  H    2.135210   1.093162   2.165129   2.702819   3.432098
    13  H    2.168798   1.093298   2.149937   2.856156   2.611533
    14  H    2.627648   2.159005   1.094172   4.087858   2.154969
    15  H    3.433710   2.159721   1.090920   4.639325   2.135310
    16  H    3.931218   2.817045   2.146541   5.093254   1.092392
    17  H    4.360531   3.492720   2.143191   5.791686   1.091800
    18  H    2.895881   2.863001   4.336297   2.180506   4.887887
    19  H    2.751807   3.350616   4.636226   2.167980   4.879980
    20  H    3.495663   4.124933   5.616619   2.175915   6.206602
    21  H    2.959654   2.902651   2.911831   4.030061   2.174068
    22  H    3.242743   3.371814   2.765588   4.633452   2.169284
    23  H    4.430095   4.152884   3.501217   5.685211   2.171388
                    6          7          8          9         10
     6  C    0.000000
     7  C    4.911741   0.000000
     8  H    2.156362   5.433994   0.000000
     9  H    2.149679   5.171737   1.748418   0.000000
    10  H    3.484837   3.794785   2.464995   2.444308   0.000000
    11  H    2.811343   2.723679   3.044294   2.458766   1.745543
    12  H    3.304638   4.184439   2.506728   3.697217   2.518022
    13  H    2.808291   3.078837   3.238556   3.840919   3.053842
    14  H    5.000850   2.825245   4.330150   4.670916   2.359482
    15  H    5.228879   3.480366   4.676587   5.497148   3.517651
    16  H    5.102551   2.150470   5.555360   5.925899   4.496025
    17  H    6.189723   2.148669   6.227716   6.471103   4.532862
    18  H    1.089220   4.953708   2.476448   3.063028   3.873609
    19  H    1.090896   4.397588   3.063331   2.559611   3.751881
    20  H    1.088809   5.958427   2.551895   2.439108   4.304513
    21  H    4.028949   1.089817   4.889326   4.517198   3.643386
    22  H    5.147699   1.090279   5.391045   4.944748   3.391547
    23  H    5.776861   1.088379   6.479333   6.140353   4.862908
                   11         12         13         14         15
    11  H    0.000000
    12  H    3.047705   0.000000
    13  H    2.497931   1.744482   0.000000
    14  H    2.891290   2.704729   3.014871   0.000000
    15  H    3.900803   2.311165   2.685360   1.748880   0.000000
    16  H    3.814013   3.565687   2.457664   3.049338   2.452189
    17  H    4.193328   4.233877   3.645747   2.469375   2.410948
    18  H    3.296740   2.912296   2.342171   4.974641   4.830517
    19  H    2.570087   3.861277   2.909360   5.083155   5.436304
    20  H    3.756366   4.191341   3.854987   6.017292   6.245908
    21  H    2.200133   3.984412   2.623348   3.313994   3.879944
    22  H    2.535820   4.403079   3.629026   2.587554   3.753059
    23  H    3.708634   5.198683   3.972834   3.767357   4.287624
                   16         17         18         19         20
    16  H    0.000000
    17  H    1.749394   0.000000
    18  H    4.678945   5.954480   0.000000
    19  H    4.856483   5.958621   1.758526   0.000000
    20  H    6.166570   7.278459   1.757576   1.761071   0.000000
    21  H    2.458579   3.058308   4.126222   3.399218   5.039750
    22  H    3.060277   2.568085   5.370322   4.679955   6.158384
    23  H    2.544931   2.431750   5.794953   5.141517   6.794921
                   21         22         23
    21  H    0.000000
    22  H    1.760110   0.000000
    23  H    1.757036   1.762983   0.000000
 Stoichiometry    C7H16
 Framework group  C1[X(C7H16)]
 Deg. of freedom    63
 Full point group                 C1      NOp   1
 RotChk:  IX=0 Diff= 6.92D-02
 Largest Abelian subgroup         C1      NOp   1
 Largest concise Abelian subgroup C1      NOp   1
                         Standard orientation:                         
 ---------------------------------------------------------------------
 Center     Atomic      Atomic             Coordinates (Angstroms)
 Number     Number       Type             X           Y           Z
 ---------------------------------------------------------------------
      1          6           0        0.835602   -0.252287    0.777880
      2          6           0        0.024286   -0.840912   -0.381756
      3          6           0       -1.450158   -1.111350   -0.051199
      4          6           0        2.334335   -0.161097    0.491789
      5          6           0       -2.391708    0.038977   -0.409370
      6          6           0        2.670863    0.731120   -0.702533
      7          6           0       -2.093401    1.344664    0.322428
      8          1           0        2.725525   -1.166555    0.320081
      9          1           0        2.842917    0.220187    1.378444
     10          1           0        0.676962   -0.877046    1.660145
     11          1           0        0.463881    0.740250    1.038960
     12          1           0        0.511394   -1.770305   -0.688282
     13          1           0        0.071108   -0.178632   -1.250372
     14          1           0       -1.545050   -1.338974    1.014819
     15          1           0       -1.785949   -2.000985   -0.585896
     16          1           0       -2.344014    0.210224   -1.487201
     17          1           0       -3.416006   -0.269150   -0.190508
     18          1           0        2.331663    0.293904   -1.640716
     19          1           0        2.190860    1.705515   -0.601513
     20          1           0        3.743966    0.895863   -0.785076
     21          1           0       -1.157187    1.785530   -0.019393
     22          1           0       -2.008139    1.178027    1.396519
     23          1           0       -2.880846    2.077457    0.156552
 ---------------------------------------------------------------------
 Rotational constants (GHZ):           4.3730096           1.1976892           1.0968687
 Leave Link  202 at Sun Sep 29 14:54:01 2019, MaxMem=   671088640 cpu:               3.4 elap:               1.7
 (Enter /shared/centos7/gaussian/g16/l301.exe)
 Standard basis: CC-pVTZ (5D, 7F)
 Ernie: Thresh=  0.10000D-02 Tol=  0.10000D-05 Strict=F.
 Ernie:  21 primitive shells out of 310 were deleted.
 There are   485 symmetry adapted cartesian basis functions of A   symmetry.
 There are   434 symmetry adapted basis functions of A   symmetry.
   434 basis functions,   636 primitive gaussians,   485 cartesian basis functions
    29 alpha electrons       29 beta electrons
       nuclear repulsion energy       323.6424769969 Hartrees.
 IExCor= 4336 DFT=T Ex+Corr=M062X ExCW=0 ScaHFX=  0.540000
 ScaDFX=  1.000000  1.000000  1.000000  1.000000 ScalE2=  1.000000  1.000000
 IRadAn=      5 IRanWt=     -1 IRanGd=            0 ICorTp=0 IEmpDi=  4
 NAtoms=   23 NActive=   23 NUniq=   23 SFac= 1.00D+00 NAtFMM=   60 NAOKFM=F Big=F
 Integral buffers will be    131072 words long.
 Raffenetti 2 integral format.
 Two-electron integral symmetry is turned on.
 Leave Link  301 at Sun Sep 29 14:54:02 2019, MaxMem=   671088640 cpu:               2.9 elap:               1.5
 (Enter /shared/centos7/gaussian/g16/l302.exe)
 NPDir=0 NMtPBC=     1 NCelOv=     1 NCel=       1 NClECP=     1 NCelD=      1
         NCelK=      1 NCelE2=     1 NClLst=     1 CellRange=     0.0.
 One-electron integrals computed using PRISM.
 One-electron integral symmetry used in STVInt
 NBasis=   434 RedAO= T EigKep=  3.28D-04  NBF=   434
 NBsUse=   434 1.00D-06 EigRej= -1.00D+00 NBFU=   434
 Precomputing XC quadrature grid using
 IXCGrd= 4 IRadAn=           5 IRanWt=          -1 IRanGd=           0 AccXCQ= 0.00D+00.
 Generated NRdTot=       0 NPtTot=           0 NUsed=           0 NTot=          32
 NSgBfM=   485   485   485   485   485 MxSgAt=    23 MxSgA2=    23.
 Leave Link  302 at Sun Sep 29 14:55:12 2019, MaxMem=   671088640 cpu:             138.3 elap:              69.2
 (Enter /shared/centos7/gaussian/g16/l303.exe)
 DipDrv:  MaxL=1.
 Leave Link  303 at Sun Sep 29 14:55:16 2019, MaxMem=   671088640 cpu:               8.4 elap:               4.2
 (Enter /shared/centos7/gaussian/g16/l401.exe)
 Initial guess from the checkpoint file:  "/scratch/harms.n/gauss_scrdir/Gau-21461.chk"
 B after Tr=     0.000000   -0.000000   -0.000000
         Rot=    0.999723   -0.023484   -0.000999   -0.001168 Ang=  -2.70 deg.
 Guess basis will be translated and rotated to current coordinates.
 JPrj=2 DoOrth=T DoCkMO=T.
 Generating alternative initial guess.
 ExpMin= 1.03D-01 ExpMax= 8.24D+03 ExpMxC= 2.81D+02 IAcc=2 IRadAn=         4 AccDes= 0.00D+00
 Harris functional with IExCor= 1009 and IRadAn=       4 diagonalized for initial guess.
 HarFok:  IExCor= 1009 AccDes= 0.00D+00 IRadAn=         4 IDoV= 1 UseB2=F ITyADJ=14
 ICtDFT=  3500011 ScaDFX=  1.000000  1.000000  1.000000  1.000000
 FoFCou: FMM=F IPFlag=           0 FMFlag=      100000 FMFlg1=           0
         NFxFlg=           0 DoJE=T BraDBF=F KetDBF=T FulRan=T
         wScrn=  0.000000 ICntrl=       500 IOpCl=  0 I1Cent=   200000004 NGrid=           0
         NMat0=    1 NMatS0=      1 NMatT0=    0 NMatD0=    1 NMtDS0=    0 NMtDT0=    0
 Petite list used in FoFCou.
 Harris En= -276.348551753895    
 Leave Link  401 at Sun Sep 29 14:56:17 2019, MaxMem=   671088640 cpu:             122.1 elap:              61.1
 (Enter /shared/centos7/gaussian/g16/l502.exe)
 Integral symmetry usage will be decided dynamically.
 Closed shell SCF:
 Using DIIS extrapolation, IDIIS=  1040.
 NGot=   671088640 LenX=   670604095 LenY=   670368385
 Requested convergence on RMS density matrix=1.00D-08 within 900 cycles.
 Requested convergence on MAX density matrix=1.00D-06.
 Requested convergence on             energy=1.00D-06.
 No special actions if energy rises.
 Fock matrices will be formed incrementally for  20 cycles.
 Integral accuracy reduced to 1.0D-05 until final iterations.

 Cycle   1  Pass 0  IDiag  1:
 FoFJK:  IHMeth= 1 ICntrl=       0 DoSepK=F KAlg= 0 I1Cent=           0 FoldK=F
 IRaf= 930000000 NMat=       1 IRICut=       1 DoRegI=T DoRafI=F ISym2E= 0 IDoP0=0 IntGTp=1.
 FoFCou: FMM=F IPFlag=           0 FMFlag=      100000 FMFlg1=           0
         NFxFlg=           0 DoJE=F BraDBF=F KetDBF=F FulRan=T
         wScrn=  0.000000 ICntrl=         0 IOpCl=  0 I1Cent=           0 NGrid=           0
         NMat0=    1 NMatS0=      1 NMatT0=    0 NMatD0=    1 NMtDS0=    0 NMtDT0=    0
 Symmetry not used in FoFCou.
 E= -276.333675495338    
 DIIS: error= 2.27D-03 at cycle   1 NSaved=   1.
 NSaved= 1 IEnMin= 1 EnMin= -276.333675495338     IErMin= 1 ErrMin= 2.27D-03
 ErrMax= 2.27D-03  0.00D+00 EMaxC= 1.00D-01 BMatC= 2.01D-03 BMatP= 2.01D-03
 IDIUse=3 WtCom= 9.77D-01 WtEn= 2.27D-02
 Coeff-Com:  0.100D+01
 Coeff-En:   0.100D+01
 Coeff:      0.100D+01
 Gap=     0.808 Goal=   None    Shift=    0.000
 GapD=    0.808 DampG=2.000 DampE=1.000 DampFc=2.0000 IDamp=-1.
 RMSDP=7.96D-05 MaxDP=3.00D-03              OVMax= 8.74D-03

 Cycle   2  Pass 0  IDiag  1:
 RMSU=  7.96D-05    CP:  1.00D+00
 E= -276.336077557932     Delta-E=       -0.002402062595 Rises=F Damp=F
 DIIS: error= 1.96D-04 at cycle   2 NSaved=   2.
 NSaved= 2 IEnMin= 2 EnMin= -276.336077557932     IErMin= 2 ErrMin= 1.96D-04
 ErrMax= 1.96D-04  0.00D+00 EMaxC= 1.00D-01 BMatC= 4.19D-05 BMatP= 2.01D-03
 IDIUse=3 WtCom= 9.98D-01 WtEn= 1.96D-03
 Coeff-Com: -0.119D+00 0.112D+01
 Coeff-En:   0.000D+00 0.100D+01
 Coeff:     -0.118D+00 0.112D+01
 Gap=     0.425 Goal=   None    Shift=    0.000
 RMSDP=2.14D-05 MaxDP=8.38D-04 DE=-2.40D-03 OVMax= 2.24D-03

 Cycle   3  Pass 0  IDiag  1:
 RMSU=  1.22D-05    CP:  1.00D+00  1.22D+00
