 Entering Gaussian System, Link 0=g16
 Input=verytight/species/CCCCCCC/conformers/CCCCCCC_218.com
 Output=verytight/species/CCCCCCC/conformers/CCCCCCC_218.log
 Initial command:
 /shared/centos7/gaussian/g16/l1.exe "/scratch/harms.n/gauss_scrdir/Gau-37732.inp" -scrdir="/scratch/harms.n/gauss_scrdir/"
 Entering Link 1 = /shared/centos7/gaussian/g16/l1.exe PID=     37733.
  
 Copyright (c) 1988,1990,1992,1993,1995,1998,2003,2009,2016,
            Gaussian, Inc.  All Rights Reserved.
  
 This is part of the Gaussian(R) 16 program.  It is based on
 the Gaussian(R) 09 system (copyright 2009, Gaussian, Inc.),
 the Gaussian(R) 03 system (copyright 2003, Gaussian, Inc.),
 the Gaussian(R) 98 system (copyright 1998, Gaussian, Inc.),
 the Gaussian(R) 94 system (copyright 1995, Gaussian, Inc.),
 the Gaussian 92(TM) system (copyright 1992, Gaussian, Inc.),
 the Gaussian 90(TM) system (copyright 1990, Gaussian, Inc.),
 the Gaussian 88(TM) system (copyright 1988, Gaussian, Inc.),
 the Gaussian 86(TM) system (copyright 1986, Carnegie Mellon
 University), and the Gaussian 82(TM) system (copyright 1983,
 Carnegie Mellon University). Gaussian is a federally registered
 trademark of Gaussian, Inc.
  
 This software contains proprietary and confidential information,
 including trade secrets, belonging to Gaussian, Inc.
  
 This software is provided under written license and may be
 used, copied, transmitted, or stored only in accord with that
 written license.
  
 The following legend is applicable only to US Government
 contracts under FAR:
  
                    RESTRICTED RIGHTS LEGEND
  
 Use, reproduction and disclosure by the US Government is
 subject to restrictions as set forth in subparagraphs (a)
 and (c) of the Commercial Computer Software - Restricted
 Rights clause in FAR 52.227-19.
  
 Gaussian, Inc.
 340 Quinnipiac St., Bldg. 40, Wallingford CT 06492
  
  
 ---------------------------------------------------------------
 Warning -- This program may not be used in any manner that
 competes with the business of Gaussian, Inc. or will provide
 assistance to any competitor of Gaussian, Inc.  The licensee
 of this program is prohibited from giving any competitor of
 Gaussian, Inc. access to this program.  By using this program,
 the user acknowledges that Gaussian, Inc. is engaged in the
 business of creating and licensing software in the field of
 computational chemistry and represents and warrants to the
 licensee that it is not a competitor of Gaussian, Inc. and that
 it will not use this program in any manner prohibited above.
 ---------------------------------------------------------------
  

 Cite this work as:
 Gaussian 16, Revision A.03,
 M. J. Frisch, G. W. Trucks, H. B. Schlegel, G. E. Scuseria, 
 M. A. Robb, J. R. Cheeseman, G. Scalmani, V. Barone, 
 G. A. Petersson, H. Nakatsuji, X. Li, M. Caricato, A. V. Marenich, 
 J. Bloino, B. G. Janesko, R. Gomperts, B. Mennucci, H. P. Hratchian, 
 J. V. Ortiz, A. F. Izmaylov, J. L. Sonnenberg, D. Williams-Young, 
 F. Ding, F. Lipparini, F. Egidi, J. Goings, B. Peng, A. Petrone, 
 T. Henderson, D. Ranasinghe, V. G. Zakrzewski, J. Gao, N. Rega, 
 G. Zheng, W. Liang, M. Hada, M. Ehara, K. Toyota, R. Fukuda, 
 J. Hasegawa, M. Ishida, T. Nakajima, Y. Honda, O. Kitao, H. Nakai, 
 T. Vreven, K. Throssell, J. A. Montgomery, Jr., J. E. Peralta, 
 F. Ogliaro, M. J. Bearpark, J. J. Heyd, E. N. Brothers, K. N. Kudin, 
 V. N. Staroverov, T. A. Keith, R. Kobayashi, J. Normand, 
 K. Raghavachari, A. P. Rendell, J. C. Burant, S. S. Iyengar, 
 J. Tomasi, M. Cossi, J. M. Millam, M. Klene, C. Adamo, R. Cammi, 
 J. W. Ochterski, R. L. Martin, K. Morokuma, O. Farkas, 
 J. B. Foresman, and D. J. Fox, Gaussian, Inc., Wallingford CT, 2016.
 
 ******************************************
 Gaussian 16:  EM64L-G16RevA.03 25-Dec-2016
                29-Sep-2019 
 ******************************************
 %nprocshared=20
 Will use up to   20 processors via shared memory.
 %mem=5GB
 ----------------------------------------------------------------------
 #p m062x/cc-pVTZ opt=(calcfc,maxcycles=900,Tight) freq IOP(7/33=1,2/16
 =3) scf=(maxcycle=900)
 ----------------------------------------------------------------------
 1/6=900,7=10,10=4,18=20,19=15,26=3,38=1/1,3;
 2/9=110,12=2,16=3,17=6,18=5,40=1/2;
 3/5=16,6=1,11=2,25=1,30=1,71=2,74=-55,140=1/1,2,3;
 4//1;
 5/5=2,7=900,38=5/2;
 8/6=4,10=90,11=11/1;
 11/6=1,8=1,9=11,15=111,16=1/1,2,10;
 10/6=1,13=1/2;
 6/7=2,8=2,9=2,10=2,28=1/1;
 7/10=1,18=20,25=1,33=1/1,2,3,16;
 1/6=900,7=10,10=4,18=20,19=15,26=3/3(2);
 2/9=110,16=3/2;
 99//99;
 2/9=110,16=3/2;
 3/5=16,6=1,11=2,25=1,30=1,71=1,74=-55/1,2,3;
 4/5=5,16=3,69=1/1;
 5/5=2,7=900,38=5/2;
 7/33=1/1,2,3,16;
 1/6=900,7=10,18=20,19=15,26=3/3(-5);
 2/9=110,16=3/2;
 6/7=2,8=2,9=2,10=2,19=2,28=1/1;
 99/9=1/99;
 Leave Link    1 at Sun Sep 29 12:49:24 2019, MaxMem=   671088640 cpu:               3.9 elap:               2.0
 (Enter /shared/centos7/gaussian/g16/l101.exe)
 ------------------------------
 Gaussian input prepared by ASE
 ------------------------------
 Symbolic Z-matrix:
 Charge =  0 Multiplicity = 1
 C                     1.39737  -1.34168   0.85185 
 C                     0.45591  -0.18634   0.82379 
 C                     0.74926   0.8402   -0.24164 
 C                     1.41218  -2.15111  -0.401 
 C                     2.11979   1.4643   -0.12389 
 C                     2.29569  -3.32834  -0.34506 
 C                     2.39813   2.50679  -1.1754 
 H                     1.72308  -1.49391  -1.26156 
 H                     0.37372  -2.48326  -0.63983 
 H                     1.12986  -1.99719   1.70761 
 H                     2.42274  -0.97404   1.06188 
 H                     0.46525   0.30463   1.80946 
 H                    -0.58005  -0.55851   0.67702 
 H                    -0.01814   1.63127  -0.19224 
 H                     0.64686   0.37043  -1.24163 
 H                     2.22833   1.93159   0.8897 
 H                     2.88858   0.67516  -0.18287 
 H                     1.99844  -4.02062   0.46505 
 H                     2.25823  -3.90488  -1.31652 
 H                     3.35299  -3.03726  -0.16933 
 H                     2.32865   2.08782  -2.18 
 H                     3.43171   2.93121  -1.04339 
 H                     1.66527   3.3608   -1.10153 
 
 ITRead=  0  0  0  0  0  0  0  0  0  0  0  0  0  0  0  0  0  0  0  0
 ITRead=  0  0  0
 MicOpt= -1 -1 -1 -1 -1 -1 -1 -1 -1 -1 -1 -1 -1 -1 -1 -1 -1 -1 -1 -1
 MicOpt= -1 -1 -1
 NAtoms=     23 NQM=       23 NQMF=       0 NMMI=      0 NMMIF=      0
                NMic=       0 NMicF=      0.
                    Isotopes and Nuclear Properties:
 (Nuclear quadrupole moments (NQMom) in fm**2, nuclear magnetic moments (NMagM)
  in nuclear magnetons)

  Atom         1           2           3           4           5           6           7           8           9          10
 IAtWgt=          12          12          12          12          12          12          12           1           1           1
 AtmWgt=  12.0000000  12.0000000  12.0000000  12.0000000  12.0000000  12.0000000  12.0000000   1.0078250   1.0078250   1.0078250
 NucSpn=           0           0           0           0           0           0           0           1           1           1
 AtZEff=  -0.0000000  -0.0000000  -0.0000000  -0.0000000  -0.0000000  -0.0000000  -0.0000000  -0.0000000  -0.0000000  -0.0000000
 NQMom=    0.0000000   0.0000000   0.0000000   0.0000000   0.0000000   0.0000000   0.0000000   0.0000000   0.0000000   0.0000000
 NMagM=    0.0000000   0.0000000   0.0000000   0.0000000   0.0000000   0.0000000   0.0000000   2.7928460   2.7928460   2.7928460
 AtZNuc=   6.0000000   6.0000000   6.0000000   6.0000000   6.0000000   6.0000000   6.0000000   1.0000000   1.0000000   1.0000000

  Atom        11          12          13          14          15          16          17          18          19          20
 IAtWgt=           1           1           1           1           1           1           1           1           1           1
 AtmWgt=   1.0078250   1.0078250   1.0078250   1.0078250   1.0078250   1.0078250   1.0078250   1.0078250   1.0078250   1.0078250
 NucSpn=           1           1           1           1           1           1           1           1           1           1
 AtZEff=  -0.0000000  -0.0000000  -0.0000000  -0.0000000  -0.0000000  -0.0000000  -0.0000000  -0.0000000  -0.0000000  -0.0000000
 NQMom=    0.0000000   0.0000000   0.0000000   0.0000000   0.0000000   0.0000000   0.0000000   0.0000000   0.0000000   0.0000000
 NMagM=    2.7928460   2.7928460   2.7928460   2.7928460   2.7928460   2.7928460   2.7928460   2.7928460   2.7928460   2.7928460
 AtZNuc=   1.0000000   1.0000000   1.0000000   1.0000000   1.0000000   1.0000000   1.0000000   1.0000000   1.0000000   1.0000000

  Atom        21          22          23
 IAtWgt=           1           1           1
 AtmWgt=   1.0078250   1.0078250   1.0078250
 NucSpn=           1           1           1
 AtZEff=  -0.0000000  -0.0000000  -0.0000000
 NQMom=    0.0000000   0.0000000   0.0000000
 NMagM=    2.7928460   2.7928460   2.7928460
 AtZNuc=   1.0000000   1.0000000   1.0000000
 Leave Link  101 at Sun Sep 29 12:49:25 2019, MaxMem=   671088640 cpu:               2.1 elap:               1.0
 (Enter /shared/centos7/gaussian/g16/l103.exe)

 GradGradGradGradGradGradGradGradGradGradGradGradGradGradGradGradGradGrad
 Berny optimization.
 Initialization pass.
                           ----------------------------
                           !    Initial Parameters    !
                           ! (Angstroms and Degrees)  !
 --------------------------                            --------------------------
 ! Name  Definition              Value          Derivative Info.                !
 --------------------------------------------------------------------------------
 ! R1    R(1,2)                  1.4906         calculate D2E/DX2 analytically  !
 ! R2    R(1,4)                  1.4917         calculate D2E/DX2 analytically  !
 ! R3    R(1,10)                 1.1107         calculate D2E/DX2 analytically  !
 ! R4    R(1,11)                 1.1093         calculate D2E/DX2 analytically  !
 ! R5    R(2,3)                  1.5083         calculate D2E/DX2 analytically  !
 ! R6    R(2,12)                 1.1012         calculate D2E/DX2 analytically  !
 ! R7    R(2,13)                 1.1105         calculate D2E/DX2 analytically  !
 ! R8    R(3,5)                  1.5105         calculate D2E/DX2 analytically  !
 ! R9    R(3,14)                 1.1032         calculate D2E/DX2 analytically  !
 ! R10   R(3,15)                 1.1096         calculate D2E/DX2 analytically  !
 ! R11   R(4,6)                  1.473          calculate D2E/DX2 analytically  !
 ! R12   R(4,8)                  1.1266         calculate D2E/DX2 analytically  !
 ! R13   R(4,9)                  1.1161         calculate D2E/DX2 analytically  !
 ! R14   R(5,7)                  1.5066         calculate D2E/DX2 analytically  !
 ! R15   R(5,16)                 1.1214         calculate D2E/DX2 analytically  !
 ! R16   R(5,17)                 1.1033         calculate D2E/DX2 analytically  !
 ! R17   R(6,18)                 1.1063         calculate D2E/DX2 analytically  !
 ! R18   R(6,19)                 1.1303         calculate D2E/DX2 analytically  !
 ! R19   R(6,20)                 1.1106         calculate D2E/DX2 analytically  !
 ! R20   R(7,21)                 1.0907         calculate D2E/DX2 analytically  !
 ! R21   R(7,22)                 1.1251         calculate D2E/DX2 analytically  !
 ! R22   R(7,23)                 1.1278         calculate D2E/DX2 analytically  !
 ! A1    A(2,1,4)              114.2702         calculate D2E/DX2 analytically  !
 ! A2    A(2,1,10)             108.652          calculate D2E/DX2 analytically  !
 ! A3    A(2,1,11)             109.2977         calculate D2E/DX2 analytically  !
 ! A4    A(4,1,10)             109.2245         calculate D2E/DX2 analytically  !
 ! A5    A(4,1,11)             109.2491         calculate D2E/DX2 analytically  !
 ! A6    A(10,1,11)            105.8044         calculate D2E/DX2 analytically  !
 ! A7    A(1,2,3)              114.7062         calculate D2E/DX2 analytically  !
 ! A8    A(1,2,12)             108.8656         calculate D2E/DX2 analytically  !
 ! A9    A(1,2,13)             109.3857         calculate D2E/DX2 analytically  !
 ! A10   A(3,2,12)             109.0972         calculate D2E/DX2 analytically  !
 ! A11   A(3,2,13)             108.4307         calculate D2E/DX2 analytically  !
 ! A12   A(12,2,13)            105.9995         calculate D2E/DX2 analytically  !
 ! A13   A(2,3,5)              113.7409         calculate D2E/DX2 analytically  !
 ! A14   A(2,3,14)             108.7294         calculate D2E/DX2 analytically  !
 ! A15   A(2,3,15)             109.3002         calculate D2E/DX2 analytically  !
 ! A16   A(5,3,14)             109.3521         calculate D2E/DX2 analytically  !
 ! A17   A(5,3,15)             109.2025         calculate D2E/DX2 analytically  !
 ! A18   A(14,3,15)            106.2447         calculate D2E/DX2 analytically  !
 ! A19   A(1,4,6)              114.0634         calculate D2E/DX2 analytically  !
 ! A20   A(1,4,8)              109.1339         calculate D2E/DX2 analytically  !
 ! A21   A(1,4,9)              109.3886         calculate D2E/DX2 analytically  !
 ! A22   A(6,4,8)              109.2517         calculate D2E/DX2 analytically  !
 ! A23   A(6,4,9)              109.1693         calculate D2E/DX2 analytically  !
 ! A24   A(8,4,9)              105.4808         calculate D2E/DX2 analytically  !
 ! A25   A(3,5,7)              113.5221         calculate D2E/DX2 analytically  !
 ! A26   A(3,5,16)             109.2961         calculate D2E/DX2 analytically  !
 ! A27   A(3,5,17)             109.4235         calculate D2E/DX2 analytically  !
 ! A28   A(7,5,16)             108.9422         calculate D2E/DX2 analytically  !
 ! A29   A(7,5,17)             109.2001         calculate D2E/DX2 analytically  !
 ! A30   A(16,5,17)            106.1957         calculate D2E/DX2 analytically  !
 ! A31   A(4,6,18)             111.5169         calculate D2E/DX2 analytically  !
 ! A32   A(4,6,19)             110.8029         calculate D2E/DX2 analytically  !
 ! A33   A(4,6,20)             111.5654         calculate D2E/DX2 analytically  !
 ! A34   A(18,6,19)            107.5345         calculate D2E/DX2 analytically  !
 ! A35   A(18,6,20)            107.6937         calculate D2E/DX2 analytically  !
 ! A36   A(19,6,20)            107.5314         calculate D2E/DX2 analytically  !
 ! A37   A(5,7,21)             111.4245         calculate D2E/DX2 analytically  !
 ! A38   A(5,7,22)             110.4167         calculate D2E/DX2 analytically  !
 ! A39   A(5,7,23)             110.9902         calculate D2E/DX2 analytically  !
 ! A40   A(21,7,22)            108.1496         calculate D2E/DX2 analytically  !
 ! A41   A(21,7,23)            108.0487         calculate D2E/DX2 analytically  !
 ! A42   A(22,7,23)            107.6751         calculate D2E/DX2 analytically  !
 ! D1    D(4,1,2,3)            -61.3            calculate D2E/DX2 analytically  !
 ! D2    D(4,1,2,12)           176.1663         calculate D2E/DX2 analytically  !
 ! D3    D(4,1,2,13)            60.7609         calculate D2E/DX2 analytically  !
 ! D4    D(10,1,2,3)           176.4636         calculate D2E/DX2 analytically  !
 ! D5    D(10,1,2,12)           53.93           calculate D2E/DX2 analytically  !
 ! D6    D(10,1,2,13)          -61.4755         calculate D2E/DX2 analytically  !
 ! D7    D(11,1,2,3)            61.4549         calculate D2E/DX2 analytically  !
 ! D8    D(11,1,2,12)          -61.0787         calculate D2E/DX2 analytically  !
 ! D9    D(11,1,2,13)         -176.4841         calculate D2E/DX2 analytically  !
 ! D10   D(2,1,4,6)           -177.2288         calculate D2E/DX2 analytically  !
 ! D11   D(2,1,4,8)             60.2816         calculate D2E/DX2 analytically  !
 ! D12   D(2,1,4,9)            -54.6547         calculate D2E/DX2 analytically  !
 ! D13   D(10,1,4,6)           -55.3059         calculate D2E/DX2 analytically  !
 ! D14   D(10,1,4,8)          -177.7954         calculate D2E/DX2 analytically  !
 ! D15   D(10,1,4,9)            67.2683         calculate D2E/DX2 analytically  !
 ! D16   D(11,1,4,6)            59.9898         calculate D2E/DX2 analytically  !
 ! D17   D(11,1,4,8)           -62.4997         calculate D2E/DX2 analytically  !
 ! D18   D(11,1,4,9)          -177.436          calculate D2E/DX2 analytically  !
 ! D19   D(1,2,3,5)            -59.46           calculate D2E/DX2 analytically  !
 ! D20   D(1,2,3,14)           178.4419         calculate D2E/DX2 analytically  !
 ! D21   D(1,2,3,15)            62.866          calculate D2E/DX2 analytically  !
 ! D22   D(12,2,3,5)            62.9484         calculate D2E/DX2 analytically  !
 ! D23   D(12,2,3,14)          -59.1497         calculate D2E/DX2 analytically  !
 ! D24   D(12,2,3,15)         -174.7256         calculate D2E/DX2 analytically  !
 ! D25   D(13,2,3,5)           177.962          calculate D2E/DX2 analytically  !
 ! D26   D(13,2,3,14)           55.8639         calculate D2E/DX2 analytically  !
 ! D27   D(13,2,3,15)          -59.712          calculate D2E/DX2 analytically  !
 ! D28   D(2,3,5,7)           -178.9524         calculate D2E/DX2 analytically  !
 ! D29   D(2,3,5,16)           -57.1157         calculate D2E/DX2 analytically  !
 ! D30   D(2,3,5,17)            58.7849         calculate D2E/DX2 analytically  !
 ! D31   D(14,3,5,7)           -57.1992         calculate D2E/DX2 analytically  !
 ! D32   D(14,3,5,16)           64.6375         calculate D2E/DX2 analytically  !
 ! D33   D(14,3,5,17)         -179.4619         calculate D2E/DX2 analytically  !
 ! D34   D(15,3,5,7)            58.6678         calculate D2E/DX2 analytically  !
 ! D35   D(15,3,5,16)         -179.4955         calculate D2E/DX2 analytically  !
 ! D36   D(15,3,5,17)          -63.5949         calculate D2E/DX2 analytically  !
 ! D37   D(1,4,6,18)            59.7686         calculate D2E/DX2 analytically  !
 ! D38   D(1,4,6,19)           179.5188         calculate D2E/DX2 analytically  !
 ! D39   D(1,4,6,20)           -60.7027         calculate D2E/DX2 analytically  !
 ! D40   D(8,4,6,18)          -177.8063         calculate D2E/DX2 analytically  !
 ! D41   D(8,4,6,19)           -58.0561         calculate D2E/DX2 analytically  !
 ! D42   D(8,4,6,20)            61.7224         calculate D2E/DX2 analytically  !
 ! D43   D(9,4,6,18)           -62.9253         calculate D2E/DX2 analytically  !
 ! D44   D(9,4,6,19)            56.8249         calculate D2E/DX2 analytically  !
 ! D45   D(9,4,6,20)           176.6033         calculate D2E/DX2 analytically  !
 ! D46   D(3,5,7,21)           -59.4317         calculate D2E/DX2 analytically  !
 ! D47   D(3,5,7,22)          -179.6377         calculate D2E/DX2 analytically  !
 ! D48   D(3,5,7,23)            61.0343         calculate D2E/DX2 analytically  !
 ! D49   D(16,5,7,21)          178.5348         calculate D2E/DX2 analytically  !
 ! D50   D(16,5,7,22)           58.3288         calculate D2E/DX2 analytically  !
 ! D51   D(16,5,7,23)          -60.9992         calculate D2E/DX2 analytically  !
 ! D52   D(17,5,7,21)           62.9547         calculate D2E/DX2 analytically  !
 ! D53   D(17,5,7,22)          -57.2513         calculate D2E/DX2 analytically  !
 ! D54   D(17,5,7,23)         -176.5794         calculate D2E/DX2 analytically  !
 --------------------------------------------------------------------------------
 Trust Radius=3.00D-01 FncErr=1.00D-07 GrdErr=1.00D-06 EigMax=2.50D+02 EigMin=1.00D-04
 Number of steps in this run=    138 maximum allowed number of steps=    138.
 GradGradGradGradGradGradGradGradGradGradGradGradGradGradGradGradGradGrad

 Leave Link  103 at Sun Sep 29 12:49:26 2019, MaxMem=   671088640 cpu:               1.4 elap:               0.7
 (Enter /shared/centos7/gaussian/g16/l202.exe)
                          Input orientation:                          
 ---------------------------------------------------------------------
 Center     Atomic      Atomic             Coordinates (Angstroms)
 Number     Number       Type             X           Y           Z
 ---------------------------------------------------------------------
      1          6           0        1.397374   -1.341682    0.851852
      2          6           0        0.455907   -0.186340    0.823791
      3          6           0        0.749261    0.840200   -0.241639
      4          6           0        1.412178   -2.151110   -0.400998
      5          6           0        2.119787    1.464298   -0.123895
      6          6           0        2.295687   -3.328339   -0.345058
      7          6           0        2.398128    2.506786   -1.175402
      8          1           0        1.723079   -1.493915   -1.261562
      9          1           0        0.373722   -2.483261   -0.639828
     10          1           0        1.129856   -1.997189    1.707609
     11          1           0        2.422737   -0.974035    1.061876
     12          1           0        0.465252    0.304628    1.809463
     13          1           0       -0.580049   -0.558506    0.677016
     14          1           0       -0.018137    1.631265   -0.192242
     15          1           0        0.646863    0.370432   -1.241627
     16          1           0        2.228334    1.931591    0.889700
     17          1           0        2.888582    0.675161   -0.182871
     18          1           0        1.998440   -4.020617    0.465051
     19          1           0        2.258227   -3.904879   -1.316518
     20          1           0        3.352988   -3.037259   -0.169331
     21          1           0        2.328653    2.087819   -2.180001
     22          1           0        3.431712    2.931211   -1.043389
     23          1           0        1.665270    3.360805   -1.101533
 ---------------------------------------------------------------------
                    Distance matrix (angstroms):
                    1          2          3          4          5
     1  C    0.000000
     2  C    1.490625   0.000000
     3  C    2.525150   1.508304   0.000000
     4  C    1.491652   2.504972   3.068027   0.000000
     5  C    3.057366   2.528084   1.510531   3.694411   0.000000
     6  C    2.487240   3.824024   4.447342   1.472952   4.800961
     7  C    4.463405   3.875813   2.523527   4.823671   1.506627
     8  H    2.143776   2.768425   2.727023   1.126559   3.194164
     9  H    2.139200   2.724845   3.368231   1.116134   4.347200
    10  H    1.110665   2.124739   3.463408   2.132985   4.039339
    11  H    1.109344   2.132034   2.791258   2.132308   2.728241
    12  H    2.120426   1.101220   2.138812   3.437071   2.796460
    13  H    2.134043   1.110520   2.137140   2.769020   3.467319
    14  H    3.454305   2.135587   1.103233   4.049166   2.145522
    15  H    2.806646   2.147653   1.109570   2.765961   2.148342
    16  H    3.377313   2.762512   2.158407   4.358952   1.121392
    17  H    2.713302   2.770101   2.146482   3.196116   1.103295
    18  H    2.772649   4.148467   5.068273   2.142148   5.517777
    19  H    3.465959   4.653688   5.093930   2.151670   5.501779
    20  H    2.782484   4.184149   4.671114   2.146083   4.667640
    21  H    4.671284   4.207345   2.794331   4.687569   2.158698
    22  H    5.097851   4.696903   3.494377   5.506466   2.172200
    23  H    5.099104   4.213273   2.816370   5.562015   2.181537
                    6          7          8          9         10
     6  C    0.000000
     7  C    5.894799   0.000000
     8  H    2.129078   4.058167   0.000000
     9  H    2.120141   5.411621   1.784972   0.000000
    10  H    2.710086   5.496005   3.069394   2.513656   0.000000
    11  H    2.745606   4.137891   2.481564   3.061376   1.770695
    12  H    4.603358   4.182695   3.774662   3.712106   2.398006
    13  H    4.121465   4.658005   3.152376   2.519611   2.460835
    14  H    5.474926   2.751632   3.733902   4.157308   4.253587
    15  H    4.147695   2.763209   2.152772   2.929221   3.812730
    16  H    5.403335   2.150426   4.076432   5.026924   4.160642
    17  H    4.050413   2.140214   2.688282   4.063123   3.715978
    18  H    1.106291   6.742242   3.072660   2.494780   2.528369
    19  H    1.130281   6.414744   2.470254   2.455660   3.749379
    20  H    1.110627   5.714926   2.496294   3.066644   3.089816
    21  H    5.718643   1.090678   3.746874   5.204678   5.765234
    22  H    6.400014   1.125104   4.748553   6.231426   6.095544
    23  H    6.761237   1.127778   4.857700   6.002864   6.073389
                   11         12         13         14         15
    11  H    0.000000
    12  H    2.454713   0.000000
    13  H    3.055734   1.766378   0.000000
    14  H    3.783949   2.449582   2.422076   0.000000
    15  H    3.204286   3.057199   2.459559   1.770066   0.000000
    16  H    2.917207   2.569325   3.759366   2.511459   3.079095
    17  H    2.118078   3.158990   3.780574   3.059941   2.497825
    18  H    3.133351   4.781824   4.322007   6.036753   4.901104
    19  H    3.778051   5.541341   4.819565   6.090544   4.569507
    20  H    2.576456   4.839715   4.725389   5.758483   4.481662
    21  H    4.460221   4.750564   4.860672   3.109188   2.580384
    22  H    4.549847   4.882375   5.588572   3.783618   3.788439
    23  H    4.903563   4.387956   4.854451   2.579143   3.162137
                   16         17         18         19         20
    16  H    0.000000
    17  H    1.779031   0.000000
    18  H    5.971763   4.823120   0.000000
    19  H    6.239605   4.760176   1.804126   0.000000
    20  H    5.203447   3.741379   1.790037   1.807569   0.000000
    21  H    3.075311   2.509512   6.664708   6.054998   5.599865
    22  H    2.486804   2.474922   7.256553   6.941455   6.032645
    23  H    2.514897   3.090811   7.553183   7.293009   6.682261
                   21         22         23
    21  H    0.000000
    22  H    1.794418   0.000000
    23  H    1.795455   1.818859   0.000000
 Stoichiometry    C7H16
 Framework group  C1[X(C7H16)]
 Deg. of freedom    63
 Full point group                 C1      NOp   1
 Largest Abelian subgroup         C1      NOp   1
 Largest concise Abelian subgroup C1      NOp   1
                         Standard orientation:                         
 ---------------------------------------------------------------------
 Center     Atomic      Atomic             Coordinates (Angstroms)
 Number     Number       Type             X           Y           Z
 ---------------------------------------------------------------------
      1          6           0       -1.142656    0.639907    0.540822
      2          6           0       -0.021935    1.462357    0.002748
      3          6           0        1.138527    0.667435   -0.541688
      4          6           0       -1.787740   -0.251311   -0.466463
      5          6           0        1.784106   -0.241851    0.477198
      6          6           0       -2.935416   -1.013964    0.053907
      7          6           0        2.958183   -1.014786   -0.065058
      8          1           0       -1.018699   -0.967808   -0.871858
      9          1           0       -2.118579    0.357203   -1.341684
     10          1           0       -1.908107    1.320327    0.970579
     11          1           0       -0.773401    0.026793    1.388398
     12          1           0        0.341591    2.132329    0.797527
     13          1           0       -0.403923    2.123291   -0.803791
     14          1           0        1.893568    1.368110   -0.936771
     15          1           0        0.795005    0.061776   -1.405583
     16          1           0        2.123654    0.367490    1.355225
     17          1           0        1.032222   -0.949481    0.866029
     18          1           0       -3.732504   -0.343609    0.426941
     19          1           0       -3.386431   -1.662266   -0.754688
     20          1           0       -2.636820   -1.681248    0.890008
     21          1           0        2.666611   -1.643301   -0.907396
     22          1           0        3.393773   -1.677864    0.732718
     23          1           0        3.773626   -0.318467   -0.414452
 ---------------------------------------------------------------------
 Rotational constants (GHZ):           4.3505137           1.1760672           1.0308137
 Leave Link  202 at Sun Sep 29 12:49:27 2019, MaxMem=   671088640 cpu:               3.4 elap:               1.7
 (Enter /shared/centos7/gaussian/g16/l301.exe)
 Standard basis: CC-pVTZ (5D, 7F)
 Ernie: Thresh=  0.10000D-02 Tol=  0.10000D-05 Strict=F.
 Ernie:  21 primitive shells out of 310 were deleted.
 There are   485 symmetry adapted cartesian basis functions of A   symmetry.
 There are   434 symmetry adapted basis functions of A   symmetry.
   434 basis functions,   636 primitive gaussians,   485 cartesian basis functions
    29 alpha electrons       29 beta electrons
       nuclear repulsion energy       323.5661002570 Hartrees.
 IExCor= 4336 DFT=T Ex+Corr=M062X ExCW=0 ScaHFX=  0.540000
 ScaDFX=  1.000000  1.000000  1.000000  1.000000 ScalE2=  1.000000  1.000000
 IRadAn=      5 IRanWt=     -1 IRanGd=            0 ICorTp=0 IEmpDi=  4
 NAtoms=   23 NActive=   23 NUniq=   23 SFac= 1.00D+00 NAtFMM=   60 NAOKFM=F Big=F
 Integral buffers will be    131072 words long.
 Raffenetti 2 integral format.
 Two-electron integral symmetry is turned on.
 Leave Link  301 at Sun Sep 29 12:49:29 2019, MaxMem=   671088640 cpu:               2.1 elap:               1.1
 (Enter /shared/centos7/gaussian/g16/l302.exe)
 NPDir=0 NMtPBC=     1 NCelOv=     1 NCel=       1 NClECP=     1 NCelD=      1
         NCelK=      1 NCelE2=     1 NClLst=     1 CellRange=     0.0.
 One-electron integrals computed using PRISM.
 One-electron integral symmetry used in STVInt
 NBasis=   434 RedAO= T EigKep=  2.69D-04  NBF=   434
 NBsUse=   434 1.00D-06 EigRej= -1.00D+00 NBFU=   434
 Precomputing XC quadrature grid using
 IXCGrd= 4 IRadAn=           5 IRanWt=          -1 IRanGd=           0 AccXCQ= 0.00D+00.
 Generated NRdTot=       0 NPtTot=           0 NUsed=           0 NTot=          32
 NSgBfM=   485   485   485   485   485 MxSgAt=    23 MxSgA2=    23.
 Leave Link  302 at Sun Sep 29 12:50:39 2019, MaxMem=   671088640 cpu:             140.7 elap:              70.4
 (Enter /shared/centos7/gaussian/g16/l303.exe)
 DipDrv:  MaxL=1.
 Leave Link  303 at Sun Sep 29 12:50:43 2019, MaxMem=   671088640 cpu:               7.5 elap:               3.8
 (Enter /shared/centos7/gaussian/g16/l401.exe)
 ExpMin= 1.03D-01 ExpMax= 8.24D+03 ExpMxC= 2.81D+02 IAcc=3 IRadAn=         5 AccDes= 0.00D+00
 Harris functional with IExCor= 1009 and IRadAn=       5 diagonalized for initial guess.
 HarFok:  IExCor= 1009 AccDes= 0.00D+00 IRadAn=         5 IDoV= 1 UseB2=F ITyADJ=14
 ICtDFT=  3500011 ScaDFX=  1.000000  1.000000  1.000000  1.000000
 FoFCou: FMM=F IPFlag=           0 FMFlag=      100000 FMFlg1=           0
         NFxFlg=           0 DoJE=T BraDBF=F KetDBF=T FulRan=T
         wScrn=  0.000000 ICntrl=       500 IOpCl=  0 I1Cent=   200000004 NGrid=           0
         NMat0=    1 NMatS0=      1 NMatT0=    0 NMatD0=    1 NMtDS0=    0 NMtDT0=    0
 Petite list used in FoFCou.
 Harris En= -276.336967679588    
 JPrj=0 DoOrth=F DoCkMO=F.
 Leave Link  401 at Sun Sep 29 12:51:26 2019, MaxMem=   671088640 cpu:              85.5 elap:              42.8
 (Enter /shared/centos7/gaussian/g16/l502.exe)
 Integral symmetry usage will be decided dynamically.
 Closed shell SCF:
 Using DIIS extrapolation, IDIIS=  1040.
 NGot=   671088640 LenX=   670604095 LenY=   670368385
 Requested convergence on RMS density matrix=1.00D-08 within 900 cycles.
 Requested convergence on MAX density matrix=1.00D-06.
 Requested convergence on             energy=1.00D-06.
 No special actions if energy rises.
 Fock matrices will be formed incrementally for  20 cycles.
 Integral accuracy reduced to 1.0D-05 until final iterations.

 Cycle   1  Pass 0  IDiag  1:
 FoFJK:  IHMeth= 1 ICntrl=       0 DoSepK=F KAlg= 0 I1Cent=           0 FoldK=F
 IRaf= 920000000 NMat=       1 IRICut=       1 DoRegI=T DoRafI=F ISym2E= 0 IDoP0=0 IntGTp=1.
 FoFCou: FMM=F IPFlag=           0 FMFlag=      100000 FMFlg1=           0
         NFxFlg=           0 DoJE=F BraDBF=F KetDBF=F FulRan=T
         wScrn=  0.000000 ICntrl=         0 IOpCl=  0 I1Cent=           0 NGrid=           0
         NMat0=    1 NMatS0=      1 NMatT0=    0 NMatD0=    1 NMtDS0=    0 NMtDT0=    0
 Symmetry not used in FoFCou.
 E= -275.970478871010    
 DIIS: error= 3.70D-02 at cycle   1 NSaved=   1.
 NSaved= 1 IEnMin= 1 EnMin= -275.970478871010     IErMin= 1 ErrMin= 3.70D-02
 ErrMax= 3.70D-02  0.00D+00 EMaxC= 1.00D-01 BMatC= 3.73D-01 BMatP= 3.73D-01
 IDIUse=3 WtCom= 6.30D-01 WtEn= 3.70D-01
 Coeff-Com:  0.100D+01
 Coeff-En:   0.100D+01
 Coeff:      0.100D+01
 Gap=     0.375 Goal=   None    Shift=    0.000
 GapD=    0.375 DampG=1.000 DampE=0.500 DampFc=0.5000 IDamp=-1.
 Damping current iteration by 5.00D-01
 RMSDP=1.88D-03 MaxDP=6.77D-02              OVMax= 1.72D-01

 Cycle   2  Pass 0  IDiag  1:
 RMSU=  9.37D-04    CP:  9.89D-01
 E= -276.150933746097     Delta-E=       -0.180454875087 Rises=F Damp=T
 DIIS: error= 4.35D-03 at cycle   2 NSaved=   2.
 NSaved= 2 IEnMin= 2 EnMin= -276.150933746097     IErMin= 2 ErrMin= 4.35D-03
 ErrMax= 4.35D-03  0.00D+00 EMaxC= 1.00D-01 BMatC= 1.78D-02 BMatP= 3.73D-01
 IDIUse=3 WtCom= 9.57D-01 WtEn= 4.35D-02
 Coeff-Com: -0.587D-01 0.106D+01
 Coeff-En:   0.000D+00 0.100D+01
 Coeff:     -0.562D-01 0.106D+01
 Gap=     0.454 Goal=   None    Shift=    0.000
 RMSDP=5.16D-04 MaxDP=1.54D-02 DE=-1.80D-01 OVMax= 9.02D-02

 Cycle   3  Pass 0  IDiag  1:
 RMSU=  5.04D-04    CP:  9.96D-01  8.93D-01
 E= -276.329330610579     Delta-E=       -0.178396864481 Rises=F Damp=F
 DIIS: error= 3.26D-03 at cycle   3 NSaved=   3.
 NSaved= 3 IEnMin= 3 EnMin= -276.329330610579     IErMin= 3 ErrMin= 3.26D-03
 ErrMax= 3.26D-03  0.00D+00 EMaxC= 1.00D-01 BMatC= 2.20D-03 BMatP= 1.78D-02
 IDIUse=3 WtCom= 9.67D-01 WtEn= 3.26D-02
 Coeff-Com: -0.482D-01 0.221D+00 0.828D+00
 Coeff-En:   0.000D+00 0.000D+00 0.100D+01
 Coeff:     -0.466D-01 0.213D+00 0.833D+00
 Gap=     0.422 Goal=   None    Shift=    0.000
 RMSDP=9.33D-05 MaxDP=2.57D-03 DE=-1.78D-01 OVMax= 9.95D-03

 Cycle   4  Pass 0  IDiag  1:
 RMSU=  7.58D-05    CP:  9.95D-01  9.37D-01  9.30D-01
 E= -276.331164203492     Delta-E=       -0.001833592913 Rises=F Damp=F
 DIIS: error= 9.16D-04 at cycle   4 NSaved=   4.
 NSaved= 4 IEnMin= 4 EnMin= -276.331164203492     IErMin= 4 ErrMin= 9.16D-04
 ErrMax= 9.16D-04  0.00D+00 EMaxC= 1.00D-01 BMatC= 3.48D-04 BMatP= 2.20D-03
 IDIUse=3 WtCom= 9.91D-01 WtEn= 9.16D-03
 Coeff-Com: -0.144D-01 0.408D-01 0.325D+00 0.649D+00
 Coeff-En:   0.000D+00 0.000D+00 0.000D+00 0.100D+01
 Coeff:     -0.143D-01 0.404D-01 0.322D+00 0.652D+00
 Gap=     0.422 Goal=   None    Shift=    0.000
 RMSDP=3.23D-05 MaxDP=1.37D-03 DE=-1.83D-03 OVMax= 3.20D-03

 Cycle   5  Pass 0  IDiag  1:
 RMSU=  1.86D-05    CP:  9.95D-01  9.29D-01  9.64D-01  7.55D-01
 E= -276.331484460882     Delta-E=       -0.000320257390 Rises=F Damp=F
 DIIS: error= 1.61D-04 at cycle   5 NSaved=   5.
 NSaved= 5 IEnMin= 5 EnMin= -276.331484460882     IErMin= 5 ErrMin= 1.61D-04
 ErrMax= 1.61D-04  0.00D+00 EMaxC= 1.00D-01 BMatC= 1.50D-05 BMatP= 3.48D-04
 IDIUse=3 WtCom= 9.98D-01 WtEn= 1.61D-03
 Coeff-Com: -0.710D-03-0.122D-02 0.445D-01 0.206D+00 0.751D+00
 Coeff-En:   0.000D+00 0.000D+00 0.000D+00 0.000D+00 0.100D+01
 Coeff:     -0.709D-03-0.122D-02 0.444D-01 0.206D+00 0.751D+00
 Gap=     0.422 Goal=   None    Shift=    0.000
 RMSDP=6.18D-06 MaxDP=3.02D-04 DE=-3.20D-04 OVMax= 7.15D-04

 Initial convergence to 1.0D-05 achieved.  Increase integral accuracy.
 Cycle   6  Pass 1  IDiag  1:
 E= -276.331440690397     Delta-E=        0.000043770485 Rises=F Damp=F
 DIIS: error= 4.37D-05 at cycle   1 NSaved=   1.
 NSaved= 1 IEnMin= 1 EnMin= -276.331440690397     IErMin= 1 ErrMin= 4.37D-05
 ErrMax= 4.37D-05  0.00D+00 EMaxC= 1.00D-01 BMatC= 1.61D-06 BMatP= 1.61D-06
 IDIUse=1 WtCom= 1.00D+00 WtEn= 0.00D+00
 Coeff-Com:  0.100D+01
 Coeff:      0.100D+01
 Gap=     0.422 Goal=   None    Shift=    0.000
 RMSDP=6.18D-06 MaxDP=3.02D-04 DE= 4.38D-05 OVMax= 2.42D-04

 Cycle   7  Pass 1  IDiag  1:
 RMSU=  1.24D-05    CP:  1.00D+00
 E= -276.331441443083     Delta-E=       -0.000000752686 Rises=F Damp=F
 DIIS: error= 2.38D-05 at cycle   2 NSaved=   2.
 NSaved= 2 IEnMin= 2 EnMin= -276.331441443083     IErMin= 2 ErrMin= 2.38D-05
 ErrMax= 2.38D-05  0.00D+00 EMaxC= 1.00D-01 BMatC= 3.41D-07 BMatP= 1.61D-06
 IDIUse=1 WtCom= 1.00D+00 WtEn= 0.00D+00
 Coeff-Com:  0.254D+00 0.746D+00
 Coeff:      0.254D+00 0.746D+00
 Gap=     0.422 Goal=   None    Shift=    0.000
 RMSDP=1.26D-06 MaxDP=5.00D-05 DE=-7.53D-07 OVMax= 1.42D-04

 Cycle   8  Pass 1  IDiag  1:
 RMSU=  1.25D-06    CP:  1.00D+00  1.01D+00
 E= -276.331441702615     Delta-E=       -0.000000259532 Rises=F Damp=F
 DIIS: error= 1.18D-05 at cycle   3 NSaved=   3.
 NSaved= 3 IEnMin= 3 EnMin= -276.331441702615     IErMin= 3 ErrMin= 1.18D-05
 ErrMax= 1.18D-05  0.00D+00 EMaxC= 1.00D-01 BMatC= 8.42D-08 BMatP= 3.41D-07
 IDIUse=1 WtCom= 1.00D+00 WtEn= 0.00D+00
 Coeff-Com: -0.629D-02 0.325D+00 0.681D+00
 Coeff:     -0.629D-02 0.325D+00 0.681D+00
 Gap=     0.422 Goal=   None    Shift=    0.000
 RMSDP=4.77D-07 MaxDP=2.08D-05 DE=-2.60D-07 OVMax= 4.69D-05

 Cycle   9  Pass 1  IDiag  1:
 RMSU=  2.89D-07    CP:  1.00D+00  1.03D+00  7.48D-01
 E= -276.331441783474     Delta-E=       -0.000000080859 Rises=F Damp=F
 DIIS: error= 2.30D-06 at cycle   4 NSaved=   4.
 NSaved= 4 IEnMin= 4 EnMin= -276.331441783474     IErMin= 4 ErrMin= 2.30D-06
 ErrMax= 2.30D-06  0.00D+00 EMaxC= 1.00D-01 BMatC= 1.57D-09 BMatP= 8.42D-08
 IDIUse=1 WtCom= 1.00D+00 WtEn= 0.00D+00
 Coeff-Com: -0.935D-02 0.895D-01 0.228D+00 0.691D+00
 Coeff:     -0.935D-02 0.895D-01 0.228D+00 0.691D+00
 Gap=     0.422 Goal=   None    Shift=    0.000
 RMSDP=8.12D-08 MaxDP=2.92D-06 DE=-8.09D-08 OVMax= 7.71D-06

 Cycle  10  Pass 1  IDiag  1:
 RMSU=  7.80D-08    CP:  1.00D+00  1.03D+00  7.44D-01  9.24D-01
 E= -276.331441785066     Delta-E=       -0.000000001592 Rises=F Damp=F
 DIIS: error= 3.81D-07 at cycle   5 NSaved=   5.
 NSaved= 5 IEnMin= 5 EnMin= -276.331441785066     IErMin= 5 ErrMin= 3.81D-07
 ErrMax= 3.81D-07  0.00D+00 EMaxC= 1.00D-01 BMatC= 5.22D-11 BMatP= 1.57D-09
 IDIUse=1 WtCom= 1.00D+00 WtEn= 0.00D+00
 Coeff-Com: -0.348D-04-0.244D-01-0.491D-01 0.395D-01 0.103D+01
 Coeff:     -0.348D-04-0.244D-01-0.491D-01 0.395D-01 0.103D+01
 Gap=     0.422 Goal=   None    Shift=    0.000
 RMSDP=3.10D-08 MaxDP=8.64D-07 DE=-1.59D-09 OVMax= 2.41D-06

 Cycle  11  Pass 1  IDiag  1:
 RMSU=  1.40D-08    CP:  1.00D+00  1.03D+00  7.48D-01  1.01D+00  1.10D+00
 E= -276.331441785144     Delta-E=       -0.000000000079 Rises=F Damp=F
 DIIS: error= 9.61D-08 at cycle   6 NSaved=   6.
 NSaved= 6 IEnMin= 6 EnMin= -276.331441785144     IErMin= 6 ErrMin= 9.61D-08
 ErrMax= 9.61D-08  0.00D+00 EMaxC= 1.00D-01 BMatC= 5.35D-12 BMatP= 5.22D-11
 IDIUse=1 WtCom= 1.00D+00 WtEn= 0.00D+00
 Coeff-Com:  0.331D-03-0.116D-01-0.251D-01-0.120D-01 0.362D+00 0.687D+00
 Coeff:      0.331D-03-0.116D-01-0.251D-01-0.120D-01 0.362D+00 0.687D+00
 Gap=     0.422 Goal=   None    Shift=    0.000
 RMSDP=4.07D-09 MaxDP=1.41D-07 DE=-7.86D-11 OVMax= 4.82D-07

 SCF Done:  E(RM062X) =  -276.331441785     A.U. after   11 cycles
            NFock= 11  Conv=0.41D-08     -V/T= 2.0069
 KE= 2.744378601728D+02 PE=-1.285489019342D+03 EE= 4.111536171271D+02
 Leave Link  502 at Sun Sep 29 13:06:13 2019, MaxMem=   671088640 cpu:            1773.7 elap:             887.0
 (Enter /shared/centos7/gaussian/g16/l801.exe)
 DoSCS=F DFT=T ScalE2(SS,OS)=  1.000000  1.000000
 Range of M.O.s used for correlation:     1   434
 NBasis=   434 NAE=    29 NBE=    29 NFC=     0 NFV=     0
 NROrb=    434 NOA=    29 NOB=    29 NVA=   405 NVB=   405

 **** Warning!!: The largest alpha MO coefficient is  0.14542020D+02

 Leave Link  801 at Sun Sep 29 13:06:14 2019, MaxMem=   671088640 cpu:               1.3 elap:               0.7
 (Enter /shared/centos7/gaussian/g16/l1101.exe)
 Using compressed storage, NAtomX=    23.
 Will process     24 centers per pass.
 Leave Link 1101 at Sun Sep 29 13:06:46 2019, MaxMem=   671088640 cpu:              64.0 elap:              32.0
 (Enter /shared/centos7/gaussian/g16/l1102.exe)
 Symmetrizing basis deriv contribution to polar:
 IMax=3 JMax=2 DiffMx= 0.00D+00
 Leave Link 1102 at Sun Sep 29 13:06:48 2019, MaxMem=   671088640 cpu:               5.7 elap:               2.9
 (Enter /shared/centos7/gaussian/g16/l1110.exe)
 Forming Gx(P) for the SCF density, NAtomX=    23.
 Integral derivatives from FoFJK, PRISM(SPDF).
 Do as many integral derivatives as possible in FoFJK.
 G2DrvN: MDV=     671086848.
 G2DrvN: will do    24 centers at a time, making    1 passes.
 Calling FoFCou, ICntrl=  3107 FMM=F I1Cent=   0 AccDes= 0.00D+00.
 FoFJK:  IHMeth= 1 ICntrl=    3107 DoSepK=F KAlg= 0 I1Cent=           0 FoldK=F
 IRaf=         0 NMat=       1 IRICut=       1 DoRegI=T DoRafI=F ISym2E= 0 IDoP0=0 IntGTp=1.
 FoFCou: FMM=F IPFlag=           0 FMFlag=      100000 FMFlg1=           0
         NFxFlg=           0 DoJE=F BraDBF=F KetDBF=F FulRan=T
         wScrn=  0.000000 ICntrl=      3107 IOpCl=  0 I1Cent=           0 NGrid=           0
         NMat0=    1 NMatS0=      1 NMatT0=    0 NMatD0=    1 NMtDS0=    0 NMtDT0=    0
 Symmetry not used in FoFCou.
 End of G2Drv F.D. properties file   721 does not exist.
 End of G2Drv F.D. properties file   722 does not exist.
 End of G2Drv F.D. properties file   788 does not exist.
 Leave Link 1110 at Sun Sep 29 13:45:05 2019, MaxMem=   671088640 cpu:            4591.5 elap:            2296.2
 (Enter /shared/centos7/gaussian/g16/l1002.exe)
 Minotr:  Closed shell wavefunction.
          IDoAtm=11111111111111111111111
          Direct CPHF calculation.
          Differentiating once with respect to nuclear coordinates.
          Requested convergence is 1.0D-08 RMS, and 1.0D-07 maximum.
          Secondary convergence is 1.0D-12 RMS, and 1.0D-12 maximum.
          NewPWx=T KeepS1=F KeepF1=F KeepIn=T MapXYZ=F SortEE=F KeepMc=T.
         6939 words used for storage of precomputed grid.
 Two-electron integrals replicated using symmetry.
          MDV=     671088640 using IRadAn=       1.
          Solving linear equations simultaneously, MaxMat=     380.
 FoF2E skips out because all densities are zero.
 CalDSu exits because no D1Ps are significant.
 FoFJK:  IHMeth= 1 ICntrl=       0 DoSepK=F KAlg= 0 I1Cent=           0 FoldK=F
 IRaf= 910000000 NMat=      69 IRICut=     172 DoRegI=T DoRafI=T ISym2E= 2 IDoP0=3 IntGTp=3.
 FoFCou: FMM=F IPFlag=           0 FMFlag=      100000 FMFlg1=           0
         NFxFlg=           0 DoJE=F BraDBF=F KetDBF=F FulRan=T
         wScrn=  0.000000 ICntrl=         0 IOpCl=  0 I1Cent=           0 NGrid=           0
         NMat0=   69 NMatS0=     69 NMatT0=    0 NMatD0=   69 NMtDS0=    0 NMtDT0=    0
 Integrals replicated using symmetry in FoFCou.
 Raff kept on since  86.55% of shell-pairs survive, threshold=   0.20 IRatSp=87.
          There are    72 degrees of freedom in the 1st order CPHF.  IDoFFX=6 NUNeed=     0.
     66 vectors produced by pass  0 Test12= 1.63D-14 1.39D-09 XBig12= 5.66D-02 4.04D-02.
 AX will form    66 AO Fock derivatives at one time.
     66 vectors produced by pass  1 Test12= 1.63D-14 1.39D-09 XBig12= 2.80D-03 7.41D-03.
     66 vectors produced by pass  2 Test12= 1.63D-14 1.39D-09 XBig12= 4.85D-05 1.48D-03.
     66 vectors produced by pass  3 Test12= 1.63D-14 1.39D-09 XBig12= 3.90D-07 8.20D-05.
     66 vectors produced by pass  4 Test12= 1.63D-14 1.39D-09 XBig12= 1.73D-09 5.55D-06.
     66 vectors produced by pass  5 Test12= 1.63D-14 1.39D-09 XBig12= 8.36D-12 3.42D-07.
     23 vectors produced by pass  6 Test12= 1.63D-14 1.39D-09 XBig12= 3.05D-14 1.89D-08.
 InvSVY:  IOpt=1 It=  1 EMax= 4.72D-16
 Solved reduced A of dimension   419 with    72 vectors.
 End of Minotr F.D. properties file   721 does not exist.
 End of Minotr F.D. properties file   722 does not exist.
 End of Minotr F.D. properties file   788 does not exist.
 Leave Link 1002 at Sun Sep 29 14:50:18 2019, MaxMem=   671088640 cpu:            7825.2 elap:            3913.3
 (Enter /shared/centos7/gaussian/g16/l601.exe)
 Copying SCF densities to generalized density rwf, IOpCl= 0 IROHF=0.

 **********************************************************************

            Population analysis using the SCF density.

 **********************************************************************

 Orbital symmetries:
       Occupied  (A) (A) (A) (A) (A) (A) (A) (A) (A) (A) (A) (A)
                 (A) (A) (A) (A) (A) (A) (A) (A) (A) (A) (A) (A)
                 (A) (A) (A) (A) (A)
       Virtual   (A) (A) (A) (A) (A) (A) (A) (A) (A) (A) (A) (A)
                 (A) (A) (A) (A) (A) (A) (A) (A) (A) (A) (A) (A)
                 (A) (A) (A) (A) (A) (A) (A) (A) (A) (A) (A) (A)
                 (A) (A) (A) (A) (A) (A) (A) (A) (A) (A) (A) (A)
                 (A) (A) (A) (A) (A) (A) (A) (A) (A) (A) (A) (A)
                 (A) (A) (A) (A) (A) (A) (A) (A) (A) (A) (A) (A)
                 (A) (A) (A) (A) (A) (A) (A) (A) (A) (A) (A) (A)
                 (A) (A) (A) (A) (A) (A) (A) (A) (A) (A) (A) (A)
                 (A) (A) (A) (A) (A) (A) (A) (A) (A) (A) (A) (A)
                 (A) (A) (A) (A) (A) (A) (A) (A) (A) (A) (A) (A)
                 (A) (A) (A) (A) (A) (A) (A) (A) (A) (A) (A) (A)
                 (A) (A) (A) (A) (A) (A) (A) (A) (A) (A) (A) (A)
                 (A) (A) (A) (A) (A) (A) (A) (A) (A) (A) (A) (A)
                 (A) (A) (A) (A) (A) (A) (A) (A) (A) (A) (A) (A)
                 (A) (A) (A) (A) (A) (A) (A) (A) (A) (A) (A) (A)
                 (A) (A) (A) (A) (A) (A) (A) (A) (A) (A) (A) (A)
                 (A) (A) (A) (A) (A) (A) (A) (A) (A) (A) (A) (A)
                 (A) (A) (A) (A) (A) (A) (A) (A) (A) (A) (A) (A)
                 (A) (A) (A) (A) (A) (A) (A) (A) (A) (A) (A) (A)
                 (A) (A) (A) (A) (A) (A) (A) (A) (A) (A) (A) (A)
                 (A) (A) (A) (A) (A) (A) (A) (A) (A) (A) (A) (A)
                 (A) (A) (A) (A) (A) (A) (A) (A) (A) (A) (A) (A)
                 (A) (A) (A) (A) (A) (A) (A) (A) (A) (A) (A) (A)
                 (A) (A) (A) (A) (A) (A) (A) (A) (A) (A) (A) (A)
                 (A) (A) (A) (A) (A) (A) (A) (A) (A) (A) (A) (A)
                 (A) (A) (A) (A) (A) (A) (A) (A) (A) (A) (A) (A)
                 (A) (A) (A) (A) (A) (A) (A) (A) (A) (A) (A) (A)
                 (A) (A) (A) (A) (A) (A) (A) (A) (A) (A) (A) (A)
                 (A) (A) (A) (A) (A) (A) (A) (A) (A) (A) (A) (A)
                 (A) (A) (A) (A) (A) (A) (A) (A) (A) (A) (A) (A)
                 (A) (A) (A) (A) (A) (A) (A) (A) (A) (A) (A) (A)
                 (A) (A) (A) (A) (A) (A) (A) (A) (A) (A) (A) (A)
                 (A) (A) (A) (A) (A) (A) (A) (A) (A) (A) (A) (A)
                 (A) (A) (A) (A) (A) (A) (A) (A) (A)
 The electronic state is 1-A.
 Alpha  occ. eigenvalues --  -10.52887 -10.52699 -10.52646 -10.52469 -10.52456
 Alpha  occ. eigenvalues --  -10.52369 -10.52294  -0.92340  -0.88146  -0.83091
 Alpha  occ. eigenvalues --   -0.76222  -0.69844  -0.66940  -0.62406  -0.55195
 Alpha  occ. eigenvalues --   -0.53509  -0.50370  -0.49254  -0.48988  -0.47159
 Alpha  occ. eigenvalues --   -0.43398  -0.42875  -0.42298  -0.40707  -0.38831
 Alpha  occ. eigenvalues --   -0.38259  -0.37246  -0.36303  -0.35910
 Alpha virt. eigenvalues --    0.06290   0.08105   0.08317   0.08624   0.10991
 Alpha virt. eigenvalues --    0.11881   0.12822   0.14045   0.14868   0.15377
 Alpha virt. eigenvalues --    0.15824   0.16841   0.17017   0.18228   0.18303
 Alpha virt. eigenvalues --    0.19935   0.21718   0.22374   0.24274   0.25432
 Alpha virt. eigenvalues --    0.26632   0.27839   0.29706   0.29927   0.31407
 Alpha virt. eigenvalues --    0.31842   0.31981   0.34326   0.34602   0.35665
 Alpha virt. eigenvalues --    0.37534   0.40135   0.42165   0.43167   0.43848
 Alpha virt. eigenvalues --    0.44972   0.45584   0.46290   0.47269   0.47699
 Alpha virt. eigenvalues --    0.49561   0.49675   0.49896   0.50699   0.51023
 Alpha virt. eigenvalues --    0.51477   0.51748   0.52345   0.53039   0.55075
 Alpha virt. eigenvalues --    0.55756   0.56043   0.56596   0.56829   0.57219
 Alpha virt. eigenvalues --    0.57961   0.58485   0.60346   0.64194   0.65807
 Alpha virt. eigenvalues --    0.67817   0.68269   0.71196   0.72845   0.73339
 Alpha virt. eigenvalues --    0.76578   0.77574   0.81138   0.81460   0.82021
 Alpha virt. eigenvalues --    0.84227   0.86738   0.88065   0.89617   0.89854
 Alpha virt. eigenvalues --    0.90850   0.92040   0.93096   0.95640   0.95910
 Alpha virt. eigenvalues --    0.97412   1.01008   1.02616   1.03937   1.04402
 Alpha virt. eigenvalues --    1.06031   1.07230   1.09078   1.09835   1.11172
 Alpha virt. eigenvalues --    1.11499   1.12241   1.12800   1.13372   1.14590
 Alpha virt. eigenvalues --    1.14944   1.15984   1.17865   1.18002   1.18720
 Alpha virt. eigenvalues --    1.18854   1.22192   1.22427   1.23022   1.23694
 Alpha virt. eigenvalues --    1.24769   1.25061   1.26289   1.27454   1.28108
 Alpha virt. eigenvalues --    1.30323   1.30787   1.31623   1.32692   1.32941
 Alpha virt. eigenvalues --    1.33396   1.35699   1.36346   1.36780   1.37145
 Alpha virt. eigenvalues --    1.38177   1.39582   1.42213   1.42631   1.43364
 Alpha virt. eigenvalues --    1.44358   1.46393   1.46714   1.48989   1.50419
 Alpha virt. eigenvalues --    1.51002   1.52913   1.53365   1.55091   1.55425
 Alpha virt. eigenvalues --    1.56471   1.57815   1.58906   1.62854   1.64211
 Alpha virt. eigenvalues --    1.64969   1.66789   1.68009   1.70306   1.70665
 Alpha virt. eigenvalues --    1.79172   1.83320   1.85478   1.88885   2.25054
 Alpha virt. eigenvalues --    2.26349   2.31129   2.33040   2.34120   2.35706
 Alpha virt. eigenvalues --    2.36180   2.37633   2.39423   2.41496   2.43018
 Alpha virt. eigenvalues --    2.44764   2.46522   2.47592   2.49937   2.51802
 Alpha virt. eigenvalues --    2.54025   2.54995   2.55955   2.57268   2.60825
 Alpha virt. eigenvalues --    2.61157   2.62280   2.63697   2.64603   2.65665
 Alpha virt. eigenvalues --    2.66948   2.67604   2.71164   2.71411   2.71828
 Alpha virt. eigenvalues --    2.73165   2.73660   2.76322   2.77825   2.78035
 Alpha virt. eigenvalues --    2.79524   2.81156   2.81276   2.82574   2.84581
 Alpha virt. eigenvalues --    2.85025   2.85493   2.86275   2.91104   2.91496
 Alpha virt. eigenvalues --    2.92580   2.93230   2.95180   2.95927   2.96163
 Alpha virt. eigenvalues --    2.98674   3.01250   3.02909   3.03058   3.04676
 Alpha virt. eigenvalues --    3.05596   3.07260   3.07608   3.08288   3.08660
 Alpha virt. eigenvalues --    3.09576   3.09745   3.10547   3.11252   3.13100
 Alpha virt. eigenvalues --    3.15558   3.16135   3.16896   3.17102   3.17506
 Alpha virt. eigenvalues --    3.18404   3.18848   3.20585   3.21282   3.22451
 Alpha virt. eigenvalues --    3.23694   3.25371   3.25897   3.26804   3.28583
 Alpha virt. eigenvalues --    3.29966   3.30421   3.31291   3.32861   3.34855
 Alpha virt. eigenvalues --    3.35904   3.37065   3.39904   3.40390   3.40822
 Alpha virt. eigenvalues --    3.42259   3.43284   3.43478   3.45263   3.46084
 Alpha virt. eigenvalues --    3.47272   3.49141   3.50753   3.52374   3.53617
 Alpha virt. eigenvalues --    3.54073   3.54894   3.55142   3.59539   3.61120
 Alpha virt. eigenvalues --    3.62485   3.64475   3.65060   3.65787   3.67282
 Alpha virt. eigenvalues --    3.68483   3.68949   3.71044   3.71687   3.73067
 Alpha virt. eigenvalues --    3.73915   3.77255   3.77802   3.78900   3.79984
 Alpha virt. eigenvalues --    3.80070   3.81022   3.82624   3.84469   3.84914
 Alpha virt. eigenvalues --    3.85583   3.86020   3.86359   3.87979   3.88677
 Alpha virt. eigenvalues --    3.89767   3.92566   3.93551   3.93719   3.95752
 Alpha virt. eigenvalues --    3.96541   3.96658   3.97718   3.98528   3.99734
 Alpha virt. eigenvalues --    3.99921   4.01735   4.01868   4.02701   4.04113
 Alpha virt. eigenvalues --    4.05747   4.06513   4.08198   4.08739   4.09223
 Alpha virt. eigenvalues --    4.09820   4.13023   4.14194   4.14823   4.16706
 Alpha virt. eigenvalues --    4.17339   4.17681   4.18656   4.18911   4.21524
 Alpha virt. eigenvalues --    4.22337   4.25073   4.25282   4.26079   4.28659
 Alpha virt. eigenvalues --    4.29748   4.32595   4.34177   4.34487   4.38508
 Alpha virt. eigenvalues --    4.39044   4.40852   4.42696   4.43807   4.46930
 Alpha virt. eigenvalues --    4.48976   4.50634   4.52340   4.57004   4.58814
 Alpha virt. eigenvalues --    4.61391   4.61844   4.62763   4.63990   4.65434
 Alpha virt. eigenvalues --    4.66533   4.68244   4.71678   4.72529   4.75363
 Alpha virt. eigenvalues --    4.77025   4.77622   4.79158   4.80010   4.80471
 Alpha virt. eigenvalues --    4.82980   4.83516   4.86085   4.88026   4.88537
 Alpha virt. eigenvalues --    4.90171   4.91575   4.92003   4.94084   4.96115
 Alpha virt. eigenvalues --    4.97471   4.98745   5.05435   5.07576   5.09113
 Alpha virt. eigenvalues --    5.10465   5.14311   5.15928   5.18004   5.21311
 Alpha virt. eigenvalues --    5.22204   5.22713   5.23548   5.25117   5.26380
 Alpha virt. eigenvalues --    5.28530   5.31198   5.33707   5.34971   5.36762
 Alpha virt. eigenvalues --    5.37589   5.38214   5.40404   5.43510   5.45599
 Alpha virt. eigenvalues --    5.46789   5.48359   5.50834   5.52667   5.55327
 Alpha virt. eigenvalues --    5.59739   5.61167   5.65410   5.70605   5.79351
 Alpha virt. eigenvalues --    5.80904   5.81289   5.82343   5.85577   5.92173
 Alpha virt. eigenvalues --    5.98401   6.00421   6.03472  12.24793  12.37893
 Alpha virt. eigenvalues --   12.70556  13.16391  13.27899  13.36722  13.55963
          Condensed to atoms (all electrons):
               1          2          3          4          5          6
     1  C    5.127226   0.314467  -0.054744   0.310451   0.004867  -0.061494
     2  C    0.314467   5.075299   0.318509  -0.060550  -0.059278   0.007108
     3  C   -0.054744   0.318509   5.121428   0.005359   0.311219  -0.000105
     4  C    0.310451  -0.060550   0.005359   5.066668  -0.004290   0.319151
     5  C    0.004867  -0.059278   0.311219  -0.004290   5.067174  -0.000014
     6  C   -0.061494   0.007108  -0.000105   0.319151  -0.000014   4.939707
     7  C   -0.000027   0.006704  -0.058364  -0.000010   0.322076  -0.000007
     8  H   -0.041825  -0.009454   0.004856   0.405876  -0.000798  -0.038322
     9  H   -0.052587   0.003327  -0.004005   0.405413   0.000444  -0.034116
    10  H    0.413523  -0.042806   0.009370  -0.042480  -0.000114  -0.004416
    11  H    0.404813  -0.032201  -0.010696  -0.049568   0.000989  -0.001913
    12  H   -0.053703   0.421829  -0.042989   0.009962  -0.005590  -0.000413
    13  H   -0.044326   0.421123  -0.052266  -0.006676   0.009445   0.000143
    14  H    0.009090  -0.040841   0.412616  -0.000138  -0.040205   0.000011
    15  H   -0.009656  -0.032342   0.404269   0.001270  -0.048502   0.000408
    16  H   -0.004021   0.003548  -0.050296   0.000461   0.403971  -0.000006
    17  H    0.004544  -0.009054  -0.040563  -0.000757   0.406840  -0.000032
    18  H   -0.006078  -0.000154  -0.000001  -0.049085  -0.000003   0.409512
    19  H    0.009750  -0.000588   0.000083  -0.044082  -0.000001   0.406769
    20  H   -0.005028   0.000362  -0.000165  -0.048389   0.000031   0.406856
    21  H   -0.000159   0.000277  -0.004733   0.000037  -0.045763  -0.000006
    22  H    0.000077  -0.000528   0.008894  -0.000002  -0.041808   0.000000
    23  H   -0.000005  -0.000142  -0.005265  -0.000002  -0.045389   0.000000
               7          8          9         10         11         12
     1  C   -0.000027  -0.041825  -0.052587   0.413523   0.404813  -0.053703
     2  C    0.006704  -0.009454   0.003327  -0.042806  -0.032201   0.421829
     3  C   -0.058364   0.004856  -0.004005   0.009370  -0.010696  -0.042989
     4  C   -0.000010   0.405876   0.405413  -0.042480  -0.049568   0.009962
     5  C    0.322076  -0.000798   0.000444  -0.000114   0.000989  -0.005590
     6  C   -0.000007  -0.038322  -0.034116  -0.004416  -0.001913  -0.000413
     7  C    4.933108  -0.000055  -0.000003   0.000010   0.000420   0.000074
     8  H   -0.000055   0.614296  -0.041423   0.008705  -0.008976  -0.000564
     9  H   -0.000003  -0.041423   0.595157  -0.006467   0.009103   0.000141
    10  H    0.000010   0.008705  -0.006467   0.575390  -0.035762  -0.008374
    11  H    0.000420  -0.008976   0.009103  -0.035762   0.584143  -0.004886
    12  H    0.000074  -0.000564   0.000141  -0.008374  -0.004886   0.567995
    13  H   -0.000375   0.000137   0.003822  -0.006472   0.008012  -0.026668
    14  H   -0.003991   0.000610  -0.000259  -0.000185  -0.000539  -0.006597
    15  H   -0.002229  -0.009682   0.001410  -0.000595   0.001580   0.007715
    16  H   -0.031835  -0.000092  -0.000004  -0.000252   0.001412   0.003373
    17  H   -0.037722   0.001519  -0.000110   0.000620  -0.009906   0.000191
    18  H    0.000000   0.009232  -0.007108   0.004773  -0.000514  -0.000056
    19  H    0.000000  -0.006360  -0.007016  -0.000068  -0.000170   0.000029
    20  H   -0.000005  -0.007992   0.008920  -0.000209   0.003879   0.000006
    21  H    0.406364   0.000169  -0.000006  -0.000002   0.000048  -0.000009
    22  H    0.405765  -0.000014   0.000001  -0.000004   0.000055   0.000005
    23  H    0.405834   0.000008  -0.000002   0.000003  -0.000072   0.000036
              13         14         15         16         17         18
     1  C   -0.044326   0.009090  -0.009656  -0.004021   0.004544  -0.006078
     2  C    0.421123  -0.040841  -0.032342   0.003548  -0.009054  -0.000154
     3  C   -0.052266   0.412616   0.404269  -0.050296  -0.040563  -0.000001
     4  C   -0.006676  -0.000138   0.001270   0.000461  -0.000757  -0.049085
     5  C    0.009445  -0.040205  -0.048502   0.403971   0.406840  -0.000003
     6  C    0.000143   0.000011   0.000408  -0.000006  -0.000032   0.409512
     7  C   -0.000375  -0.003991  -0.002229  -0.031835  -0.037722   0.000000
     8  H    0.000137   0.000610  -0.009682  -0.000092   0.001519   0.009232
     9  H    0.003822  -0.000259   0.001410  -0.000004  -0.000110  -0.007108
    10  H   -0.006472  -0.000185  -0.000595  -0.000252   0.000620   0.004773
    11  H    0.008012  -0.000539   0.001580   0.001412  -0.009906  -0.000514
    12  H   -0.026668  -0.006597   0.007715   0.003373   0.000191  -0.000056
    13  H    0.573664  -0.007253  -0.005093   0.000084  -0.000538   0.000047
    14  H   -0.007253   0.566879  -0.035200  -0.006443   0.008075   0.000004
    15  H   -0.005093  -0.035200   0.582466   0.008640  -0.007746  -0.000072
    16  H    0.000084  -0.006443   0.008640   0.593889  -0.041442  -0.000002
    17  H   -0.000538   0.008075  -0.007746  -0.041442   0.599102   0.000011
    18  H    0.000047   0.000004  -0.000072  -0.000002   0.000011   0.601761
    19  H   -0.000000  -0.000004   0.000049   0.000001  -0.000014  -0.031512
    20  H   -0.000013  -0.000003   0.000054  -0.000006   0.000157  -0.039110
    21  H    0.000004  -0.000060   0.003541   0.008125  -0.006560   0.000000
    22  H    0.000026  -0.000085  -0.000118  -0.005853  -0.005874  -0.000000
    23  H   -0.000046   0.004086  -0.000413  -0.006761   0.008464  -0.000000
              19         20         21         22         23
     1  C    0.009750  -0.005028  -0.000159   0.000077  -0.000005
     2  C   -0.000588   0.000362   0.000277  -0.000528  -0.000142
     3  C    0.000083  -0.000165  -0.004733   0.008894  -0.005265
     4  C   -0.044082  -0.048389   0.000037  -0.000002  -0.000002
     5  C   -0.000001   0.000031  -0.045763  -0.041808  -0.045389
     6  C    0.406769   0.406856  -0.000006   0.000000   0.000000
     7  C    0.000000  -0.000005   0.406364   0.405765   0.405834
     8  H   -0.006360  -0.007992   0.000169  -0.000014   0.000008
     9  H   -0.007016   0.008920  -0.000006   0.000001  -0.000002
    10  H   -0.000068  -0.000209  -0.000002  -0.000004   0.000003
    11  H   -0.000170   0.003879   0.000048   0.000055  -0.000072
    12  H    0.000029   0.000006  -0.000009   0.000005   0.000036
    13  H   -0.000000  -0.000013   0.000004   0.000026  -0.000046
    14  H   -0.000004  -0.000003  -0.000060  -0.000085   0.004086
    15  H    0.000049   0.000054   0.003541  -0.000118  -0.000413
    16  H    0.000001  -0.000006   0.008125  -0.005853  -0.006761
    17  H   -0.000014   0.000157  -0.006560  -0.005874   0.008464
    18  H   -0.031512  -0.039110   0.000000  -0.000000  -0.000000
    19  H    0.599753  -0.030689   0.000000   0.000000  -0.000000
    20  H   -0.030689   0.604840  -0.000003   0.000000   0.000000
    21  H    0.000000  -0.000003   0.593910  -0.031789  -0.038232
    22  H    0.000000   0.000000  -0.031789   0.595834  -0.030558
    23  H   -0.000000   0.000000  -0.038232  -0.030558   0.606322
 Mulliken charges:
               1
     1  C   -0.265156
     2  C   -0.284615
     3  C   -0.272410
     4  C   -0.218617
     5  C   -0.235303
     6  C   -0.348823
     7  C   -0.345729
     8  H    0.120149
     9  H    0.125366
    10  H    0.135814
    11  H    0.140749
    12  H    0.138495
    13  H    0.133220
    14  H    0.140430
    15  H    0.140245
    16  H    0.123509
    17  H    0.130795
    18  H    0.108355
    19  H    0.104069
    20  H    0.106505
    21  H    0.114846
    22  H    0.105975
    23  H    0.102129
 Sum of Mulliken charges =  -0.00000
 Mulliken charges with hydrogens summed into heavy atoms:
               1
     1  C    0.011407
     2  C   -0.012900
     3  C    0.008266
     4  C    0.026898
     5  C    0.019001
     6  C   -0.029893
     7  C   -0.022779
 APT charges:
               1
     1  C   -0.604062
     2  C   -0.865789
     3  C   -0.623009
     4  C   -0.376224
     5  C   -0.422554
     6  C   -1.414513
     7  C   -1.385874
     8  H    0.191000
     9  H    0.378589
    10  H    0.444489
    11  H    0.248206
    12  H    0.396045
    13  H    0.390526
    14  H    0.451455
    15  H    0.251542
    16  H    0.380397
    17  H    0.196224
    18  H    0.444800
    19  H    0.474544
    20  H    0.255803
    21  H    0.265084
    22  H    0.475400
    23  H    0.447917
 Sum of APT charges =  -0.00000
 APT charges with hydrogens summed into heavy atoms:
               1
     1  C    0.088634
     2  C   -0.079218
     3  C    0.079989
     4  C    0.193366
     5  C    0.154067
     6  C   -0.239366
     7  C   -0.197472
 Electronic spatial extent (au):  <R**2>=           1259.1115
 Charge=             -0.0000 electrons
 Dipole moment (field-independent basis, Debye):
    X=             -0.0189    Y=              0.0699    Z=              0.0030  Tot=              0.0724
 Quadrupole moment (field-independent basis, Debye-Ang):
   XX=            -49.9509   YY=            -48.9660   ZZ=            -49.2037
   XY=             -0.0330   XZ=              0.6607   YZ=              0.0197
 Traceless Quadrupole moment (field-independent basis, Debye-Ang):
   XX=             -0.5774   YY=              0.4075   ZZ=              0.1698
   XY=             -0.0330   XZ=              0.6607   YZ=              0.0197
 Octapole moment (field-independent basis, Debye-Ang**2):
  XXX=             -0.5357  YYY=              0.5136  ZZZ=             -0.0470  XYY=              0.2105
  XXY=              4.8134  XXZ=             -0.0448  XZZ=             -0.0259  YZZ=             -0.4205
  YYZ=              0.0706  XYZ=             -0.7805
 Hexadecapole moment (field-independent basis, Debye-Ang**3):
 XXXX=          -1313.9629 YYYY=           -345.6872 ZZZZ=           -163.9032 XXXY=              0.1789
 XXXZ=              6.2059 YYYX=             -0.2474 YYYZ=             -0.0069 ZZZX=              4.1605
 ZZZY=              0.2075 XXYY=           -273.6344 XXZZ=           -241.9884 YYZZ=            -79.6119
 XXYZ=              0.0667 YYXZ=              2.2654 ZZXY=             -0.1494
 N-N= 3.235661002570D+02 E-N=-1.285488978862D+03  KE= 2.744378601728D+02
  Exact polarizability:   0.000   0.000   0.000   0.000   0.000   0.000
 Approx polarizability:  99.172  -0.496  98.729   0.417  -0.087  99.876
 No NMR shielding tensors so no spin-rotation constants.
 Leave Link  601 at Sun Sep 29 14:50:52 2019, MaxMem=   671088640 cpu:              67.4 elap:              33.7
 (Enter /shared/centos7/gaussian/g16/l701.exe)
 SCFChk:  SCF convergence  4.07D-09 required  1.00D-08
 ... and contract with generalized density number  0.
 Compute integral second derivatives.
 Entering OneElI...
 Calculate overlap and kinetic energy integrals
    NBasis = 485  MinDer = 2  MaxDer = 2
 Requested accuracy = 0.1000D-12
 PrmmSu-InSpLW:  IPartL=    0 NPrtUS=   20 NPrtUL=    1 DoSpLW=F IThBeg=    0 IThEnd=   19 NThAct=   20.
 PrsmSu:  NPrtUS=  20 ThrOK=T IAlg=1 NPAlg=1 LenDen=           0 ISkipM=0 DoSpLW=F IThBeg=    0 IThEnd=   19.
 Prism:   IPart=     0 DynPar=F LinDyn=F Incr=           6.
 PRISM was handed    33205210 working-precision words and 13566 shell-pairs
 PRISM was handed    33205210 working-precision words and 13566 shell-pairs
 PRISM was handed    33205210 working-precision words and 13566 shell-pairs
 PRISM was handed    33205210 working-precision words and 13566 shell-pairs
 PRISM was handed    33205210 working-precision words and 13566 shell-pairs
 PRISM was handed    33205210 working-precision words and 13566 shell-pairs
 PRISM was handed    33205210 working-precision words and 13566 shell-pairs
 PRISM was handed    33205210 working-precision words and 13566 shell-pairs
 PRISM was handed    33205210 working-precision words and 13566 shell-pairs
 PRISM was handed    33205210 working-precision words and 13566 shell-pairs
 PRISM was handed    33205210 working-precision words and 13566 shell-pairs
 PRISM was handed    33205210 working-precision words and 13566 shell-pairs
 IPart=  3 NShTot=         702 NBatch=          75 AvBLen=         9.4
 PRISM was handed    33205210 working-precision words and 13566 shell-pairs
 IPart=  0 NShTot=         710 NBatch=          79 AvBLen=         9.0
 PRISM was handed    33205210 working-precision words and 13566 shell-pairs
 PRISM was handed    33205210 working-precision words and 13566 shell-pairs
 PRISM was handed    33205210 working-precision words and 13566 shell-pairs
 PRISM was handed    33205210 working-precision words and 13566 shell-pairs
 PRISM was handed    33205210 working-precision words and 13566 shell-pairs
 PRISM was handed    33205210 working-precision words and 13566 shell-pairs
 IPart= 10 NShTot=         673 NBatch=          58 AvBLen=        11.6
 PRISM was handed    33205210 working-precision words and 13566 shell-pairs
 IPart=  8 NShTot=         676 NBatch=          60 AvBLen=        11.3
 IPart= 12 NShTot=         667 NBatch=          54 AvBLen=        12.4
 IPart= 11 NShTot=         670 NBatch=          56 AvBLen=        12.0
 IPart=  7 NShTot=         684 NBatch=          64 AvBLen=        10.7
 IPart=  9 NShTot=         675 NBatch=          59 AvBLen=        11.4
 IPart= 15 NShTot=         661 NBatch=          52 AvBLen=        12.7
 IPart=  4 NShTot=         700 NBatch=          74 AvBLen=         9.5
 IPart= 14 NShTot=         662 NBatch=          52 AvBLen=        12.7
 IPart=  2 NShTot=         706 NBatch=          77 AvBLen=         9.2
 IPart= 16 NShTot=         657 NBatch=          50 AvBLen=        13.1
 IPart= 13 NShTot=         666 NBatch=          53 AvBLen=        12.6
 IPart= 19 NShTot=         650 NBatch=          49 AvBLen=        13.3
 IPart= 18 NShTot=         654 NBatch=          49 AvBLen=        13.3
 IPart=  6 NShTot=         693 NBatch=          69 AvBLen=        10.0
 IPart=  1 NShTot=         708 NBatch=          79 AvBLen=         9.0
 IPart=  5 NShTot=         696 NBatch=          72 AvBLen=         9.7
 IPart= 17 NShTot=         656 NBatch=          50 AvBLen=        13.1
 PrSmSu:  NxtVal=            121.
 Entering OneElI...
 Calculate potential energy integrals
    NBasis = 485  MinDer = 2  MaxDer = 2
 Requested accuracy = 0.1000D-12
 PrmmSu-InSpLW:  IPartL=    0 NPrtUS=   20 NPrtUL=    1 DoSpLW=F IThBeg=    0 IThEnd=   19 NThAct=   20.
 PrsmSu:  NPrtUS=  20 ThrOK=T IAlg=1 NPAlg=1 LenDen=           0 ISkipM=0 DoSpLW=F IThBeg=    0 IThEnd=   19.
 Prism:   IPart=     0 DynPar=F LinDyn=F Incr=         138.
 PRISM was handed    33268739 working-precision words and 12048 shell-pairs
 PRISM was handed    33268739 working-precision words and 12048 shell-pairs
 PRISM was handed    33268739 working-precision words and 12048 shell-pairs
 PRISM was handed    33268739 working-precision words and 12048 shell-pairs
 PRISM was handed    33268739 working-precision words and 12048 shell-pairs
 PRISM was handed    33268739 working-precision words and 12048 shell-pairs
 PRISM was handed    33268739 working-precision words and 12048 shell-pairs
 PRISM was handed    33268739 working-precision words and 12048 shell-pairs
 PRISM was handed    33268739 working-precision words and 12048 shell-pairs
 PRISM was handed    33268739 working-precision words and 12048 shell-pairs
 PRISM was handed    33268739 working-precision words and 12048 shell-pairs
 PRISM was handed    33268739 working-precision words and 12048 shell-pairs
 PRISM was handed    33268739 working-precision words and 12048 shell-pairs
 PRISM was handed    33268739 working-precision words and 12048 shell-pairs
 PRISM was handed    33268739 working-precision words and 12048 shell-pairs
 PRISM was handed    33268739 working-precision words and 12048 shell-pairs
 PRISM was handed    33268739 working-precision words and 12048 shell-pairs
 PRISM was handed    33268739 working-precision words and 12048 shell-pairs
 PRISM was handed    33268739 working-precision words and 12048 shell-pairs
 PRISM was handed    33268739 working-precision words and 12048 shell-pairs
 IPart=  8 NShTot=       13846 NBatch=         603 AvBLen=        23.0
 IPart= 12 NShTot=       13662 NBatch=         595 AvBLen=        23.0
 IPart=  9 NShTot=       13800 NBatch=         601 AvBLen=        23.0
 IPart= 15 NShTot=       13432 NBatch=         585 AvBLen=        23.0
 IPart= 16 NShTot=       13386 NBatch=         583 AvBLen=        23.0
 IPart=  0 NShTot=       14559 NBatch=         635 AvBLen=        22.9
 IPart= 11 NShTot=       13777 NBatch=         600 AvBLen=        23.0
 IPart=  7 NShTot=       13869 NBatch=         604 AvBLen=        23.0
 IPart= 14 NShTot=       13501 NBatch=         588 AvBLen=        23.0
 IPart= 18 NShTot=       13271 NBatch=         578 AvBLen=        23.0
 IPart=  2 NShTot=       14398 NBatch=         628 AvBLen=        22.9
 IPart= 17 NShTot=       13340 NBatch=         581 AvBLen=        23.0
 IPart=  1 NShTot=       14490 NBatch=         632 AvBLen=        22.9
 IPart= 10 NShTot=       13800 NBatch=         601 AvBLen=        23.0
 IPart= 19 NShTot=       13248 NBatch=         577 AvBLen=        23.0
 IPart= 13 NShTot=       13593 NBatch=         592 AvBLen=        23.0
 IPart=  5 NShTot=       14283 NBatch=         623 AvBLen=        22.9
 IPart=  4 NShTot=       14375 NBatch=         627 AvBLen=        22.9
 IPart=  6 NShTot=       14099 NBatch=         615 AvBLen=        22.9
 IPart=  3 NShTot=       14375 NBatch=         627 AvBLen=        22.9
 PrSmSu:  NxtVal=           2761.
 Polarizability after L701:
                1             2             3 
      1  0.000000D+00
      2  0.000000D+00  0.000000D+00
      3  0.000000D+00  0.000000D+00  0.000000D+00
 Dipole Derivatives after L701:
                 1             2             3             4             5 
      1  -0.601470D+00  0.426758D+00  0.726189D+00 -0.289025D+00  0.200099D-01
      2   0.534176D+00 -0.431292D+00 -0.257285D+00 -0.638347D-02 -0.155971D+01
      3   0.987064D-01  0.110972D+00 -0.779423D+00 -0.348548D+00 -0.525607D-02
                 6             7             8             9            10 
      1  -0.308417D+00 -0.609878D+00 -0.431047D+00  0.689259D+00  0.666321D-01
      2   0.125727D-01 -0.529054D+00 -0.473358D+00  0.249225D+00  0.471721D+00
      3  -0.748630D+00  0.947237D-01 -0.114504D+00 -0.785789D+00  0.338910D-01
                11            12            13            14            15 
      1   0.323790D+00 -0.115251D+01 -0.264817D-01 -0.304586D+00 -0.109588D+01
      2  -0.464207D+00 -0.635351D-01 -0.449683D+00 -0.494998D+00  0.479581D-01
      3   0.409821D-01 -0.731097D+00  0.215028D-01 -0.444786D-01 -0.746182D+00
                16            17            18            19            20 
      1  -0.213419D+01 -0.747466D+00  0.420582D+00 -0.207307D+01  0.658637D+00
      2  -0.287057D+00 -0.117864D+01  0.119382D+00  0.265943D+00 -0.115158D+01
      3  -0.970118D-01 -0.498385D-01 -0.930714D+00 -0.938356D-01  0.491678D-01
                21            22            23            24            25 
      1   0.376455D+00 -0.513919D-01  0.199283D+00  0.137147D+00  0.398037D+00
      2  -0.104506D+00 -0.244340D+00  0.376526D+00  0.129202D+00 -0.554327D-01
      3  -0.932977D+00 -0.209634D+00  0.182681D+00  0.247867D+00  0.175913D+00
                26            27            28            29            30 
      1  -0.368982D+00  0.602251D+00  0.606470D+00 -0.447527D+00 -0.263156D+00
      2   0.227816D+00 -0.119679D+00 -0.320513D+00  0.459461D+00  0.186116D+00
      3  -0.246752D+00  0.509914D+00 -0.221387D+00  0.224077D+00  0.267537D+00
                31            32            33            34            35 
      1   0.588299D-01  0.126345D+00 -0.177843D+00  0.206259D+00  0.923408D-01
      2  -0.273127D-01  0.171724D+00 -0.633847D-02  0.262167D+00  0.602693D+00
      3   0.216808D+00 -0.296711D+00  0.514065D+00  0.895497D-01  0.197668D+00
                36            37            38            39            40 
      1   0.884442D-01  0.210928D+00 -0.100949D+00  0.106117D+00  0.609816D+00
      2   0.580074D+00 -0.274641D+00  0.583001D+00 -0.583221D+00  0.338659D+00
      3   0.379182D+00  0.959779D-01 -0.193121D+00  0.377650D+00 -0.215608D+00
                41            42            43            44            45 
      1   0.464125D+00 -0.244659D+00  0.603319D-01 -0.130651D+00 -0.189489D+00
      2   0.486511D+00 -0.180568D+00  0.208264D-01  0.164165D+00 -0.119872D-03
      3  -0.223935D+00  0.258040D+00  0.206169D+00  0.299879D+00  0.530130D+00
                46            47            48            49            50 
      1   0.399803D+00  0.384982D+00  0.606807D+00 -0.478680D-01 -0.193899D+00
      2   0.595727D-01  0.227213D+00  0.122559D+00  0.248320D+00  0.381919D+00
      3   0.181664D+00  0.257450D+00  0.514175D+00 -0.210488D+00 -0.181773D+00
                51            52            53            54            55 
      1   0.144541D+00  0.107539D+01 -0.783655D+00 -0.476044D+00  0.597515D+00
      2  -0.131776D+00  0.368225D-01  0.101810D+00 -0.336650D-01  0.256315D+00
      3   0.254620D+00 -0.128454D+00  0.933576D-01  0.157202D+00  0.117327D+00
                56            57            58            59            60 
      1   0.715877D+00  0.903656D+00 -0.832143D-01  0.506868D+00 -0.660237D+00
      2   0.463652D+00  0.471599D+00 -0.171413D+00  0.472528D+00 -0.483156D+00
      3   0.187479D+00  0.362466D+00  0.100941D+00 -0.228581D+00  0.378096D+00
                61            62            63            64            65 
      1  -0.640699D-01 -0.492482D+00 -0.678349D+00  0.585456D+00 -0.753348D+00
      2   0.159101D+00  0.456732D+00  0.485527D+00 -0.251190D+00  0.484945D+00
      3   0.103533D+00  0.226759D+00  0.402590D+00  0.113239D+00 -0.192471D+00
                66            67            68            69 
      1   0.894299D+00  0.110519D+01  0.835577D+00 -0.449165D+00
      2  -0.471785D+00 -0.366046D-01  0.930858D-01  0.314191D-01
      3   0.355800D+00 -0.124980D+00 -0.930493D-01  0.145477D+00
 Hessian after L701:
                1             2             3             4             5 
      1  0.152814D+02
      2 -0.111971D+01  0.168812D+02
      3  0.556909D-01 -0.287152D+00  0.174986D+02
      4 -0.391392D+01  0.165117D+01 -0.111379D+01  0.149466D+02
      5  0.166756D+01 -0.518925D+01 -0.815514D+00 -0.187275D-01  0.166420D+02
      6 -0.115054D+01 -0.812745D+00 -0.574883D+01  0.524352D+00  0.177998D-01
      7  0.443712D+00 -0.134122D-01 -0.135744D+00 -0.362062D+01 -0.163558D+01
      8  0.161828D-01 -0.383288D-01 -0.353469D-02 -0.161904D+01 -0.513230D+01
      9 -0.138181D+00  0.517300D-02 -0.755252D-01 -0.115212D+01  0.790891D+00
     10 -0.535160D+01  0.127431D+01  0.127702D+01  0.227107D+00  0.167691D+00
     11  0.121231D+01 -0.457439D+01  0.164508D+01  0.235601D+00  0.477962D-01
     12  0.123308D+01  0.164458D+01 -0.465483D+01  0.744873D-01  0.741283D-01
     13  0.315394D+00 -0.208447D+00  0.241356D-01  0.225056D+00 -0.164489D+00
     14 -0.146156D+00 -0.172460D+00 -0.559331D-02 -0.234972D+00  0.416290D-01
     15 -0.929481D-01  0.266480D-01 -0.240935D+00  0.734479D-01 -0.733341D-01
     16  0.116312D+00  0.205579D+00  0.343462D-01  0.985892D-01  0.191649D+00
     17  0.245141D+00  0.925361D-01  0.558208D-01  0.209484D+00  0.313685D-01
     18  0.115265D+00  0.119619D+00 -0.620308D-01 -0.792376D-02 -0.491543D-02
     19  0.815210D-01 -0.643969D-01 -0.104538D-01  0.101877D+00 -0.183204D+00
     20 -0.504816D-01 -0.456326D-01  0.836970D-02 -0.201862D+00  0.258949D-01
     21 -0.220008D-01  0.114216D-01 -0.679481D-01 -0.892635D-02  0.550368D-02
     22  0.144026D+00 -0.452786D-01 -0.212965D-01  0.112005D-02 -0.224917D-01
     23  0.582052D-02  0.271309D-01 -0.128571D+00  0.352594D-02 -0.203997D-01
     24  0.151617D-01 -0.109133D+00 -0.435593D-01 -0.296301D-02 -0.151474D-01
     25  0.682929D-01 -0.455053D-01 -0.132699D+00  0.508346D-01  0.346218D-01
     26 -0.466017D-01  0.143874D+00 -0.100168D+00  0.212910D-01 -0.322679D-01
     27 -0.965284D-01 -0.904870D-01 -0.680195D-01  0.720199D-01  0.191913D-01
     28 -0.316946D+01 -0.103037D+01 -0.733135D+00 -0.295586D-01 -0.622385D-01
     29 -0.106595D+01 -0.343230D+01  0.634438D+00 -0.615940D-01  0.125783D+00
     30 -0.758264D+00  0.633344D+00 -0.382315D+01  0.693747D-01  0.373130D-01
     31 -0.430273D+01 -0.478071D+00  0.617136D+00  0.387949D-01 -0.103610D+00
     32 -0.529233D+00 -0.376237D+01 -0.110243D+01 -0.574007D-01 -0.178447D-01
     33  0.755438D+00 -0.120401D+01 -0.282433D+01  0.533153D-01  0.595841D-01
     34 -0.106401D-01 -0.138201D+00 -0.793632D-02 -0.416299D+01  0.523677D+00
     35 -0.167941D+00 -0.156873D-01  0.112631D-01  0.588406D+00 -0.329598D+01
     36 -0.701641D-02  0.114135D-01  0.186060D+00  0.609651D+00  0.113174D+01
     37  0.707006D-01 -0.897660D-01  0.101904D+00 -0.408574D+01 -0.540524D+00
     38 -0.911789D-01  0.303906D-01  0.939426D-01 -0.604054D+00 -0.328409D+01
     39  0.860252D-01  0.520246D-01  0.364386D-01  0.645875D+00 -0.112846D+01
     40  0.130735D+00  0.447166D-01 -0.783469D-01 -0.271214D-01  0.547254D-01
     41  0.608310D-01 -0.394935D-01 -0.221234D-01  0.572292D-01  0.121581D+00
     42 -0.922471D-01 -0.212707D-01 -0.106936D-01  0.661426D-01 -0.316108D-01
     43 -0.120846D-01  0.125301D-01  0.241642D-01  0.339932D-01  0.103600D+00
     44 -0.136403D-02  0.772982D-02  0.553360D-03  0.571144D-01 -0.130358D-01
     45  0.329030D-03 -0.821260D-03 -0.915013D-02  0.536304D-01 -0.596730D-01
     46 -0.750025D-02 -0.407972D-02  0.102686D-01  0.558255D-01 -0.355615D-01
     47  0.112824D-01 -0.755713D-02  0.822137D-02 -0.219184D-01 -0.321300D-01
     48  0.780152D-02 -0.229536D-02  0.413828D-02  0.744832D-01 -0.195352D-01
     49  0.809196D-02 -0.586390D-01  0.296923D-01  0.187046D-03  0.217192D-01
     50 -0.107068D+00  0.310838D-01 -0.412801D-01 -0.551139D-02 -0.187833D-01
[...]
 119,-0.00210476,0.12731032,-0.19370041,-0.01838637,0.00007751,0.000463
 48,0.00036776,-0.00901740,0.00848790,0.00199665,-0.00012106,-0.0000833
 3,0.00002801,-0.00072554,0.00146949,-0.00025120,-0.00018006,0.00004460
 ,0.00012355,-0.00005934,0.00001269,-0.00006043,0.00095442,-0.00105178,
 0.00014682,0.00010646,0.00007888,0.00006450,0.00008955,0.00113811,0.00
 010225,-0.00036901,0.00006439,-0.00057606,-0.13650743,0.21229925,0.002
 48439,0.00235501,-0.00361737,-0.01683221,0.02082727,0.00043634,0.01449
 376,-0.01933241,-0.04957676,0.00055679,-0.00013591,-0.00061118,-0.0018
 0175,0.00212568,-0.00023670,-0.00014061,0.00001197,0.00040339,0.000590
 30,-0.00045023,0.00014666,-0.00029392,-0.00016064,0.00042605,0.0000179
 0,0.00010661,0.00002942,-0.00085680,0.00123432,-0.00009111,-0.00002148
 ,-0.00023780,0.00003657,-0.00061780,-0.00062978,0.00083538,0.00019148,
 -0.00073268,0.00078257,-0.01702723,0.01651862,0.05295940,-0.00022382,-
 0.00023121,-0.00073768,0.00011025,0.00289691,0.00716534,-0.05189977,-0
 .01338869,-0.03156075,0.00044736,0.00039107,-0.00026993,-0.00700343,-0
 .01502001,-0.02966365,-0.00021850,-0.00010055,0.00010191,0.00107222,0.
 00101254,-0.00105598,-0.00061086,0.00084308,0.00008393,-0.00014465,-0.
 00012170,-0.00000566,-0.00001097,0.00007734,0.00012963,0.00005297,0.00
 002852,-0.00001068,0.00047791,-0.00149705,0.00119148,0.00019025,0.0004
 2586,0.00006281,0.00276480,0.00847799,0.01948592,0.05906743,0.00017766
 ,0.00103914,-0.00047132,0.00283716,0.00999564,0.02174698,-0.01422677,-
 0.09177657,-0.09619435,0.00107046,-0.00050242,-0.00025992,-0.00220431,
 -0.00589689,-0.01066856,-0.00012186,-0.00003633,0.00008773,0.00044741,
 0.00029300,-0.00102062,0.00087700,-0.00161634,0.00014773,-0.00027304,-
 0.00010165,-0.00021027,-0.00019109,0.00008527,-0.00024095,0.00000269,-
 0.00010708,0.00005544,-0.00059312,-0.00258474,0.00403811,0.00019425,0.
 00100319,-0.00092018,-0.00364731,-0.01076526,-0.02223787,0.01805864,0.
 10036759,0.00032392,-0.00089344,0.00010136,-0.00237207,-0.00920707,-0.
 02262080,-0.03248131,-0.09510684,-0.25509756,0.00065133,-0.00016323,-0
 .00043367,-0.00099080,-0.00059790,-0.00260619,-0.00022602,-0.00002686,
 0.00067707,0.00022710,0.00020571,0.00094787,-0.00033515,-0.00057572,0.
 00073904,0.00005186,0.00034931,-0.00013029,0.00000009,0.00013090,0.000
 17925,0.00003059,0.00002838,0.00004792,0.00107600,0.00384524,-0.002317
 88,0.00032603,0.00001330,0.00082013,0.00020788,-0.00162354,-0.00273266
 ,0.03412925,0.10392219,0.28036809,0.00017374,-0.00013778,0.00030428,0.
 00152203,0.00076349,-0.00115044,-0.00713666,-0.01355690,-0.02988462,-0
 .00003543,0.00001562,0.00002665,-0.05466694,-0.01277607,-0.03822469,0.
 00002899,0.00002492,0.00006532,0.00043562,0.00183033,0.00509172,-0.000
 14003,-0.00001858,-0.00008009,0.00008217,0.00011115,-0.00007356,0.0000
 3795,-0.00005574,-0.00001172,-0.00010701,-0.00016231,0.00000692,-0.000
 04757,0.00001648,0.00095741,0.00012529,0.00051067,0.00014187,0.0010975
 3,0.00077737,0.00003539,-0.00579050,-0.00236614,-0.00027703,0.06019048
 ,-0.00019106,-0.00004954,-0.00022966,0.00030054,0.00038473,-0.00109230
 ,-0.00282553,-0.00588089,-0.01126975,0.00000637,0.00010948,-0.00028721
 ,-0.01299653,-0.07999244,-0.08471525,-0.00006271,0.00000283,0.00011330
 ,0.00403881,0.00839267,0.02550190,-0.00005082,0.00016528,0.00024779,-0
 .00000234,-0.00005988,0.00014308,0.00008805,0.00001133,0.00010475,0.00
 036310,-0.00018012,-0.00005574,-0.00024937,-0.00004000,0.00054280,0.00
 014190,0.00017895,0.00022289,0.00006461,0.00047488,0.00055958,-0.00280
 614,-0.00006015,0.00035082,0.01870698,0.08671672,-0.00010646,-0.000232
 97,0.00012786,0.00036046,0.00060662,0.00098509,-0.00099281,-0.00089028
 ,-0.00229249,0.00020308,0.00016026,-0.00002423,-0.03835223,-0.08365776
 ,-0.26451909,-0.00005203,-0.00002349,0.00003954,-0.00296479,-0.0068372
 9,-0.02088110,-0.00002555,0.00004407,0.00009207,-0.00004448,0.00004405
 ,0.00003967,-0.00000214,-0.00006983,0.00001326,-0.00004096,-0.00030269
 ,-0.00008947,-0.00025979,-0.00061060,0.00038536,-0.00001315,0.00004722
 ,0.00026578,-0.00040120,0.00010100,0.00011720,-0.00027807,0.00063381,0
 .00114006,0.04249233,0.08941594,0.29003806,-0.00030254,-0.00006847,0.0
 0012766,0.00045720,0.00096978,-0.00050822,-0.02319174,0.02279708,0.005
 73273,0.00010194,-0.00033662,0.00020672,-0.16074432,0.12530489,0.02882
 725,0.00017486,-0.00001406,-0.00011523,0.00388758,-0.00489946,-0.00097
 129,-0.00007686,-0.00036255,-0.00050810,0.00014928,0.00024782,-0.00007
 351,0.00046721,0.00008262,-0.00003508,0.00058328,-0.00027936,0.0004571
 6,-0.00000327,-0.00007052,-0.00003062,0.00018628,-0.00018714,-0.000054
 46,-0.00535206,-0.00306684,-0.00039077,0.00142919,0.00018491,-0.000295
 37,0.00351802,-0.00420152,-0.00029923,0.17754018,0.00029036,-0.0011523
 0,0.00105854,0.00066633,0.00043083,0.00012069,-0.00852388,0.01013974,0
 .00244230,-0.00030135,-0.00023463,0.00043547,0.12551413,-0.18428178,-0
 .03418377,0.00004189,0.00001492,-0.00000983,0.01560852,-0.01972014,-0.
 00333189,0.00003709,0.00030546,-0.00035144,0.00005027,0.00011231,-0.00
 003916,-0.00023374,0.00001816,-0.00014382,-0.00103197,-0.00124056,0.00
 076314,-0.00006815,-0.00003529,0.00005173,0.00016889,0.00010989,-0.000
 20728,-0.00308271,-0.00014388,0.00021218,0.00082123,0.00058620,0.00001
 003,0.00721139,-0.00881564,-0.00222223,-0.13543482,0.20470965,0.000681
 19,0.00037280,0.00012218,0.00040392,-0.00055337,-0.00007592,-0.0020324
 7,0.00177154,-0.00032263,-0.00032752,-0.00012463,0.00036808,0.02938258
 ,-0.03432169,-0.05653830,0.00008503,0.00003129,-0.00008315,-0.01539981
 ,0.01851300,0.00308869,-0.00005348,-0.00007551,-0.00012137,0.00000677,
 -0.00004588,-0.00014427,-0.00019517,-0.00014365,-0.00009152,0.00016058
 ,0.00097706,-0.00083088,0.00003035,0.00000678,0.00005456,-0.00012873,0
 .00017703,0.00003209,-0.00076539,0.00041282,0.00073402,0.00000695,0.00
 063008,0.00033993,0.02038258,-0.02196929,-0.00531297,-0.03219736,0.032
 03255,0.05969424,0.00052667,-0.00055376,-0.00097042,0.00001267,-0.0000
 7355,-0.00028607,-0.00009409,0.00010051,-0.00009231,0.00774500,0.01350
 965,-0.01408918,-0.00004620,0.00001187,0.00003085,-0.08724245,-0.06483
 904,0.07093194,-0.00000238,-0.00000276,-0.00000051,-0.00146601,0.00397
 943,-0.00021999,0.00091733,-0.00085811,-0.00030781,0.00008508,-0.00037
 988,0.00027041,-0.00004027,-0.00005213,0.00013852,0.00000860,-0.000074
 13,0.00001179,-0.00004224,0.00000593,-0.00000409,0.00001938,0.00005921
 ,0.00007023,0.00004683,0.00000249,0.00012321,0.00000806,0.00001647,0.0
 0000773,-0.00004250,-0.00000604,-0.00002406,0.09223618,-0.00122775,0.0
 0108843,0.00170466,0.00031413,0.00021228,-0.00019181,-0.00001325,0.000
 04261,0.00025637,-0.01074284,-0.01867076,0.01890700,-0.00003022,0.0000
 7993,-0.00004709,-0.06406609,-0.14754953,0.11153392,0.00003007,0.00000
 185,-0.00000803,0.00386104,-0.00380597,-0.00010333,0.00000849,0.001246
 41,-0.00027627,0.00037657,-0.00004581,-0.00110325,0.00002650,-0.000037
 77,-0.00003699,0.00001768,-0.00001646,-0.00003470,0.00002048,-0.000025
 07,0.00002226,0.00001082,-0.00002611,-0.00016049,-0.00008661,0.0000122
 1,-0.00023428,-0.00000163,-0.00006006,-0.00002844,0.00008804,0.0000325
 4,0.00004123,0.06720999,0.16222452,-0.00032184,-0.00100161,0.00096246,
 -0.00004181,-0.00005530,0.00018040,0.00001757,-0.00011566,-0.00012324,
 0.00050294,0.00186951,-0.00275848,0.00001551,-0.00002982,0.00000345,0.
 07055419,0.11220181,-0.17223419,-0.00000630,-0.00000470,0.00000010,-0.
 00079870,-0.00001262,0.00101123,-0.00027296,0.00010694,-0.00009153,0.0
 0014080,0.00027550,0.00043125,-0.00005406,-0.00000311,-0.00001467,-0.0
 0002502,0.00004511,0.00001406,-0.00004231,0.00001549,-0.00002552,-0.00
 001011,-0.00000302,0.00002524,0.00003615,0.00002541,0.00003044,0.00000
 003,0.00001093,0.00001015,-0.00003470,0.00000238,-0.00001048,-0.077405
 33,-0.12451542,0.18429867,-0.00216334,0.00287625,-0.00145118,0.0006044
 9,0.00066346,0.00106183,-0.00004971,-0.00002453,0.00011373,-0.00128925
 ,0.00832365,0.01800099,-0.00003584,0.00001027,-0.00002248,-0.04769827,
 0.00520476,0.01044509,0.00002196,0.00000015,0.00000661,0.00062063,-0.0
 0062611,-0.00037254,0.00026449,-0.00079722,0.00032719,-0.00005902,-0.0
 0006952,-0.00042249,0.00029812,0.00034540,0.00023294,-0.00027049,0.000
 35109,0.00002274,0.00002572,-0.00011542,-0.00001355,0.00000440,0.00003
 337,-0.00004872,0.00002133,-0.00001325,-0.00004928,-0.00001310,-0.0000
 0343,0.00000499,-0.00000728,0.00000516,-0.00001308,-0.00141888,0.00695
 998,0.01122305,0.04853519,0.00394883,-0.00414399,0.00263396,-0.0002564
 5,-0.00025924,-0.00185882,-0.00001732,0.00014150,-0.00019298,-0.000421
 99,-0.01272864,-0.02454814,0.00003560,-0.00000762,0.00006092,0.0055054
 4,-0.10913373,-0.11306725,-0.00003006,-0.00000564,-0.00003921,-0.00092
 394,0.00056438,0.00014207,-0.00002745,0.00110633,0.00027856,0.00013748
 ,0.00021951,-0.00011790,-0.00005897,0.00019888,0.00031999,0.00040791,-
 0.00052771,-0.00003018,0.00009177,-0.00001877,0.00001743,-0.00000487,-
 0.00004017,0.00006419,-0.00001571,0.00002498,0.00008989,0.00000849,0.0
 0001947,0.00000842,0.00000945,0.00001825,-0.00003901,-0.00006604,0.010
 72197,0.01802144,-0.00875757,0.11848197,0.00010550,0.00026508,0.000605
 17,-0.00037873,0.00025400,0.00027732,0.00010698,-0.00009349,-0.0000429
 6,-0.00025986,0.00345159,0.00467676,0.00000929,0.00000917,0.00002412,0
 .01112971,-0.11413006,-0.25440359,-0.00000336,-0.00000155,-0.00001777,
 0.00025736,-0.00053722,0.00053614,0.00052101,-0.00037365,0.00018295,-0
 .00025111,0.00002200,0.00041882,0.00000168,0.00017145,0.00002359,-0.00
 002148,0.00001677,-0.00000506,0.00004904,-0.00002606,0.00000977,-0.000
 00838,-0.00005907,0.00003005,-0.00001302,0.00001171,-0.00001234,-0.000
 00392,0.00000391,0.00000184,0.00001775,0.00000327,-0.00001511,-0.00001
 510,-0.01068587,-0.01867465,-0.01176496,0.12466385,0.27370206,0.000581
 50,-0.00129827,-0.00050593,0.00038038,0.00026946,0.00012815,-0.0000124
 5,-0.00005586,-0.00009690,-0.01830171,-0.00398858,-0.00513618,-0.00007
 537,0.00005238,0.00005374,-0.27552302,-0.06088569,-0.06819067,0.000035
 77,-0.00001123,-0.00000936,0.00086171,0.00005530,-0.00011656,-0.000506
 10,0.00378041,-0.00030898,-0.00013874,0.00005633,0.00006219,0.00018524
 ,0.00073413,0.00074883,-0.00001118,0.00011056,0.00003996,0.00023065,-0
 .00019548,-0.00004953,0.00001535,0.00002037,0.00003717,0.00001317,-0.0
 0004770,0.00009270,0.00001538,0.00002748,0.00001151,-0.00002613,0.0000
 3648,-0.00003981,-0.01121552,-0.00275129,-0.00348064,0.00260270,0.0004
 3877,0.00052495,0.30088327,0.00036758,0.00175964,0.00111136,0.00004165
 ,-0.00007908,0.00010403,-0.00001096,0.00004426,0.00006278,0.02813162,0
 .00665303,0.00773225,0.00011419,-0.00009848,-0.00004278,-0.06165582,-0
 .06258391,-0.01836324,-0.00004142,0.00001683,0.00002122,-0.00080325,0.
 00132647,0.00009853,0.00365947,-0.00459514,0.00016072,-0.00012759,-0.0
 0001662,-0.00014162,-0.00054719,-0.00022070,-0.00027892,-0.00009626,-0
 .00001385,-0.00002218,-0.00021318,-0.00000975,-0.00002127,-0.00002241,
 -0.00000093,-0.00002776,0.00001921,0.00004346,-0.00005381,-0.00002961,
 0.00001009,0.00000375,-0.00007393,0.00003688,0.00003361,-0.01799195,-0
 .00542025,-0.00684201,-0.01437439,-0.00459602,-0.00294833,0.06365041,0
 .06773319,0.00093375,0.00020332,0.00043881,0.00014227,-0.00000451,-0.0
 0008157,-0.00004457,-0.00000450,0.00001406,-0.00307214,-0.00048761,-0.
 00168069,-0.00006792,0.00005621,0.00000542,-0.06834216,-0.01816501,-0.
 06836027,0.00001840,-0.00000849,-0.00000200,-0.00023485,-0.00017382,-0
 .00019682,-0.00012343,0.00061322,0.00072512,0.00005608,0.00015781,-0.0
 0001991,-0.00005752,-0.00009697,0.00036762,-0.00001329,0.00001673,0.00
 000686,-0.00001843,-0.00006135,-0.00007326,0.00001824,0.00002819,-0.00
 001567,-0.00000579,-0.00000314,0.00000572,0.00002002,-0.00002396,-0.00
 001220,0.00001027,-0.00000933,0.00002211,0.02182712,0.00497618,0.00695
 807,-0.02727139,-0.00645747,-0.00733629,0.07622468,0.01943048,0.069246
 72,0.00004668,-0.00000035,-0.00003640,-0.00010502,-0.00003543,0.000073
 62,0.00062299,0.00070833,0.00088757,0.00000104,0.00002644,-0.00004156,
 -0.00014943,0.00175486,0.00405189,0.00000118,-0.00000329,0.00000671,-0
 .05449127,-0.01432911,-0.03898800,0.00003036,-0.00001298,0.00001017,-0
 .00001888,-0.00002218,0.00001317,-0.00002316,0.00002863,0.00000389,-0.
 00001468,0.00001254,-0.00000938,-0.00005527,-0.00003387,-0.00009386,0.
 00000054,-0.00000714,-0.00002523,-0.00003749,0.00015467,0.00002895,0.0
 0017981,-0.00029260,-0.00009808,0.00056999,-0.00071920,0.00073731,-0.0
 0007114,-0.00003182,-0.00050999,-0.00000511,-0.00000214,0.00000247,0.0
 0000086,0.00001324,0.00000552,-0.00000897,0.00000567,-0.00001238,0.053
 83248,0.00005041,0.00002797,-0.00000311,0.00011002,-0.00003988,0.00010
 702,0.00110732,0.00140002,0.00030399,-0.00006581,-0.00007288,0.0001123
 4,0.00366545,0.00878985,0.02507040,0.00002763,0.00000735,-0.00003503,-
 0.01436304,-0.07862406,-0.08610131,0.00004259,0.00002715,-0.00007688,0
 .00001414,0.00001145,-0.00002942,-0.00001574,-0.00000222,-0.00002479,-
 0.00003648,0.00004334,0.00000930,0.00000446,-0.00005443,-0.00016675,-0
 .00000068,-0.00001116,-0.00009515,-0.00010306,-0.00003441,-0.00016896,
 -0.00013425,-0.00014039,-0.00051414,-0.00116206,-0.00339536,0.00395173
 ,0.00040493,0.00119589,-0.00076154,-0.00000680,0.00001862,-0.00000718,
 -0.00000117,-0.00000529,0.00000241,-0.00000437,-0.00000195,0.00000549,
 0.01649021,0.08427930,-0.00010363,-0.00004985,-0.00002879,0.00007233,0
 .00031369,0.00036463,-0.00087369,-0.00124876,0.00075693,0.00008484,0.0
 0004964,-0.00009659,-0.00331222,-0.00726617,-0.02196979,-0.00002116,-0
 .00000618,0.00004206,-0.03871129,-0.08534130,-0.27335193,-0.00003137,0
 .00003142,-0.00002466,0.00000789,0.00002305,0.00002071,0.00003639,0.00
 002311,0.00002413,0.00008632,-0.00006268,0.00003369,-0.00012818,-0.000
 15126,0.00025734,0.00005924,0.00010473,-0.00000755,0.00010384,0.000057
 95,-0.00010338,0.00088317,0.00064222,0.00029274,0.00063957,0.00417113,
 -0.00155075,-0.00032601,0.00001349,0.00086662,0.00000321,-0.00001687,0
 .00000699,-0.00000278,0.00002510,0.00000852,0.00000948,-0.00000579,-0.
 00000954,0.04252146,0.09049869,0.29975147,-0.00011513,-0.00003631,0.00
 009906,-0.00008200,0.00004537,-0.00053980,0.00089690,-0.00081639,0.001
 35612,0.00003314,0.00000444,0.00002561,-0.00200162,0.00033143,-0.00049
 556,-0.00002226,-0.00000097,-0.00001524,-0.28293983,-0.08918376,-0.013
 20871,-0.00002053,0.00001041,0.00001540,0.00000339,0.00000683,-0.00000
 092,0.00003684,-0.00007517,0.00000795,0.00001500,0.00001298,-0.0000185
 4,0.00000323,-0.00000246,0.00005998,-0.00004494,-0.00010370,0.00009568
 ,0.00049221,-0.00002629,-0.00013402,0.00006350,0.00012585,-0.00006609,
 0.00007861,-0.00001720,0.00048853,0.00053683,-0.00040551,0.00016269,0.
 00000483,-0.00000799,0.00000758,0.00000816,-0.00002077,-0.00001327,0.0
 0001135,0.00000121,0.00000914,-0.00383721,-0.00072199,-0.00036427,0.30
 527728,-0.00013376,0.00015938,-0.00008618,-0.00166385,0.00001718,-0.00
 039328,0.00109995,-0.00334136,0.00432200,0.00004624,-0.00000943,0.0000
 3814,-0.02305201,-0.00871461,-0.00306391,-0.00003093,-0.00000463,-0.00
 003077,-0.08828941,-0.08052379,-0.00547716,-0.00003552,0.00002367,-0.0
 0000354,0.00001019,0.00001762,0.00000596,0.00004683,-0.00003329,0.0000
 0985,0.00008503,0.00000850,0.00000203,-0.00000570,-0.00002041,0.000092
 08,-0.00015418,-0.00039867,0.00040721,-0.00022219,0.00025145,0.0000857
 5,0.00037368,0.00017504,0.00002176,0.00045405,0.00094464,-0.00012617,0
 .00023071,0.00038608,-0.00088756,0.00001001,-0.00000366,0.00000538,0.0
 0001009,-0.00002676,-0.00001203,0.00001965,-0.00000662,0.00001702,-0.0
 1037924,-0.00485650,-0.00019031,0.09836740,0.08609834,0.00011987,-0.00
 007812,0.00000459,0.00131024,0.00062719,0.00068739,-0.00066607,0.00312
 883,-0.00325771,-0.00001662,0.00000989,-0.00004306,0.02276927,0.007226
 47,0.00137510,0.00000410,0.00000327,0.00002544,-0.01407945,-0.00583855
 ,-0.04777200,-0.00000894,0.00000381,-0.00000728,0.00000560,-0.00000775
 ,-0.00001280,-0.00004543,0.00003330,-0.00000926,-0.00006564,-0.0000027
 2,0.00001047,-0.00003437,-0.00010748,0.00003390,0.00013891,0.00035270,
 -0.00035966,-0.00030712,-0.00006740,-0.00016436,0.00018955,0.00035685,
 0.00028205,0.00010143,-0.00095296,0.00053052,-0.00051991,-0.00061156,0
 .00079824,0.00000194,-0.00000255,-0.00000186,-0.00000908,0.00001332,0.
 00000481,-0.00000428,0.00000055,-0.00000064,-0.02896360,-0.00984416,-0
 .00063590,0.01420900,0.00322757,0.04934363,-0.00008816,-0.00010710,0.0
 0003317,0.00018602,-0.00003344,0.00004112,0.00130598,-0.00096881,-0.00
 023268,-0.00001435,-0.00001463,0.00001837,0.00230452,-0.00381528,-0.00
 147991,-0.00000141,-0.00000383,-0.00000086,-0.15548508,0.12738414,0.02
 939804,0.00000339,0.00000603,-0.00001430,0.00000429,-0.00000189,-0.000
 00056,-0.00001153,-0.00001648,-0.00001099,-0.00002358,0.00003120,0.000
 00610,-0.00001368,0.00000803,-0.00003563,0.00001823,0.00004810,-0.0000
 2815,0.00022373,0.00031759,0.00017303,-0.00003452,-0.00000132,-0.00004
 877,0.00005337,0.00037155,-0.00047305,0.00078599,-0.00133178,0.0003842
 2,0.00000502,0.00000600,-0.00000650,-0.00000286,0.00000415,0.00000441,
 0.00000271,-0.00000305,0.00000391,0.00353169,-0.00530171,-0.00063313,-
 0.01839775,0.02321296,0.00587060,0.16564797,0.00026233,0.00003363,0.00
 000808,-0.00026817,0.00028017,0.00023502,0.00170982,0.00074546,-0.0009
 4212,-0.00002186,0.00008176,-0.00005597,0.01534778,-0.01972334,-0.0040
 3679,-0.00001230,0.00000751,0.00002747,0.12664050,-0.19642702,-0.03557
 596,0.00002815,0.00003801,0.00008518,-0.00003601,-0.00005310,0.0000019
 0,-0.00015098,0.00000545,-0.00001072,-0.00019471,0.00002379,-0.0001205
 5,0.00001686,-0.00002536,0.00002629,-0.00004173,-0.00002483,0.00001931
 ,-0.00114780,0.00005989,0.00017337,-0.00002412,-0.00003789,0.00002933,
 -0.00016412,0.00112302,-0.00001510,-0.00132494,-0.00247259,0.00392232,
 -0.00000138,-0.00001994,0.00001054,-0.00000103,-0.00000367,-0.00000787
 ,-0.00001325,0.00001944,-0.00000850,0.00667477,-0.00856243,-0.00161505
 ,-0.00748738,0.00985781,0.00252951,-0.13979043,0.21507422,-0.00011653,
 0.00007541,-0.00012019,-0.00022696,-0.00008377,-0.00006085,-0.00119348
 ,-0.00062489,0.00052612,0.00004140,-0.00001445,-0.00003023,-0.01527947
 ,0.01906599,0.00373457,0.00000114,-0.00000488,-0.00000654,0.02977122,-
 0.03627877,-0.05511416,-0.00002176,-0.00001446,-0.00006184,0.00001528,
 0.00002476,0.00000696,0.00009783,0.00004977,0.00002458,0.00014223,-0.0
 0000483,0.00008928,-0.00000105,0.00000520,-0.00005379,0.00000835,-0.00
 006287,0.00001280,0.00041305,-0.00036052,0.00018691,0.00013511,-0.0000
 7109,-0.00002029,-0.00055944,-0.00079269,0.00089582,0.00098031,0.00396
 456,-0.00257415,-0.00000208,0.00000377,0.00000209,0.00000239,0.0000118
 2,0.00000584,0.00000551,-0.00001158,-0.00000165,0.02043572,-0.02223296
 ,-0.00464696,-0.00168033,0.00203616,-0.00083162,-0.03296844,0.03532032
 ,0.05803729\\-0.00000106,-0.00000082,-0.00000106,0.00000004,-0.0000000
 5,-0.00000002,0.00000096,0.00000079,0.00000111,-0.00000150,0.00000031,
 -0.00000169,0.00000139,-0.00000031,0.00000184,-0.00000261,-0.00000040,
 -0.00000290,0.00000245,0.00000051,0.00000297,-0.00000080,0.00000088,-0
 .00000114,-0.00000155,0.00000157,-0.00000216,-0.00000162,-0.00000129,-
 0.00000179,-0.00000074,-0.00000192,-0.00000059,0.00000028,-0.00000097,
 0.00000048,-0.00000027,0.00000100,-0.00000048,0.00000166,0.00000131,0.
 00000174,0.00000076,0.00000190,0.00000059,0.00000162,-0.00000157,0.000
 00211,0.00000085,-0.00000087,0.00000109,-0.00000312,-0.00000076,-0.000
 00367,-0.00000281,0.00000048,-0.00000341,-0.00000227,-0.00000153,-0.00
 000253,0.00000233,0.00000152,0.00000249,0.00000279,-0.00000048,0.00000
 343,0.00000321,0.00000072,0.00000361\\\@


 IF YOU GIVE A BOY AND A PIG EVERYTHING THEY WANT,
 YOU'LL GET A BAD BOY AND A GOOD PIG.
 Job cpu time:       0 days  5 hours 22 minutes 59.5 seconds.
 Elapsed time:       0 days  2 hours 41 minutes 31.9 seconds.
 File lengths (MBytes):  RWF=   1488 Int=      0 D2E=      0 Chk=     32 Scr=     32
 Normal termination of Gaussian 16 at Sun Sep 29 21:37:01 2019.
