 Entering Gaussian System, Link 0=g16
 Input=verytight/species/CCCCCCC/conformers/CCCCCCC_282.com
 Output=verytight/species/CCCCCCC/conformers/CCCCCCC_282.log
 Initial command:
 /shared/centos7/gaussian/g16/l1.exe "/scratch/harms.n/gauss_scrdir/Gau-39388.inp" -scrdir="/scratch/harms.n/gauss_scrdir/"
 Entering Link 1 = /shared/centos7/gaussian/g16/l1.exe PID=     39389.
  
 Copyright (c) 1988,1990,1992,1993,1995,1998,2003,2009,2016,
            Gaussian, Inc.  All Rights Reserved.
  
 This is part of the Gaussian(R) 16 program.  It is based on
 the Gaussian(R) 09 system (copyright 2009, Gaussian, Inc.),
 the Gaussian(R) 03 system (copyright 2003, Gaussian, Inc.),
 the Gaussian(R) 98 system (copyright 1998, Gaussian, Inc.),
 the Gaussian(R) 94 system (copyright 1995, Gaussian, Inc.),
 the Gaussian 92(TM) system (copyright 1992, Gaussian, Inc.),
 the Gaussian 90(TM) system (copyright 1990, Gaussian, Inc.),
 the Gaussian 88(TM) system (copyright 1988, Gaussian, Inc.),
 the Gaussian 86(TM) system (copyright 1986, Carnegie Mellon
 University), and the Gaussian 82(TM) system (copyright 1983,
 Carnegie Mellon University). Gaussian is a federally registered
 trademark of Gaussian, Inc.
  
 This software contains proprietary and confidential information,
 including trade secrets, belonging to Gaussian, Inc.
  
 This software is provided under written license and may be
 used, copied, transmitted, or stored only in accord with that
 written license.
  
 The following legend is applicable only to US Government
 contracts under FAR:
  
                    RESTRICTED RIGHTS LEGEND
  
 Use, reproduction and disclosure by the US Government is
 subject to restrictions as set forth in subparagraphs (a)
 and (c) of the Commercial Computer Software - Restricted
 Rights clause in FAR 52.227-19.
  
 Gaussian, Inc.
 340 Quinnipiac St., Bldg. 40, Wallingford CT 06492
  
  
 ---------------------------------------------------------------
 Warning -- This program may not be used in any manner that
 competes with the business of Gaussian, Inc. or will provide
 assistance to any competitor of Gaussian, Inc.  The licensee
 of this program is prohibited from giving any competitor of
 Gaussian, Inc. access to this program.  By using this program,
 the user acknowledges that Gaussian, Inc. is engaged in the
 business of creating and licensing software in the field of
 computational chemistry and represents and warrants to the
 licensee that it is not a competitor of Gaussian, Inc. and that
 it will not use this program in any manner prohibited above.
 ---------------------------------------------------------------
  

 Cite this work as:
 Gaussian 16, Revision A.03,
 M. J. Frisch, G. W. Trucks, H. B. Schlegel, G. E. Scuseria, 
 M. A. Robb, J. R. Cheeseman, G. Scalmani, V. Barone, 
 G. A. Petersson, H. Nakatsuji, X. Li, M. Caricato, A. V. Marenich, 
 J. Bloino, B. G. Janesko, R. Gomperts, B. Mennucci, H. P. Hratchian, 
 J. V. Ortiz, A. F. Izmaylov, J. L. Sonnenberg, D. Williams-Young, 
 F. Ding, F. Lipparini, F. Egidi, J. Goings, B. Peng, A. Petrone, 
 T. Henderson, D. Ranasinghe, V. G. Zakrzewski, J. Gao, N. Rega, 
 G. Zheng, W. Liang, M. Hada, M. Ehara, K. Toyota, R. Fukuda, 
 J. Hasegawa, M. Ishida, T. Nakajima, Y. Honda, O. Kitao, H. Nakai, 
 T. Vreven, K. Throssell, J. A. Montgomery, Jr., J. E. Peralta, 
 F. Ogliaro, M. J. Bearpark, J. J. Heyd, E. N. Brothers, K. N. Kudin, 
 V. N. Staroverov, T. A. Keith, R. Kobayashi, J. Normand, 
 K. Raghavachari, A. P. Rendell, J. C. Burant, S. S. Iyengar, 
 J. Tomasi, M. Cossi, J. M. Millam, M. Klene, C. Adamo, R. Cammi, 
 J. W. Ochterski, R. L. Martin, K. Morokuma, O. Farkas, 
 J. B. Foresman, and D. J. Fox, Gaussian, Inc., Wallingford CT, 2016.
 
 ******************************************
 Gaussian 16:  EM64L-G16RevA.03 25-Dec-2016
                29-Sep-2019 
 ******************************************
 %nprocshared=20
 Will use up to   20 processors via shared memory.
 %mem=5GB
 ----------------------------------------------------------------------
 #p m062x/cc-pVTZ opt=(calcfc,maxcycles=900,Tight) freq IOP(7/33=1,2/16
 =3) scf=(maxcycle=900)
 ----------------------------------------------------------------------
 1/6=900,7=10,10=4,18=20,19=15,26=3,38=1/1,3;
 2/9=110,12=2,16=3,17=6,18=5,40=1/2;
 3/5=16,6=1,11=2,25=1,30=1,71=2,74=-55,140=1/1,2,3;
 4//1;
 5/5=2,7=900,38=5/2;
 8/6=4,10=90,11=11/1;
 11/6=1,8=1,9=11,15=111,16=1/1,2,10;
 10/6=1,13=1/2;
 6/7=2,8=2,9=2,10=2,28=1/1;
 7/10=1,18=20,25=1,33=1/1,2,3,16;
 1/6=900,7=10,10=4,18=20,19=15,26=3/3(2);
 2/9=110,16=3/2;
 99//99;
 2/9=110,16=3/2;
 3/5=16,6=1,11=2,25=1,30=1,71=1,74=-55/1,2,3;
 4/5=5,16=3,69=1/1;
 5/5=2,7=900,38=5/2;
 7/33=1/1,2,3,16;
 1/6=900,7=10,18=20,19=15,26=3/3(-5);
 2/9=110,16=3/2;
 6/7=2,8=2,9=2,10=2,19=2,28=1/1;
 99/9=1/99;
 Leave Link    1 at Sun Sep 29 12:55:09 2019, MaxMem=   671088640 cpu:               2.6 elap:               1.3
 (Enter /shared/centos7/gaussian/g16/l101.exe)
 ------------------------------
 Gaussian input prepared by ASE
 ------------------------------
 Symbolic Z-matrix:
 Charge =  0 Multiplicity = 1
 C                     1.23137  -1.2344    0.26205 
 C                     0.10067  -0.31749   0.58262 
 C                     0.45191   0.91325   1.38067 
 C                     2.29039  -0.68766  -0.63493 
 C                     1.09606   2.02591   0.58773 
 C                     1.80239  -0.14381  -1.91386 
 C                     2.52638   2.3115    0.96527 
 H                     3.03475  -1.50784  -0.8408 
 H                     2.86145   0.10467  -0.0947 
 H                     0.80805  -2.15005  -0.20268 
 H                     1.70729  -1.57123   1.20581 
 H                    -0.64927  -0.88909   1.15144 
 H                    -0.40356  -0.00939  -0.35763 
 H                     1.09535   0.6275    2.23006 
 H                    -0.4844    1.29913   1.83407 
 H                     1.0574    1.78596  -0.50701 
 H                     0.50832   2.95089   0.71518 
 H                     1.16147   0.74249  -1.74783 
 H                     2.6668    0.1771   -2.56758 
 H                     1.21214  -0.89359  -2.48213 
 H                     3.16677   1.4551    0.75065 
 H                     2.61726   2.55361   2.06025 
 H                     2.91706   3.19548   0.38404 
 
 ITRead=  0  0  0  0  0  0  0  0  0  0  0  0  0  0  0  0  0  0  0  0
 ITRead=  0  0  0
 MicOpt= -1 -1 -1 -1 -1 -1 -1 -1 -1 -1 -1 -1 -1 -1 -1 -1 -1 -1 -1 -1
 MicOpt= -1 -1 -1
 NAtoms=     23 NQM=       23 NQMF=       0 NMMI=      0 NMMIF=      0
                NMic=       0 NMicF=      0.
                    Isotopes and Nuclear Properties:
 (Nuclear quadrupole moments (NQMom) in fm**2, nuclear magnetic moments (NMagM)
  in nuclear magnetons)

  Atom         1           2           3           4           5           6           7           8           9          10
 IAtWgt=          12          12          12          12          12          12          12           1           1           1
 AtmWgt=  12.0000000  12.0000000  12.0000000  12.0000000  12.0000000  12.0000000  12.0000000   1.0078250   1.0078250   1.0078250
 NucSpn=           0           0           0           0           0           0           0           1           1           1
 AtZEff=  -0.0000000  -0.0000000  -0.0000000  -0.0000000  -0.0000000  -0.0000000  -0.0000000  -0.0000000  -0.0000000  -0.0000000
 NQMom=    0.0000000   0.0000000   0.0000000   0.0000000   0.0000000   0.0000000   0.0000000   0.0000000   0.0000000   0.0000000
 NMagM=    0.0000000   0.0000000   0.0000000   0.0000000   0.0000000   0.0000000   0.0000000   2.7928460   2.7928460   2.7928460
 AtZNuc=   6.0000000   6.0000000   6.0000000   6.0000000   6.0000000   6.0000000   6.0000000   1.0000000   1.0000000   1.0000000

  Atom        11          12          13          14          15          16          17          18          19          20
 IAtWgt=           1           1           1           1           1           1           1           1           1           1
 AtmWgt=   1.0078250   1.0078250   1.0078250   1.0078250   1.0078250   1.0078250   1.0078250   1.0078250   1.0078250   1.0078250
 NucSpn=           1           1           1           1           1           1           1           1           1           1
 AtZEff=  -0.0000000  -0.0000000  -0.0000000  -0.0000000  -0.0000000  -0.0000000  -0.0000000  -0.0000000  -0.0000000  -0.0000000
 NQMom=    0.0000000   0.0000000   0.0000000   0.0000000   0.0000000   0.0000000   0.0000000   0.0000000   0.0000000   0.0000000
 NMagM=    2.7928460   2.7928460   2.7928460   2.7928460   2.7928460   2.7928460   2.7928460   2.7928460   2.7928460   2.7928460
 AtZNuc=   1.0000000   1.0000000   1.0000000   1.0000000   1.0000000   1.0000000   1.0000000   1.0000000   1.0000000   1.0000000

  Atom        21          22          23
 IAtWgt=           1           1           1
 AtmWgt=   1.0078250   1.0078250   1.0078250
 NucSpn=           1           1           1
 AtZEff=  -0.0000000  -0.0000000  -0.0000000
 NQMom=    0.0000000   0.0000000   0.0000000
 NMagM=    2.7928460   2.7928460   2.7928460
 AtZNuc=   1.0000000   1.0000000   1.0000000
 Leave Link  101 at Sun Sep 29 12:55:12 2019, MaxMem=   671088640 cpu:               4.5 elap:               2.3
 (Enter /shared/centos7/gaussian/g16/l103.exe)

 GradGradGradGradGradGradGradGradGradGradGradGradGradGradGradGradGradGrad
 Berny optimization.
 Initialization pass.
                           ----------------------------
                           !    Initial Parameters    !
                           ! (Angstroms and Degrees)  !
 --------------------------                            --------------------------
 ! Name  Definition              Value          Derivative Info.                !
 --------------------------------------------------------------------------------
 ! R1    R(1,2)                  1.4906         calculate D2E/DX2 analytically  !
 ! R2    R(1,4)                  1.4917         calculate D2E/DX2 analytically  !
 ! R3    R(1,10)                 1.1107         calculate D2E/DX2 analytically  !
 ! R4    R(1,11)                 1.1093         calculate D2E/DX2 analytically  !
 ! R5    R(2,3)                  1.5083         calculate D2E/DX2 analytically  !
 ! R6    R(2,12)                 1.1012         calculate D2E/DX2 analytically  !
 ! R7    R(2,13)                 1.1105         calculate D2E/DX2 analytically  !
 ! R8    R(3,5)                  1.5105         calculate D2E/DX2 analytically  !
 ! R9    R(3,14)                 1.1032         calculate D2E/DX2 analytically  !
 ! R10   R(3,15)                 1.1096         calculate D2E/DX2 analytically  !
 ! R11   R(4,6)                  1.473          calculate D2E/DX2 analytically  !
 ! R12   R(4,8)                  1.1266         calculate D2E/DX2 analytically  !
 ! R13   R(4,9)                  1.1161         calculate D2E/DX2 analytically  !
 ! R14   R(5,7)                  1.5066         calculate D2E/DX2 analytically  !
 ! R15   R(5,16)                 1.1214         calculate D2E/DX2 analytically  !
 ! R16   R(5,17)                 1.1033         calculate D2E/DX2 analytically  !
 ! R17   R(6,18)                 1.1063         calculate D2E/DX2 analytically  !
 ! R18   R(6,19)                 1.1303         calculate D2E/DX2 analytically  !
 ! R19   R(6,20)                 1.1106         calculate D2E/DX2 analytically  !
 ! R20   R(7,21)                 1.0907         calculate D2E/DX2 analytically  !
 ! R21   R(7,22)                 1.1251         calculate D2E/DX2 analytically  !
 ! R22   R(7,23)                 1.1278         calculate D2E/DX2 analytically  !
 ! A1    A(2,1,4)              116.2571         calculate D2E/DX2 analytically  !
 ! A2    A(2,1,10)             107.9381         calculate D2E/DX2 analytically  !
 ! A3    A(2,1,11)             109.2219         calculate D2E/DX2 analytically  !
 ! A4    A(4,1,10)             108.733          calculate D2E/DX2 analytically  !
 ! A5    A(4,1,11)             108.5591         calculate D2E/DX2 analytically  !
 ! A6    A(10,1,11)            105.6145         calculate D2E/DX2 analytically  !
 ! A7    A(1,2,3)              116.0446         calculate D2E/DX2 analytically  !
 ! A8    A(1,2,12)             107.9616         calculate D2E/DX2 analytically  !
 ! A9    A(1,2,13)             109.45           calculate D2E/DX2 analytically  !
 ! A10   A(3,2,12)             107.9883         calculate D2E/DX2 analytically  !
 ! A11   A(3,2,13)             109.1067         calculate D2E/DX2 analytically  !
 ! A12   A(12,2,13)            105.7915         calculate D2E/DX2 analytically  !
 ! A13   A(2,3,5)              114.9995         calculate D2E/DX2 analytically  !
 ! A14   A(2,3,14)             109.3798         calculate D2E/DX2 analytically  !
 ! A15   A(2,3,15)             107.6663         calculate D2E/DX2 analytically  !
 ! A16   A(5,3,14)             110.2573         calculate D2E/DX2 analytically  !
 ! A17   A(5,3,15)             108.5531         calculate D2E/DX2 analytically  !
 ! A18   A(14,3,15)            105.5232         calculate D2E/DX2 analytically  !
 ! A19   A(1,4,6)              114.9758         calculate D2E/DX2 analytically  !
 ! A20   A(1,4,8)              108.188          calculate D2E/DX2 analytically  !
 ! A21   A(1,4,9)              109.414          calculate D2E/DX2 analytically  !
 ! A22   A(6,4,8)              109.2112         calculate D2E/DX2 analytically  !
 ! A23   A(6,4,9)              109.127          calculate D2E/DX2 analytically  !
 ! A24   A(8,4,9)              105.4989         calculate D2E/DX2 analytically  !
 ! A25   A(3,5,7)              114.3887         calculate D2E/DX2 analytically  !
 ! A26   A(3,5,16)             109.8854         calculate D2E/DX2 analytically  !
 ! A27   A(3,5,17)             109.253          calculate D2E/DX2 analytically  !
 ! A28   A(7,5,16)             108.5371         calculate D2E/DX2 analytically  !
 ! A29   A(7,5,17)             108.5343         calculate D2E/DX2 analytically  !
 ! A30   A(16,5,17)            105.8909         calculate D2E/DX2 analytically  !
 ! A31   A(4,6,18)             110.943          calculate D2E/DX2 analytically  !
 ! A32   A(4,6,19)             110.7099         calculate D2E/DX2 analytically  !
 ! A33   A(4,6,20)             111.782          calculate D2E/DX2 analytically  !
 ! A34   A(18,6,19)            107.6022         calculate D2E/DX2 analytically  !
 ! A35   A(18,6,20)            108.044          calculate D2E/DX2 analytically  !
 ! A36   A(19,6,20)            107.5891         calculate D2E/DX2 analytically  !
 ! A37   A(5,7,21)             111.0551         calculate D2E/DX2 analytically  !
 ! A38   A(5,7,22)             111.1828         calculate D2E/DX2 analytically  !
 ! A39   A(5,7,23)             110.3833         calculate D2E/DX2 analytically  !
 ! A40   A(21,7,22)            108.2432         calculate D2E/DX2 analytically  !
 ! A41   A(21,7,23)            108.0986         calculate D2E/DX2 analytically  !
 ! A42   A(22,7,23)            107.7537         calculate D2E/DX2 analytically  !
 ! D1    D(4,1,2,3)            -65.0024         calculate D2E/DX2 analytically  !
 ! D2    D(4,1,2,12)           173.6813         calculate D2E/DX2 analytically  !
 ! D3    D(4,1,2,13)            58.9808         calculate D2E/DX2 analytically  !
 ! D4    D(10,1,2,3)           172.5789         calculate D2E/DX2 analytically  !
 ! D5    D(10,1,2,12)           51.2626         calculate D2E/DX2 analytically  !
 ! D6    D(10,1,2,13)          -63.4378         calculate D2E/DX2 analytically  !
 ! D7    D(11,1,2,3)            58.2174         calculate D2E/DX2 analytically  !
 ! D8    D(11,1,2,12)          -63.0989         calculate D2E/DX2 analytically  !
 ! D9    D(11,1,2,13)         -177.7993         calculate D2E/DX2 analytically  !
 ! D10   D(2,1,4,6)            -53.9431         calculate D2E/DX2 analytically  !
 ! D11   D(2,1,4,8)           -176.2954         calculate D2E/DX2 analytically  !
 ! D12   D(2,1,4,9)             69.2469         calculate D2E/DX2 analytically  !
 ! D13   D(10,1,4,6)            68.0573         calculate D2E/DX2 analytically  !
 ! D14   D(10,1,4,8)           -54.2949         calculate D2E/DX2 analytically  !
 ! D15   D(10,1,4,9)          -168.7526         calculate D2E/DX2 analytically  !
 ! D16   D(11,1,4,6)          -177.5071         calculate D2E/DX2 analytically  !
 ! D17   D(11,1,4,8)            60.1407         calculate D2E/DX2 analytically  !
 ! D18   D(11,1,4,9)           -54.3171         calculate D2E/DX2 analytically  !
 ! D19   D(1,2,3,5)             78.0342         calculate D2E/DX2 analytically  !
 ! D20   D(1,2,3,14)           -46.6462         calculate D2E/DX2 analytically  !
 ! D21   D(1,2,3,15)          -160.837          calculate D2E/DX2 analytically  !
 ! D22   D(12,2,3,5)          -160.6637         calculate D2E/DX2 analytically  !
 ! D23   D(12,2,3,14)           74.6559         calculate D2E/DX2 analytically  !
 ! D24   D(12,2,3,15)          -39.535          calculate D2E/DX2 analytically  !
 ! D25   D(13,2,3,5)           -46.1266         calculate D2E/DX2 analytically  !
 ! D26   D(13,2,3,14)         -170.807          calculate D2E/DX2 analytically  !
 ! D27   D(13,2,3,15)           75.0021         calculate D2E/DX2 analytically  !
 ! D28   D(2,3,5,7)           -113.855          calculate D2E/DX2 analytically  !
 ! D29   D(2,3,5,16)             8.5019         calculate D2E/DX2 analytically  !
 ! D30   D(2,3,5,17)           124.2714         calculate D2E/DX2 analytically  !
 ! D31   D(14,3,5,7)            10.3644         calculate D2E/DX2 analytically  !
 ! D32   D(14,3,5,16)          132.7213         calculate D2E/DX2 analytically  !
 ! D33   D(14,3,5,17)         -111.5092         calculate D2E/DX2 analytically  !
 ! D34   D(15,3,5,7)           125.5011         calculate D2E/DX2 analytically  !
 ! D35   D(15,3,5,16)         -112.142          calculate D2E/DX2 analytically  !
 ! D36   D(15,3,5,17)            3.6275         calculate D2E/DX2 analytically  !
 ! D37   D(1,4,6,18)            64.9215         calculate D2E/DX2 analytically  !
 ! D38   D(1,4,6,19)          -175.6814         calculate D2E/DX2 analytically  !
 ! D39   D(1,4,6,20)           -55.7488         calculate D2E/DX2 analytically  !
 ! D40   D(8,4,6,18)          -173.2789         calculate D2E/DX2 analytically  !
 ! D41   D(8,4,6,19)           -53.8817         calculate D2E/DX2 analytically  !
 ! D42   D(8,4,6,20)            66.0509         calculate D2E/DX2 analytically  !
 ! D43   D(9,4,6,18)           -58.4215         calculate D2E/DX2 analytically  !
 ! D44   D(9,4,6,19)            60.9756         calculate D2E/DX2 analytically  !
 ! D45   D(9,4,6,20)          -179.0917         calculate D2E/DX2 analytically  !
 ! D46   D(3,5,7,21)            63.9657         calculate D2E/DX2 analytically  !
 ! D47   D(3,5,7,22)           -56.6276         calculate D2E/DX2 analytically  !
 ! D48   D(3,5,7,23)          -176.1563         calculate D2E/DX2 analytically  !
 ! D49   D(16,5,7,21)          -59.1224         calculate D2E/DX2 analytically  !
 ! D50   D(16,5,7,22)         -179.7157         calculate D2E/DX2 analytically  !
 ! D51   D(16,5,7,23)           60.7556         calculate D2E/DX2 analytically  !
 ! D52   D(17,5,7,21)         -173.7681         calculate D2E/DX2 analytically  !
 ! D53   D(17,5,7,22)           65.6386         calculate D2E/DX2 analytically  !
 ! D54   D(17,5,7,23)          -53.8901         calculate D2E/DX2 analytically  !
 --------------------------------------------------------------------------------
 Trust Radius=3.00D-01 FncErr=1.00D-07 GrdErr=1.00D-06 EigMax=2.50D+02 EigMin=1.00D-04
 Number of steps in this run=    138 maximum allowed number of steps=    138.
 GradGradGradGradGradGradGradGradGradGradGradGradGradGradGradGradGradGrad

 Leave Link  103 at Sun Sep 29 12:55:12 2019, MaxMem=   671088640 cpu:               1.1 elap:               0.6
 (Enter /shared/centos7/gaussian/g16/l202.exe)
                          Input orientation:                          
 ---------------------------------------------------------------------
 Center     Atomic      Atomic             Coordinates (Angstroms)
 Number     Number       Type             X           Y           Z
 ---------------------------------------------------------------------
      1          6           0        1.231369   -1.234403    0.262047
      2          6           0        0.100672   -0.317495    0.582622
      3          6           0        0.451911    0.913250    1.380670
      4          6           0        2.290395   -0.687663   -0.634929
      5          6           0        1.096058    2.025915    0.587730
      6          6           0        1.802391   -0.143809   -1.913859
      7          6           0        2.526384    2.311499    0.965267
      8          1           0        3.034749   -1.507840   -0.840796
      9          1           0        2.861455    0.104673   -0.094698
     10          1           0        0.808054   -2.150050   -0.202680
     11          1           0        1.707290   -1.571233    1.205810
     12          1           0       -0.649267   -0.889088    1.151443
     13          1           0       -0.403558   -0.009391   -0.357633
     14          1           0        1.095346    0.627499    2.230059
     15          1           0       -0.484398    1.299126    1.834068
     16          1           0        1.057398    1.785955   -0.507006
     17          1           0        0.508318    2.950889    0.715182
     18          1           0        1.161467    0.742493   -1.747829
     19          1           0        2.666801    0.177103   -2.567577
     20          1           0        1.212143   -0.893590   -2.482126
     21          1           0        3.166772    1.455099    0.750649
     22          1           0        2.617258    2.553610    2.060249
     23          1           0        2.917059    3.195484    0.384037
 ---------------------------------------------------------------------
                    Distance matrix (angstroms):
                    1          2          3          4          5
     1  C    0.000000
     2  C    1.490625   0.000000
     3  C    2.543872   1.508304   0.000000
     4  C    1.491652   2.532655   3.163161   0.000000
     5  C    3.279336   2.546053   1.510531   3.206998   0.000000
     6  C    2.500006   3.026290   3.714175   1.472952   3.385934
     7  C    3.839922   3.597514   2.535961   3.407535   1.506627
     8  H    2.131481   3.471577   4.179431   1.126559   4.276287
     9  H    2.139525   2.873831   2.938777   1.116134   2.696943
    10  H    1.110665   2.115501   3.466647   2.126675   4.259856
    11  H    1.109344   2.131066   2.789123   2.123448   3.700689
    12  H    2.108806   1.101220   2.124514   3.445767   3.444005
    13  H    2.134864   1.110520   2.145877   2.791832   2.699079
    14  H    2.712609   2.143930   1.103233   3.371342   2.157038
    15  H    3.440040   2.126473   1.109570   4.212215   2.139958
    16  H    3.121582   2.554822   2.165998   2.766845   1.121392
    17  H    4.271393   3.296373   2.144301   4.270557   1.103295
    18  H    2.820036   2.771256   3.212497   2.135034   2.665762
    19  H    3.472691   4.093091   4.586536   2.150495   3.980113
    20  H    2.765323   3.310579   4.331723   2.148760   4.238042
    21  H    3.349319   3.545602   2.839190   2.698017   2.154119
    22  H    4.416249   4.093877   2.800239   4.228082   2.181931
    23  H    4.741342   4.506938   3.504115   4.063229   2.173805
                    6          7          8          9         10
     6  C    0.000000
     7  C    3.852541   0.000000
     8  H    2.128557   4.255309   0.000000
     9  H    2.119601   2.471008   1.785187   0.000000
    10  H    2.818128   4.921603   2.403704   3.051539   0.000000
    11  H    3.432044   3.975473   2.440238   2.414970   1.768473
    12  H    3.995266   4.512558   4.233657   3.855593   2.355305
    13  H    2.702983   3.964991   3.781634   3.277568   2.464637
    14  H    4.273977   2.546257   4.213206   2.965970   3.703449
    15  H    4.621518   3.293102   5.236254   4.042473   4.208990
    16  H    2.501648   2.145158   3.856219   2.500266   3.955619
    17  H    4.261881   2.131655   5.355762   3.780755   5.191521
    18  H    1.106291   3.418431   3.065272   2.455528   3.298361
    19  H    1.130281   4.129934   2.440531   2.481586   3.803067
    20  H    1.110627   4.887162   2.528470   3.068643   2.633980
    21  H    3.393766   1.090678   3.365879   1.622184   4.412424
    22  H    4.871715   1.125104   5.008567   3.271196   5.524354
    23  H    4.204008   1.127778   4.861617   3.128161   5.776406
                   11         12         13         14         15
    11  H    0.000000
    12  H    2.453903   0.000000
    13  H    3.056040   1.763958   0.000000
    14  H    2.501596   2.550906   3.057530   0.000000
    15  H    3.665674   2.298138   2.553880   1.761671   0.000000
    16  H    3.824501   3.580365   2.319477   2.972370   2.845130
    17  H    4.704023   4.034321   3.278064   2.835065   2.228387
    18  H    3.791468   3.787689   2.224247   3.980099   3.981042
    19  H    4.267996   5.095506   3.787577   5.068495   5.528424
    20  H    3.782227   4.082609   2.811721   4.952983   5.129892
    21  H    3.390568   4.496444   4.015006   2.676636   3.811715
    22  H    4.309575   4.832006   4.641169   2.460682   3.353380
    23  H    4.986024   5.476433   4.674162   3.649792   4.155559
                   16         17         18         19         20
    16  H    0.000000
    17  H    1.775472   0.000000
    18  H    1.624588   3.371949   0.000000
    19  H    3.069941   4.809308   1.804905   0.000000
    20  H    3.332419   5.049571   1.794026   1.808235   0.000000
    21  H    2.478027   3.050578   3.281988   3.590803   4.448342
    22  H    3.100525   2.532719   4.461046   5.202597   5.872879
    23  H    2.497813   2.443669   3.693795   4.229099   5.276567
                   21         22         23
    21  H    0.000000
    22  H    1.795479   0.000000
    23  H    1.796023   1.819771   0.000000
 Stoichiometry    C7H16
 Framework group  C1[X(C7H16)]
 Deg. of freedom    63
 Full point group                 C1      NOp   1
 Largest Abelian subgroup         C1      NOp   1
 Largest concise Abelian subgroup C1      NOp   1
                         Standard orientation:                         
 ---------------------------------------------------------------------
 Center     Atomic      Atomic             Coordinates (Angstroms)
 Number     Number       Type             X           Y           Z
 ---------------------------------------------------------------------
      1          6           0       -1.309623    0.840677    0.625436
      2          6           0       -0.348887    1.472036   -0.323424
      3          6           0        1.109843    1.168849   -0.088548
      4          6           0       -1.388150   -0.648525    0.591722
      5          6           0        1.565349   -0.188447   -0.570177
      6          6           0       -1.652934   -1.227448   -0.736557
      7          6           0        1.984604   -1.130039    0.528711
      8          1           0       -2.196237   -0.974299    1.305866
      9          1           0       -0.441242   -1.079219    0.996227
     10          1           0       -2.318562    1.255874    0.417520
     11          1           0       -1.063461    1.157951    1.659547
     12          1           0       -0.482859    2.563580   -0.266264
     13          1           0       -0.616159    1.188800   -1.363424
     14          1           0        1.341263    1.291326    0.983164
     15          1           0        1.703850    1.946628   -0.611387
     16          1           0        0.749187   -0.675731   -1.165117
     17          1           0        2.412235   -0.062213   -1.265957
     18          1           0       -0.815010   -1.025537   -1.430094
     19          1           0       -1.776028   -2.348822   -0.666520
     20          1           0       -2.580215   -0.815586   -1.188233
     21          1           0        1.143863   -1.370718    1.180484
     22          1           0        2.801594   -0.681368    1.158855
     23          1           0        2.376573   -2.093281    0.092354
 ---------------------------------------------------------------------
 Rotational constants (GHZ):           3.0532882           1.9367568           1.4813113
 Leave Link  202 at Sun Sep 29 12:55:14 2019, MaxMem=   671088640 cpu:               2.8 elap:               1.4
 (Enter /shared/centos7/gaussian/g16/l301.exe)
 Standard basis: CC-pVTZ (5D, 7F)
 Ernie: Thresh=  0.10000D-02 Tol=  0.10000D-05 Strict=F.
 Ernie:  21 primitive shells out of 310 were deleted.
 There are   485 symmetry adapted cartesian basis functions of A   symmetry.
 There are   434 symmetry adapted basis functions of A   symmetry.
   434 basis functions,   636 primitive gaussians,   485 cartesian basis functions
    29 alpha electrons       29 beta electrons
       nuclear repulsion energy       338.6646283792 Hartrees.
 IExCor= 4336 DFT=T Ex+Corr=M062X ExCW=0 ScaHFX=  0.540000
 ScaDFX=  1.000000  1.000000  1.000000  1.000000 ScalE2=  1.000000  1.000000
 IRadAn=      5 IRanWt=     -1 IRanGd=            0 ICorTp=0 IEmpDi=  4
 NAtoms=   23 NActive=   23 NUniq=   23 SFac= 1.00D+00 NAtFMM=   60 NAOKFM=F Big=F
 Integral buffers will be    131072 words long.
 Raffenetti 2 integral format.
 Two-electron integral symmetry is turned on.
 Leave Link  301 at Sun Sep 29 12:55:15 2019, MaxMem=   671088640 cpu:               2.2 elap:               1.1
 (Enter /shared/centos7/gaussian/g16/l302.exe)
 NPDir=0 NMtPBC=     1 NCelOv=     1 NCel=       1 NClECP=     1 NCelD=      1
         NCelK=      1 NCelE2=     1 NClLst=     1 CellRange=     0.0.
 One-electron integrals computed using PRISM.
 One-electron integral symmetry used in STVInt
 NBasis=   434 RedAO= T EigKep=  3.16D-04  NBF=   434
 NBsUse=   434 1.00D-06 EigRej= -1.00D+00 NBFU=   434
 Precomputing XC quadrature grid using
 IXCGrd= 4 IRadAn=           5 IRanWt=          -1 IRanGd=           0 AccXCQ= 0.00D+00.
 Generated NRdTot=       0 NPtTot=           0 NUsed=           0 NTot=          32
 NSgBfM=   485   485   485   485   485 MxSgAt=    23 MxSgA2=    23.
 Leave Link  302 at Sun Sep 29 12:56:30 2019, MaxMem=   671088640 cpu:             151.6 elap:              75.8
 (Enter /shared/centos7/gaussian/g16/l303.exe)
 DipDrv:  MaxL=1.
 Leave Link  303 at Sun Sep 29 12:56:36 2019, MaxMem=   671088640 cpu:              10.3 elap:               5.2
 (Enter /shared/centos7/gaussian/g16/l401.exe)
 ExpMin= 1.03D-01 ExpMax= 8.24D+03 ExpMxC= 2.81D+02 IAcc=3 IRadAn=         5 AccDes= 0.00D+00
 Harris functional with IExCor= 1009 and IRadAn=       5 diagonalized for initial guess.
 HarFok:  IExCor= 1009 AccDes= 0.00D+00 IRadAn=         5 IDoV= 1 UseB2=F ITyADJ=14
 ICtDFT=  3500011 ScaDFX=  1.000000  1.000000  1.000000  1.000000
 FoFCou: FMM=F IPFlag=           0 FMFlag=      100000 FMFlg1=           0
         NFxFlg=           0 DoJE=T BraDBF=F KetDBF=T FulRan=T
         wScrn=  0.000000 ICntrl=       500 IOpCl=  0 I1Cent=   200000004 NGrid=           0
         NMat0=    1 NMatS0=      1 NMatT0=    0 NMatD0=    1 NMtDS0=    0 NMtDT0=    0
 Petite list used in FoFCou.
 Harris En= -276.316331609002    
 JPrj=0 DoOrth=F DoCkMO=F.
 Leave Link  401 at Sun Sep 29 12:57:26 2019, MaxMem=   671088640 cpu:             100.5 elap:              50.3
 (Enter /shared/centos7/gaussian/g16/l502.exe)
 Integral symmetry usage will be decided dynamically.
 Closed shell SCF:
 Using DIIS extrapolation, IDIIS=  1040.
 NGot=   671088640 LenX=   670604095 LenY=   670368385
 Requested convergence on RMS density matrix=1.00D-08 within 900 cycles.
 Requested convergence on MAX density matrix=1.00D-06.
 Requested convergence on             energy=1.00D-06.
 No special actions if energy rises.
 Fock matrices will be formed incrementally for  20 cycles.
 Integral accuracy reduced to 1.0D-05 until final iterations.

 Cycle   1  Pass 0  IDiag  1:
 FoFJK:  IHMeth= 1 ICntrl=       0 DoSepK=F KAlg= 0 I1Cent=           0 FoldK=F
 IRaf= 970000000 NMat=       1 IRICut=       1 DoRegI=T DoRafI=F ISym2E= 0 IDoP0=0 IntGTp=1.
 FoFCou: FMM=F IPFlag=           0 FMFlag=      100000 FMFlg1=           0
         NFxFlg=           0 DoJE=F BraDBF=F KetDBF=F FulRan=T
         wScrn=  0.000000 ICntrl=         0 IOpCl=  0 I1Cent=           0 NGrid=           0
         NMat0=    1 NMatS0=      1 NMatT0=    0 NMatD0=    1 NMtDS0=    0 NMtDT0=    0
 Symmetry not used in FoFCou.
 E= -275.956691851099    
 DIIS: error= 2.07D-02 at cycle   1 NSaved=   1.
 NSaved= 1 IEnMin= 1 EnMin= -275.956691851099     IErMin= 1 ErrMin= 2.07D-02
 ErrMax= 2.07D-02  0.00D+00 EMaxC= 1.00D-01 BMatC= 3.74D-01 BMatP= 3.74D-01
 IDIUse=3 WtCom= 7.93D-01 WtEn= 2.07D-01
 Coeff-Com:  0.100D+01
 Coeff-En:   0.100D+01
 Coeff:      0.100D+01
 Gap=     0.384 Goal=   None    Shift=    0.000
 GapD=    0.384 DampG=1.000 DampE=0.500 DampFc=0.5000 IDamp=-1.
 Damping current iteration by 5.00D-01
 RMSDP=1.93D-03 MaxDP=6.85D-02              OVMax= 1.64D-01

 Cycle   2  Pass 0  IDiag  1:
 RMSU=  9.63D-04    CP:  9.90D-01
 E= -276.130883626464     Delta-E=       -0.174191775364 Rises=F Damp=T
 DIIS: error= 3.51D-03 at cycle   2 NSaved=   2.
 NSaved= 2 IEnMin= 2 EnMin= -276.130883626464     IErMin= 2 ErrMin= 3.51D-03
 ErrMax= 3.51D-03  0.00D+00 EMaxC= 1.00D-01 BMatC= 1.98D-02 BMatP= 3.74D-01
 IDIUse=3 WtCom= 9.65D-01 WtEn= 3.51D-02
 Coeff-Com: -0.384D-01 0.104D+01
 Coeff-En:   0.000D+00 0.100D+01
 Coeff:     -0.370D-01 0.104D+01
 Gap=     0.445 Goal=   None    Shift=    0.000
 RMSDP=5.89D-04 MaxDP=2.24D-02 DE=-1.74D-01 OVMax= 9.59D-02

 Cycle   3  Pass 0  IDiag  1:
 RMSU=  5.79D-04    CP:  9.98D-01  9.04D-01
 E= -276.309961847667     Delta-E=       -0.179078221203 Rises=F Damp=F
 DIIS: error= 3.26D-03 at cycle   3 NSaved=   3.
 NSaved= 3 IEnMin= 3 EnMin= -276.309961847667     IErMin= 3 ErrMin= 3.26D-03
 ErrMax= 3.26D-03  0.00D+00 EMaxC= 1.00D-01 BMatC= 4.10D-03 BMatP= 1.98D-02
 IDIUse=3 WtCom= 9.67D-01 WtEn= 3.26D-02
 Coeff-Com: -0.543D-01 0.289D+00 0.765D+00
 Coeff-En:   0.000D+00 0.000D+00 0.100D+01
 Coeff:     -0.526D-01 0.280D+00 0.773D+00
 Gap=     0.424 Goal=   None    Shift=    0.000
 RMSDP=1.33D-04 MaxDP=4.34D-03 DE=-1.79D-01 OVMax= 1.28D-02

 Cycle   4  Pass 0  IDiag  1:
 RMSU=  1.02D-04    CP:  9.97D-01  9.56D-01  8.83D-01
 E= -276.313518180179     Delta-E=       -0.003556332512 Rises=F Damp=F
 DIIS: error= 9.37D-04 at cycle   4 NSaved=   4.
 NSaved= 4 IEnMin= 4 EnMin= -276.313518180179     IErMin= 4 ErrMin= 9.37D-04
 ErrMax= 9.37D-04  0.00D+00 EMaxC= 1.00D-01 BMatC= 3.54D-04 BMatP= 4.10D-03
 IDIUse=3 WtCom= 9.91D-01 WtEn= 9.37D-03
 Coeff-Com: -0.143D-01 0.399D-01 0.262D+00 0.713D+00
 Coeff-En:   0.000D+00 0.000D+00 0.000D+00 0.100D+01
 Coeff:     -0.142D-01 0.396D-01 0.259D+00 0.715D+00
 Gap=     0.424 Goal=   None    Shift=    0.000
 RMSDP=3.84D-05 MaxDP=1.43D-03 DE=-3.56D-03 OVMax= 3.19D-03

 Cycle   5  Pass 0  IDiag  1:
 RMSU=  1.95D-05    CP:  9.97D-01  9.50D-01  9.25D-01  7.88D-01
 E= -276.313844823012     Delta-E=       -0.000326642833 Rises=F Damp=F
 DIIS: error= 1.68D-04 at cycle   5 NSaved=   5.
 NSaved= 5 IEnMin= 5 EnMin= -276.313844823012     IErMin= 5 ErrMin= 1.68D-04
 ErrMax= 1.68D-04  0.00D+00 EMaxC= 1.00D-01 BMatC= 1.96D-05 BMatP= 3.54D-04
 IDIUse=3 WtCom= 9.98D-01 WtEn= 1.68D-03
 Coeff-Com: -0.213D-02 0.178D-02 0.550D-01 0.255D+00 0.691D+00
 Coeff-En:   0.000D+00 0.000D+00 0.000D+00 0.000D+00 0.100D+01
 Coeff:     -0.212D-02 0.178D-02 0.549D-01 0.254D+00 0.691D+00
 Gap=     0.424 Goal=   None    Shift=    0.000
 RMSDP=6.98D-06 MaxDP=3.99D-04 DE=-3.27D-04 OVMax= 8.18D-04

 Initial convergence to 1.0D-05 achieved.  Increase integral accuracy.
 Cycle   6  Pass 1  IDiag  1:
 E= -276.313819812321     Delta-E=        0.000025010691 Rises=F Damp=F
 DIIS: error= 4.09D-05 at cycle   1 NSaved=   1.
 NSaved= 1 IEnMin= 1 EnMin= -276.313819812321     IErMin= 1 ErrMin= 4.09D-05
 ErrMax= 4.09D-05  0.00D+00 EMaxC= 1.00D-01 BMatC= 1.82D-06 BMatP= 1.82D-06
 IDIUse=1 WtCom= 1.00D+00 WtEn= 0.00D+00
 Coeff-Com:  0.100D+01
 Coeff:      0.100D+01
 Gap=     0.424 Goal=   None    Shift=    0.000
 RMSDP=6.98D-06 MaxDP=3.99D-04 DE= 2.50D-05 OVMax= 2.67D-04

 Cycle   7  Pass 1  IDiag  1:
 RMSU=  1.01D-05    CP:  1.00D+00
 E= -276.313820599737     Delta-E=       -0.000000787416 Rises=F Damp=F
 DIIS: error= 2.56D-05 at cycle   2 NSaved=   2.
 NSaved= 2 IEnMin= 2 EnMin= -276.313820599737     IErMin= 2 ErrMin= 2.56D-05
 ErrMax= 2.56D-05  0.00D+00 EMaxC= 1.00D-01 BMatC= 5.37D-07 BMatP= 1.82D-06
 IDIUse=1 WtCom= 1.00D+00 WtEn= 0.00D+00
 Coeff-Com:  0.315D+00 0.685D+00
 Coeff:      0.315D+00 0.685D+00
 Gap=     0.424 Goal=   None    Shift=    0.000
 RMSDP=1.43D-06 MaxDP=7.22D-05 DE=-7.87D-07 OVMax= 1.56D-04

 Cycle   8  Pass 1  IDiag  1:
 RMSU=  1.43D-06    CP:  1.00D+00  9.96D-01
 E= -276.313821073174     Delta-E=       -0.000000473437 Rises=F Damp=F
 DIIS: error= 8.57D-06 at cycle   3 NSaved=   3.
 NSaved= 3 IEnMin= 3 EnMin= -276.313821073174     IErMin= 3 ErrMin= 8.57D-06
 ErrMax= 8.57D-06  0.00D+00 EMaxC= 1.00D-01 BMatC= 6.02D-08 BMatP= 5.37D-07
 IDIUse=1 WtCom= 1.00D+00 WtEn= 0.00D+00
 Coeff-Com: -0.367D-02 0.240D+00 0.763D+00
 Coeff:     -0.367D-02 0.240D+00 0.763D+00
 Gap=     0.424 Goal=   None    Shift=    0.000
 RMSDP=4.37D-07 MaxDP=2.04D-05 DE=-4.73D-07 OVMax= 3.95D-05

 Cycle   9  Pass 1  IDiag  1:
 RMSU=  3.28D-07    CP:  1.00D+00  1.02D+00  8.47D-01
 E= -276.313821130712     Delta-E=       -0.000000057538 Rises=F Damp=F
 DIIS: error= 2.72D-06 at cycle   4 NSaved=   4.
 NSaved= 4 IEnMin= 4 EnMin= -276.313821130712     IErMin= 4 ErrMin= 2.72D-06
 ErrMax= 2.72D-06  0.00D+00 EMaxC= 1.00D-01 BMatC= 2.18D-09 BMatP= 6.02D-08
 IDIUse=1 WtCom= 1.00D+00 WtEn= 0.00D+00
 Coeff-Com: -0.114D-01 0.655D-01 0.272D+00 0.673D+00
 Coeff:     -0.114D-01 0.655D-01 0.272D+00 0.673D+00
 Gap=     0.424 Goal=   None    Shift=    0.000
 RMSDP=9.39D-08 MaxDP=3.20D-06 DE=-5.75D-08 OVMax= 8.73D-06

 Cycle  10  Pass 1  IDiag  1:
 RMSU=  8.55D-08    CP:  1.00D+00  1.02D+00  8.44D-01  8.93D-01
 E= -276.313821132869     Delta-E=       -0.000000002158 Rises=F Damp=F
 DIIS: error= 4.97D-07 at cycle   5 NSaved=   5.
 NSaved= 5 IEnMin= 5 EnMin= -276.313821132869     IErMin= 5 ErrMin= 4.97D-07
 ErrMax= 4.97D-07  0.00D+00 EMaxC= 1.00D-01 BMatC= 8.74D-11 BMatP= 2.18D-09
 IDIUse=1 WtCom= 1.00D+00 WtEn= 0.00D+00
 Coeff-Com: -0.108D-02-0.128D-01-0.331D-01 0.863D-01 0.961D+00
 Coeff:     -0.108D-02-0.128D-01-0.331D-01 0.863D-01 0.961D+00
 Gap=     0.424 Goal=   None    Shift=    0.000
 RMSDP=3.78D-08 MaxDP=1.11D-06 DE=-2.16D-09 OVMax= 2.90D-06

 Cycle  11  Pass 1  IDiag  1:
 RMSU=  2.02D-08    CP:  1.00D+00  1.02D+00  8.48D-01  9.84D-01  1.09D+00
 E= -276.313821132986     Delta-E=       -0.000000000116 Rises=F Damp=F
 DIIS: error= 1.88D-07 at cycle   6 NSaved=   6.
 NSaved= 6 IEnMin= 6 EnMin= -276.313821132986     IErMin= 6 ErrMin= 1.88D-07
 ErrMax= 1.88D-07  0.00D+00 EMaxC= 1.00D-01 BMatC= 2.47D-11 BMatP= 8.74D-11
 IDIUse=1 WtCom= 1.00D+00 WtEn= 0.00D+00
 Coeff-Com:  0.330D-03-0.109D-01-0.360D-01-0.118D-01 0.443D+00 0.615D+00
 Coeff:      0.330D-03-0.109D-01-0.360D-01-0.118D-01 0.443D+00 0.615D+00
 Gap=     0.424 Goal=   None    Shift=    0.000
 RMSDP=7.87D-09 MaxDP=2.71D-07 DE=-1.16D-10 OVMax= 8.21D-07

 SCF Done:  E(RM062X) =  -276.313821133     A.U. after   11 cycles
            NFock= 11  Conv=0.79D-08     -V/T= 2.0065
 KE= 2.745276547559D+02 PE=-1.315742119807D+03 EE= 4.262360155384D+02
 Leave Link  502 at Sun Sep 29 13:16:05 2019, MaxMem=   671088640 cpu:            2236.8 elap:            1118.6
 (Enter /shared/centos7/gaussian/g16/l801.exe)
 DoSCS=F DFT=T ScalE2(SS,OS)=  1.000000  1.000000
 Range of M.O.s used for correlation:     1   434
 NBasis=   434 NAE=    29 NBE=    29 NFC=     0 NFV=     0
 NROrb=    434 NOA=    29 NOB=    29 NVA=   405 NVB=   405

 **** Warning!!: The largest alpha MO coefficient is  0.10421461D+02

 Leave Link  801 at Sun Sep 29 13:16:05 2019, MaxMem=   671088640 cpu:               1.5 elap:               0.8
 (Enter /shared/centos7/gaussian/g16/l1101.exe)
 Using compressed storage, NAtomX=    23.
 Will process     24 centers per pass.
 Leave Link 1101 at Sun Sep 29 13:17:20 2019, MaxMem=   671088640 cpu:              74.3 elap:              74.3
 (Enter /shared/centos7/gaussian/g16/l1102.exe)
 Symmetrizing basis deriv contribution to polar:
 IMax=3 JMax=2 DiffMx= 0.00D+00
 Leave Link 1102 at Sun Sep 29 13:17:24 2019, MaxMem=   671088640 cpu:               4.6 elap:               4.6
 (Enter /shared/centos7/gaussian/g16/l1110.exe)
 Forming Gx(P) for the SCF density, NAtomX=    23.
 Integral derivatives from FoFJK, PRISM(SPDF).
 Do as many integral derivatives as possible in FoFJK.
 G2DrvN: MDV=     671086848.
 G2DrvN: will do    24 centers at a time, making    1 passes.
 Calling FoFCou, ICntrl=  3107 FMM=F I1Cent=   0 AccDes= 0.00D+00.
 FoFJK:  IHMeth= 1 ICntrl=    3107 DoSepK=F KAlg= 0 I1Cent=           0 FoldK=F
 IRaf=         0 NMat=       1 IRICut=       1 DoRegI=T DoRafI=F ISym2E= 0 IDoP0=0 IntGTp=1.
 FoFCou: FMM=F IPFlag=           0 FMFlag=      100000 FMFlg1=           0
         NFxFlg=           0 DoJE=F BraDBF=F KetDBF=F FulRan=T
         wScrn=  0.000000 ICntrl=      3107 IOpCl=  0 I1Cent=           0 NGrid=           0
         NMat0=    1 NMatS0=      1 NMatT0=    0 NMatD0=    1 NMtDS0=    0 NMtDT0=    0
 Symmetry not used in FoFCou.
 End of G2Drv F.D. properties file   721 does not exist.
 End of G2Drv F.D. properties file   722 does not exist.
 End of G2Drv F.D. properties file   788 does not exist.
 Leave Link 1110 at Sun Sep 29 14:07:08 2019, MaxMem=   671088640 cpu:            5966.5 elap:            2983.4
 (Enter /shared/centos7/gaussian/g16/l1002.exe)
 Minotr:  Closed shell wavefunction.
          IDoAtm=11111111111111111111111
          Direct CPHF calculation.
          Differentiating once with respect to nuclear coordinates.
          Requested convergence is 1.0D-08 RMS, and 1.0D-07 maximum.
          Secondary convergence is 1.0D-12 RMS, and 1.0D-12 maximum.
          NewPWx=T KeepS1=F KeepF1=F KeepIn=T MapXYZ=F SortEE=F KeepMc=T.
         6883 words used for storage of precomputed grid.
 Two-electron integrals replicated using symmetry.
          MDV=     671088640 using IRadAn=       1.
          Solving linear equations simultaneously, MaxMat=     380.
 FoF2E skips out because all densities are zero.
 CalDSu exits because no D1Ps are significant.
 FoFJK:  IHMeth= 1 ICntrl=       0 DoSepK=F KAlg= 0 I1Cent=           0 FoldK=F
 IRaf= 950000000 NMat=      69 IRICut=     172 DoRegI=T DoRafI=T ISym2E= 2 IDoP0=3 IntGTp=3.
 FoFCou: FMM=F IPFlag=           0 FMFlag=      100000 FMFlg1=           0
         NFxFlg=           0 DoJE=F BraDBF=F KetDBF=F FulRan=T
         wScrn=  0.000000 ICntrl=         0 IOpCl=  0 I1Cent=           0 NGrid=           0
         NMat0=   69 NMatS0=     69 NMatT0=    0 NMatD0=   69 NMtDS0=    0 NMtDT0=    0
 Integrals replicated using symmetry in FoFCou.
 Raff kept on since  92.06% of shell-pairs survive, threshold=   0.20 IRatSp=92.
          There are    72 degrees of freedom in the 1st order CPHF.  IDoFFX=6 NUNeed=     0.
     66 vectors produced by pass  0 Test12= 1.63D-14 1.39D-09 XBig12= 5.49D-02 3.72D-02.
 AX will form    66 AO Fock derivatives at one time.
     66 vectors produced by pass  1 Test12= 1.63D-14 1.39D-09 XBig12= 3.02D-03 5.68D-03.
     66 vectors produced by pass  2 Test12= 1.63D-14 1.39D-09 XBig12= 4.43D-05 8.34D-04.
     66 vectors produced by pass  3 Test12= 1.63D-14 1.39D-09 XBig12= 3.53D-07 7.37D-05.
     66 vectors produced by pass  4 Test12= 1.63D-14 1.39D-09 XBig12= 1.94D-09 5.86D-06.
     66 vectors produced by pass  5 Test12= 1.63D-14 1.39D-09 XBig12= 9.37D-12 3.52D-07.
     26 vectors produced by pass  6 Test12= 1.63D-14 1.39D-09 XBig12= 3.52D-14 1.69D-08.
 InvSVY:  IOpt=1 It=  1 EMax= 3.89D-16
 Solved reduced A of dimension   422 with    72 vectors.
 End of Minotr F.D. properties file   721 does not exist.
 End of Minotr F.D. properties file   722 does not exist.
 End of Minotr F.D. properties file   788 does not exist.
 Leave Link 1002 at Sun Sep 29 15:28:54 2019, MaxMem=   671088640 cpu:            9812.4 elap:            4906.4
 (Enter /shared/centos7/gaussian/g16/l601.exe)
 Copying SCF densities to generalized density rwf, IOpCl= 0 IROHF=0.

 **********************************************************************

            Population analysis using the SCF density.

 **********************************************************************

 Orbital symmetries:
       Occupied  (A) (A) (A) (A) (A) (A) (A) (A) (A) (A) (A) (A)
                 (A) (A) (A) (A) (A) (A) (A) (A) (A) (A) (A) (A)
                 (A) (A) (A) (A) (A)
       Virtual   (A) (A) (A) (A) (A) (A) (A) (A) (A) (A) (A) (A)
                 (A) (A) (A) (A) (A) (A) (A) (A) (A) (A) (A) (A)
                 (A) (A) (A) (A) (A) (A) (A) (A) (A) (A) (A) (A)
                 (A) (A) (A) (A) (A) (A) (A) (A) (A) (A) (A) (A)
                 (A) (A) (A) (A) (A) (A) (A) (A) (A) (A) (A) (A)
                 (A) (A) (A) (A) (A) (A) (A) (A) (A) (A) (A) (A)
                 (A) (A) (A) (A) (A) (A) (A) (A) (A) (A) (A) (A)
                 (A) (A) (A) (A) (A) (A) (A) (A) (A) (A) (A) (A)
                 (A) (A) (A) (A) (A) (A) (A) (A) (A) (A) (A) (A)
                 (A) (A) (A) (A) (A) (A) (A) (A) (A) (A) (A) (A)
                 (A) (A) (A) (A) (A) (A) (A) (A) (A) (A) (A) (A)
                 (A) (A) (A) (A) (A) (A) (A) (A) (A) (A) (A) (A)
                 (A) (A) (A) (A) (A) (A) (A) (A) (A) (A) (A) (A)
                 (A) (A) (A) (A) (A) (A) (A) (A) (A) (A) (A) (A)
                 (A) (A) (A) (A) (A) (A) (A) (A) (A) (A) (A) (A)
                 (A) (A) (A) (A) (A) (A) (A) (A) (A) (A) (A) (A)
                 (A) (A) (A) (A) (A) (A) (A) (A) (A) (A) (A) (A)
                 (A) (A) (A) (A) (A) (A) (A) (A) (A) (A) (A) (A)
                 (A) (A) (A) (A) (A) (A) (A) (A) (A) (A) (A) (A)
                 (A) (A) (A) (A) (A) (A) (A) (A) (A) (A) (A) (A)
                 (A) (A) (A) (A) (A) (A) (A) (A) (A) (A) (A) (A)
                 (A) (A) (A) (A) (A) (A) (A) (A) (A) (A) (A) (A)
                 (A) (A) (A) (A) (A) (A) (A) (A) (A) (A) (A) (A)
                 (A) (A) (A) (A) (A) (A) (A) (A) (A) (A) (A) (A)
                 (A) (A) (A) (A) (A) (A) (A) (A) (A) (A) (A) (A)
                 (A) (A) (A) (A) (A) (A) (A) (A) (A) (A) (A) (A)
                 (A) (A) (A) (A) (A) (A) (A) (A) (A) (A) (A) (A)
                 (A) (A) (A) (A) (A) (A) (A) (A) (A) (A) (A) (A)
                 (A) (A) (A) (A) (A) (A) (A) (A) (A) (A) (A) (A)
                 (A) (A) (A) (A) (A) (A) (A) (A) (A) (A) (A) (A)
                 (A) (A) (A) (A) (A) (A) (A) (A) (A) (A) (A) (A)
                 (A) (A) (A) (A) (A) (A) (A) (A) (A) (A) (A) (A)
                 (A) (A) (A) (A) (A) (A) (A) (A) (A) (A) (A) (A)
                 (A) (A) (A) (A) (A) (A) (A) (A) (A)
 The electronic state is 1-A.
 Alpha  occ. eigenvalues --  -10.52601 -10.52534 -10.52456 -10.52419 -10.52336
 Alpha  occ. eigenvalues --  -10.52319 -10.52271  -0.92519  -0.87726  -0.83190
 Alpha  occ. eigenvalues --   -0.76693  -0.70515  -0.66504  -0.62167  -0.56024
 Alpha  occ. eigenvalues --   -0.53204  -0.50370  -0.49491  -0.48248  -0.47341
 Alpha  occ. eigenvalues --   -0.45018  -0.43757  -0.42420  -0.40188  -0.38802
 Alpha  occ. eigenvalues --   -0.36980  -0.36283  -0.36003  -0.35873
 Alpha virt. eigenvalues --    0.06551   0.08546   0.08706   0.08801   0.11201
 Alpha virt. eigenvalues --    0.12535   0.13014   0.13805   0.14684   0.15082
 Alpha virt. eigenvalues --    0.15910   0.16173   0.17334   0.18406   0.20343
 Alpha virt. eigenvalues --    0.20627   0.23574   0.24876   0.25211   0.26703
 Alpha virt. eigenvalues --    0.27462   0.29123   0.30153   0.31090   0.31590
 Alpha virt. eigenvalues --    0.32689   0.33269   0.34412   0.35539   0.36863
 Alpha virt. eigenvalues --    0.37924   0.38741   0.41352   0.43473   0.44852
 Alpha virt. eigenvalues --    0.45193   0.45647   0.46913   0.47339   0.48363
 Alpha virt. eigenvalues --    0.48483   0.49078   0.50910   0.51285   0.51657
 Alpha virt. eigenvalues --    0.52505   0.53113   0.53785   0.54293   0.54622
 Alpha virt. eigenvalues --    0.55017   0.55763   0.56530   0.56665   0.58702
 Alpha virt. eigenvalues --    0.60121   0.61261   0.61823   0.62956   0.64965
 Alpha virt. eigenvalues --    0.66130   0.66408   0.71467   0.73058   0.76180
 Alpha virt. eigenvalues --    0.77818   0.79986   0.81195   0.82302   0.83642
 Alpha virt. eigenvalues --    0.88248   0.88761   0.89849   0.91343   0.92465
 Alpha virt. eigenvalues --    0.93411   0.94808   0.96763   0.99217   0.99885
 Alpha virt. eigenvalues --    1.02178   1.02716   1.03572   1.04984   1.06576
 Alpha virt. eigenvalues --    1.07919   1.08522   1.10061   1.10239   1.10958
 Alpha virt. eigenvalues --    1.11745   1.12818   1.13636   1.13843   1.15084
 Alpha virt. eigenvalues --    1.15281   1.17644   1.17793   1.18610   1.20120
 Alpha virt. eigenvalues --    1.21353   1.21555   1.23296   1.23465   1.24502
 Alpha virt. eigenvalues --    1.25330   1.26107   1.27172   1.28731   1.30578
 Alpha virt. eigenvalues --    1.32248   1.32466   1.32736   1.33716   1.34577
 Alpha virt. eigenvalues --    1.35817   1.36840   1.37913   1.38693   1.39552
 Alpha virt. eigenvalues --    1.41159   1.41640   1.44394   1.45662   1.46502
 Alpha virt. eigenvalues --    1.48054   1.48545   1.49726   1.50145   1.50808
 Alpha virt. eigenvalues --    1.53007   1.53600   1.53940   1.55708   1.56980
 Alpha virt. eigenvalues --    1.58458   1.61177   1.61548   1.62947   1.66529
 Alpha virt. eigenvalues --    1.70320   1.71836   1.75322   1.76578   1.81562
 Alpha virt. eigenvalues --    1.83168   1.85685   1.96894   2.02077   2.26221
 Alpha virt. eigenvalues --    2.26927   2.31225   2.32133   2.35531   2.36195
 Alpha virt. eigenvalues --    2.38889   2.40239   2.41015   2.42960   2.44383
 Alpha virt. eigenvalues --    2.46650   2.49647   2.51009   2.52848   2.55965
 Alpha virt. eigenvalues --    2.57100   2.58801   2.59147   2.61156   2.62347
 Alpha virt. eigenvalues --    2.63568   2.64357   2.65445   2.65912   2.67130
 Alpha virt. eigenvalues --    2.67932   2.69771   2.69984   2.71463   2.73665
 Alpha virt. eigenvalues --    2.74710   2.76292   2.77478   2.79080   2.80371
 Alpha virt. eigenvalues --    2.81493   2.82204   2.83016   2.85231   2.86069
 Alpha virt. eigenvalues --    2.87140   2.88077   2.91276   2.92007   2.92731
 Alpha virt. eigenvalues --    2.93047   2.94951   2.96144   2.96266   2.98662
 Alpha virt. eigenvalues --    3.00625   3.02328   3.03800   3.04836   3.05619
 Alpha virt. eigenvalues --    3.07560   3.08370   3.08442   3.09611   3.09930
 Alpha virt. eigenvalues --    3.11338   3.11557   3.12629   3.13316   3.14172
 Alpha virt. eigenvalues --    3.15162   3.17045   3.17852   3.18948   3.19602
 Alpha virt. eigenvalues --    3.21032   3.23389   3.23592   3.25167   3.25234
 Alpha virt. eigenvalues --    3.26084   3.27306   3.28676   3.30055   3.32390
 Alpha virt. eigenvalues --    3.32435   3.33613   3.34857   3.36730   3.38532
 Alpha virt. eigenvalues --    3.38819   3.40786   3.41754   3.43059   3.44692
 Alpha virt. eigenvalues --    3.44974   3.45884   3.46303   3.47505   3.48707
 Alpha virt. eigenvalues --    3.49502   3.51108   3.52077   3.52886   3.54468
 Alpha virt. eigenvalues --    3.55511   3.57995   3.58935   3.61705   3.62692
 Alpha virt. eigenvalues --    3.62899   3.64669   3.66908   3.67230   3.69730
 Alpha virt. eigenvalues --    3.70226   3.71094   3.73138   3.74371   3.76232
 Alpha virt. eigenvalues --    3.77267   3.78007   3.78900   3.80146   3.80473
 Alpha virt. eigenvalues --    3.82352   3.83623   3.84538   3.85245   3.86101
 Alpha virt. eigenvalues --    3.87037   3.88923   3.89813   3.91721   3.93027
 Alpha virt. eigenvalues --    3.93734   3.93996   3.95143   3.96414   3.98639
 Alpha virt. eigenvalues --    3.98912   4.00180   4.00486   4.01346   4.02965
 Alpha virt. eigenvalues --    4.04125   4.04685   4.05133   4.06456   4.06974
 Alpha virt. eigenvalues --    4.08274   4.08705   4.09640   4.11380   4.12602
 Alpha virt. eigenvalues --    4.13575   4.15308   4.17321   4.18003   4.19311
 Alpha virt. eigenvalues --    4.20709   4.21701   4.22780   4.23702   4.25370
 Alpha virt. eigenvalues --    4.25882   4.28863   4.29132   4.31283   4.32823
 Alpha virt. eigenvalues --    4.33428   4.34730   4.36165   4.37953   4.38326
 Alpha virt. eigenvalues --    4.38874   4.39934   4.42576   4.43888   4.45461
 Alpha virt. eigenvalues --    4.48148   4.51812   4.52703   4.54371   4.57018
 Alpha virt. eigenvalues --    4.57990   4.62602   4.63256   4.65360   4.67695
 Alpha virt. eigenvalues --    4.68964   4.70858   4.71649   4.74188   4.75101
 Alpha virt. eigenvalues --    4.77722   4.79733   4.80493   4.81540   4.83419
 Alpha virt. eigenvalues --    4.84364   4.86199   4.87090   4.91711   4.92896
 Alpha virt. eigenvalues --    4.94077   4.95736   4.96819   4.99733   5.00613
 Alpha virt. eigenvalues --    5.02851   5.04081   5.06094   5.07753   5.10273
 Alpha virt. eigenvalues --    5.12748   5.14132   5.16610   5.18462   5.20242
 Alpha virt. eigenvalues --    5.23320   5.24113   5.25663   5.27414   5.28493
 Alpha virt. eigenvalues --    5.28987   5.30697   5.31943   5.34406   5.34781
 Alpha virt. eigenvalues --    5.36926   5.39419   5.41321   5.42638   5.45198
 Alpha virt. eigenvalues --    5.47667   5.50183   5.50631   5.53518   5.56139
 Alpha virt. eigenvalues --    5.60062   5.68595   5.71679   5.74585   5.81963
 Alpha virt. eigenvalues --    5.85553   5.86543   5.88406   5.95081   6.00417
 Alpha virt. eigenvalues --    6.02323   6.07642   6.13399  11.84061  12.41738
 Alpha virt. eigenvalues --   12.69969  13.26820  13.38067  13.62613  13.80147
          Condensed to atoms (all electrons):
               1          2          3          4          5          6
     1  C    5.083431   0.302369  -0.045337   0.315652  -0.005080  -0.058274
     2  C    0.302369   5.108259   0.288741  -0.055566  -0.037909   0.003864
     3  C   -0.045337   0.288741   5.144850   0.007248   0.280949  -0.003405
     4  C    0.315652  -0.055566   0.007248   5.147194   0.017411   0.287537
     5  C   -0.005080  -0.037909   0.280949   0.017411   5.164126  -0.015448
     6  C   -0.058274   0.003864  -0.003405   0.287537  -0.015448   5.034299
     7  C    0.001115   0.004841  -0.049810  -0.016696   0.294905   0.002460
     8  H   -0.046467   0.010384  -0.001090   0.421566  -0.000049  -0.039571
     9  H   -0.041556  -0.011311   0.006172   0.399870  -0.001111  -0.050347
    10  H    0.421553  -0.056584   0.009795  -0.043794  -0.000584  -0.004664
    11  H    0.421614  -0.044537  -0.006557  -0.053434  -0.000312   0.009707
    12  H   -0.047950   0.422501  -0.045796   0.009271   0.008968  -0.000418
    13  H   -0.038610   0.407590  -0.045664  -0.013238  -0.010070   0.004662
    14  H   -0.001926  -0.045697   0.404777  -0.002329  -0.054820   0.000300
    15  H    0.007979  -0.041709   0.413115  -0.000362  -0.043552  -0.000177
    16  H   -0.000780   0.000102  -0.066141  -0.000159   0.411517  -0.016744
    17  H   -0.000401   0.005030  -0.039417  -0.000277   0.411181   0.000638
    18  H   -0.007229   0.006284  -0.002206  -0.047582  -0.009914   0.412742
    19  H    0.008664  -0.000228   0.000076  -0.041805   0.000412   0.405889
    20  H    0.002592  -0.004587   0.000468  -0.049119   0.000743   0.401823
    21  H    0.000105   0.000113   0.002540  -0.013680  -0.052521   0.001448
    22  H   -0.000201   0.000632  -0.008821   0.000835  -0.038595  -0.000204
    23  H    0.000037  -0.000604   0.009091   0.000633  -0.040685   0.000058
               7          8          9         10         11         12
     1  C    0.001115  -0.046467  -0.041556   0.421553   0.421614  -0.047950
     2  C    0.004841   0.010384  -0.011311  -0.056584  -0.044537   0.422501
     3  C   -0.049810  -0.001090   0.006172   0.009795  -0.006557  -0.045796
     4  C   -0.016696   0.421566   0.399870  -0.043794  -0.053434   0.009271
     5  C    0.294905  -0.000049  -0.001111  -0.000584  -0.000312   0.008968
     6  C    0.002460  -0.039571  -0.050347  -0.004664   0.009707  -0.000418
     7  C    4.993422   0.000719  -0.015977  -0.000113   0.000504  -0.000653
     8  H    0.000719   0.584575  -0.032762  -0.009176  -0.006355  -0.000392
     9  H   -0.015977  -0.032762   0.603570   0.009440  -0.007523  -0.000521
    10  H   -0.000113  -0.009176   0.009440   0.575505  -0.026405  -0.009494
    11  H    0.000504  -0.006355  -0.007523  -0.026405   0.573436  -0.006335
    12  H   -0.000653  -0.000392  -0.000521  -0.009494  -0.006335   0.581901
    13  H    0.000885  -0.000453   0.000920  -0.004046   0.008312  -0.032529
    14  H   -0.005783  -0.000223   0.000166   0.000144   0.004394  -0.001669
    15  H    0.006404   0.000033  -0.000039  -0.000500   0.000114  -0.012325
    16  H   -0.042799   0.000154  -0.005113  -0.000451   0.000320   0.000549
    17  H   -0.035098   0.000006   0.000671   0.000047  -0.000029  -0.000483
    18  H    0.001153   0.008143  -0.007309   0.000259  -0.000663   0.000085
    19  H    0.000083  -0.008276  -0.006652  -0.000298  -0.000379   0.000035
    20  H   -0.000205  -0.006304   0.009456   0.003716   0.000019  -0.000162
    21  H    0.414402   0.001502  -0.008114  -0.000093   0.000151  -0.000063
    22  H    0.400576  -0.000043   0.000985   0.000007  -0.000031   0.000016
    23  H    0.402835  -0.000050   0.000634   0.000000  -0.000005   0.000032
              13         14         15         16         17         18
     1  C   -0.038610  -0.001926   0.007979  -0.000780  -0.000401  -0.007229
     2  C    0.407590  -0.045697  -0.041709   0.000102   0.005030   0.006284
     3  C   -0.045664   0.404777   0.413115  -0.066141  -0.039417  -0.002206
     4  C   -0.013238  -0.002329  -0.000362  -0.000159  -0.000277  -0.047582
     5  C   -0.010070  -0.054820  -0.043552   0.411517   0.411181  -0.009914
     6  C    0.004662   0.000300  -0.000177  -0.016744   0.000638   0.412742
     7  C    0.000885  -0.005783   0.006404  -0.042799  -0.035098   0.001153
     8  H   -0.000453  -0.000223   0.000033   0.000154   0.000006   0.008143
     9  H    0.000920   0.000166  -0.000039  -0.005113   0.000671  -0.007309
    10  H   -0.004046   0.000144  -0.000500  -0.000451   0.000047   0.000259
    11  H    0.008312   0.004394   0.000114   0.000320  -0.000029  -0.000663
    12  H   -0.032529  -0.001669  -0.012325   0.000549  -0.000483   0.000085
    13  H    0.590353   0.007794  -0.002236   0.001000   0.000929  -0.007644
    14  H    0.007794   0.576186  -0.030326   0.006506   0.004633  -0.000280
    15  H   -0.002236  -0.030326   0.590357   0.005781  -0.018323  -0.000154
    16  H    0.001000   0.006506   0.005781   0.599212  -0.036732  -0.009373
    17  H    0.000929   0.004633  -0.018323  -0.036732   0.582872   0.001399
    18  H   -0.007644  -0.000280  -0.000154  -0.009373   0.001399   0.612357
    19  H    0.000181   0.000023   0.000003   0.001113  -0.000032  -0.032402
    20  H    0.000946   0.000002   0.000019   0.001087  -0.000027  -0.040661
    21  H    0.000098  -0.000204  -0.000305  -0.006526   0.007314   0.001073
    22  H   -0.000043   0.002423   0.000885   0.008375  -0.006610  -0.000180
    23  H    0.000003   0.000560  -0.000574  -0.005803  -0.006604   0.000077
              19         20         21         22         23
     1  C    0.008664   0.002592   0.000105  -0.000201   0.000037
     2  C   -0.000228  -0.004587   0.000113   0.000632  -0.000604
     3  C    0.000076   0.000468   0.002540  -0.008821   0.009091
     4  C   -0.041805  -0.049119  -0.013680   0.000835   0.000633
     5  C    0.000412   0.000743  -0.052521  -0.038595  -0.040685
     6  C    0.405889   0.401823   0.001448  -0.000204   0.000058
     7  C    0.000083  -0.000205   0.414402   0.400576   0.402835
     8  H   -0.008276  -0.006304   0.001502  -0.000043  -0.000050
     9  H   -0.006652   0.009456  -0.008114   0.000985   0.000634
    10  H   -0.000298   0.003716  -0.000093   0.000007   0.000000
    11  H   -0.000379   0.000019   0.000151  -0.000031  -0.000005
    12  H    0.000035  -0.000162  -0.000063   0.000016   0.000032
    13  H    0.000181   0.000946   0.000098  -0.000043   0.000003
    14  H    0.000023   0.000002  -0.000204   0.002423   0.000560
    15  H    0.000003   0.000019  -0.000305   0.000885  -0.000574
    16  H    0.001113   0.001087  -0.006526   0.008375  -0.005803
    17  H   -0.000032  -0.000027   0.007314  -0.006610  -0.006604
    18  H   -0.032402  -0.040661   0.001073  -0.000180   0.000077
    19  H    0.584268  -0.024768   0.000102   0.000008   0.000035
    20  H   -0.024768   0.583653  -0.000194   0.000009   0.000005
    21  H    0.000102  -0.000194   0.587068  -0.038621  -0.031291
    22  H    0.000008   0.000009  -0.038621   0.601087  -0.028053
    23  H    0.000035   0.000005  -0.031291  -0.028053   0.591495
 Mulliken charges:
               1
     1  C   -0.271301
     2  C   -0.261980
     3  C   -0.253581
     4  C   -0.269175
     5  C   -0.279561
     6  C   -0.376174
     7  C   -0.357170
     8  H    0.124127
     9  H    0.156450
    10  H    0.135737
    11  H    0.133992
    12  H    0.135431
    13  H    0.130857
    14  H    0.135348
    15  H    0.125892
    16  H    0.154905
    17  H    0.129312
    18  H    0.122025
    19  H    0.113948
    20  H    0.121489
    21  H    0.135694
    22  H    0.105563
    23  H    0.108172
 Sum of Mulliken charges =  -0.00000
 Mulliken charges with hydrogens summed into heavy atoms:
               1
     1  C   -0.001573
     2  C    0.004308
     3  C    0.007659
     4  C    0.011401
     5  C    0.004656
     6  C   -0.018712
     7  C   -0.007740
 APT charges:
               1
     1  C   -0.873829
     2  C   -0.709798
     3  C   -0.768702
     4  C   -0.573514
     5  C   -0.576764
     6  C   -1.125751
     7  C   -1.153562
     8  H    0.483466
     9  H    0.240476
    10  H    0.457189
    11  H    0.351515
    12  H    0.467823
    13  H    0.278781
    14  H    0.307851
    15  H    0.459695
    16  H    0.223467
    17  H    0.477098
    18  H    0.156349
    19  H    0.436784
    20  H    0.412373
    21  H    0.167716
    22  H    0.414758
    23  H    0.446581
 Sum of APT charges =  -0.00000
 APT charges with hydrogens summed into heavy atoms:
               1
     1  C   -0.065126
     2  C    0.036806
     3  C   -0.001156
     4  C    0.150428
     5  C    0.123801
     6  C   -0.120245
     7  C   -0.124508
 Electronic spatial extent (au):  <R**2>=            972.1585
 Charge=              0.0000 electrons
 Dipole moment (field-independent basis, Debye):
    X=              0.0068    Y=              0.0859    Z=             -0.0243  Tot=              0.0895
 Quadrupole moment (field-independent basis, Debye-Ang):
   XX=            -49.0240   YY=            -49.2683   ZZ=            -49.4134
   XY=              0.2687   XZ=             -0.3995   YZ=              0.0074
 Traceless Quadrupole moment (field-independent basis, Debye-Ang):
   XX=              0.2112   YY=             -0.0330   ZZ=             -0.1782
   XY=              0.2687   XZ=             -0.3995   YZ=              0.0074
 Octapole moment (field-independent basis, Debye-Ang**2):
  XXX=             -0.8794  YYY=              0.5763  ZZZ=              0.6896  XYY=             -0.0258
  XXY=              1.3823  XXZ=             -0.8299  XZZ=              0.6978  YZZ=              1.1655
  YYZ=             -0.2937  XYZ=              0.9581
 Hexadecapole moment (field-independent basis, Debye-Ang**3):
 XXXX=           -723.6089 YYYY=           -440.0625 ZZZZ=           -209.1470 XXXY=              1.6564
 XXXZ=             -3.2057 YYYX=              1.3113 YYYZ=              0.5421 ZZZX=             -2.2205
 ZZZY=              0.1154 XXYY=           -197.6363 XXZZ=           -155.8504 YYZZ=           -112.2445
 XXYZ=             -1.2310 YYXZ=             -4.1576 ZZXY=              1.4010
 N-N= 3.386646283792D+02 E-N=-1.315742027478D+03  KE= 2.745276547559D+02
  Exact polarizability:   0.000   0.000   0.000   0.000   0.000   0.000
 Approx polarizability: 101.352   0.290  98.338   0.782   0.285  98.504
 No NMR shielding tensors so no spin-rotation constants.
 Leave Link  601 at Sun Sep 29 15:29:26 2019, MaxMem=   671088640 cpu:              63.7 elap:              31.9
 (Enter /shared/centos7/gaussian/g16/l701.exe)
 SCFChk:  SCF convergence  7.87D-09 required  1.00D-08
 ... and contract with generalized density number  0.
 Compute integral second derivatives.
 Entering OneElI...
 Calculate overlap and kinetic energy integrals
    NBasis = 485  MinDer = 2  MaxDer = 2
 Requested accuracy = 0.1000D-12
 PrmmSu-InSpLW:  IPartL=    0 NPrtUS=   20 NPrtUL=    1 DoSpLW=F IThBeg=    0 IThEnd=   19 NThAct=   20.
 PrsmSu:  NPrtUS=  20 ThrOK=T IAlg=1 NPAlg=1 LenDen=           0 ISkipM=0 DoSpLW=F IThBeg=    0 IThEnd=   19.
 Prism:   IPart=     0 DynPar=F LinDyn=F Incr=           6.
 PRISM was handed    33192925 working-precision words and 13830 shell-pairs
 PRISM was handed    33192925 working-precision words and 13830 shell-pairs
 PRISM was handed    33192925 working-precision words and 13830 shell-pairs
 PRISM was handed    33192925 working-precision words and 13830 shell-pairs
 PRISM was handed    33192925 working-precision words and 13830 shell-pairs
 PRISM was handed    33192925 working-precision words and 13830 shell-pairs
 PRISM was handed    33192925 working-precision words and 13830 shell-pairs
 PRISM was handed    33192925 working-precision words and 13830 shell-pairs
 PRISM was handed    33192925 working-precision words and 13830 shell-pairs
 PRISM was handed    33192925 working-precision words and 13830 shell-pairs
 PRISM was handed    33192925 working-precision words and 13830 shell-pairs
 PRISM was handed    33192925 working-precision words and 13830 shell-pairs
 PRISM was handed    33192925 working-precision words and 13830 shell-pairs
 PRISM was handed    33192925 working-precision words and 13830 shell-pairs
 PRISM was handed    33192925 working-precision words and 13830 shell-pairs
 PRISM was handed    33192925 working-precision words and 13830 shell-pairs
 PRISM was handed    33192925 working-precision words and 13830 shell-pairs
 IPart=  0 NShTot=         728 NBatch=          78 AvBLen=         9.3
 IPart=  4 NShTot=         714 NBatch=          72 AvBLen=         9.9
 IPart= 18 NShTot=         666 NBatch=          48 AvBLen=        13.9
 PRISM was handed    33192925 working-precision words and 13830 shell-pairs
 IPart=  9 NShTot=         686 NBatch=          59 AvBLen=        11.6
 IPart= 11 NShTot=         683 NBatch=          57 AvBLen=        12.0
 PRISM was handed    33192925 working-precision words and 13830 shell-pairs
 PRISM was handed    33192925 working-precision words and 13830 shell-pairs
 IPart=  8 NShTot=         692 NBatch=          59 AvBLen=        11.7
 IPart=  1 NShTot=         726 NBatch=          77 AvBLen=         9.4
 IPart= 14 NShTot=         675 NBatch=          53 AvBLen=        12.7
 IPart= 10 NShTot=         683 NBatch=          57 AvBLen=        12.0
 IPart=  2 NShTot=         720 NBatch=          74 AvBLen=         9.7
 IPart=  7 NShTot=         696 NBatch=          61 AvBLen=        11.4
 IPart=  5 NShTot=         708 NBatch=          69 AvBLen=        10.3
 IPart= 12 NShTot=         678 NBatch=          54 AvBLen=        12.6
 IPart= 13 NShTot=         676 NBatch=          53 AvBLen=        12.8
 IPart= 17 NShTot=         667 NBatch=          49 AvBLen=        13.6
 IPart= 19 NShTot=         665 NBatch=          47 AvBLen=        14.1
 IPart= 16 NShTot=         671 NBatch=          51 AvBLen=        13.2
 IPart=  3 NShTot=         718 NBatch=          73 AvBLen=         9.8
 IPart= 15 NShTot=         675 NBatch=          53 AvBLen=        12.7
 IPart=  6 NShTot=         703 NBatch=          66 AvBLen=        10.7
 PrSmSu:  NxtVal=            121.
 Entering OneElI...
 Calculate potential energy integrals
    NBasis = 485  MinDer = 2  MaxDer = 2
 Requested accuracy = 0.1000D-12
 PrmmSu-InSpLW:  IPartL=    0 NPrtUS=   20 NPrtUL=    1 DoSpLW=F IThBeg=    0 IThEnd=   19 NThAct=   20.
 PrsmSu:  NPrtUS=  20 ThrOK=T IAlg=1 NPAlg=1 LenDen=           0 ISkipM=0 DoSpLW=F IThBeg=    0 IThEnd=   19.
 Prism:   IPart=     0 DynPar=F LinDyn=F Incr=         146.
 PRISM was handed    33254293 working-precision words and 12759 shell-pairs
 PRISM was handed    33254293 working-precision words and 12759 shell-pairs
 PRISM was handed    33254293 working-precision words and 12759 shell-pairs
 PRISM was handed    33254293 working-precision words and 12759 shell-pairs
 PRISM was handed    33254293 working-precision words and 12759 shell-pairs
 PRISM was handed    33254293 working-precision words and 12759 shell-pairs
 PRISM was handed    33254293 working-precision words and 12759 shell-pairs
 PRISM was handed    33254293 working-precision words and 12759 shell-pairs
 PRISM was handed    33254293 working-precision words and 12759 shell-pairs
 PRISM was handed    33254293 working-precision words and 12759 shell-pairs
 PRISM was handed    33254293 working-precision words and 12759 shell-pairs
 PRISM was handed    33254293 working-precision words and 12759 shell-pairs
 PRISM was handed    33254293 working-precision words and 12759 shell-pairs
 PRISM was handed    33254293 working-precision words and 12759 shell-pairs
 PRISM was handed    33254293 working-precision words and 12759 shell-pairs
 PRISM was handed    33254293 working-precision words and 12759 shell-pairs
 PRISM was handed    33254293 working-precision words and 12759 shell-pairs
 PRISM was handed    33254293 working-precision words and 12759 shell-pairs
 PRISM was handed    33254293 working-precision words and 12759 shell-pairs
 PRISM was handed    33254293 working-precision words and 12759 shell-pairs
 IPart= 12 NShTot=       14467 NBatch=         630 AvBLen=        23.0
 IPart= 15 NShTot=       14329 NBatch=         624 AvBLen=        23.0
 IPart=  4 NShTot=       15065 NBatch=         657 AvBLen=        22.9
 IPart=  8 NShTot=       14582 NBatch=         635 AvBLen=        23.0
 IPart=  7 NShTot=       14628 NBatch=         638 AvBLen=        22.9
 IPart= 13 NShTot=       14398 NBatch=         627 AvBLen=        23.0
 IPart=  6 NShTot=       14812 NBatch=         646 AvBLen=        22.9
 IPart=  2 NShTot=       15318 NBatch=         668 AvBLen=        22.9
 IPart= 19 NShTot=       14145 NBatch=         616 AvBLen=        23.0
 IPart= 14 NShTot=       14398 NBatch=         627 AvBLen=        23.0
 IPart= 16 NShTot=       14214 NBatch=         619 AvBLen=        23.0
 IPart= 10 NShTot=       14559 NBatch=         634 AvBLen=        23.0
 IPart= 17 NShTot=       14214 NBatch=         619 AvBLen=        23.0
 IPart=  9 NShTot=       14582 NBatch=         635 AvBLen=        23.0
 IPart=  5 NShTot=       14950 NBatch=         652 AvBLen=        22.9
 IPart= 11 NShTot=       14513 NBatch=         632 AvBLen=        23.0
 IPart=  0 NShTot=       15525 NBatch=         677 AvBLen=        22.9
 IPart= 18 NShTot=       14214 NBatch=         619 AvBLen=        23.0
 IPart=  3 NShTot=       15157 NBatch=         661 AvBLen=        22.9
 IPart=  1 NShTot=       15387 NBatch=         671 AvBLen=        22.9
 PrSmSu:  NxtVal=           2921.
 Polarizability after L701:
                1             2             3 
      1  0.000000D+00
      2  0.000000D+00  0.000000D+00
      3  0.000000D+00  0.000000D+00  0.000000D+00
 Dipole Derivatives after L701:
                 1             2             3             4             5 
      1  -0.122682D+01  0.635527D+00  0.328133D+00 -0.542671D-01  0.204005D+00
      2   0.509167D+00 -0.499271D+00 -0.536954D+00  0.323125D+00 -0.131583D+01
      3  -0.175131D-02 -0.426763D+00 -0.895398D+00 -0.188500D+00 -0.611954D-01
                 6             7             8             9            10 
      1  -0.317563D+00 -0.749201D+00 -0.814430D+00 -0.268690D+00 -0.741131D+00
      2   0.568621D+00 -0.761000D+00 -0.878102D+00 -0.160628D+00  0.442625D-01
      3  -0.759295D+00  0.120336D+00  0.238922D+00 -0.678803D+00  0.130659D+00
                11            12            13            14            15 
      1  -0.445300D+00  0.917675D+00 -0.811013D+00  0.862070D-01  0.108506D+01
      2  -0.401891D+00  0.651156D+00 -0.210964D+00 -0.141718D+00 -0.237042D+00
      3   0.489668D+00 -0.577520D+00  0.128448D+00 -0.229094D+00 -0.777560D+00
                16            17            18            19            20 
      1  -0.115221D+01 -0.405501D+00 -0.867486D+00 -0.130276D+01  0.650314D+00
      2  -0.142650D+00 -0.124982D+01 -0.537535D+00  0.148558D+00 -0.124797D+01
      3  -0.297147D-01 -0.251291D-01 -0.975224D+00 -0.108891D-01 -0.402483D-01
                21            22            23            24            25 
      1  -0.737618D+00  0.763922D+00  0.224628D+00 -0.496838D+00  0.102006D+00
      2   0.247454D+00  0.288726D+00  0.252106D+00 -0.204681D+00 -0.383054D+00
      3  -0.909954D+00 -0.380461D+00 -0.116021D+00  0.434369D+00  0.350136D+00
                26            27            28            29            30 
      1   0.507234D-01 -0.366379D-01  0.935145D+00 -0.314650D+00  0.160434D+00
      2   0.332508D+00 -0.967785D-01 -0.404742D+00  0.332972D+00 -0.110693D+00
      3  -0.125395D+00  0.286914D+00 -0.131254D+00  0.299129D-01  0.103449D+00
                31            32            33            34            35 
      1   0.444776D-01 -0.904006D-01 -0.344566D+00  0.197374D+00 -0.158027D+00
      2   0.107328D+00  0.275658D+00  0.390962D+00 -0.999086D-01  0.107394D+01
      3   0.145225D+00  0.163570D+00  0.734409D+00 -0.690938D-02 -0.790234D-01
                36            37            38            39            40 
      1  -0.251143D-01  0.197445D+00  0.738373D-01  0.203742D+00  0.222823D+00
      2   0.498338D-01 -0.972549D-01  0.218540D-01 -0.359099D+00  0.877356D-01
      3   0.132154D+00  0.117861D+00  0.186419D+00  0.617043D+00  0.844984D-01
                41            42            43            44            45 
      1   0.368283D-01  0.459059D+00  0.489186D+00  0.401667D+00 -0.336448D+00
      2   0.185619D+00  0.431041D+00  0.361359D+00  0.640510D+00 -0.359294D+00
      3   0.335058D-01  0.515111D+00 -0.153423D+00 -0.165560D+00  0.249390D+00
                46            47            48            49            50 
      1   0.189300D-01 -0.108618D+00 -0.107661D+00  0.848145D+00  0.136455D+00
      2   0.226188D+00  0.295169D+00  0.115998D+00 -0.185126D-01  0.174483D+00
      3   0.370148D+00  0.208600D+00  0.356302D+00 -0.380434D+00 -0.857909D-01
                51            52            53            54            55 
      1  -0.552473D+00 -0.111577D-01 -0.425622D-01  0.135015D+00  0.151451D+00
      2  -0.171788D-02 -0.268563D+00  0.363901D-01  0.204679D+00  0.869422D-01
      3   0.408665D+00 -0.455617D+00 -0.142760D+00  0.443815D+00  0.192122D-01
                56            57            58            59            60 
      1   0.673665D+00 -0.551708D-01  0.925456D+00 -0.378687D+00  0.408909D+00
      2   0.104801D+01 -0.854874D-01  0.196380D+00  0.500224D-02  0.120386D+00
      3   0.234298D+00  0.110895D+00  0.354852D+00 -0.160988D+00  0.306659D+00
                61            62            63            64            65 
      1  -0.103708D+00 -0.746870D-01  0.197572D+00  0.850932D+00  0.436072D+00
      2   0.426676D+00  0.214258D+00 -0.294550D+00 -0.128261D+00  0.342742D-01
      3  -0.399206D+00 -0.971000D-01  0.392597D+00  0.317550D+00  0.172375D+00
                66            67            68            69 
      1   0.615937D+00  0.404972D+00 -0.777066D+00 -0.365271D+00
      2  -0.134326D+00 -0.291539D+00  0.811857D+00  0.338656D+00
      3   0.359068D+00 -0.766441D-03 -0.220261D-02  0.122915D+00
 Hessian after L701:
                1             2             3             4             5 
      1  0.164700D+02
      2 -0.690108D+00  0.160182D+02
      3  0.758001D+00 -0.813524D-01  0.175901D+02
      4 -0.464542D+01  0.117430D+01 -0.163700D+01  0.157627D+02
      5  0.118789D+01 -0.559166D+01 -0.115193D+01 -0.606312D-01  0.165613D+02
      6 -0.164176D+01 -0.111547D+01 -0.472356D+01  0.553873D+00  0.479949D+00
      7  0.394629D+00  0.120931D+00 -0.347693D-01 -0.234142D+01 -0.835332D+00
      8  0.522242D-01 -0.811731D-01 -0.203857D-01 -0.810639D+00 -0.590416D+01
      9 -0.135777D+00 -0.575222D-01 -0.100308D+00  0.420896D+00 -0.113291D+00
     10 -0.637372D+01  0.347898D+00  0.354251D-01  0.870857D-01  0.197342D+00
     11  0.286768D+00 -0.227875D+01  0.479155D-01  0.199205D+00  0.252710D+00
     12  0.425258D-01  0.629907D-01 -0.640241D+01 -0.692332D-01 -0.392374D-01
     13  0.132583D+00 -0.105748D+00 -0.977590D-01  0.147778D+00 -0.285353D+00
     14 -0.868474D-01 -0.923989D-01  0.199646D-01 -0.260018D+00  0.142366D+00
     15 -0.848303D-01  0.243928D-01 -0.115750D+00 -0.191178D-01  0.406003D-01
     16 -0.563365D-01  0.724169D-01  0.499673D-01 -0.138011D+00  0.218095D+00
     17  0.164192D+00  0.197418D+00  0.205054D+00  0.223622D+00  0.239332D+00
     18  0.935289D-01  0.161749D+00  0.804686D-01 -0.124348D-01 -0.402006D-02
     19  0.103947D+00 -0.126257D+00  0.132963D-01  0.549681D-01 -0.207130D+00
     20 -0.127035D+00 -0.315421D-01 -0.742740D-02 -0.190071D+00  0.492778D-01
     21 -0.312937D-01  0.113651D-01 -0.119783D+00  0.611513D-01 -0.707817D-01
     22  0.119509D+00 -0.577975D-01 -0.141003D-01  0.348364D-01  0.109407D+00
     23 -0.583462D-01 -0.781952D-01  0.601510D-01  0.984925D-01  0.636630D-01
     24 -0.133931D-01  0.635128D-01  0.108351D+00 -0.755540D-01 -0.937869D-01
     25  0.143745D+00  0.401099D-01  0.364948D-01  0.194668D-01 -0.207606D-01
     26  0.110189D+00 -0.143000D+00 -0.134587D-01  0.570456D-02 -0.414063D-01
     27  0.514878D-02  0.204576D-01  0.131066D+00 -0.492257D-02  0.291111D-01
     28 -0.214536D+01 -0.924998D+00  0.366124D+00 -0.859481D-01 -0.633445D-01
     29 -0.975577D+00 -0.397336D+01 -0.150792D+00 -0.387856D-01  0.158447D+00
     30  0.308980D+00 -0.120766D+00 -0.428439D+01  0.141086D+00  0.518282D-02
     31 -0.438538D+01  0.111951D+00  0.391920D+00  0.775717D-01 -0.255163D-01
     32  0.164756D+00 -0.419371D+01  0.824056D+00 -0.115138D-01  0.102121D+00
     33  0.527063D+00  0.793609D+00 -0.207089D+01  0.799582D-01  0.958758D-01
     34  0.683125D-01 -0.996244D-01  0.435120D-01 -0.436421D+01 -0.345794D+00
     35 -0.113429D+00  0.271733D-01  0.108052D+00 -0.337003D+00 -0.193521D+01
     36  0.497646D-01  0.104705D+00  0.579594D-01  0.137712D-01 -0.900593D-02
     37  0.605748D-01  0.466354D-03  0.118502D+00 -0.444225D+01  0.183604D+00
     38 -0.206695D-01  0.103936D+00  0.841875D-01  0.117085D+00 -0.444253D+01
     39  0.122199D+00  0.176897D-01 -0.524530D-01  0.688814D+00  0.704533D+00
     40  0.309740D-01  0.233750D-01  0.403014D-02 -0.100595D+00  0.314498D-01
     41  0.191196D-01 -0.208324D-01  0.922995D-03 -0.604257D-02  0.124918D+00
     42  0.278766D-01  0.128551D-01 -0.140588D-01 -0.121115D+00  0.274694D-01
     43  0.114669D+00  0.663090D-01 -0.717919D-01 -0.833368D-01  0.212433D-01
     44  0.776178D-01 -0.140282D-01 -0.300188D-01  0.148236D-01  0.133705D+00
     45 -0.748466D-01 -0.312366D-01 -0.196140D-01  0.232596D-02 -0.329834D-01
     46 -0.226975D-01 -0.146019D-02 -0.203578D-02 -0.436944D-02 -0.134455D-01
     47 -0.176289D-01 -0.965949D-03  0.185353D-01 -0.618146D-01 -0.266917D-02
     48 -0.215490D-01  0.178267D-01 -0.252185D-03 -0.328278D-01  0.255487D-01
     49  0.127459D-01 -0.239146D-04 -0.738471D-02  0.806180D-01 -0.669846D-01
     50 -0.129015D-02 -0.773014D-02  0.545976D-03 -0.529076D-01 -0.899174D-02
[...]
 ! D25   D(13,2,3,5)           -29.8223         calculate D2E/DX2 analytically  !
 ! D26   D(13,2,3,14)         -153.1063         calculate D2E/DX2 analytically  !
 ! D27   D(13,2,3,15)           91.3244         calculate D2E/DX2 analytically  !
 ! D28   D(2,3,5,7)            178.7909         calculate D2E/DX2 analytically  !
 ! D29   D(2,3,5,16)           -58.8348         calculate D2E/DX2 analytically  !
 ! D30   D(2,3,5,17)            57.2855         calculate D2E/DX2 analytically  !
 ! D31   D(14,3,5,7)           -57.8302         calculate D2E/DX2 analytically  !
 ! D32   D(14,3,5,16)           64.5442         calculate D2E/DX2 analytically  !
 ! D33   D(14,3,5,17)         -179.3355         calculate D2E/DX2 analytically  !
 ! D34   D(15,3,5,7)            56.6389         calculate D2E/DX2 analytically  !
 ! D35   D(15,3,5,16)          179.0132         calculate D2E/DX2 analytically  !
 ! D36   D(15,3,5,17)          -64.8665         calculate D2E/DX2 analytically  !
 ! D37   D(1,4,6,18)            62.6543         calculate D2E/DX2 analytically  !
 ! D38   D(1,4,6,19)          -176.955          calculate D2E/DX2 analytically  !
 ! D39   D(1,4,6,20)           -57.0773         calculate D2E/DX2 analytically  !
 ! D40   D(8,4,6,18)          -176.4016         calculate D2E/DX2 analytically  !
 ! D41   D(8,4,6,19)           -56.011          calculate D2E/DX2 analytically  !
 ! D42   D(8,4,6,20)            63.8667         calculate D2E/DX2 analytically  !
 ! D43   D(9,4,6,18)           -60.6624         calculate D2E/DX2 analytically  !
 ! D44   D(9,4,6,19)            59.7282         calculate D2E/DX2 analytically  !
 ! D45   D(9,4,6,20)           179.6059         calculate D2E/DX2 analytically  !
 ! D46   D(3,5,7,21)            60.6319         calculate D2E/DX2 analytically  !
 ! D47   D(3,5,7,22)           -58.6718         calculate D2E/DX2 analytically  !
 ! D48   D(3,5,7,23)          -179.0674         calculate D2E/DX2 analytically  !
 ! D49   D(16,5,7,21)          -62.2276         calculate D2E/DX2 analytically  !
 ! D50   D(16,5,7,22)          178.4688         calculate D2E/DX2 analytically  !
 ! D51   D(16,5,7,23)           58.0732         calculate D2E/DX2 analytically  !
 ! D52   D(17,5,7,21)         -178.4279         calculate D2E/DX2 analytically  !
 ! D53   D(17,5,7,22)           62.2684         calculate D2E/DX2 analytically  !
 ! D54   D(17,5,7,23)          -58.1272         calculate D2E/DX2 analytically  !
 --------------------------------------------------------------------------------
 Trust Radius=3.00D-01 FncErr=1.00D-07 GrdErr=1.00D-07 EigMax=2.50D+02 EigMin=1.00D-04
 Number of steps in this run=      2 maximum allowed number of steps=      2.
 GradGradGradGradGradGradGradGradGradGradGradGradGradGradGradGradGradGrad

 Leave Link  103 at Mon Sep 30 10:07:29 2019, MaxMem=   671088640 cpu:               1.1 elap:               0.6
 (Enter /shared/centos7/gaussian/g16/l202.exe)
                          Input orientation:                          
 ---------------------------------------------------------------------
 Center     Atomic      Atomic             Coordinates (Angstroms)
 Number     Number       Type             X           Y           Z
 ---------------------------------------------------------------------
      1          6           0        1.010049   -1.404328    0.075713
      2          6           0        0.179312   -0.235753    0.610643
      3          6           0        0.977663    0.799829    1.413991
      4          6           0        2.137874   -1.029822   -0.884019
      5          6           0        1.474512    1.997417    0.606808
      6          6           0        1.644147   -0.384288   -2.173803
      7          6           0        2.232028    2.997709    1.470582
      8          1           0        2.697640   -1.934351   -1.130359
      9          1           0        2.846259   -0.367664   -0.380252
     10          1           0        0.342747   -2.108734   -0.429183
     11          1           0        1.435395   -1.939999    0.928650
     12          1           0       -0.604630   -0.654540    1.243811
     13          1           0       -0.338611    0.265056   -0.212028
     14          1           0        1.831443    0.308874    1.893564
     15          1           0        0.358253    1.184577    2.228077
     16          1           0        2.114833    1.664349   -0.211337
     17          1           0        0.615215    2.488172    0.141587
     18          1           0        1.131638    0.558867   -1.983350
     19          1           0        2.469153   -0.179667   -2.855672
     20          1           0        0.940915   -1.042780   -2.686956
     21          1           0        3.109950    2.532606    1.921733
     22          1           0        1.601242    3.365810    2.281257
     23          1           0        2.569040    3.856694    0.891244
 ---------------------------------------------------------------------
                    Distance matrix (angstroms):
                    1          2          3          4          5
     1  C    0.000000
     2  C    1.530308   0.000000
     3  C    2.578826   1.534654   0.000000
     4  C    1.527524   2.588538   3.158253   0.000000
     5  C    3.474141   2.581590   1.527291   3.439010   0.000000
     6  C    2.550076   3.149754   3.836483   1.524474   3.665119
     7  C    4.776696   3.925355   2.531266   4.666264   1.523326
     8  H    2.140911   3.501187   4.111907   1.091877   4.469071
     9  H    2.157370   2.848137   2.841478   1.092723   2.906817
    10  H    1.093800   2.148489   3.501449   2.143224   4.383451
    11  H    1.093327   2.140871   2.819881   2.146549   3.950741
    12  H    2.129278   1.091260   2.155876   3.491394   3.429501
    13  H    2.165299   1.093545   2.159282   2.874241   2.637988
    14  H    2.629512   2.161491   1.095431   3.098544   2.152747
    15  H    3.429277   2.159965   1.092903   4.213759   2.129614
    16  H    3.274099   2.834128   2.163848   2.776975   1.091012
    17  H    3.913028   2.798177   2.144967   3.968204   1.093464
    18  H    2.847571   2.875265   3.409354   2.178296   2.982601
    19  H    3.495969   4.154740   4.627524   2.172539   4.209249
    20  H    2.787084   3.479295   4.496034   2.164130   4.514023
    21  H    4.828750   4.239270   2.794095   4.637680   2.165667
    22  H    5.288492   4.217119   2.779435   5.443209   2.166180
    23  H    5.547422   4.747384   3.485709   5.216848   2.176190
                    6          7          8          9         10
     6  C    0.000000
     7  C    5.006501   0.000000
     8  H    2.145069   5.595258   0.000000
     9  H    2.159207   3.889551   1.743346   0.000000
    10  H    2.776879   5.766650   2.463246   3.049801   0.000000
    11  H    3.476929   5.030832   2.415122   2.485156   1.751017
    12  H    4.100015   4.630008   4.263754   3.824724   2.410625
    13  H    2.863834   4.111783   3.859993   3.251466   2.479170
    14  H    4.130258   2.751221   3.863479   2.580270   3.668269
    15  H    4.846795   2.715194   5.145828   3.924667   4.231686
    16  H    2.875714   2.149520   3.759642   2.166239   4.174194
    17  H    3.830243   2.154052   5.051045   3.661376   4.640211
    18  H    1.090174   4.369034   3.065305   2.523551   3.186515
    19  H    1.089702   5.372934   2.471403   2.511027   3.759090
    20  H    1.091546   5.939499   2.510772   3.067083   2.567411
    21  H    5.237391   1.091148   5.425769   3.712174   5.892899
    22  H    5.823456   1.091138   6.397884   4.751055   6.237060
    23  H    5.313743   1.089525   6.135114   4.420266   6.502786
                   11         12         13         14         15
    11  H    0.000000
    12  H    2.431755   0.000000
    13  H    3.051313   1.742380   0.000000
    14  H    2.478980   2.699037   3.024000   0.000000
    15  H    3.551298   2.297450   2.699121   1.746152   0.000000
    16  H    3.840902   3.858779   2.824431   2.519569   3.044092
    17  H    4.571746   3.546767   2.444805   3.049259   2.473627
    18  H    3.849201   3.860253   2.320677   3.947492   4.327327
    19  H    4.299828   5.145815   3.882032   4.816700   5.671117
    20  H    3.757941   4.241506   3.077806   4.858104   5.427538
    21  H    4.877965   4.941213   4.646213   2.565221   3.079426
    22  H    5.478015   4.701635   4.426531   3.090009   2.511100
    23  H    5.906623   5.526998   4.750948   3.759750   3.716841
                   16         17         18         19         20
    16  H    0.000000
    17  H    1.747024   0.000000
    18  H    2.308418   2.916208   0.000000
    19  H    3.243216   4.420183   1.759353   0.000000
    20  H    3.851665   4.535897   1.759747   1.763219   0.000000
    21  H    2.508807   3.065061   4.801983   5.530881   6.223192
    22  H    3.061334   2.514097   5.127020   6.301723   6.674941
    23  H    2.495669   2.500453   4.604897   5.508317   6.281652
                   21         22         23
    21  H    0.000000
    22  H    1.760593   0.000000
    23  H    1.762867   1.763444   0.000000
 Stoichiometry    C7H16
 Framework group  C1[X(C7H16)]
 Deg. of freedom    63
 Full point group                 C1      NOp   1
 RotChk:  IX=0 Diff= 2.54D-15
 Largest Abelian subgroup         C1      NOp   1
 Largest concise Abelian subgroup C1      NOp   1
                         Standard orientation:                         
 ---------------------------------------------------------------------
 Center     Atomic      Atomic             Coordinates (Angstroms)
 Number     Number       Type             X           Y           Z
 ---------------------------------------------------------------------
      1          6           0       -1.555646    0.976653    0.337975
      2          6           0       -0.358888    1.300837   -0.558974
      3          6           0        1.006999    0.956761    0.050228
      4          6           0       -1.717537   -0.493540    0.719625
      5          6           0        1.555589   -0.416195   -0.332732
      6          6           0       -1.971018   -1.403829   -0.476679
      7          6           0        2.924410   -0.679473    0.281705
      8          1           0       -2.553687   -0.580396    1.416407
      9          1           0       -0.834926   -0.831604    1.268036
     10          1           0       -2.470213    1.309531   -0.161182
     11          1           0       -1.469150    1.571203    1.251426
     12          1           0       -0.394950    2.369060   -0.779080
     13          1           0       -0.463359    0.794852   -1.522772
     14          1           0        0.947491    1.029792    1.141601
     15          1           0        1.741898    1.703993   -0.259619
     16          1           0        0.862027   -1.200850   -0.026800
     17          1           0        1.622774   -0.476000   -1.422490
     18          1           0       -1.131989   -1.399675   -1.172734
     19          1           0       -2.134302   -2.434519   -0.162889
     20          1           0       -2.855653   -1.076842   -1.026201
     21          1           0        2.871431   -0.651308    1.371203
     22          1           0        3.642928    0.079118   -0.032705
     23          1           0        3.316214   -1.653636   -0.009090
 ---------------------------------------------------------------------
 Rotational constants (GHZ):           3.6414168           1.4077570           1.1669199
 Leave Link  202 at Mon Sep 30 10:07:31 2019, MaxMem=   671088640 cpu:               2.7 elap:               1.4
 (Enter /shared/centos7/gaussian/g16/l301.exe)
 Standard basis: CC-pVTZ (5D, 7F)
 Ernie: Thresh=  0.10000D-02 Tol=  0.10000D-05 Strict=F.
 Ernie:  21 primitive shells out of 310 were deleted.
 There are   485 symmetry adapted cartesian basis functions of A   symmetry.
 There are   434 symmetry adapted basis functions of A   symmetry.
   434 basis functions,   636 primitive gaussians,   485 cartesian basis functions
    29 alpha electrons       29 beta electrons
       nuclear repulsion energy       326.8453322930 Hartrees.
 IExCor= 4336 DFT=T Ex+Corr=M062X ExCW=0 ScaHFX=  0.540000
 ScaDFX=  1.000000  1.000000  1.000000  1.000000 ScalE2=  1.000000  1.000000
 IRadAn=      5 IRanWt=     -1 IRanGd=            0 ICorTp=0 IEmpDi=  4
 NAtoms=   23 NActive=   23 NUniq=   23 SFac= 1.00D+00 NAtFMM=   60 NAOKFM=F Big=F
 Integral buffers will be    131072 words long.
 Raffenetti 2 integral format.
 Two-electron integral symmetry is turned on.
 Leave Link  301 at Mon Sep 30 10:07:31 2019, MaxMem=   671088640 cpu:               1.5 elap:               0.8
 (Enter /shared/centos7/gaussian/g16/l302.exe)
 NPDir=0 NMtPBC=     1 NCelOv=     1 NCel=       1 NClECP=     1 NCelD=      1
         NCelK=      1 NCelE2=     1 NClLst=     1 CellRange=     0.0.
 One-electron integrals computed using PRISM.
 One-electron integral symmetry used in STVInt
 NBasis=   434 RedAO= T EigKep=  3.22D-04  NBF=   434
 NBsUse=   434 1.00D-06 EigRej= -1.00D+00 NBFU=   434
 Precomputing XC quadrature grid using
 IXCGrd= 4 IRadAn=           5 IRanWt=          -1 IRanGd=           0 AccXCQ= 0.00D+00.
 Generated NRdTot=       0 NPtTot=           0 NUsed=           0 NTot=          32
 NSgBfM=   485   485   485   485   485 MxSgAt=    23 MxSgA2=    23.
 Leave Link  302 at Mon Sep 30 10:08:45 2019, MaxMem=   671088640 cpu:             146.3 elap:              73.2
 (Enter /shared/centos7/gaussian/g16/l303.exe)
 DipDrv:  MaxL=1.
 Leave Link  303 at Mon Sep 30 10:08:49 2019, MaxMem=   671088640 cpu:               7.8 elap:               3.9
 (Enter /shared/centos7/gaussian/g16/l401.exe)
 Initial guess from the checkpoint file:  "/scratch/harms.n/gauss_scrdir/Gau-39389.chk"
 B after Tr=    -0.000000   -0.000000   -0.000000
         Rot=    1.000000   -0.000000   -0.000000   -0.000000 Ang=   0.00 deg.
 Guess basis will be translated and rotated to current coordinates.
 JPrj=2 DoOrth=T DoCkMO=T.
 Leave Link  401 at Mon Sep 30 10:09:50 2019, MaxMem=   671088640 cpu:             123.0 elap:              61.5
 (Enter /shared/centos7/gaussian/g16/l502.exe)
 Integral symmetry usage will be decided dynamically.
 Closed shell SCF:
 Using DIIS extrapolation, IDIIS=  1040.
 NGot=   671088640 LenX=   670604095 LenY=   670368385
 Requested convergence on RMS density matrix=1.00D-08 within 900 cycles.
 Requested convergence on MAX density matrix=1.00D-06.
 Requested convergence on             energy=1.00D-06.
 No special actions if energy rises.
 Fock matrices will be formed incrementally for  20 cycles.

 Cycle   1  Pass 1  IDiag  1:
 FoFJK:  IHMeth= 1 ICntrl=       0 DoSepK=F KAlg= 0 I1Cent=           0 FoldK=F
 IRaf= 940000000 NMat=       1 IRICut=       1 DoRegI=T DoRafI=F ISym2E= 0 IDoP0=0 IntGTp=1.
 FoFCou: FMM=F IPFlag=           0 FMFlag=      100000 FMFlg1=           0
         NFxFlg=           0 DoJE=F BraDBF=F KetDBF=F FulRan=T
         wScrn=  0.000000 ICntrl=         0 IOpCl=  0 I1Cent=           0 NGrid=           0
         NMat0=    1 NMatS0=      1 NMatT0=    0 NMatD0=    1 NMtDS0=    0 NMtDT0=    0
 Symmetry not used in FoFCou.
 E= -276.337161460224    
 DIIS: error= 1.37D-08 at cycle   1 NSaved=   1.
 NSaved= 1 IEnMin= 1 EnMin= -276.337161460224     IErMin= 1 ErrMin= 1.37D-08
 ErrMax= 1.37D-08  0.00D+00 EMaxC= 1.00D-01 BMatC= 1.25D-13 BMatP= 1.25D-13
 IDIUse=1 WtCom= 1.00D+00 WtEn= 0.00D+00
 Coeff-Com:  0.100D+01
 Coeff:      0.100D+01
 Gap=     0.429 Goal=   None    Shift=    0.000
 RMSDP=1.52D-09 MaxDP=4.90D-08              OVMax= 1.20D-07

 SCF Done:  E(RM062X) =  -276.337161460     A.U. after    1 cycles
            NFock=  1  Conv=0.15D-08     -V/T= 2.0065
 KE= 2.745422400134D+02 PE=-1.292179956379D+03 EE= 4.144552226119D+02
 Leave Link  502 at Mon Sep 30 10:11:52 2019, MaxMem=   671088640 cpu:             242.9 elap:             121.5
 (Enter /shared/centos7/gaussian/g16/l801.exe)
 DoSCS=F DFT=T ScalE2(SS,OS)=  1.000000  1.000000
 Range of M.O.s used for correlation:     1   434
 NBasis=   434 NAE=    29 NBE=    29 NFC=     0 NFV=     0
 NROrb=    434 NOA=    29 NOB=    29 NVA=   405 NVB=   405

 **** Warning!!: The largest alpha MO coefficient is  0.12405448D+02

 Leave Link  801 at Mon Sep 30 10:11:53 2019, MaxMem=   671088640 cpu:               1.5 elap:               0.8
 (Enter /shared/centos7/gaussian/g16/l1101.exe)
 Using compressed storage, NAtomX=    23.
 Will process     24 centers per pass.
 Leave Link 1101 at Mon Sep 30 10:12:52 2019, MaxMem=   671088640 cpu:              92.3 elap:              59.6
 (Enter /shared/centos7/gaussian/g16/l1102.exe)
 Symmetrizing basis deriv contribution to polar:
 IMax=3 JMax=2 DiffMx= 0.00D+00
 Leave Link 1102 at Mon Sep 30 10:12:57 2019, MaxMem=   671088640 cpu:               8.5 elap:               4.3
 (Enter /shared/centos7/gaussian/g16/l1110.exe)
 Forming Gx(P) for the SCF density, NAtomX=    23.
 Integral derivatives from FoFJK, PRISM(SPDF).
 Do as many integral derivatives as possible in FoFJK.
 G2DrvN: MDV=     671086848.
 G2DrvN: will do    24 centers at a time, making    1 passes.
 Calling FoFCou, ICntrl=  3107 FMM=F I1Cent=   0 AccDes= 0.00D+00.
 FoFJK:  IHMeth= 1 ICntrl=    3107 DoSepK=F KAlg= 0 I1Cent=           0 FoldK=F
 IRaf=         0 NMat=       1 IRICut=       1 DoRegI=T DoRafI=F ISym2E= 0 IDoP0=0 IntGTp=1.
 FoFCou: FMM=F IPFlag=           0 FMFlag=      100000 FMFlg1=           0
         NFxFlg=           0 DoJE=F BraDBF=F KetDBF=F FulRan=T
         wScrn=  0.000000 ICntrl=      3107 IOpCl=  0 I1Cent=           0 NGrid=           0
         NMat0=    1 NMatS0=      1 NMatT0=    0 NMatD0=    1 NMtDS0=    0 NMtDT0=    0
 Symmetry not used in FoFCou.
 End of G2Drv F.D. properties file   721 does not exist.
 End of G2Drv F.D. properties file   722 does not exist.
 End of G2Drv F.D. properties file   788 does not exist.
 Leave Link 1110 at Mon Sep 30 10:57:44 2019, MaxMem=   671088640 cpu:            5374.9 elap:            2687.6
 (Enter /shared/centos7/gaussian/g16/l1002.exe)
 Minotr:  Closed shell wavefunction.
          IDoAtm=11111111111111111111111
          Direct CPHF calculation.
          Differentiating once with respect to electric field.
                with respect to dipole field.
          Differentiating once with respect to nuclear coordinates.
          Requested convergence is 1.0D-08 RMS, and 1.0D-07 maximum.
          Secondary convergence is 1.0D-12 RMS, and 1.0D-12 maximum.
          NewPWx=T KeepS1=F KeepF1=F KeepIn=T MapXYZ=F SortEE=F KeepMc=T.
         6925 words used for storage of precomputed grid.
 Two-electron integrals replicated using symmetry.
          MDV=     671088640 using IRadAn=       1.
          Solving linear equations simultaneously, MaxMat=     380.
 FoF2E skips out because all densities are zero.
 CalDSu exits because no D1Ps are significant.
 FoFJK:  IHMeth= 1 ICntrl=       0 DoSepK=F KAlg= 0 I1Cent=           0 FoldK=F
 IRaf= 920000000 NMat=      69 IRICut=     172 DoRegI=T DoRafI=T ISym2E= 2 IDoP0=3 IntGTp=3.
 FoFCou: FMM=F IPFlag=           0 FMFlag=      100000 FMFlg1=           0
         NFxFlg=           0 DoJE=F BraDBF=F KetDBF=F FulRan=T
         wScrn=  0.000000 ICntrl=         0 IOpCl=  0 I1Cent=           0 NGrid=           0
         NMat0=   69 NMatS0=     69 NMatT0=    0 NMatD0=   69 NMtDS0=    0 NMtDT0=    0
 Integrals replicated using symmetry in FoFCou.
 Raff kept on since  88.65% of shell-pairs survive, threshold=   0.20 IRatSp=89.
          There are    72 degrees of freedom in the 1st order CPHF.  IDoFFX=6 NUNeed=     3.
     69 vectors produced by pass  0 Test12= 1.63D-14 1.39D-09 XBig12= 3.71D+01 1.14D+00.
 AX will form    69 AO Fock derivatives at one time.
     69 vectors produced by pass  1 Test12= 1.63D-14 1.39D-09 XBig12= 1.68D+00 1.73D-01.
     69 vectors produced by pass  2 Test12= 1.63D-14 1.39D-09 XBig12= 2.59D-02 1.95D-02.
     69 vectors produced by pass  3 Test12= 1.63D-14 1.39D-09 XBig12= 1.60D-04 1.11D-03.
