 Entering Gaussian System, Link 0=g16
 Input=med/species/COC=CO/conformers/COC=CO_5.com
 Output=med/species/COC=CO/conformers/COC=CO_5.log
 Initial command:
 /shared/centos7/gaussian/g16/l1.exe "/scratch/harms.n/gauss_scrdir/Gau-29709.inp" -scrdir="/scratch/harms.n/gauss_scrdir/"
 Entering Link 1 = /shared/centos7/gaussian/g16/l1.exe PID=     29710.
  
 Copyright (c) 1988,1990,1992,1993,1995,1998,2003,2009,2016,
            Gaussian, Inc.  All Rights Reserved.
  
 This is part of the Gaussian(R) 16 program.  It is based on
 the Gaussian(R) 09 system (copyright 2009, Gaussian, Inc.),
 the Gaussian(R) 03 system (copyright 2003, Gaussian, Inc.),
 the Gaussian(R) 98 system (copyright 1998, Gaussian, Inc.),
 the Gaussian(R) 94 system (copyright 1995, Gaussian, Inc.),
 the Gaussian 92(TM) system (copyright 1992, Gaussian, Inc.),
 the Gaussian 90(TM) system (copyright 1990, Gaussian, Inc.),
 the Gaussian 88(TM) system (copyright 1988, Gaussian, Inc.),
 the Gaussian 86(TM) system (copyright 1986, Carnegie Mellon
 University), and the Gaussian 82(TM) system (copyright 1983,
 Carnegie Mellon University). Gaussian is a federally registered
 trademark of Gaussian, Inc.
  
 This software contains proprietary and confidential information,
 including trade secrets, belonging to Gaussian, Inc.
  
 This software is provided under written license and may be
 used, copied, transmitted, or stored only in accord with that
 written license.
  
 The following legend is applicable only to US Government
 contracts under FAR:
  
                    RESTRICTED RIGHTS LEGEND
  
 Use, reproduction and disclosure by the US Government is
 subject to restrictions as set forth in subparagraphs (a)
 and (c) of the Commercial Computer Software - Restricted
 Rights clause in FAR 52.227-19.
  
 Gaussian, Inc.
 340 Quinnipiac St., Bldg. 40, Wallingford CT 06492
  
  
 ---------------------------------------------------------------
 Warning -- This program may not be used in any manner that
 competes with the business of Gaussian, Inc. or will provide
 assistance to any competitor of Gaussian, Inc.  The licensee
 of this program is prohibited from giving any competitor of
 Gaussian, Inc. access to this program.  By using this program,
 the user acknowledges that Gaussian, Inc. is engaged in the
 business of creating and licensing software in the field of
 computational chemistry and represents and warrants to the
 licensee that it is not a competitor of Gaussian, Inc. and that
 it will not use this program in any manner prohibited above.
 ---------------------------------------------------------------
  

 Cite this work as:
 Gaussian 16, Revision A.03,
 M. J. Frisch, G. W. Trucks, H. B. Schlegel, G. E. Scuseria, 
 M. A. Robb, J. R. Cheeseman, G. Scalmani, V. Barone, 
 G. A. Petersson, H. Nakatsuji, X. Li, M. Caricato, A. V. Marenich, 
 J. Bloino, B. G. Janesko, R. Gomperts, B. Mennucci, H. P. Hratchian, 
 J. V. Ortiz, A. F. Izmaylov, J. L. Sonnenberg, D. Williams-Young, 
 F. Ding, F. Lipparini, F. Egidi, J. Goings, B. Peng, A. Petrone, 
 T. Henderson, D. Ranasinghe, V. G. Zakrzewski, J. Gao, N. Rega, 
 G. Zheng, W. Liang, M. Hada, M. Ehara, K. Toyota, R. Fukuda, 
 J. Hasegawa, M. Ishida, T. Nakajima, Y. Honda, O. Kitao, H. Nakai, 
 T. Vreven, K. Throssell, J. A. Montgomery, Jr., J. E. Peralta, 
 F. Ogliaro, M. J. Bearpark, J. J. Heyd, E. N. Brothers, K. N. Kudin, 
 V. N. Staroverov, T. A. Keith, R. Kobayashi, J. Normand, 
 K. Raghavachari, A. P. Rendell, J. C. Burant, S. S. Iyengar, 
 J. Tomasi, M. Cossi, J. M. Millam, M. Klene, C. Adamo, R. Cammi, 
 J. W. Ochterski, R. L. Martin, K. Morokuma, O. Farkas, 
 J. B. Foresman, and D. J. Fox, Gaussian, Inc., Wallingford CT, 2016.
 
 ******************************************
 Gaussian 16:  EM64L-G16RevA.03 25-Dec-2016
                 5-Sep-2019 
 ******************************************
 %nprocshared=20
 Will use up to   20 processors via shared memory.
 %mem=5GB
 ----------------------------------------------------------------------
 #p m062x/cc-pVTZ opt=(calcfc,maxcycles=900,Tight) freq IOP(7/33=1,2/16
 =3) scf=(maxcycle=900)
 ----------------------------------------------------------------------
 1/6=900,7=10,10=4,18=20,19=15,26=3,38=1/1,3;
 2/9=110,12=2,16=3,17=6,18=5,40=1/2;
 3/5=16,6=1,11=2,25=1,30=1,71=2,74=-55,140=1/1,2,3;
 4//1;
 5/5=2,7=900,38=5/2;
 8/6=4,10=90,11=11/1;
 11/6=1,8=1,9=11,15=111,16=1/1,2,10;
 10/6=1,13=1/2;
 6/7=2,8=2,9=2,10=2,28=1/1;
 7/10=1,18=20,25=1,33=1/1,2,3,16;
 1/6=900,7=10,10=4,18=20,19=15,26=3/3(2);
 2/9=110,16=3/2;
 99//99;
 2/9=110,16=3/2;
 3/5=16,6=1,11=2,25=1,30=1,71=1,74=-55/1,2,3;
 4/5=5,16=3,69=1/1;
 5/5=2,7=900,38=5/2;
 7/33=1/1,2,3,16;
 1/6=900,7=10,18=20,19=15,26=3/3(-5);
 2/9=110,16=3/2;
 6/7=2,8=2,9=2,10=2,19=2,28=1/1;
 99/9=1/99;
 Leave Link    1 at Thu Sep  5 14:30:55 2019, MaxMem=   671088640 cpu:               3.7 elap:               2.8
 (Enter /shared/centos7/gaussian/g16/l101.exe)
 ------------------------------
 Gaussian input prepared by ASE
 ------------------------------
 Symbolic Z-matrix:
 Charge =  0 Multiplicity = 1
 O                     0.23216  -0.75397   1.08664 
 O                     0.37913   2.86405   0.45611 
 C                    -1.17659  -0.87161   0.87462 
 C                     0.66281   0.55947   0.94883 
 C                    -0.08505   1.574     0.58498 
 H                    -1.44655  -1.95926   1.00329 
 H                    -1.7429   -0.2549    1.62937 
 H                    -1.44869  -0.5461   -0.12963 
 H                     1.72226   0.66192   1.17575 
 H                    -1.12553   1.49203   0.35355 
 H                     1.36193   2.85337   0.71691 
 
 ITRead=  0  0  0  0  0  0  0  0  0  0  0
 MicOpt= -1 -1 -1 -1 -1 -1 -1 -1 -1 -1 -1
 NAtoms=     11 NQM=       11 NQMF=       0 NMMI=      0 NMMIF=      0
                NMic=       0 NMicF=      0.
                    Isotopes and Nuclear Properties:
 (Nuclear quadrupole moments (NQMom) in fm**2, nuclear magnetic moments (NMagM)
  in nuclear magnetons)

  Atom         1           2           3           4           5           6           7           8           9          10
 IAtWgt=          16          16          12          12          12           1           1           1           1           1
 AtmWgt=  15.9949146  15.9949146  12.0000000  12.0000000  12.0000000   1.0078250   1.0078250   1.0078250   1.0078250   1.0078250
 NucSpn=           0           0           0           0           0           1           1           1           1           1
 AtZEff=  -0.0000000  -0.0000000  -0.0000000  -0.0000000  -0.0000000  -0.0000000  -0.0000000  -0.0000000  -0.0000000  -0.0000000
 NQMom=    0.0000000   0.0000000   0.0000000   0.0000000   0.0000000   0.0000000   0.0000000   0.0000000   0.0000000   0.0000000
 NMagM=    0.0000000   0.0000000   0.0000000   0.0000000   0.0000000   2.7928460   2.7928460   2.7928460   2.7928460   2.7928460
 AtZNuc=   8.0000000   8.0000000   6.0000000   6.0000000   6.0000000   1.0000000   1.0000000   1.0000000   1.0000000   1.0000000

  Atom        11
 IAtWgt=           1
 AtmWgt=   1.0078250
 NucSpn=           1
 AtZEff=  -0.0000000
 NQMom=    0.0000000
 NMagM=    2.7928460
 AtZNuc=   1.0000000
 Leave Link  101 at Thu Sep  5 14:30:58 2019, MaxMem=   671088640 cpu:               3.7 elap:               3.7
 (Enter /shared/centos7/gaussian/g16/l103.exe)

 GradGradGradGradGradGradGradGradGradGradGradGradGradGradGradGradGradGrad
 Berny optimization.
 Initialization pass.
                           ----------------------------
                           !    Initial Parameters    !
                           ! (Angstroms and Degrees)  !
 --------------------------                            --------------------------
 ! Name  Definition              Value          Derivative Info.                !
 --------------------------------------------------------------------------------
 ! R1    R(1,3)                  1.4295         calculate D2E/DX2 analytically  !
 ! R2    R(1,4)                  1.3891         calculate D2E/DX2 analytically  !
 ! R3    R(2,5)                  1.3771         calculate D2E/DX2 analytically  !
 ! R4    R(2,11)                 1.0169         calculate D2E/DX2 analytically  !
 ! R5    R(3,6)                  1.128          calculate D2E/DX2 analytically  !
 ! R6    R(3,7)                  1.1272         calculate D2E/DX2 analytically  !
 ! R7    R(3,8)                  1.0902         calculate D2E/DX2 analytically  !
 ! R8    R(4,5)                  1.3119         calculate D2E/DX2 analytically  !
 ! R9    R(4,9)                  1.0883         calculate D2E/DX2 analytically  !
 ! R10   R(5,10)                 1.0691         calculate D2E/DX2 analytically  !
 ! A1    A(3,1,4)              111.6309         calculate D2E/DX2 analytically  !
 ! A2    A(5,2,11)             106.9747         calculate D2E/DX2 analytically  !
 ! A3    A(1,3,6)              107.3543         calculate D2E/DX2 analytically  !
 ! A4    A(1,3,7)              110.5344         calculate D2E/DX2 analytically  !
 ! A5    A(1,3,8)              110.9793         calculate D2E/DX2 analytically  !
 ! A6    A(6,3,7)              109.3243         calculate D2E/DX2 analytically  !
 ! A7    A(6,3,8)              109.4656         calculate D2E/DX2 analytically  !
 ! A8    A(7,3,8)              109.1494         calculate D2E/DX2 analytically  !
 ! A9    A(1,4,5)              125.5926         calculate D2E/DX2 analytically  !
 ! A10   A(1,4,9)              111.7233         calculate D2E/DX2 analytically  !
 ! A11   A(5,4,9)              122.683          calculate D2E/DX2 analytically  !
 ! A12   A(2,5,4)              123.9371         calculate D2E/DX2 analytically  !
 ! A13   A(2,5,10)             112.3122         calculate D2E/DX2 analytically  !
 ! A14   A(4,5,10)             123.7507         calculate D2E/DX2 analytically  !
 ! D1    D(4,1,3,6)           -179.9812         calculate D2E/DX2 analytically  !
 ! D2    D(4,1,3,7)            -60.8197         calculate D2E/DX2 analytically  !
 ! D3    D(4,1,3,8)             60.4313         calculate D2E/DX2 analytically  !
 ! D4    D(3,1,4,5)             -4.218          calculate D2E/DX2 analytically  !
 ! D5    D(3,1,4,9)            176.1472         calculate D2E/DX2 analytically  !
 ! D6    D(11,2,5,4)            -1.5243         calculate D2E/DX2 analytically  !
 ! D7    D(11,2,5,10)          178.5401         calculate D2E/DX2 analytically  !
 ! D8    D(1,4,5,2)           -179.8398         calculate D2E/DX2 analytically  !
 ! D9    D(1,4,5,10)             0.0885         calculate D2E/DX2 analytically  !
 ! D10   D(9,4,5,2)             -0.2429         calculate D2E/DX2 analytically  !
 ! D11   D(9,4,5,10)           179.6854         calculate D2E/DX2 analytically  !
 --------------------------------------------------------------------------------
 Trust Radius=3.00D-01 FncErr=1.00D-07 GrdErr=1.00D-06 EigMax=2.50D+02 EigMin=1.00D-04
 Number of steps in this run=    100 maximum allowed number of steps=    100.
 GradGradGradGradGradGradGradGradGradGradGradGradGradGradGradGradGradGrad

 Leave Link  103 at Thu Sep  5 14:31:00 2019, MaxMem=   671088640 cpu:               1.5 elap:               1.1
 (Enter /shared/centos7/gaussian/g16/l202.exe)
                          Input orientation:                          
 ---------------------------------------------------------------------
 Center     Atomic      Atomic             Coordinates (Angstroms)
 Number     Number       Type             X           Y           Z
 ---------------------------------------------------------------------
      1          8           0        0.232156   -0.753975    1.086640
      2          8           0        0.379134    2.864053    0.456110
      3          6           0       -1.176594   -0.871608    0.874616
      4          6           0        0.662808    0.559468    0.948834
      5          6           0       -0.085054    1.574005    0.584980
      6          1           0       -1.446550   -1.959265    1.003286
      7          1           0       -1.742903   -0.254896    1.629369
      8          1           0       -1.448687   -0.546102   -0.129626
      9          1           0        1.722262    0.661915    1.175746
     10          1           0       -1.125531    1.492026    0.353546
     11          1           0        1.361929    2.853372    0.716905
 ---------------------------------------------------------------------
                    Distance matrix (angstroms):
                    1          2          3          4          5
     1  O    0.000000
     2  O    3.675499   0.000000
     3  C    1.429464   4.068242   0.000000
     4  C    1.389094   2.373680   2.331713   0.000000
     5  C    2.402451   1.377063   2.693765   1.311858   0.000000
     6  H    2.068266   5.186223   1.128020   3.285783   3.809546
     7  H    2.108196   3.950622   1.127250   2.629403   2.680315
     8  H    2.085125   3.913204   1.090179   2.616060   2.620116
     9  H    2.057450   2.677925   3.293287   1.088314   2.108863
    10  H    2.724932   2.038870   2.420926   2.102899   1.069052
    11  H    3.798163   1.016866   4.510482   2.409265   1.935961
                    6          7          8          9         10
     6  H    0.000000
     7  H    1.839749   0.000000
     8  H    1.811221   1.807048   0.000000
     9  H    4.116030   3.612989   3.635687   0.000000
    10  H    3.526559   2.249579   2.119398   3.078152   0.000000
    11  H    5.579520   4.487082   4.491392   2.267787   2.858802
                   11
    11  H    0.000000
 Stoichiometry    C3H6O2
 Framework group  C1[X(C3H6O2)]
 Deg. of freedom    27
 Full point group                 C1      NOp   1
 Largest Abelian subgroup         C1      NOp   1
 Largest concise Abelian subgroup C1      NOp   1
                         Standard orientation:                         
 ---------------------------------------------------------------------
 Center     Atomic      Atomic             Coordinates (Angstroms)
 Number     Number       Type             X           Y           Z
 ---------------------------------------------------------------------
      1          8           0        1.297546    0.704554   -0.021994
      2          8           0       -2.241391   -0.287706    0.003266
      3          6           0        1.812543   -0.628394    0.015366
      4          6           0       -0.091232    0.717864    0.004526
      5          6           0       -0.865571   -0.340768   -0.021330
      6          1           0        2.937921   -0.555097   -0.008758
      7          1           0        1.492880   -1.149387    0.962506
      8          1           0        1.467498   -1.204358   -0.843528
      9          1           0       -0.483659    1.732193    0.044095
     10          1           0       -0.498808   -1.343986   -0.065072
     11          1           0       -2.499506    0.693642    0.069200
 ---------------------------------------------------------------------
 Rotational constants (GHZ):          16.1411867           2.8450473           2.4581938
 Leave Link  202 at Thu Sep  5 14:31:02 2019, MaxMem=   671088640 cpu:               2.6 elap:               2.6
 (Enter /shared/centos7/gaussian/g16/l301.exe)
 Standard basis: CC-pVTZ (5D, 7F)
 Ernie: Thresh=  0.10000D-02 Tol=  0.10000D-05 Strict=F.
 Ernie:  15 primitive shells out of 178 were deleted.
 There are   265 symmetry adapted cartesian basis functions of A   symmetry.
 There are   234 symmetry adapted basis functions of A   symmetry.
   234 basis functions,   362 primitive gaussians,   265 cartesian basis functions
    20 alpha electrons       20 beta electrons
       nuclear repulsion energy       175.4474265567 Hartrees.
 IExCor= 4336 DFT=T Ex+Corr=M062X ExCW=0 ScaHFX=  0.540000
 ScaDFX=  1.000000  1.000000  1.000000  1.000000 ScalE2=  1.000000  1.000000
 IRadAn=      5 IRanWt=     -1 IRanGd=            0 ICorTp=0 IEmpDi=  4
 NAtoms=   11 NActive=   11 NUniq=   11 SFac= 1.00D+00 NAtFMM=   60 NAOKFM=F Big=F
 Integral buffers will be    131072 words long.
 Raffenetti 2 integral format.
 Two-electron integral symmetry is turned on.
 Leave Link  301 at Thu Sep  5 14:31:04 2019, MaxMem=   671088640 cpu:               3.1 elap:               1.7
 (Enter /shared/centos7/gaussian/g16/l302.exe)
 NPDir=0 NMtPBC=     1 NCelOv=     1 NCel=       1 NClECP=     1 NCelD=      1
         NCelK=      1 NCelE2=     1 NClLst=     1 CellRange=     0.0.
 One-electron integrals computed using PRISM.
 One-electron integral symmetry used in STVInt
 NBasis=   234 RedAO= T EigKep=  3.63D-04  NBF=   234
 NBsUse=   234 1.00D-06 EigRej= -1.00D+00 NBFU=   234
 Precomputing XC quadrature grid using
 IXCGrd= 4 IRadAn=           5 IRanWt=          -1 IRanGd=           0 AccXCQ= 0.00D+00.
 Generated NRdTot=       0 NPtTot=           0 NUsed=           0 NTot=          32
 NSgBfM=   265   265   265   265   265 MxSgAt=    11 MxSgA2=    11.
 Leave Link  302 at Thu Sep  5 14:32:52 2019, MaxMem=   671088640 cpu:             107.8 elap:             107.8
 (Enter /shared/centos7/gaussian/g16/l303.exe)
 DipDrv:  MaxL=1.
 Leave Link  303 at Thu Sep  5 14:32:59 2019, MaxMem=   671088640 cpu:               7.6 elap:               7.6
 (Enter /shared/centos7/gaussian/g16/l401.exe)
 ExpMin= 1.03D-01 ExpMax= 1.53D+04 ExpMxC= 5.22D+02 IAcc=3 IRadAn=         5 AccDes= 0.00D+00
 Harris functional with IExCor= 1009 and IRadAn=       5 diagonalized for initial guess.
 HarFok:  IExCor= 1009 AccDes= 0.00D+00 IRadAn=         5 IDoV= 1 UseB2=F ITyADJ=14
 ICtDFT=  3500011 ScaDFX=  1.000000  1.000000  1.000000  1.000000
 FoFCou: FMM=F IPFlag=           0 FMFlag=      100000 FMFlg1=           0
         NFxFlg=           0 DoJE=T BraDBF=F KetDBF=T FulRan=T
         wScrn=  0.000000 ICntrl=       500 IOpCl=  0 I1Cent=   200000004 NGrid=           0
         NMat0=    1 NMatS0=      1 NMatT0=    0 NMatD0=    1 NMtDS0=    0 NMtDT0=    0
 Petite list used in FoFCou.
 Harris En= -268.197907604933    
 JPrj=0 DoOrth=F DoCkMO=F.
 Leave Link  401 at Thu Sep  5 14:33:48 2019, MaxMem=   671088640 cpu:              50.4 elap:              48.9
 (Enter /shared/centos7/gaussian/g16/l502.exe)
 Keep R1 ints in memory in canonical form, NReq=399924305.
 FoFCou: FMM=F IPFlag=           0 FMFlag=           0 FMFlg1=           0
         NFxFlg=           0 DoJE=F BraDBF=F KetDBF=F FulRan=T
         wScrn=  0.000000 ICntrl=       600 IOpCl=  0 I1Cent=           0 NGrid=           0
         NMat0=    1 NMatS0=  27495 NMatT0=    0 NMatD0=    1 NMtDS0=    0 NMtDT0=    0
 Symmetry not used in FoFCou.
 Two-electron integral symmetry not used.
 Closed shell SCF:
 Using DIIS extrapolation, IDIIS=  1040.
 NGot=   671088640 LenX=   292939207 LenY=   292868541
 Requested convergence on RMS density matrix=1.00D-08 within 900 cycles.
 Requested convergence on MAX density matrix=1.00D-06.
 Requested convergence on             energy=1.00D-06.
 No special actions if energy rises.
 Integral accuracy reduced to 1.0D-05 until final iterations.

 Cycle   1  Pass 0  IDiag  1:
 E= -268.189275770960    
 DIIS: error= 2.30D-02 at cycle   1 NSaved=   1.
 NSaved= 1 IEnMin= 1 EnMin= -268.189275770960     IErMin= 1 ErrMin= 2.30D-02
 ErrMax= 2.30D-02  0.00D+00 EMaxC= 1.00D-01 BMatC= 1.71D-01 BMatP= 1.71D-01
 IDIUse=3 WtCom= 7.70D-01 WtEn= 2.30D-01
 Coeff-Com:  0.100D+01
 Coeff-En:   0.100D+01
 Coeff:      0.100D+01
 Gap=     0.358 Goal=   None    Shift=    0.000
 GapD=    0.358 DampG=1.000 DampE=0.500 DampFc=0.5000 IDamp=-1.
 Damping current iteration by 5.00D-01
 RMSDP=1.96D-03 MaxDP=6.35D-02              OVMax= 1.16D-01

 Cycle   2  Pass 0  IDiag  1:
 E= -268.253720871904     Delta-E=       -0.064445100945 Rises=F Damp=T
 DIIS: error= 6.83D-03 at cycle   2 NSaved=   2.
 NSaved= 2 IEnMin= 2 EnMin= -268.253720871904     IErMin= 2 ErrMin= 6.83D-03
 ErrMax= 6.83D-03  0.00D+00 EMaxC= 1.00D-01 BMatC= 1.65D-02 BMatP= 1.71D-01
 IDIUse=3 WtCom= 9.32D-01 WtEn= 6.83D-02
 Coeff-Com: -0.175D+00 0.117D+01
 Coeff-En:   0.000D+00 0.100D+01
 Coeff:     -0.163D+00 0.116D+01
 Gap=     0.333 Goal=   None    Shift=    0.000
 RMSDP=3.90D-04 MaxDP=9.33D-03 DE=-6.44D-02 OVMax= 5.31D-02

 Cycle   3  Pass 0  IDiag  1:
 E= -268.310236465417     Delta-E=       -0.056515593512 Rises=F Damp=F
 DIIS: error= 3.76D-03 at cycle   3 NSaved=   3.
 NSaved= 3 IEnMin= 3 EnMin= -268.310236465417     IErMin= 3 ErrMin= 3.76D-03
 ErrMax= 3.76D-03  0.00D+00 EMaxC= 1.00D-01 BMatC= 3.39D-03 BMatP= 1.65D-02
 IDIUse=3 WtCom= 9.62D-01 WtEn= 3.76D-02
 Coeff-Com: -0.112D+00 0.374D+00 0.739D+00
 Coeff-En:   0.000D+00 0.000D+00 0.100D+01
 Coeff:     -0.108D+00 0.360D+00 0.749D+00
 Gap=     0.334 Goal=   None    Shift=    0.000
 RMSDP=1.65D-04 MaxDP=5.79D-03 DE=-5.65D-02 OVMax= 1.93D-02

 Cycle   4  Pass 0  IDiag  1:
 E= -268.311781140172     Delta-E=       -0.001544674755 Rises=F Damp=F
 DIIS: error= 1.76D-03 at cycle   4 NSaved=   4.
 NSaved= 4 IEnMin= 4 EnMin= -268.311781140172     IErMin= 4 ErrMin= 1.76D-03
 ErrMax= 1.76D-03  0.00D+00 EMaxC= 1.00D-01 BMatC= 9.00D-04 BMatP= 3.39D-03
 IDIUse=3 WtCom= 9.82D-01 WtEn= 1.76D-02
 Coeff-Com: -0.381D-01 0.968D-01 0.388D+00 0.553D+00
 Coeff-En:   0.000D+00 0.000D+00 0.218D+00 0.782D+00
 Coeff:     -0.374D-01 0.951D-01 0.385D+00 0.557D+00
 Gap=     0.329 Goal=   None    Shift=    0.000
 RMSDP=7.85D-05 MaxDP=2.96D-03 DE=-1.54D-03 OVMax= 9.43D-03

 Cycle   5  Pass 0  IDiag  1:
 E= -268.312471483934     Delta-E=       -0.000690343762 Rises=F Damp=F
 DIIS: error= 2.50D-04 at cycle   5 NSaved=   5.
 NSaved= 5 IEnMin= 5 EnMin= -268.312471483934     IErMin= 5 ErrMin= 2.50D-04
 ErrMax= 2.50D-04  0.00D+00 EMaxC= 1.00D-01 BMatC= 1.78D-05 BMatP= 9.00D-04
 IDIUse=3 WtCom= 9.98D-01 WtEn= 2.50D-03
 Coeff-Com: -0.577D-02 0.113D-01 0.854D-01 0.193D+00 0.716D+00
 Coeff-En:   0.000D+00 0.000D+00 0.000D+00 0.000D+00 0.100D+01
 Coeff:     -0.575D-02 0.113D-01 0.852D-01 0.192D+00 0.717D+00
 Gap=     0.330 Goal=   None    Shift=    0.000
 RMSDP=1.43D-05 MaxDP=4.32D-04 DE=-6.90D-04 OVMax= 1.81D-03

 Cycle   6  Pass 0  IDiag  1:
 E= -268.312485063361     Delta-E=       -0.000013579427 Rises=F Damp=F
 DIIS: error= 7.29D-05 at cycle   6 NSaved=   6.
 NSaved= 6 IEnMin= 6 EnMin= -268.312485063361     IErMin= 6 ErrMin= 7.29D-05
 ErrMax= 7.29D-05  0.00D+00 EMaxC= 1.00D-01 BMatC= 2.73D-06 BMatP= 1.78D-05
 IDIUse=1 WtCom= 1.00D+00 WtEn= 0.00D+00
 Coeff-Com: -0.119D-02 0.119D-02 0.266D-01 0.772D-01 0.377D+00 0.520D+00
 Coeff:     -0.119D-02 0.119D-02 0.266D-01 0.772D-01 0.377D+00 0.520D+00
 Gap=     0.330 Goal=   None    Shift=    0.000
 RMSDP=4.41D-06 MaxDP=1.34D-04 DE=-1.36D-05 OVMax= 4.94D-04

 Initial convergence to 1.0D-05 achieved.  Increase integral accuracy.
 Cycle   7  Pass 1  IDiag  1:
 E= -268.312509596109     Delta-E=       -0.000024532749 Rises=F Damp=F
 DIIS: error= 1.98D-05 at cycle   1 NSaved=   1.
 NSaved= 1 IEnMin= 1 EnMin= -268.312509596109     IErMin= 1 ErrMin= 1.98D-05
 ErrMax= 1.98D-05  0.00D+00 EMaxC= 1.00D-01 BMatC= 2.46D-07 BMatP= 2.46D-07
 IDIUse=1 WtCom= 1.00D+00 WtEn= 0.00D+00
 Coeff-Com:  0.100D+01
 Coeff:      0.100D+01
 Gap=     0.330 Goal=   None    Shift=    0.000
 RMSDP=4.41D-06 MaxDP=1.34D-04 DE=-2.45D-05 OVMax= 1.96D-04

 Cycle   8  Pass 1  IDiag  1:
 E= -268.312509706087     Delta-E=       -0.000000109978 Rises=F Damp=F
 DIIS: error= 1.86D-05 at cycle   2 NSaved=   2.
 NSaved= 2 IEnMin= 2 EnMin= -268.312509706087     IErMin= 2 ErrMin= 1.86D-05
 ErrMax= 1.86D-05  0.00D+00 EMaxC= 1.00D-01 BMatC= 1.44D-07 BMatP= 2.46D-07
 IDIUse=1 WtCom= 1.00D+00 WtEn= 0.00D+00
 Coeff-Com:  0.406D+00 0.594D+00
 Coeff:      0.406D+00 0.594D+00
 Gap=     0.330 Goal=   None    Shift=    0.000
 RMSDP=1.31D-06 MaxDP=3.41D-05 DE=-1.10D-07 OVMax= 1.42D-04

 Cycle   9  Pass 1  IDiag  1:
 E= -268.312509789056     Delta-E=       -0.000000082968 Rises=F Damp=F
 DIIS: error= 8.66D-06 at cycle   3 NSaved=   3.
 NSaved= 3 IEnMin= 3 EnMin= -268.312509789056     IErMin= 3 ErrMin= 8.66D-06
 ErrMax= 8.66D-06  0.00D+00 EMaxC= 1.00D-01 BMatC= 2.77D-08 BMatP= 1.44D-07
 IDIUse=1 WtCom= 1.00D+00 WtEn= 0.00D+00
 Coeff-Com: -0.388D-01 0.295D+00 0.743D+00
 Coeff:     -0.388D-01 0.295D+00 0.743D+00
 Gap=     0.330 Goal=   None    Shift=    0.000
 RMSDP=4.97D-07 MaxDP=1.43D-05 DE=-8.30D-08 OVMax= 5.49D-05

 Cycle  10  Pass 1  IDiag  1:
 E= -268.312509810477     Delta-E=       -0.000000021421 Rises=F Damp=F
 DIIS: error= 1.26D-06 at cycle   4 NSaved=   4.
 NSaved= 4 IEnMin= 4 EnMin= -268.312509810477     IErMin= 4 ErrMin= 1.26D-06
 ErrMax= 1.26D-06  0.00D+00 EMaxC= 1.00D-01 BMatC= 4.85D-10 BMatP= 2.77D-08
 IDIUse=1 WtCom= 1.00D+00 WtEn= 0.00D+00
 Coeff-Com: -0.201D-01 0.756D-01 0.237D+00 0.708D+00
 Coeff:     -0.201D-01 0.756D-01 0.237D+00 0.708D+00
 Gap=     0.330 Goal=   None    Shift=    0.000
 RMSDP=8.10D-08 MaxDP=3.08D-06 DE=-2.14D-08 OVMax= 8.54D-06

 Cycle  11  Pass 1  IDiag  1:
 E= -268.312509810894     Delta-E=       -0.000000000417 Rises=F Damp=F
 DIIS: error= 5.79D-07 at cycle   5 NSaved=   5.
 NSaved= 5 IEnMin= 5 EnMin= -268.312509810894     IErMin= 5 ErrMin= 5.79D-07
 ErrMax= 5.79D-07  0.00D+00 EMaxC= 1.00D-01 BMatC= 1.31D-10 BMatP= 4.85D-10
 IDIUse=1 WtCom= 1.00D+00 WtEn= 0.00D+00
 Coeff-Com: -0.323D-02-0.182D-01-0.160D-01 0.330D+00 0.708D+00
 Coeff:     -0.323D-02-0.182D-01-0.160D-01 0.330D+00 0.708D+00
 Gap=     0.330 Goal=   None    Shift=    0.000
 RMSDP=3.76D-08 MaxDP=1.01D-06 DE=-4.17D-10 OVMax= 3.16D-06

 Cycle  12  Pass 1  IDiag  1:
 E= -268.312509811004     Delta-E=       -0.000000000111 Rises=F Damp=F
 DIIS: error= 2.30D-07 at cycle   6 NSaved=   6.
 NSaved= 6 IEnMin= 6 EnMin= -268.312509811004     IErMin= 6 ErrMin= 2.30D-07
 ErrMax= 2.30D-07  0.00D+00 EMaxC= 1.00D-01 BMatC= 1.06D-11 BMatP= 1.31D-10
 IDIUse=1 WtCom= 1.00D+00 WtEn= 0.00D+00
 Coeff-Com:  0.160D-02-0.182D-01-0.377D-01 0.388D-01 0.277D+00 0.738D+00
 Coeff:      0.160D-02-0.182D-01-0.377D-01 0.388D-01 0.277D+00 0.738D+00
 Gap=     0.330 Goal=   None    Shift=    0.000
 RMSDP=1.22D-08 MaxDP=4.10D-07 DE=-1.11D-10 OVMax= 1.34D-06

 Cycle  13  Pass 1  IDiag  1:
 E= -268.312509811004     Delta-E=       -0.000000000000 Rises=F Damp=F
 DIIS: error= 4.21D-08 at cycle   7 NSaved=   7.
 NSaved= 7 IEnMin= 7 EnMin= -268.312509811004     IErMin= 7 ErrMin= 4.21D-08
 ErrMax= 4.21D-08  0.00D+00 EMaxC= 1.00D-01 BMatC= 3.82D-13 BMatP= 1.06D-11
 IDIUse=1 WtCom= 1.00D+00 WtEn= 0.00D+00
 Coeff-Com:  0.615D-03-0.389D-02-0.902D-02-0.833D-02 0.371D-01 0.203D+00
 Coeff-Com:  0.780D+00
 Coeff:      0.615D-03-0.389D-02-0.902D-02-0.833D-02 0.371D-01 0.203D+00
 Coeff:      0.780D+00
 Gap=     0.330 Goal=   None    Shift=    0.000
 RMSDP=2.78D-09 MaxDP=7.53D-08 DE=-1.14D-13 OVMax= 1.95D-07

 SCF Done:  E(RM062X) =  -268.312509811     A.U. after   13 cycles
            NFock= 13  Conv=0.28D-08     -V/T= 2.0061
 KE= 2.666763248435D+02 PE=-9.791176361645D+02 EE= 2.686813749532D+02
 Leave Link  502 at Thu Sep  5 14:40:51 2019, MaxMem=   671088640 cpu:             789.5 elap:             422.5
 (Enter /shared/centos7/gaussian/g16/l801.exe)
 DoSCS=F DFT=T ScalE2(SS,OS)=  1.000000  1.000000
 Range of M.O.s used for correlation:     1   234
 NBasis=   234 NAE=    20 NBE=    20 NFC=     0 NFV=     0
 NROrb=    234 NOA=    20 NOB=    20 NVA=   214 NVB=   214

 **** Warning!!: The largest alpha MO coefficient is  0.11794805D+02

 Leave Link  801 at Thu Sep  5 14:40:52 2019, MaxMem=   671088640 cpu:               1.3 elap:               1.2
 (Enter /shared/centos7/gaussian/g16/l1101.exe)
 Using compressed storage, NAtomX=    11.
 Will process     12 centers per pass.
 Leave Link 1101 at Thu Sep  5 14:41:37 2019, MaxMem=   671088640 cpu:              44.8 elap:              44.8
 (Enter /shared/centos7/gaussian/g16/l1102.exe)
 Symmetrizing basis deriv contribution to polar:
 IMax=3 JMax=2 DiffMx= 0.00D+00
 Leave Link 1102 at Thu Sep  5 14:41:41 2019, MaxMem=   671088640 cpu:               4.3 elap:               4.3
 (Enter /shared/centos7/gaussian/g16/l1110.exe)
 Forming Gx(P) for the SCF density, NAtomX=    11.
 Integral derivatives from FoFJK, PRISM(SPDF).
 Do as many integral derivatives as possible in FoFJK.
 G2DrvN: MDV=     671087712.
 G2DrvN: will do    12 centers at a time, making    1 passes.
 Calling FoFCou, ICntrl=  3107 FMM=F I1Cent=   0 AccDes= 0.00D+00.
 FoFJK:  IHMeth= 1 ICntrl=    3107 DoSepK=F KAlg= 0 I1Cent=           0 FoldK=F
 IRaf=         0 NMat=       1 IRICut=       1 DoRegI=T DoRafI=F ISym2E= 0 IDoP0=0 IntGTp=1.
 FoFCou: FMM=F IPFlag=           0 FMFlag=      100000 FMFlg1=           0
         NFxFlg=           0 DoJE=F BraDBF=F KetDBF=F FulRan=T
         wScrn=  0.000000 ICntrl=      3107 IOpCl=  0 I1Cent=           0 NGrid=           0
         NMat0=    1 NMatS0=      1 NMatT0=    0 NMatD0=    1 NMtDS0=    0 NMtDT0=    0
 Symmetry not used in FoFCou.
 End of G2Drv F.D. properties file   721 does not exist.
 End of G2Drv F.D. properties file   722 does not exist.
 End of G2Drv F.D. properties file   788 does not exist.
 Leave Link 1110 at Thu Sep  5 14:50:51 2019, MaxMem=   671088640 cpu:             786.2 elap:             549.6
 (Enter /shared/centos7/gaussian/g16/l1002.exe)
 Minotr:  Closed shell wavefunction.
          IDoAtm=11111111111
          Direct CPHF calculation.
          Differentiating once with respect to nuclear coordinates.
          Requested convergence is 1.0D-08 RMS, and 1.0D-07 maximum.
          Secondary convergence is 1.0D-12 RMS, and 1.0D-12 maximum.
          NewPWx=T KeepS1=F KeepF1=F KeepIn=T MapXYZ=F SortEE=F KeepMc=T.
         3293 words used for storage of precomputed grid.
 Keep R1 ints in memory in canonical form, NReq=399865292.
 FoFCou: FMM=F IPFlag=           0 FMFlag=           0 FMFlg1=           0
         NFxFlg=           0 DoJE=F BraDBF=F KetDBF=F FulRan=T
         wScrn=  0.000000 ICntrl=       600 IOpCl=  0 I1Cent=           0 NGrid=           0
         NMat0=    1 NMatS0=  27495 NMatT0=    0 NMatD0=    1 NMtDS0=    0 NMtDT0=    0
 Symmetry not used in FoFCou.
 Two-electron integral symmetry not used.
          MDV=     671088640 using IRadAn=       1.
          Solving linear equations simultaneously, MaxMat=       0.
          There are    36 degrees of freedom in the 1st order CPHF.  IDoFFX=6 NUNeed=     0.
     30 vectors produced by pass  0 Test12= 1.19D-14 2.78D-09 XBig12= 6.54D-02 6.85D-02.
 AX will form    30 AO Fock derivatives at one time.
     30 vectors produced by pass  1 Test12= 1.19D-14 2.78D-09 XBig12= 7.91D-03 4.19D-02.
     30 vectors produced by pass  2 Test12= 1.19D-14 2.78D-09 XBig12= 2.46D-04 4.00D-03.
     30 vectors produced by pass  3 Test12= 1.19D-14 2.78D-09 XBig12= 4.14D-06 3.51D-04.
     30 vectors produced by pass  4 Test12= 1.19D-14 2.78D-09 XBig12= 2.70D-08 2.34D-05.
     30 vectors produced by pass  5 Test12= 1.19D-14 2.78D-09 XBig12= 1.16D-10 1.52D-06.
     21 vectors produced by pass  6 Test12= 1.19D-14 2.78D-09 XBig12= 4.12D-13 1.14D-07.
      6 vectors produced by pass  7 Test12= 1.19D-14 2.78D-09 XBig12= 1.71D-15 5.52D-09.
 InvSVY:  IOpt=1 It=  1 EMax= 1.11D-15
 Solved reduced A of dimension   207 with    30 vectors.
 End of Minotr F.D. properties file   721 does not exist.
 End of Minotr F.D. properties file   722 does not exist.
 End of Minotr F.D. properties file   788 does not exist.
 Leave Link 1002 at Thu Sep  5 15:03:49 2019, MaxMem=   671088640 cpu:            1324.5 elap:             777.9
 (Enter /shared/centos7/gaussian/g16/l601.exe)
 Copying SCF densities to generalized density rwf, IOpCl= 0 IROHF=0.

 **********************************************************************

            Population analysis using the SCF density.

 **********************************************************************

 Orbital symmetries:
       Occupied  (A) (A) (A) (A) (A) (A) (A) (A) (A) (A) (A) (A)
                 (A) (A) (A) (A) (A) (A) (A) (A)
       Virtual   (A) (A) (A) (A) (A) (A) (A) (A) (A) (A) (A) (A)
                 (A) (A) (A) (A) (A) (A) (A) (A) (A) (A) (A) (A)
                 (A) (A) (A) (A) (A) (A) (A) (A) (A) (A) (A) (A)
                 (A) (A) (A) (A) (A) (A) (A) (A) (A) (A) (A) (A)
                 (A) (A) (A) (A) (A) (A) (A) (A) (A) (A) (A) (A)
                 (A) (A) (A) (A) (A) (A) (A) (A) (A) (A) (A) (A)
                 (A) (A) (A) (A) (A) (A) (A) (A) (A) (A) (A) (A)
                 (A) (A) (A) (A) (A) (A) (A) (A) (A) (A) (A) (A)
                 (A) (A) (A) (A) (A) (A) (A) (A) (A) (A) (A) (A)
                 (A) (A) (A) (A) (A) (A) (A) (A) (A) (A) (A) (A)
                 (A) (A) (A) (A) (A) (A) (A) (A) (A) (A) (A) (A)
                 (A) (A) (A) (A) (A) (A) (A) (A) (A) (A) (A) (A)
                 (A) (A) (A) (A) (A) (A) (A) (A) (A) (A) (A) (A)
                 (A) (A) (A) (A) (A) (A) (A) (A) (A) (A) (A) (A)
                 (A) (A) (A) (A) (A) (A) (A) (A) (A) (A) (A) (A)
                 (A) (A) (A) (A) (A) (A) (A) (A) (A) (A) (A) (A)
                 (A) (A) (A) (A) (A) (A) (A) (A) (A) (A) (A) (A)
                 (A) (A) (A) (A) (A) (A) (A) (A) (A) (A)
 The electronic state is 1-A.
 Alpha  occ. eigenvalues --  -19.65348 -19.65149 -10.59497 -10.58522 -10.58387
 Alpha  occ. eigenvalues --   -1.17919  -1.16333  -0.85150  -0.79222  -0.68178
 Alpha  occ. eigenvalues --   -0.59946  -0.59347  -0.54266  -0.50291  -0.47729
 Alpha  occ. eigenvalues --   -0.46950  -0.45873  -0.40717  -0.40143  -0.27288
 Alpha virt. eigenvalues --    0.05687   0.07663   0.08368   0.09884   0.13153
 Alpha virt. eigenvalues --    0.14033   0.14786   0.16553   0.23437   0.26637
 Alpha virt. eigenvalues --    0.29317   0.30254   0.33847   0.34535   0.38168
 Alpha virt. eigenvalues --    0.39205   0.41439   0.42347   0.43353   0.44588
 Alpha virt. eigenvalues --    0.47003   0.48129   0.49512   0.51415   0.52413
 Alpha virt. eigenvalues --    0.53923   0.55719   0.57318   0.62029   0.63497
 Alpha virt. eigenvalues --    0.63591   0.69121   0.70702   0.71336   0.74705
 Alpha virt. eigenvalues --    0.75037   0.78521   0.81220   0.81805   0.86806
 Alpha virt. eigenvalues --    0.88641   0.90916   0.98053   0.98853   1.00920
 Alpha virt. eigenvalues --    1.01822   1.03618   1.04230   1.10042   1.12205
 Alpha virt. eigenvalues --    1.14291   1.16703   1.19066   1.21157   1.24165
 Alpha virt. eigenvalues --    1.25896   1.30057   1.31553   1.34979   1.36038
 Alpha virt. eigenvalues --    1.37166   1.40072   1.41503   1.47312   1.48828
 Alpha virt. eigenvalues --    1.49555   1.57625   1.59038   1.74519   1.76509
 Alpha virt. eigenvalues --    1.79971   1.87710   1.92371   1.92915   1.97452
 Alpha virt. eigenvalues --    2.03829   2.09784   2.14327   2.15598   2.21400
 Alpha virt. eigenvalues --    2.23809   2.30373   2.30644   2.32907   2.35967
 Alpha virt. eigenvalues --    2.43543   2.50782   2.53292   2.54437   2.55531
 Alpha virt. eigenvalues --    2.61926   2.63826   2.66442   2.73704   2.75951
 Alpha virt. eigenvalues --    2.77039   2.78304   2.82109   2.83719   2.85237
 Alpha virt. eigenvalues --    2.86235   2.89237   2.92799   2.95219   2.96842
 Alpha virt. eigenvalues --    3.00078   3.03315   3.04305   3.07190   3.09639
 Alpha virt. eigenvalues --    3.10834   3.14505   3.17559   3.20310   3.21937
 Alpha virt. eigenvalues --    3.22528   3.23541   3.26089   3.30511   3.30875
 Alpha virt. eigenvalues --    3.34108   3.35930   3.36275   3.36571   3.41734
 Alpha virt. eigenvalues --    3.44456   3.45739   3.49894   3.52413   3.54553
 Alpha virt. eigenvalues --    3.58268   3.60935   3.62539   3.69203   3.72698
 Alpha virt. eigenvalues --    3.73314   3.74181   3.78523   3.79417   3.80991
 Alpha virt. eigenvalues --    3.81724   3.83602   3.88011   3.88745   3.93987
 Alpha virt. eigenvalues --    3.96877   3.98395   4.00556   4.03367   4.04529
 Alpha virt. eigenvalues --    4.07700   4.12039   4.14689   4.22497   4.24176
 Alpha virt. eigenvalues --    4.27185   4.29604   4.39310   4.45030   4.47041
 Alpha virt. eigenvalues --    4.55587   4.58222   4.58807   4.63847   4.70975
 Alpha virt. eigenvalues --    4.74841   4.79244   4.82396   4.86227   4.89342
 Alpha virt. eigenvalues --    4.90749   4.93908   4.99379   5.00860   5.03130
 Alpha virt. eigenvalues --    5.04672   5.09641   5.20443   5.26195   5.28357
 Alpha virt. eigenvalues --    5.36302   5.42019   5.48384   5.50692   5.61173
 Alpha virt. eigenvalues --    5.70690   5.72073   5.79116   5.79295   5.87463
 Alpha virt. eigenvalues --    5.97084   6.02256   6.16844   6.26924   6.31626
 Alpha virt. eigenvalues --    6.39143   6.47644   6.58138   6.69166   6.70392
 Alpha virt. eigenvalues --    6.75925   6.76791   6.82489   6.87593   7.03272
 Alpha virt. eigenvalues --    7.12045   7.23800   7.28137   7.32121  10.46450
 Alpha virt. eigenvalues --   10.92466  11.65672  12.96029  13.96602
          Condensed to atoms (all electrons):
               1          2          3          4          5          6
     1  O    7.814092   0.003235   0.305517   0.362055  -0.072182  -0.028481
     2  O    0.003235   7.797246  -0.000052  -0.069377   0.343761  -0.000003
     3  C    0.305517  -0.000052   4.767795  -0.085127  -0.025606   0.393890
     4  C    0.362055  -0.069377  -0.085127   4.995287   0.516151   0.005675
     5  C   -0.072182   0.343761  -0.025606   0.516151   4.963418   0.001063
     6  H   -0.028481  -0.000003   0.393890   0.005675   0.001063   0.572518
     7  H   -0.047002  -0.000451   0.394410  -0.002551   0.006052  -0.026612
     8  H   -0.046016  -0.000402   0.386561  -0.004725   0.005447  -0.032464
     9  H   -0.032986  -0.003119   0.007502   0.427889  -0.076571  -0.000266
    10  H   -0.005425  -0.032916   0.003875  -0.075909   0.426424  -0.000206
    11  H    0.000170   0.326248   0.000105  -0.006617  -0.052161   0.000008
               7          8          9         10         11
     1  O   -0.047002  -0.046016  -0.032986  -0.005425   0.000170
     2  O   -0.000451  -0.000402  -0.003119  -0.032916   0.326248
     3  C    0.394410   0.386561   0.007502   0.003875   0.000105
     4  C   -0.002551  -0.004725   0.427889  -0.075909  -0.006617
     5  C    0.006052   0.005447  -0.076571   0.426424  -0.052161
     6  H   -0.026612  -0.032464  -0.000266  -0.000206   0.000008
     7  H    0.670507  -0.083480   0.000208   0.000006  -0.000066
     8  H   -0.083480   0.681426  -0.000351  -0.000965  -0.000081
     9  H    0.000208  -0.000351   0.535844   0.002530   0.004418
    10  H    0.000006  -0.000965   0.002530   0.508295   0.006997
    11  H   -0.000066  -0.000081   0.004418   0.006997   0.457512
 Mulliken charges:
               1
     1  O   -0.252976
     2  O   -0.364171
     3  C   -0.148871
     4  C   -0.062752
     5  C   -0.035797
     6  H    0.114877
     7  H    0.088979
     8  H    0.095051
     9  H    0.134901
    10  H    0.167294
    11  H    0.263466
 Sum of Mulliken charges =  -0.00000
 Mulliken charges with hydrogens summed into heavy atoms:
               1
     1  O   -0.252976
     2  O   -0.100705
     3  C    0.150035
     4  C    0.072149
     5  C    0.131496
 APT charges:
               1
     1  O   -0.146883
     2  O   -0.469699
     3  C   -0.884015
     4  C   -0.400154
     5  C   -0.327684
     6  H    0.520718
     7  H    0.237418
     8  H    0.237108
     9  H    0.386974
    10  H    0.317243
    11  H    0.528974
 Sum of APT charges =  -0.00000
 APT charges with hydrogens summed into heavy atoms:
               1
     1  O   -0.146883
     2  O    0.059275
     3  C    0.111229
     4  C   -0.013180
     5  C   -0.010441
 Electronic spatial extent (au):  <R**2>=            490.6498
 Charge=             -0.0000 electrons
 Dipole moment (field-independent basis, Debye):
    X=              0.2423    Y=              0.0679    Z=              0.1153  Tot=              0.2768
 Quadrupole moment (field-independent basis, Debye-Ang):
   XX=            -30.4210   YY=            -28.0921   ZZ=            -32.3592
   XY=             -7.2438   XZ=             -0.2430   YZ=              0.3054
 Traceless Quadrupole moment (field-independent basis, Debye-Ang):
   XX=             -0.1302   YY=              2.1987   ZZ=             -2.0684
   XY=             -7.2438   XZ=             -0.2430   YZ=              0.3054
 Octapole moment (field-independent basis, Debye-Ang**2):
  XXX=              3.1740  YYY=              3.0508  ZZZ=              0.0320  XYY=             -6.0337
  XXY=              7.9116  XXZ=              0.7458  XZZ=             -0.1545  YZZ=             -0.2568
  YYZ=             -0.0059  XYZ=             -0.3290
 Hexadecapole moment (field-independent basis, Debye-Ang**3):
 XXXX=           -428.3243 YYYY=           -107.2371 ZZZZ=            -40.0087 XXXY=            -34.6323
 XXXZ=             -2.7543 YYYX=             -0.5787 YYYZ=              0.7409 ZZZX=             -0.2680
 ZZZY=              0.0375 XXYY=            -92.3591 XXZZ=            -85.7776 YYZZ=            -26.0623
 XXYZ=              0.9597 YYXZ=             -0.3127 ZZXY=              0.3739
 N-N= 1.754474265567D+02 E-N=-9.791176266411D+02  KE= 2.666763248435D+02
  Exact polarizability:   0.000   0.000   0.000   0.000   0.000   0.000
 Approx polarizability:  60.634   5.443  57.658  -0.101   0.241  39.059
 No NMR shielding tensors so no spin-rotation constants.
 Leave Link  601 at Thu Sep  5 15:04:29 2019, MaxMem=   671088640 cpu:              40.1 elap:              40.1
 (Enter /shared/centos7/gaussian/g16/l701.exe)
 SCFChk:  SCF convergence  2.78D-09 required  1.00D-08
 ... and contract with generalized density number  0.
 Compute integral second derivatives.
 Entering OneElI...
 Calculate overlap and kinetic energy integrals
    NBasis = 265  MinDer = 2  MaxDer = 2
 Requested accuracy = 0.1000D-12
 PrmmSu-InSpLW:  IPartL=    0 NPrtUS=   20 NPrtUL=    1 DoSpLW=F IThBeg=    0 IThEnd=   19 NThAct=   20.
 PrsmSu:  NPrtUS=  20 ThrOK=T IAlg=1 NPAlg=1 LenDen=           0 ISkipM=0 DoSpLW=F IThBeg=    0 IThEnd=   19.
 Prism:   IPart=     0 DynPar=F LinDyn=F Incr=           1.
 PRISM was handed    33439224 working-precision words and  3726 shell-pairs
 PRISM was handed    33439224 working-precision words and  3726 shell-pairs
 PRISM was handed    33439224 working-precision words and  3726 shell-pairs
 PRISM was handed    33439224 working-precision words and  3726 shell-pairs
 PRISM was handed    33439224 working-precision words and  3726 shell-pairs
 PRISM was handed    33439224 working-precision words and  3726 shell-pairs
 PRISM was handed    33439224 working-precision words and  3726 shell-pairs
 PRISM was handed    33439224 working-precision words and  3726 shell-pairs
 PRISM was handed    33439224 working-precision words and  3726 shell-pairs
 PRISM was handed    33439224 working-precision words and  3726 shell-pairs
 PRISM was handed    33439224 working-precision words and  3726 shell-pairs
 PRISM was handed    33439224 working-precision words and  3726 shell-pairs
 IPart= 16 NShTot=         164 NBatch=          25 AvBLen=         6.6
 IPart=  0 NShTot=         223 NBatch=          63 AvBLen=         3.5
 PRISM was handed    33439224 working-precision words and  3726 shell-pairs
 IPart=  2 NShTot=         214 NBatch=          55 AvBLen=         3.9
 IPart= 17 NShTot=         164 NBatch=          25 AvBLen=         6.6
 PRISM was handed    33439224 working-precision words and  3726 shell-pairs
 IPart= 14 NShTot=         172 NBatch=          26 AvBLen=         6.6
 IPart= 12 NShTot=         175 NBatch=          27 AvBLen=         6.5
 PRISM was handed    33439224 working-precision words and  3726 shell-pairs
 PRISM was handed    33439224 working-precision words and  3726 shell-pairs
 IPart= 15 NShTot=         170 NBatch=          25 AvBLen=         6.8
 PRISM was handed    33439224 working-precision words and  3726 shell-pairs
 IPart=  5 NShTot=         196 NBatch=          40 AvBLen=         4.9
 PRISM was handed    33439224 working-precision words and  3726 shell-pairs
 IPart=  7 NShTot=         191 NBatch=          35 AvBLen=         5.5
 PRISM was handed    33439224 working-precision words and  3726 shell-pairs
 IPart=  8 NShTot=         185 NBatch=          29 AvBLen=         6.4
 IPart=  1 NShTot=         220 NBatch=          60 AvBLen=         3.7
 IPart=  9 NShTot=         183 NBatch=          28 AvBLen=         6.5
 PRISM was handed    33439224 working-precision words and  3726 shell-pairs
 IPart=  4 NShTot=         204 NBatch=          46 AvBLen=         4.4
 IPart= 10 NShTot=         179 NBatch=          28 AvBLen=         6.4
 IPart= 19 NShTot=         163 NBatch=          25 AvBLen=         6.5
 IPart=  6 NShTot=         195 NBatch=          39 AvBLen=         5.0
 IPart= 13 NShTot=         174 NBatch=          27 AvBLen=         6.4
 IPart= 18 NShTot=         164 NBatch=          25 AvBLen=         6.6
 IPart=  3 NShTot=         212 NBatch=          53 AvBLen=         4.0
 IPart= 11 NShTot=         178 NBatch=          28 AvBLen=         6.4
 PrSmSu:  NxtVal=             21.
 Entering OneElI...
 Calculate potential energy integrals
    NBasis = 265  MinDer = 2  MaxDer = 2
 Requested accuracy = 0.1000D-12
 PrmmSu-InSpLW:  IPartL=    0 NPrtUS=   20 NPrtUL=    1 DoSpLW=F IThBeg=    0 IThEnd=   19 NThAct=   20.
 PrsmSu:  NPrtUS=  20 ThrOK=T IAlg=1 NPAlg=1 LenDen=           0 ISkipM=0 DoSpLW=F IThBeg=    0 IThEnd=   19.
 Prism:   IPart=     0 DynPar=F LinDyn=F Incr=          19.
 PRISM was handed    33455398 working-precision words and  3534 shell-pairs
 PRISM was handed    33455398 working-precision words and  3534 shell-pairs
 PRISM was handed    33455398 working-precision words and  3534 shell-pairs
 PRISM was handed    33455398 working-precision words and  3534 shell-pairs
 PRISM was handed    33455398 working-precision words and  3534 shell-pairs
 PRISM was handed    33455398 working-precision words and  3534 shell-pairs
 PRISM was handed    33455398 working-precision words and  3534 shell-pairs
 PRISM was handed    33455398 working-precision words and  3534 shell-pairs
 PRISM was handed    33455398 working-precision words and  3534 shell-pairs
 PRISM was handed    33455398 working-precision words and  3534 shell-pairs
 PRISM was handed    33455398 working-precision words and  3534 shell-pairs
 PRISM was handed    33455398 working-precision words and  3534 shell-pairs
 PRISM was handed    33455398 working-precision words and  3534 shell-pairs
 PRISM was handed    33455398 working-precision words and  3534 shell-pairs
 PRISM was handed    33455398 working-precision words and  3534 shell-pairs
 PRISM was handed    33455398 working-precision words and  3534 shell-pairs
 PRISM was handed    33455398 working-precision words and  3534 shell-pairs
 PRISM was handed    33455398 working-precision words and  3534 shell-pairs
 PRISM was handed    33455398 working-precision words and  3534 shell-pairs
 PRISM was handed    33455398 working-precision words and  3534 shell-pairs
 IPart= 18 NShTot=        1760 NBatch=         160 AvBLen=        11.0
 IPart= 17 NShTot=        1760 NBatch=         160 AvBLen=        11.0
 IPart=  0 NShTot=        2387 NBatch=         217 AvBLen=        11.0
 IPart=  2 NShTot=        2244 NBatch=         204 AvBLen=        11.0
 IPart= 19 NShTot=        1760 NBatch=         160 AvBLen=        11.0
 IPart=  1 NShTot=        2310 NBatch=         210 AvBLen=        11.0
 IPart= 14 NShTot=        1804 NBatch=         164 AvBLen=        11.0
 IPart=  8 NShTot=        1903 NBatch=         173 AvBLen=        11.0
 IPart= 16 NShTot=        1771 NBatch=         161 AvBLen=        11.0
 IPart= 12 NShTot=        1826 NBatch=         166 AvBLen=        11.0
 IPart=  4 NShTot=        2112 NBatch=         192 AvBLen=        11.0
 IPart=  6 NShTot=        1958 NBatch=         178 AvBLen=        11.0
 IPart= 13 NShTot=        1826 NBatch=         166 AvBLen=        11.0
 IPart=  3 NShTot=        2189 NBatch=         199 AvBLen=        11.0
 IPart= 10 NShTot=        1859 NBatch=         169 AvBLen=        11.0
 IPart=  9 NShTot=        1881 NBatch=         171 AvBLen=        11.0
 IPart= 11 NShTot=        1848 NBatch=         168 AvBLen=        11.0
 IPart=  5 NShTot=        1991 NBatch=         181 AvBLen=        11.0
 IPart= 15 NShTot=        1771 NBatch=         161 AvBLen=        11.0
 IPart=  7 NShTot=        1914 NBatch=         174 AvBLen=        11.0
 PrSmSu:  NxtVal=            381.
 Polarizability after L701:
                1             2             3 
      1  0.000000D+00
      2  0.000000D+00  0.000000D+00
      3  0.000000D+00  0.000000D+00  0.000000D+00
 Dipole Derivatives after L701:
                 1             2             3             4             5 
      1  -0.849598D-01  0.159000D+00 -0.505077D-02 -0.288157D+00  0.141327D+01
      2   0.241303D+00 -0.103882D+00 -0.881855D-02  0.311634D+00 -0.723918D+00
      3  -0.754578D-02 -0.746271D-02 -0.251806D+00  0.187547D-01 -0.368669D-01
                 6             7             8             9            10 
      1   0.875797D-01 -0.997899D+00  0.476622D+00 -0.424327D-01 -0.503077D+00
      2  -0.261535D-01  0.656151D-01 -0.848198D+00  0.263170D-01  0.528227D-02
      3  -0.397023D+00 -0.151051D-02  0.382115D-02 -0.805947D+00  0.152514D-01
                11            12            13            14            15 
      1  -0.531166D-01  0.984403D-02 -0.375063D+00 -0.290362D+00 -0.100031D-01
      2  -0.729758D+00 -0.200862D-01 -0.829332D-01 -0.642480D+00 -0.262171D-01
      3  -0.284701D-01  0.323732D-01  0.250614D-02 -0.225157D-01  0.344907D-01
                16            17            18            19            20 
      1   0.132950D+01  0.557500D-01 -0.362516D-01 -0.553933D-01 -0.281474D+00
      2  -0.202848D+00  0.135518D+00  0.846120D-02  0.992275D-01  0.327545D+00
      3  -0.123924D-02  0.626983D-03  0.971394D-01 -0.912603D-01 -0.159817D+00
                21            22            23            24            25 
      1   0.351326D+00 -0.534335D-01 -0.300054D+00 -0.274399D+00  0.221388D+00
      2  -0.262787D+00  0.131235D+00  0.367315D+00  0.230723D+00 -0.255168D+00
      3   0.440101D+00  0.952105D-01  0.165473D+00  0.397443D+00 -0.575563D-02
                26            27            28            29            30 
      1  -0.192339D+00 -0.447065D-02  0.107047D+00  0.211176D+00  0.872682D-02
      2   0.865531D+00  0.245325D-01 -0.206694D+00  0.744892D+00  0.304181D-01
      3   0.249784D-01  0.740035D-01 -0.132981D-01  0.268963D-01  0.997908D-01
                31            32            33 
      1   0.700053D+00 -0.119847D+01 -0.848679D-01
      2  -0.106654D+00  0.607436D+00  0.236104D-01
      3  -0.111132D-01  0.333366D-01  0.279434D+00
 Hessian after L701:
                1             2             3             4             5 
      1  0.374051D+01
      2  0.241918D+01  0.869111D+01
      3  0.987596D-01  0.158324D+00  0.151747D+02
      4  0.456177D+00  0.198326D+00 -0.431439D-02  0.284233D+01
      5  0.236001D+00 -0.165150D+00 -0.341769D-02  0.121023D+01  0.871914D+01
      6 -0.311869D-02 -0.222473D-02 -0.206294D+00  0.251254D+00 -0.305384D+00
      7 -0.563565D+01 -0.308342D+01  0.638448D-01  0.207724D+00 -0.110214D-01
      8 -0.282820D+01 -0.323085D-01 -0.240627D+00 -0.577560D-02 -0.122693D+00
      9  0.601882D-01 -0.227143D+00 -0.761150D+01 -0.444541D-03 -0.117953D-02
     10  0.109376D+01 -0.346068D+00 -0.179580D+00  0.424984D-01  0.334053D+00
     11 -0.546727D+00 -0.822387D+01 -0.158008D-01  0.216377D+00 -0.759504D-02
     12 -0.173212D+00 -0.139583D-01 -0.836117D+01  0.135485D-01 -0.128749D-01
     13  0.100274D+00  0.377737D+00  0.349122D-01  0.106243D+01 -0.292898D+00
     14  0.383266D+00  0.155121D+00  0.654838D-02 -0.417131D+00 -0.774180D+01
     15  0.283452D-01  0.499917D-02  0.197653D+00 -0.187484D+00  0.136076D-01
     16  0.202917D+00  0.418798D-01  0.475177D-02  0.328707D-01  0.670072D-02
     17  0.999690D-01 -0.150986D+00 -0.228318D-02 -0.630392D-03 -0.699371D-02
     18 -0.196970D-02  0.172927D-02  0.140514D-01 -0.691701D-03 -0.126265D-03
     19  0.924377D-01  0.137814D+00 -0.375756D-01  0.189910D-01 -0.485649D-02
     20  0.797629D-01 -0.236704D+00 -0.158015D+00 -0.219575D-01 -0.161302D-01
     21 -0.342296D-01 -0.118324D+00  0.392133D+00  0.316874D-01 -0.225432D-02
     22  0.958594D-01  0.148369D+00  0.314271D-01  0.179789D-01 -0.421013D-02
     23  0.863860D-01 -0.229431D+00  0.239874D+00 -0.248286D-01 -0.162424D-01
     24  0.333497D-01  0.186068D+00  0.389982D+00 -0.283041D-01  0.296769D-02
     25 -0.188476D+00  0.821925D-01 -0.991029D-02 -0.235072D-01  0.255429D-01
     26  0.388534D-01  0.137380D+00  0.130465D-01  0.702353D-01  0.793068D-01
     27 -0.611545D-02  0.735376D-02  0.601385D-01  0.233425D-02  0.457193D-02
     28 -0.105162D-01  0.240208D-01 -0.531419D-03 -0.181295D+00  0.103833D+00
     29  0.782817D-01  0.750146D-01  0.115803D-02  0.589116D-01  0.106288D+00
     30  0.269754D-02  0.331812D-02 -0.317378D-01  0.147635D-01 -0.478326D-02
     31  0.527042D-01 -0.239536D-04 -0.178360D-02 -0.447620D+01 -0.160337D+01
     32 -0.467681D-01 -0.201749D-01  0.119180D-02 -0.128375D+01 -0.828128D+00
     33 -0.469446D-02 -0.142428D-03 -0.179762D-01 -0.923485D-01  0.308873D+00
                6             7             8             9            10 
      6  0.132252D+02
      7  0.524283D-02  0.128272D+02
      8 -0.724631D-03  0.253444D+01  0.902908D+01
      9 -0.126312D+00 -0.650434D-02  0.199008D+00  0.151206D+02
     10  0.207108D-01  0.264109D+00 -0.235468D+00 -0.943870D-02  0.707356D+01
     11 -0.111226D-01 -0.127540D+00  0.102693D-02  0.150785D-01 -0.270795D+01
     12  0.167336D+00 -0.116086D-01  0.167109D-01  0.653006D-01  0.162176D+00
     13 -0.181486D+00  0.193508D+00  0.197393D-01 -0.884833D-02 -0.517707D+01
     14  0.153658D-01 -0.824182D-01 -0.192451D+00  0.570151D-03  0.409656D+01
     15 -0.784548D+01 -0.118444D-01  0.497049D-02 -0.128998D+00  0.273141D-01
     16  0.510961D-03 -0.109988D+01  0.402377D-02 -0.493744D-01  0.157645D+00
     17 -0.361118D-04 -0.719865D-01 -0.325868D+01  0.220855D-02 -0.618449D-01
     18 -0.786769D-02 -0.478931D-01 -0.423131D-03 -0.326652D+01 -0.375978D-02
     19  0.186457D-01 -0.336884D+01  0.254672D+00 -0.373229D+00 -0.188066D-01
     20 -0.828833D-02  0.392196D+00 -0.274609D+01 -0.119223D+01 -0.367699D-01
     21 -0.373415D-02 -0.542110D+00 -0.108434D+01 -0.171053D+01  0.107590D-01
     22 -0.193726D-01 -0.349780D+01  0.320610D+00  0.386494D+00 -0.236437D-01
     23  0.846501D-02  0.485328D+00 -0.273681D+01  0.119740D+01 -0.323861D-01
     24 -0.590453D-02  0.547490D+00  0.109944D+01 -0.221245D+01  0.703493D-02
     25  0.285535D-02  0.511666D-01 -0.109259D+00 -0.111093D-02 -0.360564D+01
     26  0.691014D-02 -0.122582D+00  0.807369D-01  0.308323D-02 -0.865984D+00
     27 -0.474781D-01 -0.195222D-02  0.291238D-02 -0.470793D-01 -0.301844D-01
     28  0.183589D-01  0.381696D-01  0.488241D-01  0.299458D-02  0.247487D+00
     29 -0.678761D-02  0.111350D+00 -0.151096D-01  0.221218D-02 -0.129063D+00
     30  0.517357D-01  0.679149D-02  0.296237D-02 -0.747314D-01 -0.350098D-02
     31 -0.113602D+00  0.202505D-01 -0.359852D-02 -0.726922D-03 -0.538958D-01
     32  0.303827D+00 -0.243360D-01 -0.670160D-02  0.989891D-03 -0.150733D-01
     33 -0.520122D+01 -0.145690D-02  0.108093D-03 -0.780708D-02 -0.153051D-02
               11            12            13            14            15 
     11  0.137493D+02
     12 -0.280170D+00  0.243742D+02
     13  0.423266D+01  0.299977D-01  0.703110D+01
     14 -0.351853D+01  0.245484D+00 -0.302831D+01  0.133920D+02
     15  0.248006D+00 -0.124018D+02  0.149892D+00 -0.342080D+00  0.242215D+02
     16 -0.605596D-01 -0.470990D-02  0.682626D-01  0.335298D-02 -0.130002D-02
     17 -0.248722D-01  0.196565D-02  0.543852D-03 -0.206109D-01 -0.390578D-04
     18  0.166364D-02 -0.392449D-01 -0.183186D-02 -0.891494D-04 -0.167183D-01
     19 -0.190055D-01 -0.184576D-01  0.104752D+00 -0.822341D-01 -0.349558D-01
     20  0.167197D-01  0.869115D-02 -0.107970D+00 -0.180251D-01  0.238328D-02
     21 -0.159678D-01 -0.304868D-01  0.256052D-01 -0.228594D-01 -0.926853D-01
     22 -0.136315D-01  0.325574D-01  0.100868D+00 -0.108031D+00  0.599697D-01
     23  0.306676D-01 -0.239907D-01 -0.136385D+00  0.313279D-02 -0.823608D-02
     24  0.544402D-03 -0.364078D-01  0.867538D-03  0.205844D-01 -0.100610D+00
     25 -0.865753D+00 -0.291937D-01  0.240684D+00 -0.112268D+00 -0.650242D-02
     26 -0.162981D+01  0.690842D-01 -0.122050D+00 -0.350906D+00 -0.342070D-01
     27  0.727257D-01 -0.395589D+01 -0.776920D-02 -0.320514D-01  0.214733D+00
     28 -0.176237D+00 -0.434932D-02 -0.386280D+01 -0.771479D+00 -0.345995D-01
     29 -0.379227D+00 -0.107752D-01 -0.916349D+00 -0.175153D+01  0.115979D+00
     30 -0.129906D-01  0.225027D+00 -0.415907D-01  0.115398D+00 -0.413715D+01
     31  0.683740D-01  0.325214D-02  0.137990D+00  0.118690D+00  0.111654D-01
     32 -0.138067D-01 -0.167174D-03 -0.267179D-01  0.435869D-01 -0.538295D-02
     33 -0.196640D-02 -0.684710D-02  0.250974D-03 -0.687087D-02  0.895146D-01
               16            17            18            19            20 
     16  0.783966D+00
     17  0.180544D+00  0.335831D+01
     18  0.645442D-01  0.345665D-02  0.328305D+01
     19 -0.637704D-01 -0.624540D-01  0.117622D+00  0.295278D+01
     20 -0.708164D-01  0.474345D-01  0.465331D-01 -0.226767D+00  0.265215D+01
     21  0.110736D+00  0.365571D-01  0.561065D-02  0.367318D+00  0.128110D+01
     22 -0.894082D-01 -0.847855D-01 -0.125690D+00  0.281859D+00  0.526784D-02
     23 -0.100149D+00  0.557503D-01 -0.531567D-01  0.211649D-02  0.296899D+00
     24 -0.125068D+00 -0.420575D-01  0.316849D-01 -0.418934D-01  0.250822D-01
     25  0.326129D-02  0.168865D-02 -0.203642D-03  0.470377D-03 -0.842532D-02
     26 -0.913316D-02  0.396224D-03  0.312534D-03 -0.583181D-02  0.123759D-01
     27 -0.220356D-03  0.778030D-04 -0.784147D-03  0.177088D-02 -0.285207D-02
     28 -0.978475D-03 -0.210153D-03  0.378731D-04 -0.699724D-03 -0.136710D-02
     29  0.120188D-01  0.202707D-03 -0.121335D-03  0.881711D-02 -0.129005D-01
     30  0.689940D-03  0.101473D-03 -0.272131D-02  0.288960D-03 -0.233954D-02
     31  0.511237D-02 -0.834243D-03 -0.163698D-03  0.826783D-03 -0.315314D-02
     32 -0.786177D-02  0.428801D-04  0.221359D-03 -0.227056D-02  0.427698D-02
     33 -0.560350D-03  0.486416D-04 -0.532808D-03  0.465782D-03 -0.665613D-04
               21            22            23            24            25 
     21  0.195753D+01
     22  0.181997D-01  0.311425D+01
     23 -0.696460D-01 -0.269650D+00  0.259852D+01
     24 -0.509519D+00 -0.384067D+00 -0.129498D+01  0.245240D+01
     25  0.485142D-02 -0.150507D-02 -0.379053D-02 -0.254219D-02  0.351056D+01
     26 -0.919254D-02 -0.335013D-03  0.743048D-02  0.545398D-02  0.982199D+00
     27 -0.184595D-02 -0.510066D-03  0.124343D-02 -0.101504D-02  0.428183D-01
     28  0.391263D-02  0.119595D-02 -0.330940D-02 -0.414217D-02 -0.126104D-01
     29  0.102587D-01  0.808103D-02 -0.146419D-01 -0.753706D-02 -0.796463D-02
     30 -0.564005D-02  0.166959D-02  0.228263D-02 -0.790195D-02 -0.234989D-03
     31  0.326954D-02  0.349098D-03 -0.333070D-02 -0.272513D-02  0.256019D-01
     32 -0.532846D-02 -0.168384D-02  0.472805D-02  0.443609D-02  0.158386D-01
     33 -0.834639D-03 -0.677529D-03  0.751404D-03 -0.260851D-03 -0.826972D-03
               26            27            28            29            30 
     26  0.162931D+01
     27 -0.554151D-01  0.380250D+01
     28 -0.821727D-02 -0.724419D-04  0.375071D+01
     29  0.556640D-01  0.174847D-02  0.850790D+00  0.187582D+01
     30  0.264989D-02 -0.292674D-02  0.228443D-01 -0.111691D+00  0.400740D+01
     31  0.428460D-01 -0.993162D-04  0.313404D-01 -0.748740D-01 -0.441866D-02
     32 -0.218886D-01 -0.314991D-03 -0.666491D-01  0.604278D-01  0.509233D-02
     33 -0.172585D-02 -0.203469D-01 -0.445353D-02  0.555627D-02 -0.213605D-01
               31            32            33 
     31  0.425592D+01
     32  0.145928D+01  0.777637D+00
     33  0.105832D+00 -0.304565D+00  0.518767D+01
 Leave Link  701 at Thu Sep  5 15:05:03 2019, MaxMem=   671088640 cpu:              33.8 elap:              33.8
 (Enter /shared/centos7/gaussian/g16/l702.exe)
 L702 exits ... SP integral derivatives will be done elsewhere.
 Leave Link  702 at Thu Sep  5 15:05:04 2019, MaxMem=   671088640 cpu:               1.3 elap:               1.3
 (Enter /shared/centos7/gaussian/g16/l703.exe)
 Integral derivatives from FoFJK, PRISM(SPDF).
 Compute integral second derivatives, UseDBF=F ICtDFT=           0.
 ICntrl=    100147.
 Calling FoFJK, ICntrl=    100147 FMM=F ISym2X=0 I1Cent= 0 IOpClX= 0 NMat=1 NMatS=1 NMatT=0.
 FoFJK:  IHMeth= 1 ICntrl=  100147 DoSepK=F KAlg= 0 I1Cent=           0 FoldK=F
 IRaf=         0 NMat=       1 IRICut=       1 DoRegI=T DoRafI=F ISym2E= 0 IDoP0=0 IntGTp=1.
 FoFCou: FMM=F IPFlag=           0 FMFlag=      100000 FMFlg1=         800
         NFxFlg=           0 DoJE=F BraDBF=F KetDBF=F FulRan=T
         wScrn=  0.000000 ICntrl=    100147 IOpCl=  0 I1Cent=           0 NGrid=           0
         NMat0=    1 NMatS0=      1 NMatT0=    0 NMatD0=    1 NMtDS0=    0 NMtDT0=    0
 Symmetry not used in FoFCou.
 FoFCou:  KetSym=F NOpSet=  1 NOpAb=1 NOp=  1.
 FoFCou:  CnvScl= 1.00D+00 Thresh= 1.00D-08 IAcrcy=      12.
 PrismS was handed   670741590 working-precision words and  3625 shell-pairs
 FoFCou: LinMIO=F DoNuc=F BraDBF=F KetDBF=F HaveP=T PDBF=F HaveZ=T HaveW=F
         NIJTC =      10 NIJTAt=       0 NIJTCD=       0 NIJTT =      10
         IJTBeg=       1 IJTEnd=      10 KLTBeg=       1 KLTEnd=      10
         IPTBeg=       1 IPTEnd=      10 IPTBCv=       1 IPTECv=      10
         IZTBeg=       1 IZTEnd=      10 IZTBCv=       1 IZTECv=      10
         IWTBeg=      11 IWTEnd=      10 IWTBCv=      11 IWTECv=      10
         INTBeg=       1 INTEnd=       0 IFTBCv=       1 IFTECv=      10
 NCel replicated for PrismC:     1
 CoulSu-InSpLW:  IPartL=    0 NPrtUS=   20 NPrtUL=    1 DoSpLW=F IThBeg=    0 IThEnd=   19 NThAct=   20.
 CoulSu:  IncDef=  1024 NBBP=        6572125 NTPThr=   100 NPartT=   20 Incr=        1024 LDynOK=F GPUOK=T.
 CoulSu:  NPrtUS=  20 ThrOK=T IAlg=1 NPAlg=1 LenDen=           0 LWGrdD=           0 DoCopy=F ISkipM=0
          DoSpLW=F IThBeg=    0 IThEnd=   19.
 Enter PrismC:  IPart=  0 JobTyp=22 DoJE=F Cont=F.
 PrismC:  IPart=     0 DynPar=T LinDyn=F Incr=        1024 UseFst=F UseS4=T ISplat=2.
 PrismC was handed    33456634 working-precision words and  3625 shell-pairs
 Enter PrismC:  IPart= 16 JobTyp=22 DoJE=F Cont=F.
 PrismC:  IPart=    16 DynPar=T LinDyn=F Incr=        1024 UseFst=F UseS4=T ISplat=2.
 PrismC was handed    33456634 working-precision words and  3625 shell-pairs
 Enter PrismC:  IPart= 15 JobTyp=22 DoJE=F Cont=F.
 PrismC:  IPart=    15 DynPar=T LinDyn=F Incr=        1024 UseFst=F UseS4=T ISplat=2.
 PrismC was handed    33456634 working-precision words and  3625 shell-pairs
 Enter PrismC:  IPart=  4 JobTyp=22 DoJE=F Cont=F.
 PrismC:  IPart=     4 DynPar=T LinDyn=F Incr=        1024 UseFst=F UseS4=T ISplat=2.
 PrismC was handed    33456634 working-precision words and  3625 shell-pairs
 Enter PrismC:  IPart= 19 JobTyp=22 DoJE=F Cont=F.
 PrismC:  IPart=    19 DynPar=T LinDyn=F Incr=        1024 UseFst=F UseS4=T ISplat=2.
 PrismC was handed    33456634 working-precision words and  3625 shell-pairs
 Enter PrismC:  IPart= 17 JobTyp=22 DoJE=F Cont=F.
 PrismC:  IPart=    17 DynPar=T LinDyn=F Incr=        1024 UseFst=F UseS4=T ISplat=2.
 PrismC was handed    33456634 working-precision words and  3625 shell-pairs
 Enter PrismC:  IPart= 14 JobTyp=22 DoJE=F Cont=F.
 PrismC:  IPart=    14 DynPar=T LinDyn=F Incr=        1024 UseFst=F UseS4=T ISplat=2.
 PrismC was handed    33456634 working-precision words and  3625 shell-pairs
 Enter PrismC:  IPart= 12 JobTyp=22 DoJE=F Cont=F.
 PrismC:  IPart=    12 DynPar=T LinDyn=F Incr=        1024 UseFst=F UseS4=T ISplat=2.
 PrismC was handed    33456634 working-precision words and  3625 shell-pairs
 Enter PrismC:  IPart=  2 JobTyp=22 DoJE=F Cont=F.
 PrismC:  IPart=     2 DynPar=T LinDyn=F Incr=        1024 UseFst=F UseS4=T ISplat=2.
 PrismC was handed    33456634 working-precision words and  3625 shell-pairs
 Enter PrismC:  IPart=  6 JobTyp=22 DoJE=F Cont=F.
 PrismC:  IPart=     6 DynPar=T LinDyn=F Incr=        1024 UseFst=F UseS4=T ISplat=2.
 PrismC was handed    33456634 working-precision words and  3625 shell-pairs
 Enter PrismC:  IPart=  8 JobTyp=22 DoJE=F Cont=F.
 PrismC:  IPart=     8 DynPar=T LinDyn=F Incr=        1024 UseFst=F UseS4=T ISplat=2.
 PrismC was handed    33456634 working-precision words and  3625 shell-pairs
 Enter PrismC:  IPart= 10 JobTyp=22 DoJE=F Cont=F.
 PrismC:  IPart=    10 DynPar=T LinDyn=F Incr=        1024 UseFst=F UseS4=T ISplat=2.
 PrismC was handed    33456634 working-precision words and  3625 shell-pairs
 Enter PrismC:  IPart=  5 JobTyp=22 DoJE=F Cont=F.
 PrismC:  IPart=     5 DynPar=T LinDyn=F Incr=        1024 UseFst=F UseS4=T ISplat=2.
 PrismC was handed    33456634 working-precision words and  3625 shell-pairs
 Enter PrismC:  IPart= 11 JobTyp=22 DoJE=F Cont=F.
 PrismC:  IPart=    11 DynPar=T LinDyn=F Incr=        1024 UseFst=F UseS4=T ISplat=2.
 PrismC was handed    33456634 working-precision words and  3625 shell-pairs
 Enter PrismC:  IPart=  7 JobTyp=22 DoJE=F Cont=F.
 PrismC:  IPart=     7 DynPar=T LinDyn=F Incr=        1024 UseFst=F UseS4=T ISplat=2.
 PrismC was handed    33456634 working-precision words and  3625 shell-pairs
 Enter PrismC:  IPart=  3 JobTyp=22 DoJE=F Cont=F.
 PrismC:  IPart=     3 DynPar=T LinDyn=F Incr=        1024 UseFst=F UseS4=T ISplat=2.
 PrismC was handed    33456634 working-precision words and  3625 shell-pairs
 Enter PrismC:  IPart= 13 JobTyp=22 DoJE=F Cont=F.
 PrismC:  IPart=    13 DynPar=T LinDyn=F Incr=        1024 UseFst=F UseS4=T ISplat=2.
 PrismC was handed    33456634 working-precision words and  3625 shell-pairs
 Enter PrismC:  IPart=  9 JobTyp=22 DoJE=F Cont=F.
 PrismC:  IPart=     9 DynPar=T LinDyn=F Incr=        1024 UseFst=F UseS4=T ISplat=2.
 PrismC was handed    33456634 working-precision words and  3625 shell-pairs
 Enter PrismC:  IPart= 18 JobTyp=22 DoJE=F Cont=F.
 PrismC:  IPart=    18 DynPar=T LinDyn=F Incr=        1024 UseFst=F UseS4=T ISplat=2.
 PrismC was handed    33456634 working-precision words and  3625 shell-pairs
 Enter PrismC:  IPart=  1 JobTyp=22 DoJE=F Cont=F.
 PrismC:  IPart=     1 DynPar=T LinDyn=F Incr=        1024 UseFst=F UseS4=T ISplat=2.
 PrismC was handed    33456634 working-precision words and  3625 shell-pairs
 IPart=  8 NShTot=     1679804 NShNF=     1679804 NShFF=           0 MinMC=       7
           NShCPU=     1679804 NBCPU=       66888 AvBCPU=        25.1
           NShGPU=           0 NBGPU=           0 AvBGPU=         0.0
 IPart= 17 NShTot=      147428 NShNF=      147428 NShFF=           0 MinMC=       7
           NShCPU=      147428 NBCPU=        6180 AvBCPU=        23.9
           NShGPU=           0 NBGPU=           0 AvBGPU=         0.0
 IPart= 19 NShTot=      147841 NShNF=      147841 NShFF=           0 MinMC=       7
           NShCPU=      147841 NBCPU=        6056 AvBCPU=        24.4
           NShGPU=           0 NBGPU=           0 AvBGPU=         0.0
 IPart= 14 NShTot=      144119 NShNF=      144119 NShFF=           0 MinMC=       7
           NShCPU=      144119 NBCPU=        5910 AvBCPU=        24.4
           NShGPU=           0 NBGPU=           0 AvBGPU=         0.0
 IPart=  9 NShTot=      147415 NShNF=      147415 NShFF=           0 MinMC=       7
           NShCPU=      147415 NBCPU=        5971 AvBCPU=        24.7
           NShGPU=           0 NBGPU=           0 AvBGPU=         0.0
 IPart= 13 NShTot=      132003 NShNF=      132003 NShFF=           0 MinMC=       7
           NShCPU=      132003 NBCPU=        5714 AvBCPU=        23.1
           NShGPU=           0 NBGPU=           0 AvBGPU=         0.0
 IPart=  2 NShTot=      137883 NShNF=      137883 NShFF=           0 MinMC=       7
           NShCPU=      137883 NBCPU=        5940 AvBCPU=        23.2
           NShGPU=           0 NBGPU=           0 AvBGPU=         0.0
 IPart=  7 NShTot=      143912 NShNF=      143912 NShFF=           0 MinMC=       7
           NShCPU=      143912 NBCPU=        5852 AvBCPU=        24.6
           NShGPU=           0 NBGPU=           0 AvBGPU=         0.0
 IPart= 18 NShTot=      145693 NShNF=      145693 NShFF=           0 MinMC=       7
           NShCPU=      145693 NBCPU=        6071 AvBCPU=        24.0
           NShGPU=           0 NBGPU=           0 AvBGPU=         0.0
 IPart=  5 NShTot=      143938 NShNF=      143938 NShFF=           0 MinMC=       7
           NShCPU=      143938 NBCPU=        6069 AvBCPU=        23.7
           NShGPU=           0 NBGPU=           0 AvBGPU=         0.0
 IPart=  1 NShTot=      135627 NShNF=      135627 NShFF=           0 MinMC=       7
           NShCPU=      135627 NBCPU=        6158 AvBCPU=        22.0
           NShGPU=           0 NBGPU=           0 AvBGPU=         0.0
 IPart= 16 NShTot=      140815 NShNF=      140815 NShFF=           0 MinMC=       7
           NShCPU=      140815 NBCPU=        5762 AvBCPU=        24.4
           NShGPU=           0 NBGPU=           0 AvBGPU=         0.0
 IPart= 15 NShTot=      140302 NShNF=      140302 NShFF=           0 MinMC=       7
           NShCPU=      140302 NBCPU=        5997 AvBCPU=        23.4
           NShGPU=           0 NBGPU=           0 AvBGPU=         0.0
 IPart=  3 NShTot=      147225 NShNF=      147225 NShFF=           0 MinMC=       7
           NShCPU=      147225 NBCPU=        6214 AvBCPU=        23.7
           NShGPU=           0 NBGPU=           0 AvBGPU=         0.0
 IPart= 12 NShTot=      138396 NShNF=      138396 NShFF=           0 MinMC=       7
           NShCPU=      138396 NBCPU=        6263 AvBCPU=        22.1
           NShGPU=           0 NBGPU=           0 AvBGPU=         0.0
 IPart= 10 NShTot=      238350 NShNF=      238350 NShFF=           0 MinMC=       7
           NShCPU=      238350 NBCPU=       10965 AvBCPU=        21.7
           NShGPU=           0 NBGPU=           0 AvBGPU=         0.0
 IPart=  0 NShTot=      229158 NShNF=      229158 NShFF=           0 MinMC=       7
           NShCPU=      229158 NBCPU=       10999 AvBCPU=        20.8
           NShGPU=           0 NBGPU=           0 AvBGPU=         0.0
 IPart= 11 NShTot=      139421 NShNF=      139421 NShFF=           0 MinMC=       7
           NShCPU=      139421 NBCPU=        6143 AvBCPU=        22.7
           NShGPU=           0 NBGPU=           0 AvBGPU=         0.0
 IPart=  6 NShTot=      139150 NShNF=      139150 NShFF=           0 MinMC=       7
           NShCPU=      139150 NBCPU=        5606 AvBCPU=        24.8
           NShGPU=           0 NBGPU=           0 AvBGPU=         0.0
 IPart=  4 NShTot=      151931 NShNF=      151931 NShFF=           0 MinMC=       7
           NShCPU=      151931 NBCPU=        6723 AvBCPU=        22.6
           NShGPU=           0 NBGPU=           0 AvBGPU=         0.0
 CoulSu:  NxtVal=        7009281 LenVP=       33456635 MinMC=       7.
 ReadGW:  IGet=0 IStart=           1 Next=           1 LGW=           0.
 Remaining memory in FofDFT      639.93 Mw
 CkSvGd:  ISavGI=        -1 IRadAn=       5 IRASav=       5 ISavGd=        -1.
 CalDSu-InSpLW:  IPartL=    0 NPrtUS=   20 NPrtUL=    1 DoSpLW=F IThBeg=    0 IThEnd=   19 NThAct=   20.
 CalDSu:  NPrtUS=  20 ThrOK=T IAlg=1 NPAlg=2 DoDPD=T LenP=       35245 LenD1P=             0 GPUOK=F
          ISkipM=0 DoSpLW=F IThBeg=    0 IThEnd=   19.
 IPart=  0 IRanGd=          0 ScrnBf=T ScrnGd=T RCrit=4.00D+00 DoMicB=T.
 IPart=  8        90768 of       106404 points in     123 batches and      684 microbatches, Max-NSigAt=      11 Max-NSgAt2=      11
 IPart= 18         7076 of         7768 points in       8 batches and       50 microbatches, Max-NSigAt=      11 Max-NSgAt2=      11
 IPart=  6         7263 of         7304 points in       6 batches and       18 microbatches, Max-NSigAt=      11 Max-NSgAt2=      11
 IPart= 16         6850 of         6904 points in       6 batches and       20 microbatches, Max-NSigAt=      11 Max-NSgAt2=      11
 IPart=  7         6193 of         6504 points in       6 batches and       27 microbatches, Max-NSigAt=      11 Max-NSgAt2=      11
 IPart= 17         8127 of         8276 points in       7 batches and       27 microbatches, Max-NSigAt=      11 Max-NSgAt2=      11
 IPart=  3         6679 of         7094 points in       7 batches and       43 microbatches, Max-NSigAt=      11 Max-NSgAt2=      11
 IPart= 19         6959 of         7480 points in       7 batches and       40 microbatches, Max-NSigAt=      11 Max-NSgAt2=      11
 IPart= 10         7271 of         7916 points in       8 batches and       47 microbatches, Max-NSigAt=      11 Max-NSgAt2=      11
 IPart= 11         6765 of         7160 points in       7 batches and       46 microbatches, Max-NSigAt=      11 Max-NSgAt2=      11
 IPart=  4         6468 of         6848 points in       7 batches and       35 microbatches, Max-NSigAt=      11 Max-NSgAt2=      11
 IPart=  5         6474 of         6834 points in       7 batches and       32 microbatches, Max-NSigAt=      11 Max-NSgAt2=      11
 IPart=  9         6765 of         7094 points in       7 batches and       36 microbatches, Max-NSigAt=      11 Max-NSgAt2=      11
 IPart=  0         8240 of         8724 points in       8 batches and       41 microbatches, Max-NSigAt=      11 Max-NSgAt2=      11
 IPart= 13         6980 of         7644 points in       8 batches and       46 microbatches, Max-NSigAt=      11 Max-NSgAt2=      11
 IPart= 12         7133 of         7466 points in       7 batches and       35 microbatches, Max-NSigAt=      11 Max-NSgAt2=      11
 IPart=  2         7001 of         7080 points in       6 batches and       19 microbatches, Max-NSigAt=      11 Max-NSgAt2=      11
 IPart= 14         6926 of         7080 points in       6 batches and       21 microbatches, Max-NSigAt=      11 Max-NSgAt2=      11
 IPart=  1         6998 of         7080 points in       6 batches and       21 microbatches, Max-NSigAt=      11 Max-NSgAt2=      11
 IPart= 15         7268 of         7740 points in       8 batches and       44 microbatches, Max-NSigAt=      11 Max-NSgAt2=      11
 Polarizability after L703:
                1             2             3 
      1  0.000000D+00
      2  0.000000D+00  0.000000D+00
      3  0.000000D+00  0.000000D+00  0.000000D+00
 Dipole Derivatives after L703:
                 1             2             3             4             5 
      1  -0.849598D-01  0.159000D+00 -0.505077D-02 -0.288157D+00  0.141327D+01
      2   0.241303D+00 -0.103882D+00 -0.881855D-02  0.311634D+00 -0.723918D+00
      3  -0.754578D-02 -0.746271D-02 -0.251806D+00  0.187547D-01 -0.368669D-01
                 6             7             8             9            10 
      1   0.875797D-01 -0.997899D+00  0.476622D+00 -0.424327D-01 -0.503077D+00
      2  -0.261535D-01  0.656151D-01 -0.848198D+00  0.263170D-01  0.528227D-02
      3  -0.397023D+00 -0.151051D-02  0.382115D-02 -0.805947D+00  0.152514D-01
                11            12            13            14            15 
      1  -0.531166D-01  0.984403D-02 -0.375063D+00 -0.290362D+00 -0.100031D-01
      2  -0.729758D+00 -0.200862D-01 -0.829332D-01 -0.642480D+00 -0.262171D-01
      3  -0.284701D-01  0.323732D-01  0.250614D-02 -0.225157D-01  0.344907D-01
                16            17            18            19            20 
      1   0.132950D+01  0.557500D-01 -0.362516D-01 -0.553933D-01 -0.281474D+00
      2  -0.202848D+00  0.135518D+00  0.846120D-02  0.992275D-01  0.327545D+00
      3  -0.123924D-02  0.626983D-03  0.971394D-01 -0.912603D-01 -0.159817D+00
                21            22            23            24            25 
      1   0.351326D+00 -0.534335D-01 -0.300054D+00 -0.274399D+00  0.221388D+00
      2  -0.262787D+00  0.131235D+00  0.367315D+00  0.230723D+00 -0.255168D+00
      3   0.440101D+00  0.952105D-01  0.165473D+00  0.397443D+00 -0.575563D-02
                26            27            28            29            30 
      1  -0.192339D+00 -0.447065D-02  0.107047D+00  0.211176D+00  0.872682D-02
      2   0.865531D+00  0.245325D-01 -0.206694D+00  0.744892D+00  0.304181D-01
      3   0.249784D-01  0.740035D-01 -0.132981D-01  0.268963D-01  0.997908D-01
                31            32            33 
      1   0.700053D+00 -0.119847D+01 -0.848679D-01
      2  -0.106654D+00  0.607436D+00  0.236104D-01
      3  -0.111132D-01  0.333366D-01  0.279434D+00
 Hessian after L703:
                1             2             3             4             5 
      1  0.443071D+00
      2 -0.586756D-01  0.371289D+00
      3 -0.248099D-02 -0.639078D-02  0.872890D-01
      4 -0.229834D-01  0.157421D-02  0.851840D-03  0.452795D+00
      5 -0.121926D-02 -0.275282D-02 -0.860955D-03 -0.597362D-01  0.431689D+00
      6  0.453772D-03 -0.515414D-03  0.124879D-01 -0.109378D-01  0.242255D-01
      7 -0.972401D-01  0.121245D-01 -0.381631D-03  0.300790D-02  0.157075D-02
      8  0.534226D-01 -0.203286D+00  0.357746D-02 -0.100357D-01 -0.231697D-02
      9 -0.212167D-02  0.223768D-02 -0.672695D-01  0.121676D-03 -0.116062D-03
     10 -0.266479D+00  0.142992D-01  0.223809D-02 -0.355812D-01 -0.359793D-01
     11 -0.310155D-01 -0.104407D+00  0.250575D-03  0.564235D-03  0.995553D-02
     12  0.420580D-02 -0.468694D-03 -0.434919D-01  0.857990D-05  0.104476D-02
     13 -0.267525D-01 -0.309839D-01 -0.131900D-02 -0.306891D+00  0.252350D-01
     14 -0.744917D-02  0.916982D-02  0.143763D-02 -0.209145D-01 -0.105716D+00
     15  0.749139D-03  0.139804D-02  0.332037D-02  0.346942D-02 -0.405814D-02
     16 -0.136110D-01  0.502794D-02  0.220375D-03 -0.702441D-03  0.160125D-03
     17  0.407708D-01 -0.375653D-02 -0.680627D-03  0.663684D-03  0.810098D-03
     18 -0.109521D-02  0.185602D-03 -0.504817D-03  0.145633D-05  0.592786D-04
     19  0.110829D-02  0.857933D-02 -0.113036D-01  0.599829D-03  0.251805D-03
     20  0.140413D-02 -0.328641D-01  0.277980D-01  0.110691D-02  0.846653D-04
     21 -0.399671D-02  0.628399D-02  0.533803D-02 -0.848131D-03 -0.631125D-03
     22  0.254508D-02  0.106786D-01  0.117663D-01  0.518749D-03  0.406893D-03
     23 -0.356424D-04 -0.356056D-01 -0.256276D-01  0.105519D-02  0.204279D-03
     24  0.393577D-02 -0.220965D-02  0.767994D-02  0.608499D-03  0.862243D-03
     25 -0.207775D-01  0.351356D-01  0.565687D-03  0.381110D-02 -0.149692D-02
     26  0.304303D-02  0.237519D-02  0.197166D-03  0.841599D-03  0.269714D-02
     27  0.314502D-03 -0.664669D-03  0.492051D-03 -0.314178D-03  0.481000D-03
     28 -0.305716D-03  0.332487D-02 -0.968158D-04 -0.193064D-01  0.344841D-01
     29  0.163687D-02  0.663775D-03  0.899207D-04  0.290540D-02  0.284145D-02
     30  0.850198D-04  0.134598D-03 -0.405312D-02  0.691597D-03 -0.655643D-03
     31  0.142409D-02 -0.108471D-02 -0.602815D-04 -0.752683D-01  0.363229D-01
     32 -0.188217D-02 -0.825614D-03  0.209215D-03  0.819751D-01 -0.337496D+00
     33 -0.494198D-04  0.930503D-05 -0.128796D-02  0.634703D-02 -0.203509D-01
                6             7             8             9            10 
      6  0.557671D-01
      7  0.127492D-03  0.554461D+00
      8  0.167329D-03  0.348030D-01  0.463373D+00
      9 -0.152737D-03  0.185838D-01  0.355896D-01  0.546321D+00
     10 -0.619529D-03 -0.374527D-01  0.199892D-01  0.544567D-03  0.666013D+00
     11 -0.409797D-04  0.463590D-01 -0.132765D-01 -0.148515D-03  0.136289D+00
     12  0.414597D-02 -0.829595D-03  0.535669D-04  0.127703D-03 -0.224226D-02
     13  0.633774D-02 -0.732026D-02 -0.132566D-02  0.520378D-03 -0.270098D+00
     14 -0.306379D-02  0.477790D-03  0.748278D-02  0.149480D-03 -0.211304D+00
     15 -0.374646D-01 -0.403357D-03 -0.442315D-03 -0.436293D-03 -0.443049D-02
     16  0.114267D-04 -0.250231D+00 -0.193311D-01  0.326482D-02  0.220971D-02
     17 -0.128669D-04 -0.316170D-01 -0.579258D-01  0.161944D-03  0.572563D-04
     18  0.167510D-03  0.487160D-02 -0.190549D-03 -0.592646D-01  0.122084D-03
[...]
     Eigenvalues ---    0.04427   0.08806   0.08811   0.10931   0.13133
     Eigenvalues ---    0.13659   0.16238   0.17950   0.18678   0.20377
     Eigenvalues ---    0.22501   0.31078   0.33040   0.33499   0.35244
     Eigenvalues ---    0.36308   0.37434   0.40546   0.44209   0.51139
     Eigenvalues ---    0.54165   0.65553
 Angle between quadratic step and forces=  73.93 degrees.
 Linear search not attempted -- first point.
 Iteration  1 RMS(Cart)=  0.00000997 RMS(Int)=  0.00000000
 Iteration  2 RMS(Cart)=  0.00000000 RMS(Int)=  0.00000000
 ITry= 1 IFail=0 DXMaxC= 3.18D-05 DCOld= 1.00D+10 DXMaxT= 3.00D-01 DXLimC= 3.00D+00 Rises=F
 Variable       Old X    -DE/DX   Delta X   Delta X   Delta X     New X
                                 (Linear)    (Quad)   (Total)
    R1        2.65860   0.00000   0.00000   0.00000   0.00000   2.65861
    R2        2.56838   0.00000   0.00000   0.00000   0.00000   2.56838
    R3        2.58763   0.00000   0.00000   0.00000   0.00000   2.58763
    R4        1.81657   0.00000   0.00000   0.00000   0.00000   1.81657
    R5        2.05178  -0.00000   0.00000  -0.00000  -0.00000   2.05178
    R6        2.06763   0.00000   0.00000   0.00000   0.00000   2.06763
    R7        2.06763  -0.00000   0.00000  -0.00000  -0.00000   2.06763
    R8        2.51125   0.00000   0.00000   0.00000   0.00000   2.51125
    R9        2.04733   0.00000   0.00000   0.00000   0.00000   2.04733
   R10        2.03836   0.00000   0.00000   0.00000   0.00000   2.03837
    A1        2.01872  -0.00000   0.00000  -0.00000  -0.00000   2.01872
    A2        1.91222   0.00000   0.00000   0.00000   0.00000   1.91222
    A3        1.86506   0.00000   0.00000   0.00000   0.00000   1.86506
    A4        1.93529  -0.00000   0.00000  -0.00000  -0.00000   1.93529
    A5        1.93529   0.00000   0.00000   0.00000   0.00000   1.93529
    A6        1.91341  -0.00000   0.00000   0.00000   0.00000   1.91341
    A7        1.91341  -0.00000   0.00000   0.00000   0.00000   1.91341
    A8        1.90113  -0.00000   0.00000  -0.00000  -0.00000   1.90113
    A9        2.21963  -0.00000   0.00000  -0.00000  -0.00000   2.21963
   A10        1.94478   0.00000   0.00000   0.00000   0.00000   1.94478
   A11        2.11878   0.00000   0.00000   0.00000   0.00000   2.11878
   A12        2.17288   0.00000   0.00000   0.00000   0.00000   2.17288
   A13        1.94814   0.00000   0.00000   0.00000   0.00000   1.94814
   A14        2.16216  -0.00000   0.00000  -0.00000  -0.00000   2.16216
    D1        3.14158   0.00000   0.00000   0.00001   0.00001  -3.14159
    D2       -1.05717   0.00000   0.00000   0.00001   0.00001  -1.05716
    D3        1.05714   0.00000   0.00000   0.00001   0.00001   1.05716
    D4        0.00000   0.00000   0.00000  -0.00000  -0.00000  -0.00000
    D5       -3.14159   0.00000   0.00000  -0.00000  -0.00000   3.14159
    D6        0.00002  -0.00000   0.00000  -0.00002  -0.00002   0.00000
    D7       -3.14157  -0.00000   0.00000  -0.00002  -0.00002  -3.14159
    D8       -3.14159  -0.00000   0.00000  -0.00000  -0.00000  -3.14159
    D9        0.00000  -0.00000   0.00000  -0.00000  -0.00000   0.00000
   D10        0.00000   0.00000   0.00000  -0.00000  -0.00000   0.00000
   D11       -3.14159   0.00000   0.00000  -0.00000  -0.00000  -3.14159
         Item               Value     Threshold  Converged?
 Maximum Force            0.000001     0.000015     YES
 RMS     Force            0.000000     0.000010     YES
 Maximum Displacement     0.000032     0.000060     YES
 RMS     Displacement     0.000010     0.000040     YES
 Predicted change in Energy=-1.018905D-11
 Optimization completed.
    -- Stationary point found.
                           ----------------------------
                           !   Optimized Parameters   !
                           ! (Angstroms and Degrees)  !
 --------------------------                            --------------------------
 ! Name  Definition              Value          Derivative Info.                !
 --------------------------------------------------------------------------------
 ! R1    R(1,3)                  1.4069         -DE/DX =    0.0                 !
 ! R2    R(1,4)                  1.3591         -DE/DX =    0.0                 !
 ! R3    R(2,5)                  1.3693         -DE/DX =    0.0                 !
 ! R4    R(2,11)                 0.9613         -DE/DX =    0.0                 !
 ! R5    R(3,6)                  1.0858         -DE/DX =    0.0                 !
 ! R6    R(3,7)                  1.0941         -DE/DX =    0.0                 !
 ! R7    R(3,8)                  1.0941         -DE/DX =    0.0                 !
 ! R8    R(4,5)                  1.3289         -DE/DX =    0.0                 !
 ! R9    R(4,9)                  1.0834         -DE/DX =    0.0                 !
 ! R10   R(5,10)                 1.0787         -DE/DX =    0.0                 !
 ! A1    A(3,1,4)              115.6641         -DE/DX =    0.0                 !
 ! A2    A(5,2,11)             109.5622         -DE/DX =    0.0                 !
 ! A3    A(1,3,6)              106.86           -DE/DX =    0.0                 !
 ! A4    A(1,3,7)              110.8842         -DE/DX =    0.0                 !
 ! A5    A(1,3,8)              110.8841         -DE/DX =    0.0                 !
 ! A6    A(6,3,7)              109.63           -DE/DX =    0.0                 !
 ! A7    A(6,3,8)              109.63           -DE/DX =    0.0                 !
 ! A8    A(7,3,8)              108.9266         -DE/DX =    0.0                 !
 ! A9    A(1,4,5)              127.1756         -DE/DX =    0.0                 !
 ! A10   A(1,4,9)              111.4274         -DE/DX =    0.0                 !
 ! A11   A(5,4,9)              121.3969         -DE/DX =    0.0                 !
 ! A12   A(2,5,4)              124.4969         -DE/DX =    0.0                 !
 ! A13   A(2,5,10)             111.6203         -DE/DX =    0.0                 !
 ! A14   A(4,5,10)             123.8827         -DE/DX =    0.0                 !
 ! D1    D(4,1,3,6)           -180.0008         -DE/DX =    0.0                 !
 ! D2    D(4,1,3,7)            -60.5715         -DE/DX =    0.0                 !
 ! D3    D(4,1,3,8)             60.5699         -DE/DX =    0.0                 !
 ! D4    D(3,1,4,5)              0.0001         -DE/DX =    0.0                 !
 ! D5    D(3,1,4,9)            180.0002         -DE/DX =    0.0                 !
 ! D6    D(11,2,5,4)             0.0012         -DE/DX =    0.0                 !
 ! D7    D(11,2,5,10)         -179.9988         -DE/DX =    0.0                 !
 ! D8    D(1,4,5,2)           -179.9998         -DE/DX =    0.0                 !
 ! D9    D(1,4,5,10)             0.0002         -DE/DX =    0.0                 !
 ! D10   D(9,4,5,2)              0.0            -DE/DX =    0.0                 !
 ! D11   D(9,4,5,10)          -179.9999         -DE/DX =    0.0                 !
 --------------------------------------------------------------------------------
 GradGradGradGradGradGradGradGradGradGradGradGradGradGradGradGradGradGrad

 Leave Link  103 at Thu Sep  5 17:16:20 2019, MaxMem=   671088640 cpu:             110.6 elap:             110.6
 (Enter /shared/centos7/gaussian/g16/l9999.exe)

 ----------------------------------------------------------------------

 Electric dipole moment (input orientation):
 (Debye = 10**-18 statcoulomb cm , SI units = C m)
                  (au)            (Debye)         (10**-30 SI)
   Tot        0.167485D+00      0.425704D+00      0.142000D+01
   x         -0.976080D-02     -0.248095D-01     -0.827555D-01
   y         -0.164615D+00     -0.418409D+00     -0.139566D+01
   z          0.292902D-01      0.744481D-01      0.248332D+00

 Dipole polarizability, Alpha (input orientation).
 (esu units = cm**3 , SI units = C**2 m**2 J**-1)
 Alpha(0;0):
               (au)            (10**-24 esu)      (10**-40 SI)
   iso        0.437928D+02      0.648943D+01      0.722046D+01
   aniso      0.213475D+02      0.316337D+01      0.351973D+01
   xx         0.443006D+02      0.656468D+01      0.730419D+01
   yx         0.324816D+01      0.481327D+00      0.535549D+00
   yy         0.546362D+02      0.809624D+01      0.900829D+01
   zx         0.193159D+01      0.286233D+00      0.318477D+00
   zy        -0.377903D+01     -0.559994D+00     -0.623078D+00
   zz         0.324416D+02      0.480735D+01      0.534890D+01

 ----------------------------------------------------------------------

 Dipole orientation:
     8          0.54318146          1.80076086          1.67895840
     8          0.61208945          1.81007790         -5.25118691
     6         -2.05358187          1.42867257          2.11087266
     6          1.25739345          1.90291194         -0.78600682
     6         -0.22157730          1.69081322         -2.80443661
     1         -2.31906641          1.39076292          4.14505274
     1         -3.16480979          2.96908754          1.29393003
     1         -2.68747286         -0.36192921          1.29414924
     1          3.27595854          2.19215588         -0.96846552
     1         -2.23721106          1.40198440         -2.71100323
     1          2.41020797          2.06770827         -5.26922979

 Electric dipole moment (dipole orientation):
 (Debye = 10**-18 statcoulomb cm , SI units = C m)
                  (au)            (Debye)         (10**-30 SI)
   Tot        0.167485D+00      0.425704D+00      0.142000D+01
   x          0.000000D+00      0.000000D+00      0.000000D+00
   y          0.000000D+00      0.000000D+00      0.000000D+00
   z          0.167485D+00      0.425704D+00      0.142000D+01

 Dipole polarizability, Alpha (dipole orientation).
 (esu units = cm**3 , SI units = C**2 m**2 J**-1)
 Alpha(0;0):
               (au)            (10**-24 esu)      (10**-40 SI)
   iso        0.437928D+02      0.648943D+01      0.722046D+01
   aniso      0.213475D+02      0.316337D+01      0.351973D+01
   xx         0.442151D+02      0.655200D+01      0.729008D+01
   yx         0.184407D+01      0.273263D+00      0.304046D+00
   yy         0.316092D+02      0.468400D+01      0.521166D+01
   zx        -0.222069D+01     -0.329073D+00     -0.366143D+00
   zy        -0.316265D+00     -0.468657D-01     -0.521451D-01
   zz         0.555541D+02      0.823227D+01      0.915964D+01

 ----------------------------------------------------------------------

 Test job not archived.
 1\1\GINC-C0161\Freq\RM062X\CC-pVTZ\C3H6O2\HARMS.N\05-Sep-2019\0\\#P Ge
 om=AllCheck Guess=TCheck SCRF=Check Test GenChk RM062X/CC-pVTZ Freq\\G
 aussian input prepared by ASE\\0,1\O,0.1883711132,-0.7178508763,1.1087
 200404\O,0.4382138027,2.885676932,0.4743497978\C,-1.1855248861,-0.9105
 01965,0.8750810809\C,0.6386067153,0.5553825308,0.9557588474\C,-0.07404
 85326,1.6233891858,0.6130404221\H,-1.387362684,-1.9652137459,1.0354269
 909\H,-1.7864089213,-0.312021799,1.5663914847\H,-1.4486118583,-0.63781
 10862,-0.1513581866\H,1.7018620788,0.6254133184,1.1515637868\H,-1.1330
 223791,1.5996246759,0.409303064\H,1.3808961711,2.8729070053,0.66212937
 17\\Version=EM64L-G16RevA.03\State=1-A\HF=-268.3193098\RMSD=1.679e-09\
 RMSF=4.369e-07\ZeroPoint=0.0911027\Thermal=0.0968973\Dipole=-0.0097608
 ,-0.1646148,0.0292902\DipoleDeriv=-0.834823,-0.5815981,-0.0016842,-0.2
 158705,-1.2683187,0.1477996,-0.0710556,0.0758774,-0.2936549,-0.3391681
 ,-0.5419425,0.1064716,-0.1834875,-1.2879353,0.1403283,0.0384818,0.0698
 346,-0.3635654,0.706416,0.3563607,0.0028131,0.0391939,0.3035776,0.0162
 056,0.0629733,0.0785785,0.3458647,0.2557118,0.4280944,-0.0020204,0.171
 8284,0.9519713,-0.1746432,0.0465873,-0.1242496,-0.1141976,0.1339057,0.
 5107873,-0.0401075,0.1041365,0.9736885,-0.1935737,0.0370242,-0.1136049
 ,-0.1259856,0.0430003,-0.032193,-0.0018254,-0.0673332,-0.1038104,0.022
 2535,0.0048392,0.0291635,0.0787561,-0.0474782,-0.036127,0.02986,0.1002
 595,0.0046196,-0.0926799,0.0637859,-0.0625264,-0.0454774,-0.0149641,-0
 .0549236,0.0107753,0.0395049,0.051103,0.0752188,-0.0669297,-0.0003252,
 -0.1244736,-0.0726982,-0.0749394,-0.0343641,-0.0699099,0.017697,0.0159
 621,-0.0353173,0.0149729,0.1645464,-0.0195977,-0.0546965,-0.0280905,-0
 .0183878,0.0629226,0.017834,-0.0349783,0.0106956,0.1671007,0.1896956,0
 .0811778,-0.0418279,0.1000656,0.2944848,0.0252948,-0.0454108,0.0215835
 ,0.3110866\Polar=44.3006432,3.2481584,54.6361644,1.9315938,-3.7790301,
 32.4416379\Quadrupole=4.2421792,-2.4779757,-1.7642035,3.7811896,0.4478
 669,0.894376\PG=C01 [X(C3H6O2)]\NImag=0\\0.45753462,0.12347796,0.45063
 803,0.05171505,-0.04688005,0.09452139,-0.00537132,-0.00725894,-0.00230
 631,0.63387847,-0.00863053,-0.02219000,0.00504534,0.08357869,0.3953314
 6,-0.00204631,0.00531503,0.01194780,0.10376578,-0.05370603,0.05612190,
 -0.24622979,-0.03224889,-0.02969426,0.00172978,0.01089166,-0.00171598,
 0.49182397,0.00593960,-0.08867907,0.00582531,-0.00029909,0.00086507,-0
 .00023223,0.00017318,0.63535227,-0.03693785,-0.00168452,-0.07106954,0.
 00040655,0.00196851,-0.00034257,-0.01516141,-0.01259774,0.56815627,-0.
 12202807,-0.04483813,-0.00836175,0.01644136,-0.01836395,0.00633450,-0.
 03217696,-0.04723824,0.00294648,0.74230099,-0.08899602,-0.30338314,0.0
 3316537,0.01880964,-0.03616924,0.01092799,-0.01832217,-0.01849880,-0.0
 0039757,-0.09334592,0.77029107,0.00001391,0.04184931,-0.04419443,-0.00
 071660,0.00361777,0.00111553,-0.00253819,-0.00608390,-0.00094333,0.141
 41515,-0.14298755,0.16814434,0.01835368,-0.00635249,0.00437766,-0.1321
 2598,-0.05182650,-0.00971495,0.00629487,-0.00361987,0.00197961,-0.2727
 0020,0.17298810,-0.07655897,0.75314910,0.01755672,-0.03165131,0.009877
 08,-0.10035217,-0.29243176,0.02952579,-0.00204432,-0.00282669,0.000080
 90,0.18791373,-0.37866915,0.09924876,-0.09956620,0.76115000,-0.0001571
 3,0.00517519,0.00120649,-0.00051123,0.03906726,-0.04023953,0.00168066,
 -0.00022878,0.00009391,-0.07939014,0.09631377,-0.08411613,0.14505098,-
 0.14279063,0.16717189,-0.01920767,-0.04328481,0.00445763,0.00033998,-0
 .00095281,0.00022153,-0.05215273,-0.03108333,0.00582263,-0.00533085,0.
 00166795,-0.00152381,-0.00100856,0.00115777,-0.00048706,0.07019786,-0.
 00514439,-0.00278146,-0.00050834,-0.00040012,-0.00036742,0.00001613,-0
 .04505230,-0.31602762,0.04125707,0.00009199,0.00241669,-0.00028695,0.0
 0051523,0.00030283,0.00011056,0.05206138,0.33652424,-0.00277628,-0.008
 00879,0.00084476,0.00011671,-0.00009255,0.00017296,0.00847203,0.044004
 09,-0.05846355,-0.00122477,0.00002311,0.00056346,-0.00036518,0.0002369
 3,0.00023480,-0.00537392,-0.04461388,0.05471879,-0.04185964,0.01323376
 ,0.01923668,-0.00025272,-0.00118276,-0.00007284,-0.11290683,0.06851423
 ,0.08162615,0.00289238,0.00748564,-0.00048869,0.00127107,-0.00028245,0
 .00004325,0.00458138,-0.00183091,-0.00375035,0.14059482,-0.00168757,0.
 00463866,0.00598996,0.00010640,0.00102019,-0.00058183,0.07318167,-0.13
 294990,-0.09340079,-0.00149778,0.00394298,0.00029322,0.00194452,-0.001
 56897,0.00099443,0.01540534,-0.01458465,-0.02083704,-0.08170418,0.1357
 4960,-0.00341299,0.00622334,0.01018384,-0.00037242,0.00062658,-0.00013
 662,0.08589464,-0.09221775,-0.16094938,-0.00057112,0.00011941,0.000297
 37,0.00156451,-0.00121222,-0.00018115,-0.00405508,0.00362687,0.0044304
 7,-0.09390263,0.10013333,0.16587086,-0.02823627,0.00332962,-0.03890950
 ,-0.00045045,-0.00071353,0.00028453,-0.05812905,0.01082848,-0.04117978
 ,0.00258617,0.00705709,-0.00141719,0.00171049,-0.00064432,0.00094135,0
 .00225494,0.00014157,0.00473894,0.00583444,-0.00469565,0.01521798,0.07
 473160,-0.00160953,0.00144314,-0.00514219,0.00005997,0.00079640,0.0002
 7934,0.01290804,-0.07013666,0.06288738,-0.00058569,0.00376158,-0.00194
 746,0.00154397,-0.00124252,0.00001018,0.00613758,-0.00538465,0.0295129
 3,-0.00343330,0.00469499,-0.01772640,-0.01460551,0.06758738,-0.0124932
 0,-0.00147012,-0.00024434,0.00019290,-0.00133470,0.00028495,-0.0467279
 6,0.06037736,-0.27853861,0.00181881,0.00149600,0.00078509,-0.00141740,
 0.00134867,-0.00094717,0.00063744,0.00048046,-0.00244301,-0.00304818,0
 .00630978,-0.01890910,0.06038119,-0.06685199,0.29989483,-0.01284242,-0
 .00790464,-0.00117596,0.00265474,-0.00010467,0.00170543,0.00359212,-0.
 00119434,0.00039601,-0.32565338,-0.00852701,-0.05529957,-0.01455447,-0
 .00496952,-0.00338511,-0.00059178,-0.00009198,-0.00016763,-0.00012039,
 0.00016336,0.00003442,-0.00028875,0.00004780,-0.00011782,0.34790586,-0
 .03992273,-0.00974502,-0.00585794,0.00160406,0.00319720,-0.00141330,0.
 00063467,-0.00448623,0.00149364,-0.00253997,-0.05299308,0.00268214,0.0
 2294633,0.00467758,0.00503876,-0.00149429,-0.00020376,-0.00018894,-0.0
 0038836,-0.00000034,0.00010003,-0.00012996,0.00001856,-0.00024121,0.01
 887430,0.06383434,0.00489707,0.00043844,0.00164160,0.00138123,-0.00174
 936,-0.00531341,0.00004905,0.00113393,0.00252496,-0.05643511,0.0015047
 3,-0.04760275,-0.00868005,-0.00045077,0.00583151,0.00009835,0.00008682
 ,0.00035225,-0.00046204,-0.00023345,-0.00016389,0.00051699,0.00023572,
 -0.00001440,0.06045276,-0.00416899,0.03496530,-0.00051118,-0.00082280,
 0.00079582,-0.01277320,-0.00629459,-0.00164403,-0.00074186,-0.00201069
 ,0.00042412,-0.01117830,-0.00173715,-0.00315509,-0.33848416,0.00295782
 ,-0.06004687,0.00074877,-0.00033768,0.00031679,-0.00010788,-0.00109952
 ,-0.00029140,-0.00001662,-0.00034946,0.00058109,0.00023861,0.00141035,
 -0.00188295,0.36110758,-0.00227914,0.00131259,-0.00141120,-0.03773479,
 -0.00661495,-0.00585082,0.00069251,-0.00255551,0.00043887,0.02343640,0
 .00863013,0.00421258,0.00782862,-0.05315176,0.00479567,0.00016021,0.00
 008938,-0.00008718,-0.00050725,-0.00082610,0.00043605,-0.00062553,-0.0
 0152061,-0.00025168,0.00176143,-0.00368971,0.00264966,0.00993572,0.063
 60818,0.00107211,-0.00112479,-0.00334035,0.00431940,0.00033170,0.00244
 568,-0.00008856,-0.00009267,-0.00095942,-0.00793002,-0.00073772,0.0051
 2203,-0.06097081,0.00383776,-0.04870227,0.00022234,-0.00018508,-0.0004
 5754,0.00084239,0.00149053,-0.00039057,-0.00061270,-0.00136838,0.00021
 257,-0.00194957,0.00258061,0.00758069,0.06471667,-0.00585771,0.0362622
 5,0.00039805,0.00266936,-0.00013504,-0.50407067,-0.00640101,-0.0971176
 7,-0.00110351,-0.00000993,-0.00032250,0.00484686,0.00291984,0.00026905
 ,-0.02190584,-0.00172704,-0.00373870,0.00016867,0.00004720,0.00001367,
 0.00007337,-0.00011661,-0.00010590,0.00000351,-0.00011387,0.00019314,-
 0.00034013,-0.00099440,0.00006469,0.00171824,-0.00266818,0.00037875,0.
 52021144,0.00129563,0.00039758,-0.00010334,0.04188636,-0.04343695,0.01
 571992,-0.00081406,-0.00005686,-0.00004575,-0.00303243,0.00067098,-0.0
 0059794,-0.04640173,-0.00458826,-0.00848640,0.00022500,0.00001642,0.00
 005131,0.00009559,-0.00011646,-0.00010924,0.00005774,-0.00001762,0.000
 13743,0.00194527,-0.00060955,0.00055327,-0.00165200,-0.00528165,0.0011
 2575,0.00639463,0.05302237,0.00012563,0.00016695,-0.00149723,-0.106276
 00,0.00622549,-0.02605670,-0.00017000,0.00011237,0.00049125,0.00139797
 ,0.00057245,0.00082883,0.00473459,0.00029773,-0.00035234,-0.00002006,0
 .00001634,0.00004660,-0.00002373,-0.00015814,-0.00005183,0.00003818,0.
 00011086,-0.00008080,-0.00049296,-0.00002481,0.00019814,0.00018585,0.0
 0092576,0.00222692,0.10050052,-0.00824500,0.02424715\\-0.00000115,0.00
 000046,-0.00000027,0.00000025,-0.00000021,0.00000017,0.00000057,0.0000
 0142,0.00000044,-0.00000015,-0.00000058,0.00000015,0.00000027,0.000000
 16,-0.00000001,-0.00000035,-0.00000089,0.00000006,0.00000025,-0.000000
 32,-0.00000041,-0.00000004,0.00000025,-0.00000007,-0.00000008,-0.00000
 024,0.,0.00000025,0.00000017,-0.00000005,0.00000016,-0.00000022,-0.000
 00002\\\@


 IF YOU DON'T HAVE THE LAW - ARGUE THE FACTS.
 IF YOU DON'T HAVE THE FACTS - ARGUE THE LAW.
 IF YOU DON'T HAVE EITHER - POUND THE TABLE.
 Job cpu time:       0 days  1 hours 13 minutes 33.8 seconds.
 Elapsed time:       0 days  0 hours 42 minutes  5.1 seconds.
 File lengths (MBytes):  RWF=   1312 Int=      0 D2E=      0 Chk=     32 Scr=     32
 Normal termination of Gaussian 16 at Thu Sep  5 17:16:22 2019.
