 Entering Gaussian System, Link 0=g16
 Input=med/species/COC=CO/conformers/COC=CO_29.com
 Output=med/species/COC=CO/conformers/COC=CO_29.log
 Initial command:
 /shared/centos7/gaussian/g16/l1.exe "/scratch/harms.n/gauss_scrdir/Gau-6185.inp" -scrdir="/scratch/harms.n/gauss_scrdir/"
 Entering Link 1 = /shared/centos7/gaussian/g16/l1.exe PID=      6186.
  
 Copyright (c) 1988,1990,1992,1993,1995,1998,2003,2009,2016,
            Gaussian, Inc.  All Rights Reserved.
  
 This is part of the Gaussian(R) 16 program.  It is based on
 the Gaussian(R) 09 system (copyright 2009, Gaussian, Inc.),
 the Gaussian(R) 03 system (copyright 2003, Gaussian, Inc.),
 the Gaussian(R) 98 system (copyright 1998, Gaussian, Inc.),
 the Gaussian(R) 94 system (copyright 1995, Gaussian, Inc.),
 the Gaussian 92(TM) system (copyright 1992, Gaussian, Inc.),
 the Gaussian 90(TM) system (copyright 1990, Gaussian, Inc.),
 the Gaussian 88(TM) system (copyright 1988, Gaussian, Inc.),
 the Gaussian 86(TM) system (copyright 1986, Carnegie Mellon
 University), and the Gaussian 82(TM) system (copyright 1983,
 Carnegie Mellon University). Gaussian is a federally registered
 trademark of Gaussian, Inc.
  
 This software contains proprietary and confidential information,
 including trade secrets, belonging to Gaussian, Inc.
  
 This software is provided under written license and may be
 used, copied, transmitted, or stored only in accord with that
 written license.
  
 The following legend is applicable only to US Government
 contracts under FAR:
  
                    RESTRICTED RIGHTS LEGEND
  
 Use, reproduction and disclosure by the US Government is
 subject to restrictions as set forth in subparagraphs (a)
 and (c) of the Commercial Computer Software - Restricted
 Rights clause in FAR 52.227-19.
  
 Gaussian, Inc.
 340 Quinnipiac St., Bldg. 40, Wallingford CT 06492
  
  
 ---------------------------------------------------------------
 Warning -- This program may not be used in any manner that
 competes with the business of Gaussian, Inc. or will provide
 assistance to any competitor of Gaussian, Inc.  The licensee
 of this program is prohibited from giving any competitor of
 Gaussian, Inc. access to this program.  By using this program,
 the user acknowledges that Gaussian, Inc. is engaged in the
 business of creating and licensing software in the field of
 computational chemistry and represents and warrants to the
 licensee that it is not a competitor of Gaussian, Inc. and that
 it will not use this program in any manner prohibited above.
 ---------------------------------------------------------------
  

 Cite this work as:
 Gaussian 16, Revision A.03,
 M. J. Frisch, G. W. Trucks, H. B. Schlegel, G. E. Scuseria, 
 M. A. Robb, J. R. Cheeseman, G. Scalmani, V. Barone, 
 G. A. Petersson, H. Nakatsuji, X. Li, M. Caricato, A. V. Marenich, 
 J. Bloino, B. G. Janesko, R. Gomperts, B. Mennucci, H. P. Hratchian, 
 J. V. Ortiz, A. F. Izmaylov, J. L. Sonnenberg, D. Williams-Young, 
 F. Ding, F. Lipparini, F. Egidi, J. Goings, B. Peng, A. Petrone, 
 T. Henderson, D. Ranasinghe, V. G. Zakrzewski, J. Gao, N. Rega, 
 G. Zheng, W. Liang, M. Hada, M. Ehara, K. Toyota, R. Fukuda, 
 J. Hasegawa, M. Ishida, T. Nakajima, Y. Honda, O. Kitao, H. Nakai, 
 T. Vreven, K. Throssell, J. A. Montgomery, Jr., J. E. Peralta, 
 F. Ogliaro, M. J. Bearpark, J. J. Heyd, E. N. Brothers, K. N. Kudin, 
 V. N. Staroverov, T. A. Keith, R. Kobayashi, J. Normand, 
 K. Raghavachari, A. P. Rendell, J. C. Burant, S. S. Iyengar, 
 J. Tomasi, M. Cossi, J. M. Millam, M. Klene, C. Adamo, R. Cammi, 
 J. W. Ochterski, R. L. Martin, K. Morokuma, O. Farkas, 
 J. B. Foresman, and D. J. Fox, Gaussian, Inc., Wallingford CT, 2016.
 
 ******************************************
 Gaussian 16:  EM64L-G16RevA.03 25-Dec-2016
                29-Sep-2019 
 ******************************************
 %nprocshared=20
 Will use up to   20 processors via shared memory.
 %mem=5GB
 ----------------------------------------------------------------------
 #p m062x/cc-pVTZ opt=(calcfc,maxcycles=900,Tight) freq IOP(7/33=1,2/16
 =3) scf=(maxcycle=900)
 ----------------------------------------------------------------------
 1/6=900,7=10,10=4,18=20,19=15,26=3,38=1/1,3;
 2/9=110,12=2,16=3,17=6,18=5,40=1/2;
 3/5=16,6=1,11=2,25=1,30=1,71=2,74=-55,140=1/1,2,3;
 4//1;
 5/5=2,7=900,38=5/2;
 8/6=4,10=90,11=11/1;
 11/6=1,8=1,9=11,15=111,16=1/1,2,10;
 10/6=1,13=1/2;
 6/7=2,8=2,9=2,10=2,28=1/1;
 7/10=1,18=20,25=1,33=1/1,2,3,16;
 1/6=900,7=10,10=4,18=20,19=15,26=3/3(2);
 2/9=110,16=3/2;
 99//99;
 2/9=110,16=3/2;
 3/5=16,6=1,11=2,25=1,30=1,71=1,74=-55/1,2,3;
 4/5=5,16=3,69=1/1;
 5/5=2,7=900,38=5/2;
 7/33=1/1,2,3,16;
 1/6=900,7=10,18=20,19=15,26=3/3(-5);
 2/9=110,16=3/2;
 6/7=2,8=2,9=2,10=2,19=2,28=1/1;
 99/9=1/99;
 Leave Link    1 at Sun Sep 29 00:07:31 2019, MaxMem=   671088640 cpu:               5.0 elap:               2.5
 (Enter /shared/centos7/gaussian/g16/l101.exe)
 ------------------------------
 Gaussian input prepared by ASE
 ------------------------------
 Symbolic Z-matrix:
 Charge =  0 Multiplicity = 1
 O                     0.1956   -0.77631   1.15086 
 O                     0.07732   0.71478  -1.40345 
 C                    -1.19214  -0.91514   0.83737 
 C                     0.6574    0.51288   0.91783 
 C                     0.63769   1.15593  -0.22545 
 H                    -1.40792  -0.69779  -0.24828 
 H                    -1.47408  -1.98501   1.05319 
 H                    -1.7937   -0.25382   1.46128 
 H                     1.14785   0.95916   1.78081 
 H                     1.02566   2.14795  -0.31621 
 H                     0.00247  -0.297    -1.33486 
 
 ITRead=  0  0  0  0  0  0  0  0  0  0  0
 MicOpt= -1 -1 -1 -1 -1 -1 -1 -1 -1 -1 -1
 NAtoms=     11 NQM=       11 NQMF=       0 NMMI=      0 NMMIF=      0
                NMic=       0 NMicF=      0.
                    Isotopes and Nuclear Properties:
 (Nuclear quadrupole moments (NQMom) in fm**2, nuclear magnetic moments (NMagM)
  in nuclear magnetons)

  Atom         1           2           3           4           5           6           7           8           9          10
 IAtWgt=          16          16          12          12          12           1           1           1           1           1
 AtmWgt=  15.9949146  15.9949146  12.0000000  12.0000000  12.0000000   1.0078250   1.0078250   1.0078250   1.0078250   1.0078250
 NucSpn=           0           0           0           0           0           1           1           1           1           1
 AtZEff=  -0.0000000  -0.0000000  -0.0000000  -0.0000000  -0.0000000  -0.0000000  -0.0000000  -0.0000000  -0.0000000  -0.0000000
 NQMom=    0.0000000   0.0000000   0.0000000   0.0000000   0.0000000   0.0000000   0.0000000   0.0000000   0.0000000   0.0000000
 NMagM=    0.0000000   0.0000000   0.0000000   0.0000000   0.0000000   2.7928460   2.7928460   2.7928460   2.7928460   2.7928460
 AtZNuc=   8.0000000   8.0000000   6.0000000   6.0000000   6.0000000   1.0000000   1.0000000   1.0000000   1.0000000   1.0000000

  Atom        11
 IAtWgt=           1
 AtmWgt=   1.0078250
 NucSpn=           1
 AtZEff=  -0.0000000
 NQMom=    0.0000000
 NMagM=    2.7928460
 AtZNuc=   1.0000000
 Leave Link  101 at Sun Sep 29 00:07:33 2019, MaxMem=   671088640 cpu:               3.8 elap:               1.9
 (Enter /shared/centos7/gaussian/g16/l103.exe)

 GradGradGradGradGradGradGradGradGradGradGradGradGradGradGradGradGradGrad
 Berny optimization.
 Initialization pass.
                           ----------------------------
                           !    Initial Parameters    !
                           ! (Angstroms and Degrees)  !
 --------------------------                            --------------------------
 ! Name  Definition              Value          Derivative Info.                !
 --------------------------------------------------------------------------------
 ! R1    R(1,3)                  1.4295         calculate D2E/DX2 analytically  !
 ! R2    R(1,4)                  1.3891         calculate D2E/DX2 analytically  !
 ! R3    R(2,5)                  1.3771         calculate D2E/DX2 analytically  !
 ! R4    R(2,11)                 1.0169         calculate D2E/DX2 analytically  !
 ! R5    R(3,6)                  1.128          calculate D2E/DX2 analytically  !
 ! R6    R(3,7)                  1.1272         calculate D2E/DX2 analytically  !
 ! R7    R(3,8)                  1.0902         calculate D2E/DX2 analytically  !
 ! R8    R(4,5)                  1.3119         calculate D2E/DX2 analytically  !
 ! R9    R(4,9)                  1.0883         calculate D2E/DX2 analytically  !
 ! R10   R(5,10)                 1.0691         calculate D2E/DX2 analytically  !
 ! A1    A(3,1,4)              112.0919         calculate D2E/DX2 analytically  !
 ! A2    A(5,2,11)             106.9181         calculate D2E/DX2 analytically  !
 ! A3    A(1,3,6)              112.2139         calculate D2E/DX2 analytically  !
 ! A4    A(1,3,7)              107.0376         calculate D2E/DX2 analytically  !
 ! A5    A(1,3,8)              110.565          calculate D2E/DX2 analytically  !
 ! A6    A(6,3,7)              108.6205         calculate D2E/DX2 analytically  !
 ! A7    A(6,3,8)              109.1694         calculate D2E/DX2 analytically  !
 ! A8    A(7,3,8)              109.1566         calculate D2E/DX2 analytically  !
 ! A9    A(1,4,5)              126.5929         calculate D2E/DX2 analytically  !
 ! A10   A(1,4,9)              113.4137         calculate D2E/DX2 analytically  !
 ! A11   A(5,4,9)              119.7897         calculate D2E/DX2 analytically  !
 ! A12   A(2,5,4)              126.4843         calculate D2E/DX2 analytically  !
 ! A13   A(2,5,10)             111.8586         calculate D2E/DX2 analytically  !
 ! A14   A(4,5,10)             121.5603         calculate D2E/DX2 analytically  !
 ! D1    D(4,1,3,6)             60.7709         calculate D2E/DX2 analytically  !
 ! D2    D(4,1,3,7)            179.8408         calculate D2E/DX2 analytically  !
 ! D3    D(4,1,3,8)            -61.3727         calculate D2E/DX2 analytically  !
 ! D4    D(3,1,4,5)            -59.0767         calculate D2E/DX2 analytically  !
 ! D5    D(3,1,4,9)            126.1654         calculate D2E/DX2 analytically  !
 ! D6    D(11,2,5,4)           -20.9369         calculate D2E/DX2 analytically  !
 ! D7    D(11,2,5,10)          162.6212         calculate D2E/DX2 analytically  !
 ! D8    D(1,4,5,2)              4.5056         calculate D2E/DX2 analytically  !
 ! D9    D(1,4,5,10)          -179.3703         calculate D2E/DX2 analytically  !
 ! D10   D(9,4,5,2)            178.9618         calculate D2E/DX2 analytically  !
 ! D11   D(9,4,5,10)            -4.9141         calculate D2E/DX2 analytically  !
 --------------------------------------------------------------------------------
 Trust Radius=3.00D-01 FncErr=1.00D-07 GrdErr=1.00D-06 EigMax=2.50D+02 EigMin=1.00D-04
 Number of steps in this run=    100 maximum allowed number of steps=    100.
 GradGradGradGradGradGradGradGradGradGradGradGradGradGradGradGradGradGrad

 Leave Link  103 at Sun Sep 29 00:07:34 2019, MaxMem=   671088640 cpu:               1.8 elap:               0.9
 (Enter /shared/centos7/gaussian/g16/l202.exe)
                          Input orientation:                          
 ---------------------------------------------------------------------
 Center     Atomic      Atomic             Coordinates (Angstroms)
 Number     Number       Type             X           Y           Z
 ---------------------------------------------------------------------
      1          8           0        0.195598   -0.776310    1.150857
      2          8           0        0.077324    0.714784   -1.403449
      3          6           0       -1.192139   -0.915142    0.837365
      4          6           0        0.657403    0.512883    0.917829
      5          6           0        0.637688    1.155925   -0.225447
      6          1           0       -1.407924   -0.697792   -0.248280
      7          1           0       -1.474076   -1.985012    1.053189
      8          1           0       -1.793703   -0.253823    1.461278
      9          1           0        1.147847    0.959160    1.780806
     10          1           0        1.025664    2.147948   -0.316213
     11          1           0        0.002470   -0.297001   -1.334862
 ---------------------------------------------------------------------
                    Distance matrix (angstroms):
                    1          2          3          4          5
     1  O    0.000000
     2  O    2.960038   0.000000
     3  C    1.429464   3.047859   0.000000
     4  C    1.389094   2.401164   2.338062   0.000000
     5  C    2.413128   1.377063   2.960938   1.311858   0.000000
     6  H    2.129562   2.352817   1.128020   2.662916   2.760673
     7  H    2.063568   3.966209   1.127250   3.286489   3.994990
     8  H    2.080066   3.556066   1.090179   2.625090   3.277818
     9  H    2.077371   3.368267   3.143028   1.088314   2.079430
    10  H    3.375291   2.033566   3.953721   2.081325   1.069052
    11  H    2.538864   1.016866   2.554948   2.481827   1.935277
                    6          7          8          9         10
     6  H    0.000000
     7  H    1.831703   0.000000
     8  H    1.807906   1.807129   0.000000
     9  H    3.659870   4.008998   3.197834   0.000000
    10  H    3.745023   5.020491   4.108139   2.413635   0.000000
    11  H    1.824967   3.276028   3.323628   3.549256   2.839427
                   11
    11  H    0.000000
 Stoichiometry    C3H6O2
 Framework group  C1[X(C3H6O2)]
 Deg. of freedom    27
 Full point group                 C1      NOp   1
 Largest Abelian subgroup         C1      NOp   1
 Largest concise Abelian subgroup C1      NOp   1
                         Standard orientation:                         
 ---------------------------------------------------------------------
 Center     Atomic      Atomic             Coordinates (Angstroms)
 Number     Number       Type             X           Y           Z
 ---------------------------------------------------------------------
      1          8           0        1.093511    0.479511   -0.452912
      2          8           0       -1.499625   -0.906441   -0.111431
      3          6           0        1.513736   -0.672607    0.281527
      4          6           0       -0.079954    1.022983    0.054239
      5          6           0       -1.237426    0.416172    0.168302
      6          1           0        0.747923   -1.500285    0.251368
      7          1           0        2.463240   -1.043055   -0.200035
      8          1           0        1.717702   -0.411297    1.320086
      9          1           0        0.000778    2.082298    0.290378
     10          1           0       -2.095320    0.917141    0.563170
     11          1           0       -0.763542   -1.228652   -0.734630
 ---------------------------------------------------------------------
 Rotational constants (GHZ):           9.3090316           4.0881610           3.1033805
 Leave Link  202 at Sun Sep 29 00:07:38 2019, MaxMem=   671088640 cpu:               2.8 elap:               3.0
 (Enter /shared/centos7/gaussian/g16/l301.exe)
 Standard basis: CC-pVTZ (5D, 7F)
 Ernie: Thresh=  0.10000D-02 Tol=  0.10000D-05 Strict=F.
 Ernie:  15 primitive shells out of 178 were deleted.
 There are   265 symmetry adapted cartesian basis functions of A   symmetry.
 There are   234 symmetry adapted basis functions of A   symmetry.
   234 basis functions,   362 primitive gaussians,   265 cartesian basis functions
    20 alpha electrons       20 beta electrons
       nuclear repulsion energy       179.6751948141 Hartrees.
 IExCor= 4336 DFT=T Ex+Corr=M062X ExCW=0 ScaHFX=  0.540000
 ScaDFX=  1.000000  1.000000  1.000000  1.000000 ScalE2=  1.000000  1.000000
 IRadAn=      5 IRanWt=     -1 IRanGd=            0 ICorTp=0 IEmpDi=  4
 NAtoms=   11 NActive=   11 NUniq=   11 SFac= 1.00D+00 NAtFMM=   60 NAOKFM=F Big=F
 Integral buffers will be    131072 words long.
 Raffenetti 2 integral format.
 Two-electron integral symmetry is turned on.
 Leave Link  301 at Sun Sep 29 00:07:38 2019, MaxMem=   671088640 cpu:               1.6 elap:               0.8
 (Enter /shared/centos7/gaussian/g16/l302.exe)
 NPDir=0 NMtPBC=     1 NCelOv=     1 NCel=       1 NClECP=     1 NCelD=      1
         NCelK=      1 NCelE2=     1 NClLst=     1 CellRange=     0.0.
 One-electron integrals computed using PRISM.
 One-electron integral symmetry used in STVInt
 NBasis=   234 RedAO= T EigKep=  3.78D-04  NBF=   234
 NBsUse=   234 1.00D-06 EigRej= -1.00D+00 NBFU=   234
 Precomputing XC quadrature grid using
 IXCGrd= 4 IRadAn=           5 IRanWt=          -1 IRanGd=           0 AccXCQ= 0.00D+00.
 Generated NRdTot=       0 NPtTot=           0 NUsed=           0 NTot=          32
 NSgBfM=   265   265   265   265   265 MxSgAt=    11 MxSgA2=    11.
 Leave Link  302 at Sun Sep 29 00:08:33 2019, MaxMem=   671088640 cpu:             109.2 elap:              54.6
 (Enter /shared/centos7/gaussian/g16/l303.exe)
 DipDrv:  MaxL=1.
 Leave Link  303 at Sun Sep 29 00:08:38 2019, MaxMem=   671088640 cpu:              10.3 elap:               5.2
 (Enter /shared/centos7/gaussian/g16/l401.exe)
 ExpMin= 1.03D-01 ExpMax= 1.53D+04 ExpMxC= 5.22D+02 IAcc=3 IRadAn=         5 AccDes= 0.00D+00
 Harris functional with IExCor= 1009 and IRadAn=       5 diagonalized for initial guess.
 HarFok:  IExCor= 1009 AccDes= 0.00D+00 IRadAn=         5 IDoV= 1 UseB2=F ITyADJ=14
 ICtDFT=  3500011 ScaDFX=  1.000000  1.000000  1.000000  1.000000
 FoFCou: FMM=F IPFlag=           0 FMFlag=      100000 FMFlg1=           0
         NFxFlg=           0 DoJE=T BraDBF=F KetDBF=T FulRan=T
         wScrn=  0.000000 ICntrl=       500 IOpCl=  0 I1Cent=   200000004 NGrid=           0
         NMat0=    1 NMatS0=      1 NMatT0=    0 NMatD0=    1 NMtDS0=    0 NMtDT0=    0
 Petite list used in FoFCou.
 Harris En= -268.194474608391    
 JPrj=0 DoOrth=F DoCkMO=F.
 Leave Link  401 at Sun Sep 29 00:09:07 2019, MaxMem=   671088640 cpu:              57.6 elap:              28.8
 (Enter /shared/centos7/gaussian/g16/l502.exe)
 Keep R1 ints in memory in canonical form, NReq=399924305.
 FoFCou: FMM=F IPFlag=           0 FMFlag=           0 FMFlg1=           0
         NFxFlg=           0 DoJE=F BraDBF=F KetDBF=F FulRan=T
         wScrn=  0.000000 ICntrl=       600 IOpCl=  0 I1Cent=           0 NGrid=           0
         NMat0=    1 NMatS0=  27495 NMatT0=    0 NMatD0=    1 NMtDS0=    0 NMtDT0=    0
 Symmetry not used in FoFCou.
 Two-electron integral symmetry not used.
 Closed shell SCF:
 Using DIIS extrapolation, IDIIS=  1040.
 NGot=   671088640 LenX=   292939207 LenY=   292868541
 Requested convergence on RMS density matrix=1.00D-08 within 900 cycles.
 Requested convergence on MAX density matrix=1.00D-06.
 Requested convergence on             energy=1.00D-06.
 No special actions if energy rises.
 Integral accuracy reduced to 1.0D-05 until final iterations.

 Cycle   1  Pass 0  IDiag  1:
 E= -268.190832994496    
 DIIS: error= 1.56D-02 at cycle   1 NSaved=   1.
 NSaved= 1 IEnMin= 1 EnMin= -268.190832994496     IErMin= 1 ErrMin= 1.56D-02
 ErrMax= 1.56D-02  0.00D+00 EMaxC= 1.00D-01 BMatC= 1.68D-01 BMatP= 1.68D-01
 IDIUse=3 WtCom= 8.44D-01 WtEn= 1.56D-01
 Coeff-Com:  0.100D+01
 Coeff-En:   0.100D+01
 Coeff:      0.100D+01
 Gap=     0.366 Goal=   None    Shift=    0.000
 GapD=    0.366 DampG=1.000 DampE=0.500 DampFc=0.5000 IDamp=-1.
 Damping current iteration by 5.00D-01
 RMSDP=2.17D-03 MaxDP=8.36D-02              OVMax= 1.13D-01

 Cycle   2  Pass 0  IDiag  1:
 E= -268.254065103381     Delta-E=       -0.063232108885 Rises=F Damp=T
 DIIS: error= 5.04D-03 at cycle   2 NSaved=   2.
 NSaved= 2 IEnMin= 2 EnMin= -268.254065103381     IErMin= 2 ErrMin= 5.04D-03
 ErrMax= 5.04D-03  0.00D+00 EMaxC= 1.00D-01 BMatC= 1.65D-02 BMatP= 1.68D-01
 IDIUse=3 WtCom= 9.50D-01 WtEn= 5.04D-02
 Coeff-Com: -0.194D+00 0.119D+01
 Coeff-En:   0.000D+00 0.100D+01
 Coeff:     -0.184D+00 0.118D+01
 Gap=     0.346 Goal=   None    Shift=    0.000
 RMSDP=4.25D-04 MaxDP=9.41D-03 DE=-6.32D-02 OVMax= 5.01D-02

 Cycle   3  Pass 0  IDiag  1:
 E= -268.308559753799     Delta-E=       -0.054494650418 Rises=F Damp=F
 DIIS: error= 2.53D-03 at cycle   3 NSaved=   3.
 NSaved= 3 IEnMin= 3 EnMin= -268.308559753799     IErMin= 3 ErrMin= 2.53D-03
 ErrMax= 2.53D-03  0.00D+00 EMaxC= 1.00D-01 BMatC= 3.59D-03 BMatP= 1.65D-02
 IDIUse=3 WtCom= 9.75D-01 WtEn= 2.53D-02
 Coeff-Com: -0.122D+00 0.398D+00 0.724D+00
 Coeff-En:   0.000D+00 0.000D+00 0.100D+01
 Coeff:     -0.119D+00 0.388D+00 0.731D+00
 Gap=     0.347 Goal=   None    Shift=    0.000
 RMSDP=2.00D-04 MaxDP=6.41D-03 DE=-5.45D-02 OVMax= 1.30D-02

 Cycle   4  Pass 0  IDiag  1:
 E= -268.310353660987     Delta-E=       -0.001793907188 Rises=F Damp=F
 DIIS: error= 1.26D-03 at cycle   4 NSaved=   4.
 NSaved= 4 IEnMin= 4 EnMin= -268.310353660987     IErMin= 4 ErrMin= 1.26D-03
 ErrMax= 1.26D-03  0.00D+00 EMaxC= 1.00D-01 BMatC= 7.68D-04 BMatP= 3.59D-03
 IDIUse=3 WtCom= 9.87D-01 WtEn= 1.26D-02
 Coeff-Com: -0.378D-01 0.950D-01 0.363D+00 0.580D+00
 Coeff-En:   0.000D+00 0.000D+00 0.154D+00 0.846D+00
 Coeff:     -0.373D-01 0.938D-01 0.361D+00 0.583D+00
 Gap=     0.342 Goal=   None    Shift=    0.000
 RMSDP=6.77D-05 MaxDP=1.83D-03 DE=-1.79D-03 OVMax= 6.39D-03

 Cycle   5  Pass 0  IDiag  1:
 E= -268.310914641008     Delta-E=       -0.000560980021 Rises=F Damp=F
 DIIS: error= 2.12D-04 at cycle   5 NSaved=   5.
 NSaved= 5 IEnMin= 5 EnMin= -268.310914641008     IErMin= 5 ErrMin= 2.12D-04
 ErrMax= 2.12D-04  0.00D+00 EMaxC= 1.00D-01 BMatC= 2.05D-05 BMatP= 7.68D-04
 IDIUse=3 WtCom= 9.98D-01 WtEn= 2.12D-03
 Coeff-Com: -0.710D-02 0.136D-01 0.945D-01 0.224D+00 0.675D+00
 Coeff-En:   0.000D+00 0.000D+00 0.000D+00 0.000D+00 0.100D+01
 Coeff:     -0.708D-02 0.136D-01 0.943D-01 0.223D+00 0.676D+00
 Gap=     0.342 Goal=   None    Shift=    0.000
 RMSDP=1.42D-05 MaxDP=3.84D-04 DE=-5.61D-04 OVMax= 1.39D-03

 Cycle   6  Pass 0  IDiag  1:
 E= -268.310930862624     Delta-E=       -0.000016221616 Rises=F Damp=F
 DIIS: error= 3.82D-05 at cycle   6 NSaved=   6.
 NSaved= 6 IEnMin= 6 EnMin= -268.310930862624     IErMin= 6 ErrMin= 3.82D-05
 ErrMax= 3.82D-05  0.00D+00 EMaxC= 1.00D-01 BMatC= 9.48D-07 BMatP= 2.05D-05
 IDIUse=1 WtCom= 1.00D+00 WtEn= 0.00D+00
 Coeff-Com: -0.962D-03 0.108D-02 0.194D-01 0.621D-01 0.233D+00 0.685D+00
 Coeff:     -0.962D-03 0.108D-02 0.194D-01 0.621D-01 0.233D+00 0.685D+00
 Gap=     0.342 Goal=   None    Shift=    0.000
 RMSDP=4.11D-06 MaxDP=1.27D-04 DE=-1.62D-05 OVMax= 5.61D-04

 Initial convergence to 1.0D-05 achieved.  Increase integral accuracy.
 Cycle   7  Pass 1  IDiag  1:
 E= -268.310962458626     Delta-E=       -0.000031596002 Rises=F Damp=F
 DIIS: error= 2.34D-05 at cycle   1 NSaved=   1.
 NSaved= 1 IEnMin= 1 EnMin= -268.310962458626     IErMin= 1 ErrMin= 2.34D-05
 ErrMax= 2.34D-05  0.00D+00 EMaxC= 1.00D-01 BMatC= 4.03D-07 BMatP= 4.03D-07
 IDIUse=1 WtCom= 1.00D+00 WtEn= 0.00D+00
 Coeff-Com:  0.100D+01
 Coeff:      0.100D+01
 Gap=     0.342 Goal=   None    Shift=    0.000
 RMSDP=4.11D-06 MaxDP=1.27D-04 DE=-3.16D-05 OVMax= 4.71D-04

 Cycle   8  Pass 1  IDiag  1:
 E= -268.310962394314     Delta-E=        0.000000064313 Rises=F Damp=F
 DIIS: error= 2.81D-05 at cycle   2 NSaved=   2.
 NSaved= 2 IEnMin= 1 EnMin= -268.310962458626     IErMin= 1 ErrMin= 2.34D-05
 ErrMax= 2.81D-05  0.00D+00 EMaxC= 1.00D-01 BMatC= 4.76D-07 BMatP= 4.03D-07
 IDIUse=1 WtCom= 1.00D+00 WtEn= 0.00D+00
 Coeff-Com:  0.524D+00 0.476D+00
 Coeff:      0.524D+00 0.476D+00
 Gap=     0.342 Goal=   None    Shift=    0.000
 RMSDP=2.27D-06 MaxDP=6.97D-05 DE= 6.43D-08 OVMax= 3.14D-04

 Cycle   9  Pass 1  IDiag  1:
 E= -268.310962791928     Delta-E=       -0.000000397615 Rises=F Damp=F
 DIIS: error= 4.85D-06 at cycle   3 NSaved=   3.
 NSaved= 3 IEnMin= 3 EnMin= -268.310962791928     IErMin= 3 ErrMin= 4.85D-06
 ErrMax= 4.85D-06  0.00D+00 EMaxC= 1.00D-01 BMatC= 1.42D-08 BMatP= 4.03D-07
 IDIUse=1 WtCom= 1.00D+00 WtEn= 0.00D+00
 Coeff-Com: -0.290D-01 0.125D+00 0.904D+00
 Coeff:     -0.290D-01 0.125D+00 0.904D+00
 Gap=     0.342 Goal=   None    Shift=    0.000
 RMSDP=5.05D-07 MaxDP=1.50D-05 DE=-3.98D-07 OVMax= 4.01D-05

 Cycle  10  Pass 1  IDiag  1:
 E= -268.310962804043     Delta-E=       -0.000000012115 Rises=F Damp=F
 DIIS: error= 1.47D-06 at cycle   4 NSaved=   4.
 NSaved= 4 IEnMin= 4 EnMin= -268.310962804043     IErMin= 4 ErrMin= 1.47D-06
 ErrMax= 1.47D-06  0.00D+00 EMaxC= 1.00D-01 BMatC= 1.18D-09 BMatP= 1.42D-08
 IDIUse=1 WtCom= 1.00D+00 WtEn= 0.00D+00
 Coeff-Com: -0.257D-01 0.455D-01 0.400D+00 0.580D+00
 Coeff:     -0.257D-01 0.455D-01 0.400D+00 0.580D+00
 Gap=     0.342 Goal=   None    Shift=    0.000
 RMSDP=9.95D-08 MaxDP=3.18D-06 DE=-1.21D-08 OVMax= 8.45D-06

 Cycle  11  Pass 1  IDiag  1:
 E= -268.310962805002     Delta-E=       -0.000000000959 Rises=F Damp=F
 DIIS: error= 3.49D-07 at cycle   5 NSaved=   5.
 NSaved= 5 IEnMin= 5 EnMin= -268.310962805002     IErMin= 5 ErrMin= 3.49D-07
 ErrMax= 3.49D-07  0.00D+00 EMaxC= 1.00D-01 BMatC= 7.44D-11 BMatP= 1.18D-09
 IDIUse=1 WtCom= 1.00D+00 WtEn= 0.00D+00
 Coeff-Com: -0.625D-03-0.114D-01-0.691D-01 0.121D+00 0.960D+00
 Coeff:     -0.625D-03-0.114D-01-0.691D-01 0.121D+00 0.960D+00
 Gap=     0.342 Goal=   None    Shift=    0.000
 RMSDP=5.89D-08 MaxDP=1.04D-06 DE=-9.59D-10 OVMax= 6.40D-06

 Cycle  12  Pass 1  IDiag  1:
 E= -268.310962805109     Delta-E=       -0.000000000106 Rises=F Damp=F
 DIIS: error= 1.51D-07 at cycle   6 NSaved=   6.
 NSaved= 6 IEnMin= 6 EnMin= -268.310962805109     IErMin= 6 ErrMin= 1.51D-07
 ErrMax= 1.51D-07  0.00D+00 EMaxC= 1.00D-01 BMatC= 8.24D-12 BMatP= 7.44D-11
 IDIUse=1 WtCom= 1.00D+00 WtEn= 0.00D+00
 Coeff-Com:  0.192D-02-0.755D-02-0.572D-01-0.108D-01 0.325D+00 0.748D+00
 Coeff:      0.192D-02-0.755D-02-0.572D-01-0.108D-01 0.325D+00 0.748D+00
 Gap=     0.342 Goal=   None    Shift=    0.000
 RMSDP=1.72D-08 MaxDP=3.61D-07 DE=-1.06D-10 OVMax= 1.79D-06

 Cycle  13  Pass 1  IDiag  1:
 E= -268.310962805123     Delta-E=       -0.000000000015 Rises=F Damp=F
 DIIS: error= 4.08D-08 at cycle   7 NSaved=   7.
 NSaved= 7 IEnMin= 7 EnMin= -268.310962805123     IErMin= 7 ErrMin= 4.08D-08
 ErrMax= 4.08D-08  0.00D+00 EMaxC= 1.00D-01 BMatC= 1.00D-12 BMatP= 8.24D-12
 IDIUse=1 WtCom= 1.00D+00 WtEn= 0.00D+00
 Coeff-Com:  0.875D-03-0.209D-02-0.180D-01-0.168D-01 0.472D-01 0.288D+00
 Coeff-Com:  0.701D+00
 Coeff:      0.875D-03-0.209D-02-0.180D-01-0.168D-01 0.472D-01 0.288D+00
 Coeff:      0.701D+00
 Gap=     0.342 Goal=   None    Shift=    0.000
 RMSDP=5.08D-09 MaxDP=1.48D-07 DE=-1.47D-11 OVMax= 5.20D-07

 SCF Done:  E(RM062X) =  -268.310962805     A.U. after   13 cycles
            NFock= 13  Conv=0.51D-08     -V/T= 2.0061
 KE= 2.666903139302D+02 PE=-9.875287156305D+02 EE= 2.728522440811D+02
 Leave Link  502 at Sun Sep 29 00:14:28 2019, MaxMem=   671088640 cpu:             634.7 elap:             321.3
 (Enter /shared/centos7/gaussian/g16/l801.exe)
 DoSCS=F DFT=T ScalE2(SS,OS)=  1.000000  1.000000
 Range of M.O.s used for correlation:     1   234
 NBasis=   234 NAE=    20 NBE=    20 NFC=     0 NFV=     0
 NROrb=    234 NOA=    20 NOB=    20 NVA=   214 NVB=   214

 **** Warning!!: The largest alpha MO coefficient is  0.11427324D+02

 Leave Link  801 at Sun Sep 29 00:14:29 2019, MaxMem=   671088640 cpu:               1.6 elap:               0.8
 (Enter /shared/centos7/gaussian/g16/l1101.exe)
 Using compressed storage, NAtomX=    11.
 Will process     12 centers per pass.
 Leave Link 1101 at Sun Sep 29 00:14:52 2019, MaxMem=   671088640 cpu:              44.8 elap:              22.4
 (Enter /shared/centos7/gaussian/g16/l1102.exe)
 Symmetrizing basis deriv contribution to polar:
 IMax=3 JMax=2 DiffMx= 0.00D+00
 Leave Link 1102 at Sun Sep 29 00:14:54 2019, MaxMem=   671088640 cpu:               4.4 elap:               2.2
 (Enter /shared/centos7/gaussian/g16/l1110.exe)
 Forming Gx(P) for the SCF density, NAtomX=    11.
 Integral derivatives from FoFJK, PRISM(SPDF).
 Do as many integral derivatives as possible in FoFJK.
 G2DrvN: MDV=     671087712.
 G2DrvN: will do    12 centers at a time, making    1 passes.
 Calling FoFCou, ICntrl=  3107 FMM=F I1Cent=   0 AccDes= 0.00D+00.
 FoFJK:  IHMeth= 1 ICntrl=    3107 DoSepK=F KAlg= 0 I1Cent=           0 FoldK=F
 IRaf=         0 NMat=       1 IRICut=       1 DoRegI=T DoRafI=F ISym2E= 0 IDoP0=0 IntGTp=1.
 FoFCou: FMM=F IPFlag=           0 FMFlag=      100000 FMFlg1=           0
         NFxFlg=           0 DoJE=F BraDBF=F KetDBF=F FulRan=T
         wScrn=  0.000000 ICntrl=      3107 IOpCl=  0 I1Cent=           0 NGrid=           0
         NMat0=    1 NMatS0=      1 NMatT0=    0 NMatD0=    1 NMtDS0=    0 NMtDT0=    0
 Symmetry not used in FoFCou.
 End of G2Drv F.D. properties file   721 does not exist.
 End of G2Drv F.D. properties file   722 does not exist.
 End of G2Drv F.D. properties file   788 does not exist.
 Leave Link 1110 at Sun Sep 29 00:22:45 2019, MaxMem=   671088640 cpu:             942.3 elap:             471.2
 (Enter /shared/centos7/gaussian/g16/l1002.exe)
 Minotr:  Closed shell wavefunction.
          IDoAtm=11111111111
          Direct CPHF calculation.
          Differentiating once with respect to nuclear coordinates.
          Requested convergence is 1.0D-08 RMS, and 1.0D-07 maximum.
          Secondary convergence is 1.0D-12 RMS, and 1.0D-12 maximum.
          NewPWx=T KeepS1=F KeepF1=F KeepIn=T MapXYZ=F SortEE=F KeepMc=T.
         3265 words used for storage of precomputed grid.
 Keep R1 ints in memory in canonical form, NReq=399865264.
 FoFCou: FMM=F IPFlag=           0 FMFlag=           0 FMFlg1=           0
         NFxFlg=           0 DoJE=F BraDBF=F KetDBF=F FulRan=T
         wScrn=  0.000000 ICntrl=       600 IOpCl=  0 I1Cent=           0 NGrid=           0
         NMat0=    1 NMatS0=  27495 NMatT0=    0 NMatD0=    1 NMtDS0=    0 NMtDT0=    0
 Symmetry not used in FoFCou.
 Two-electron integral symmetry not used.
          MDV=     671088640 using IRadAn=       1.
          Solving linear equations simultaneously, MaxMat=       0.
          There are    36 degrees of freedom in the 1st order CPHF.  IDoFFX=6 NUNeed=     0.
     30 vectors produced by pass  0 Test12= 1.19D-14 2.78D-09 XBig12= 5.76D-02 6.11D-02.
 AX will form    30 AO Fock derivatives at one time.
     30 vectors produced by pass  1 Test12= 1.19D-14 2.78D-09 XBig12= 1.02D-02 2.50D-02.
     30 vectors produced by pass  2 Test12= 1.19D-14 2.78D-09 XBig12= 3.63D-04 4.78D-03.
     30 vectors produced by pass  3 Test12= 1.19D-14 2.78D-09 XBig12= 3.54D-06 2.86D-04.
     30 vectors produced by pass  4 Test12= 1.19D-14 2.78D-09 XBig12= 2.56D-08 1.81D-05.
     30 vectors produced by pass  5 Test12= 1.19D-14 2.78D-09 XBig12= 1.46D-10 1.40D-06.
     19 vectors produced by pass  6 Test12= 1.19D-14 2.78D-09 XBig12= 7.60D-13 9.86D-08.
      3 vectors produced by pass  7 Test12= 1.19D-14 2.78D-09 XBig12= 3.03D-15 6.05D-09.
 InvSVY:  IOpt=1 It=  1 EMax= 8.88D-16
 Solved reduced A of dimension   202 with    30 vectors.
 End of Minotr F.D. properties file   721 does not exist.
 End of Minotr F.D. properties file   722 does not exist.
 End of Minotr F.D. properties file   788 does not exist.
 Leave Link 1002 at Sun Sep 29 00:33:01 2019, MaxMem=   671088640 cpu:            1231.1 elap:             615.6
 (Enter /shared/centos7/gaussian/g16/l601.exe)
 Copying SCF densities to generalized density rwf, IOpCl= 0 IROHF=0.

 **********************************************************************

            Population analysis using the SCF density.

 **********************************************************************

 Orbital symmetries:
       Occupied  (A) (A) (A) (A) (A) (A) (A) (A) (A) (A) (A) (A)
                 (A) (A) (A) (A) (A) (A) (A) (A)
       Virtual   (A) (A) (A) (A) (A) (A) (A) (A) (A) (A) (A) (A)
                 (A) (A) (A) (A) (A) (A) (A) (A) (A) (A) (A) (A)
                 (A) (A) (A) (A) (A) (A) (A) (A) (A) (A) (A) (A)
                 (A) (A) (A) (A) (A) (A) (A) (A) (A) (A) (A) (A)
                 (A) (A) (A) (A) (A) (A) (A) (A) (A) (A) (A) (A)
                 (A) (A) (A) (A) (A) (A) (A) (A) (A) (A) (A) (A)
                 (A) (A) (A) (A) (A) (A) (A) (A) (A) (A) (A) (A)
                 (A) (A) (A) (A) (A) (A) (A) (A) (A) (A) (A) (A)
                 (A) (A) (A) (A) (A) (A) (A) (A) (A) (A) (A) (A)
                 (A) (A) (A) (A) (A) (A) (A) (A) (A) (A) (A) (A)
                 (A) (A) (A) (A) (A) (A) (A) (A) (A) (A) (A) (A)
                 (A) (A) (A) (A) (A) (A) (A) (A) (A) (A) (A) (A)
                 (A) (A) (A) (A) (A) (A) (A) (A) (A) (A) (A) (A)
                 (A) (A) (A) (A) (A) (A) (A) (A) (A) (A) (A) (A)
                 (A) (A) (A) (A) (A) (A) (A) (A) (A) (A) (A) (A)
                 (A) (A) (A) (A) (A) (A) (A) (A) (A) (A) (A) (A)
                 (A) (A) (A) (A) (A) (A) (A) (A) (A) (A) (A) (A)
                 (A) (A) (A) (A) (A) (A) (A) (A) (A) (A)
 The electronic state is 1-A.
 Alpha  occ. eigenvalues --  -19.65766 -19.65064 -10.59791 -10.58987 -10.58028
 Alpha  occ. eigenvalues --   -1.18561  -1.16149  -0.85991  -0.78358  -0.68456
 Alpha  occ. eigenvalues --   -0.60525  -0.58690  -0.53786  -0.51573  -0.49768
 Alpha  occ. eigenvalues --   -0.46529  -0.45707  -0.42006  -0.36395  -0.28885
 Alpha virt. eigenvalues --    0.05335   0.06873   0.09405   0.11137   0.13052
 Alpha virt. eigenvalues --    0.13798   0.14010   0.18029   0.20626   0.26605
 Alpha virt. eigenvalues --    0.28831   0.30596   0.32994   0.34977   0.35552
 Alpha virt. eigenvalues --    0.38282   0.39202   0.41030   0.42673   0.44774
 Alpha virt. eigenvalues --    0.46202   0.47040   0.48744   0.49086   0.51538
 Alpha virt. eigenvalues --    0.54415   0.56834   0.58023   0.60411   0.62502
 Alpha virt. eigenvalues --    0.64642   0.68769   0.70100   0.73776   0.75478
 Alpha virt. eigenvalues --    0.79754   0.80346   0.83276   0.84851   0.85240
 Alpha virt. eigenvalues --    0.91287   0.94155   0.97674   0.99183   1.03729
 Alpha virt. eigenvalues --    1.06007   1.07286   1.07978   1.09723   1.12916
 Alpha virt. eigenvalues --    1.13886   1.15108   1.18858   1.22809   1.24580
 Alpha virt. eigenvalues --    1.26149   1.27166   1.30984   1.32606   1.35722
 Alpha virt. eigenvalues --    1.36181   1.38950   1.41217   1.44282   1.49343
 Alpha virt. eigenvalues --    1.50648   1.53600   1.55105   1.61678   1.83625
 Alpha virt. eigenvalues --    1.89259   1.93012   1.96774   1.99660   2.02502
 Alpha virt. eigenvalues --    2.06647   2.08269   2.11150   2.14137   2.15885
 Alpha virt. eigenvalues --    2.20770   2.22318   2.26402   2.31443   2.35648
 Alpha virt. eigenvalues --    2.36820   2.39923   2.48772   2.53429   2.57581
 Alpha virt. eigenvalues --    2.62601   2.64328   2.67816   2.74395   2.76877
 Alpha virt. eigenvalues --    2.78343   2.80086   2.82113   2.85146   2.86690
 Alpha virt. eigenvalues --    2.89774   2.90321   2.94098   2.96727   2.99552
 Alpha virt. eigenvalues --    3.01148   3.02798   3.04498   3.07686   3.08367
 Alpha virt. eigenvalues --    3.11298   3.14326   3.17136   3.19707   3.20529
 Alpha virt. eigenvalues --    3.24074   3.25897   3.27534   3.30109   3.31895
 Alpha virt. eigenvalues --    3.33373   3.33701   3.35010   3.37374   3.42620
 Alpha virt. eigenvalues --    3.43752   3.46377   3.49110   3.50475   3.55449
 Alpha virt. eigenvalues --    3.61468   3.64081   3.66271   3.68519   3.69871
 Alpha virt. eigenvalues --    3.72392   3.75231   3.76715   3.77309   3.82094
 Alpha virt. eigenvalues --    3.83454   3.87721   3.89115   3.92243   3.95879
 Alpha virt. eigenvalues --    3.97274   3.99308   4.01410   4.06840   4.08075
 Alpha virt. eigenvalues --    4.10143   4.11945   4.18457   4.21988   4.25766
 Alpha virt. eigenvalues --    4.29419   4.34429   4.38378   4.40894   4.46229
 Alpha virt. eigenvalues --    4.50824   4.57608   4.61972   4.65444   4.69252
 Alpha virt. eigenvalues --    4.70866   4.76101   4.80889   4.82062   4.85638
 Alpha virt. eigenvalues --    4.88589   4.94780   4.98234   5.00210   5.04093
 Alpha virt. eigenvalues --    5.05166   5.06839   5.15591   5.17152   5.29037
 Alpha virt. eigenvalues --    5.35849   5.40817   5.49368   5.50904   5.59270
 Alpha virt. eigenvalues --    5.68329   5.70773   5.74101   5.79615   5.87999
 Alpha virt. eigenvalues --    5.97412   6.12842   6.19986   6.27287   6.32301
 Alpha virt. eigenvalues --    6.35058   6.50877   6.60653   6.69900   6.71320
 Alpha virt. eigenvalues --    6.73930   6.77982   6.82707   6.95049   7.00719
 Alpha virt. eigenvalues --    7.12750   7.21118   7.26095   7.30160   9.93792
 Alpha virt. eigenvalues --   10.70013  11.89671  12.81275  14.00378
          Condensed to atoms (all electrons):
               1          2          3          4          5          6
     1  O    7.855286   0.001809   0.305078   0.342506  -0.073813  -0.046792
     2  O    0.001809   7.790837  -0.008219  -0.071669   0.339539   0.009601
     3  C    0.305078  -0.008219   4.747739  -0.071964  -0.010205   0.380493
     4  C    0.342506  -0.071669  -0.071964   5.057311   0.475020  -0.048999
     5  C   -0.073813   0.339539  -0.010205   0.475020   5.003651   0.030282
     6  H   -0.046792   0.009601   0.380493  -0.048999   0.030282   0.745989
     7  H   -0.028692   0.000223   0.395940   0.005674  -0.000304  -0.039550
     8  H   -0.049360  -0.000335   0.398562   0.017743  -0.007712  -0.076839
     9  H   -0.046265   0.005044   0.004035   0.420219  -0.085067  -0.003091
    10  H    0.004017  -0.036081  -0.000445  -0.061308   0.408261  -0.000342
    11  H    0.012094   0.326652   0.000669  -0.000601  -0.065053  -0.021844
               7          8          9         10         11
     1  O   -0.028692  -0.049360  -0.046265   0.004017   0.012094
     2  O    0.000223  -0.000335   0.005044  -0.036081   0.326652
     3  C    0.395940   0.398562   0.004035  -0.000445   0.000669
     4  C    0.005674   0.017743   0.420219  -0.061308  -0.000601
     5  C   -0.000304  -0.007712  -0.085067   0.408261  -0.065053
     6  H   -0.039550  -0.076839  -0.003091  -0.000342  -0.021844
     7  H    0.584910  -0.029001  -0.000423   0.000057   0.000399
     8  H   -0.029001   0.632082   0.005307  -0.000126   0.003014
     9  H   -0.000423   0.005307   0.572354  -0.004998   0.001361
    10  H    0.000057  -0.000126  -0.004998   0.527668   0.006059
    11  H    0.000399   0.003014   0.001361   0.006059   0.461045
 Mulliken charges:
               1
     1  O   -0.275870
     2  O   -0.357401
     3  C   -0.141683
     4  C   -0.063933
     5  C   -0.014600
     6  H    0.071092
     7  H    0.110766
     8  H    0.106664
     9  H    0.131524
    10  H    0.157238
    11  H    0.276204
 Sum of Mulliken charges =  -0.00000
 Mulliken charges with hydrogens summed into heavy atoms:
               1
     1  O   -0.275870
     2  O   -0.081198
     3  C    0.146840
     4  C    0.067590
     5  C    0.142637
 APT charges:
               1
     1  O   -0.189199
     2  O   -0.337376
     3  C   -0.870501
     4  C   -0.447512
     5  C   -0.389296
     6  H    0.194508
     7  H    0.465766
     8  H    0.318683
     9  H    0.426905
    10  H    0.485149
    11  H    0.342872
 Sum of APT charges =  -0.00000
 APT charges with hydrogens summed into heavy atoms:
               1
     1  O   -0.189199
     2  O    0.005496
     3  C    0.108456
     4  C   -0.020607
     5  C    0.095854
 Electronic spatial extent (au):  <R**2>=            421.1759
 Charge=             -0.0000 electrons
 Dipole moment (field-independent basis, Debye):
    X=              0.6849    Y=             -0.3722    Z=              0.4629  Tot=              0.9066
 Quadrupole moment (field-independent basis, Debye-Ang):
   XX=            -31.4727   YY=            -28.6524   ZZ=            -31.2749
   XY=             -4.2254   XZ=              0.8572   YZ=              2.4662
 Traceless Quadrupole moment (field-independent basis, Debye-Ang):
   XX=             -1.0060   YY=              1.8142   ZZ=             -0.8082
   XY=             -4.2254   XZ=              0.8572   YZ=              2.4662
 Octapole moment (field-independent basis, Debye-Ang**2):
  XXX=              3.2598  YYY=             -0.2512  ZZZ=             -2.8472  XYY=              1.1098
  XXY=              1.5117  XXZ=              3.1151  XZZ=             -0.5192  YZZ=             -3.1363
  YYZ=             -1.5608  XYZ=             -1.0366
 Hexadecapole moment (field-independent basis, Debye-Ang**3):
 XXXX=           -313.4145 YYYY=           -148.0348 ZZZZ=            -53.1881 XXXY=            -13.5515
 XXXZ=             -7.6233 YYYX=              6.3653 YYYZ=              6.1400 ZZZX=              1.4483
 ZZZY=              1.3386 XXYY=            -83.7598 XXZZ=            -62.0784 YYZZ=            -35.3596
 XXYZ=              3.8720 YYXZ=             -0.1934 ZZXY=              2.7404
 N-N= 1.796751948141D+02 E-N=-9.875287061202D+02  KE= 2.666903139302D+02
  Exact polarizability:   0.000   0.000   0.000   0.000   0.000   0.000
 Approx polarizability:  61.588   4.460  52.899  -2.992   1.619  41.441
 No NMR shielding tensors so no spin-rotation constants.
 Leave Link  601 at Sun Sep 29 00:33:24 2019, MaxMem=   671088640 cpu:              46.5 elap:              23.3
 (Enter /shared/centos7/gaussian/g16/l701.exe)
 SCFChk:  SCF convergence  5.08D-09 required  1.00D-08
 ... and contract with generalized density number  0.
 Compute integral second derivatives.
 Entering OneElI...
 Calculate overlap and kinetic energy integrals
    NBasis = 265  MinDer = 2  MaxDer = 2
 Requested accuracy = 0.1000D-12
 PrmmSu-InSpLW:  IPartL=    0 NPrtUS=   20 NPrtUL=    1 DoSpLW=F IThBeg=    0 IThEnd=   19 NThAct=   20.
 PrsmSu:  NPrtUS=  20 ThrOK=T IAlg=1 NPAlg=1 LenDen=           0 ISkipM=0 DoSpLW=F IThBeg=    0 IThEnd=   19.
 Prism:   IPart=     0 DynPar=F LinDyn=F Incr=           1.
 PRISM was handed    33437913 working-precision words and  3740 shell-pairs
 PRISM was handed    33437913 working-precision words and  3740 shell-pairs
 PRISM was handed    33437913 working-precision words and  3740 shell-pairs
 PRISM was handed    33437913 working-precision words and  3740 shell-pairs
 PRISM was handed    33437913 working-precision words and  3740 shell-pairs
 PRISM was handed    33437913 working-precision words and  3740 shell-pairs
 PRISM was handed    33437913 working-precision words and  3740 shell-pairs
 PRISM was handed    33437913 working-precision words and  3740 shell-pairs
 PRISM was handed    33437913 working-precision words and  3740 shell-pairs
 PRISM was handed    33437913 working-precision words and  3740 shell-pairs
 PRISM was handed    33437913 working-precision words and  3740 shell-pairs
 PRISM was handed    33437913 working-precision words and  3740 shell-pairs
 PRISM was handed    33437913 working-precision words and  3740 shell-pairs
 PRISM was handed    33437913 working-precision words and  3740 shell-pairs
 PRISM was handed    33437913 working-precision words and  3740 shell-pairs
 PRISM was handed    33437913 working-precision words and  3740 shell-pairs
 IPart=  0 NShTot=         225 NBatch=          66 AvBLen=         3.4
 IPart=  3 NShTot=         208 NBatch=          49 AvBLen=         4.2
 PRISM was handed    33437913 working-precision words and  3740 shell-pairs
 PRISM was handed    33437913 working-precision words and  3740 shell-pairs
 PRISM was handed    33437913 working-precision words and  3740 shell-pairs
 IPart=  5 NShTot=         195 NBatch=          39 AvBLen=         5.0
 IPart= 17 NShTot=         168 NBatch=          26 AvBLen=         6.5
 PRISM was handed    33437913 working-precision words and  3740 shell-pairs
 IPart= 15 NShTot=         170 NBatch=          26 AvBLen=         6.5
 IPart= 19 NShTot=         165 NBatch=          25 AvBLen=         6.6
 IPart= 10 NShTot=         179 NBatch=          29 AvBLen=         6.2
 IPart=  6 NShTot=         193 NBatch=          38 AvBLen=         5.1
 IPart= 11 NShTot=         178 NBatch=          28 AvBLen=         6.4
 IPart= 18 NShTot=         167 NBatch=          26 AvBLen=         6.4
 IPart=  1 NShTot=         222 NBatch=          63 AvBLen=         3.5
 IPart= 13 NShTot=         174 NBatch=          28 AvBLen=         6.2
 IPart=  8 NShTot=         186 NBatch=          31 AvBLen=         6.0
 IPart=  2 NShTot=         211 NBatch=          52 AvBLen=         4.1
 IPart=  9 NShTot=         184 NBatch=          29 AvBLen=         6.3
 IPart= 14 NShTot=         174 NBatch=          28 AvBLen=         6.2
 IPart= 16 NShTot=         169 NBatch=          26 AvBLen=         6.5
 IPart=  4 NShTot=         206 NBatch=          47 AvBLen=         4.4
 IPart=  7 NShTot=         191 NBatch=          36 AvBLen=         5.3
 IPart= 12 NShTot=         175 NBatch=          28 AvBLen=         6.3
 PrSmSu:  NxtVal=             21.
 Entering OneElI...
 Calculate potential energy integrals
    NBasis = 265  MinDer = 2  MaxDer = 2
 Requested accuracy = 0.1000D-12
 PrmmSu-InSpLW:  IPartL=    0 NPrtUS=   20 NPrtUL=    1 DoSpLW=F IThBeg=    0 IThEnd=   19 NThAct=   20.
 PrsmSu:  NPrtUS=  20 ThrOK=T IAlg=1 NPAlg=1 LenDen=           0 ISkipM=0 DoSpLW=F IThBeg=    0 IThEnd=   19.
 Prism:   IPart=     0 DynPar=F LinDyn=F Incr=          19.
 PRISM was handed    33454185 working-precision words and  3605 shell-pairs
 PRISM was handed    33454185 working-precision words and  3605 shell-pairs
 PRISM was handed    33454185 working-precision words and  3605 shell-pairs
 PRISM was handed    33454185 working-precision words and  3605 shell-pairs
 PRISM was handed    33454185 working-precision words and  3605 shell-pairs
 PRISM was handed    33454185 working-precision words and  3605 shell-pairs
 PRISM was handed    33454185 working-precision words and  3605 shell-pairs
 PRISM was handed    33454185 working-precision words and  3605 shell-pairs
 PRISM was handed    33454185 working-precision words and  3605 shell-pairs
 PRISM was handed    33454185 working-precision words and  3605 shell-pairs
 PRISM was handed    33454185 working-precision words and  3605 shell-pairs
 PRISM was handed    33454185 working-precision words and  3605 shell-pairs
 PRISM was handed    33454185 working-precision words and  3605 shell-pairs
 PRISM was handed    33454185 working-precision words and  3605 shell-pairs
 PRISM was handed    33454185 working-precision words and  3605 shell-pairs
 PRISM was handed    33454185 working-precision words and  3605 shell-pairs
 PRISM was handed    33454185 working-precision words and  3605 shell-pairs
 PRISM was handed    33454185 working-precision words and  3605 shell-pairs
 PRISM was handed    33454185 working-precision words and  3605 shell-pairs
 PRISM was handed    33454185 working-precision words and  3605 shell-pairs
 IPart=  0 NShTot=        2453 NBatch=         223 AvBLen=        11.0
 IPart= 17 NShTot=        1815 NBatch=         165 AvBLen=        11.0
 IPart= 19 NShTot=        1782 NBatch=         162 AvBLen=        11.0
 IPart=  3 NShTot=        2200 NBatch=         200 AvBLen=        11.0
 IPart=  5 NShTot=        2057 NBatch=         187 AvBLen=        11.0
 IPart= 15 NShTot=        1826 NBatch=         166 AvBLen=        11.0
 IPart=  6 NShTot=        2024 NBatch=         184 AvBLen=        11.0
 IPart= 18 NShTot=        1793 NBatch=         163 AvBLen=        11.0
 IPart= 16 NShTot=        1815 NBatch=         165 AvBLen=        11.0
 IPart= 13 NShTot=        1848 NBatch=         168 AvBLen=        11.0
 IPart= 10 NShTot=        1859 NBatch=         169 AvBLen=        11.0
 IPart=  2 NShTot=        2266 NBatch=         206 AvBLen=        11.0
 IPart=  1 NShTot=        2398 NBatch=         218 AvBLen=        11.0
 IPart=  4 NShTot=        2156 NBatch=         196 AvBLen=        11.0
 IPart=  8 NShTot=        1947 NBatch=         177 AvBLen=        11.0
 IPart= 14 NShTot=        1848 NBatch=         168 AvBLen=        11.0
 IPart= 12 NShTot=        1848 NBatch=         168 AvBLen=        11.0
 IPart=  9 NShTot=        1892 NBatch=         172 AvBLen=        11.0
 IPart=  7 NShTot=        1969 NBatch=         179 AvBLen=        11.0
 IPart= 11 NShTot=        1859 NBatch=         169 AvBLen=        11.0
 PrSmSu:  NxtVal=            381.
 Polarizability after L701:
                1             2             3 
      1  0.000000D+00
      2  0.000000D+00  0.000000D+00
      3  0.000000D+00  0.000000D+00  0.000000D+00
 Dipole Derivatives after L701:
                 1             2             3             4             5 
      1  -0.157446D+00  0.509847D-01 -0.101738D+00  0.111298D+00  0.193580D+00
      2   0.139488D+00 -0.245138D+00 -0.622071D-01  0.551425D+00 -0.451502D+00
      3  -0.136255D+00 -0.109250D-01 -0.165012D+00  0.299144D+00 -0.204999D+00
                 6             7             8             9            10 
      1  -0.169134D+00 -0.978046D+00  0.370595D+00 -0.199396D+00 -0.463338D+00
      2  -0.371046D+00  0.517796D-01 -0.846896D+00  0.166483D-01  0.331644D-01
      3  -0.671926D+00 -0.742423D-01  0.232870D-01 -0.786560D+00  0.213835D+00
                11            12            13            14            15 
      1  -0.184868D+00  0.255591D+00 -0.706817D+00  0.195354D+00  0.219229D+00
      2  -0.716444D+00 -0.368189D+00 -0.297563D-01 -0.546046D+00  0.384789D-01
      3  -0.288665D+00 -0.162754D+00  0.133430D+00 -0.858410D-02  0.849753D-01
                16            17            18            19            20 
      1  -0.133919D-01 -0.157017D+00  0.599731D-01  0.955406D+00 -0.374566D+00
      2   0.318710D+00  0.446839D+00  0.219646D-01 -0.340056D+00  0.275898D+00
      3   0.163026D-01 -0.489659D-01  0.150076D+00 -0.979237D-01  0.819000D-02
                21            22            23            24            25 
      1  -0.445369D+00  0.212464D+00  0.117448D+00  0.575597D+00  0.183585D+00
      2   0.154326D+00 -0.605751D-02  0.152802D+00 -0.987029D-01  0.459136D-01
      3   0.165995D+00  0.117335D+00  0.109342D+00  0.590783D+00  0.754300D-03
                26            27            28            29            30 
      1   0.275541D-01 -0.441951D-02  0.898902D+00 -0.406035D+00 -0.382591D+00
      2   0.100990D+01  0.173252D+00 -0.296452D+00  0.357093D+00  0.184616D+00
      3   0.151206D+00  0.872332D-01 -0.193526D+00  0.134709D+00  0.199453D+00
                31            32            33 
      1  -0.426161D-01  0.166969D+00  0.192258D+00
      2  -0.468159D+00  0.563496D+00  0.310859D+00
      3  -0.278854D+00  0.135405D+00  0.507737D+00
 Hessian after L701:
                1             2             3             4             5 
      1  0.646956D+01
      2  0.416724D+01  0.890967D+01
      3  0.164668D+01  0.175332D+01  0.125998D+02
      4  0.583953D+00  0.534467D+00 -0.154547D+00  0.915064D+01
      5  0.470833D+00 -0.123413D+00 -0.673736D-01 -0.111819D+01  0.503202D+01
      6 -0.206942D+00 -0.110721D+00 -0.388482D+00  0.191699D+01 -0.287558D+01
      7 -0.637948D+01 -0.236903D+01  0.113353D+01  0.454250D+00  0.335520D-01
      8 -0.218174D+01 -0.194099D+01 -0.335926D+01  0.166406D+00 -0.249878D+00
      9  0.103481D+01 -0.329173D+01 -0.530067D+01  0.107325D+00 -0.629367D-02
     10 -0.183702D+01 -0.333299D+01 -0.279082D+01  0.335032D+00  0.267036D+00
     11 -0.355198D+01 -0.668770D+01  0.104485D+01  0.191764D+00 -0.115118D+00
     12 -0.262750D+01  0.969777D+00 -0.708134D+01  0.187792D+00 -0.978537D-01
     13  0.584861D+00  0.354094D+00  0.279392D+00 -0.785907D+01  0.146879D+01
     14  0.452360D+00 -0.117262D+00 -0.112832D+00  0.171864D+01  0.254633D+00
     15  0.188930D+00 -0.638762D-01 -0.680923D-02  0.195616D+00  0.193528D+01
     16  0.253950D+00  0.264243D+00 -0.282509D-01  0.659709D-01  0.145485D-01
     17  0.201767D+00  0.772761D-01  0.372865D+00 -0.659802D-01 -0.102530D+00
     18  0.112191D-01  0.308642D+00 -0.809300D-01 -0.461416D-01  0.101956D-01
     19  0.166771D+00 -0.346489D-01 -0.841799D-01  0.737553D-01 -0.237224D-02
     20 -0.111036D-01 -0.871558D-01  0.925106D-01 -0.186153D-01 -0.157817D-01
     21 -0.118904D+00  0.130808D+00 -0.216303D-02 -0.147434D-01 -0.222992D-03
     22  0.112379D+00  0.123935D+00  0.796122D-02  0.444094D-01  0.893597D-02
     23  0.861979D-01 -0.132208D+00  0.260977D+00  0.673094D-02 -0.204419D-01
     24  0.316115D-01  0.266148D+00  0.255540D+00  0.670097D-01  0.729620D-02
     25 -0.107493D+00  0.223138D+00  0.637679D-01 -0.130286D-01  0.666150D-01
     26  0.233762D+00  0.804209D-01  0.192762D-01  0.106663D+00  0.144847D+00
     27  0.708264D-01 -0.582322D-02  0.127870D+00  0.221644D-01  0.274938D-01
     28  0.145686D+00 -0.337680D-01 -0.533636D-01  0.154400D+00 -0.153757D-01
     29 -0.526154D-01 -0.341173D-01  0.132183D-01  0.107731D-01 -0.194298D+00
     30 -0.697262D-01  0.966016D-02 -0.132623D-01 -0.134838D-01 -0.891122D-01
     31  0.683659D-02  0.103305D+00 -0.201825D-01 -0.299032D+01 -0.119436D+01
     32  0.185276D+00  0.554870D-01 -0.175490D-01 -0.153265D+01 -0.461003D+01
     33  0.389945D-01  0.337955D-01 -0.109600D+00 -0.226798D+01  0.115617D+01
                6             7             8             9            10 
      6  0.121384D+02
      7  0.617090D-01  0.135562D+02
      8 -0.255473D-02  0.195708D+01  0.104670D+02
      9 -0.261496D+00 -0.114884D+01  0.267831D+01  0.139655D+02
     10  0.239457D+00  0.106379D+00 -0.334085D+00  0.116044D+00  0.752722D+01
     11 -0.365754D-01 -0.261054D+00  0.242037D+00 -0.604012D-01 -0.415896D+00
     12  0.132266D+00  0.101321D+00 -0.348629D-01 -0.604920D-01  0.406478D+01
     13  0.737534D-01  0.228022D+00 -0.156453D+00  0.460401D-01 -0.220796D+01
     14  0.182440D+01 -0.149493D+00 -0.147457D+00 -0.961579D-02  0.368294D+01
     15 -0.768807D+01  0.619082D-01  0.482592D-02 -0.153776D+00 -0.187909D+01
     16 -0.672630D-01 -0.266490D+01  0.122740D+01 -0.937880D-02  0.567903D-01
     17  0.237031D-01  0.153553D+01 -0.184485D+01 -0.448838D-02  0.117596D+00
     18 -0.131916D+00 -0.558840D-01 -0.585276D-01 -0.364972D+01  0.587696D-02
     19 -0.130155D-01 -0.176012D+01 -0.734733D+00 -0.766517D+00  0.857630D-01
     20  0.146064D-02 -0.768039D+00 -0.301030D+01  0.369904D+00 -0.910140D-01
     21 -0.157571D-01 -0.694844D+00  0.316365D+00 -0.302015D+01 -0.250908D-01
     22  0.341019D-01 -0.354423D+01  0.132851D+00  0.608639D+00  0.679083D-01
     23  0.412651D-02  0.827407D-01 -0.359691D+01  0.303779D+00 -0.684316D-01
     24  0.976782D-03  0.484764D+00  0.431580D+00 -0.144851D+01  0.124592D+00
     25  0.167672D-01 -0.154490D-01 -0.514821D-01  0.132952D-02 -0.381322D+01
     26  0.264457D-01 -0.705317D-01  0.118737D+00  0.741199D-02  0.127098D+00
     27 -0.351399D-01 -0.518299D-02  0.102112D-01 -0.461248D-01  0.196606D-01
     28 -0.956306D-02  0.249013D-01 -0.122338D-01 -0.610184D-02 -0.317801D+00
     29 -0.119240D+00 -0.196420D-01 -0.663300D-02  0.490138D-02 -0.124377D-01
     30  0.253993D-01 -0.754774D-02  0.171108D-02 -0.110778D-01  0.735105D-01
     31 -0.204600D+01 -0.561580D-02 -0.130084D-01  0.166513D-01 -0.309047D-02
     32  0.126454D+01  0.288789D-01 -0.307207D-01  0.822184D-02  0.601828D-01
     33 -0.377617D+01  0.690607D-01  0.121982D-01 -0.134690D-01  0.510786D-01
               11            12            13            14            15 
     11  0.148196D+02
     12 -0.178247D+01  0.220741D+02
     13  0.404408D+01 -0.189200D+01  0.113326D+02
     14 -0.689069D+01  0.386746D+00 -0.428622D+01  0.101933D+02
     15  0.272240D+00 -0.116030D+02  0.223393D+01 -0.235432D+01  0.227173D+02
     16  0.137995D+00  0.180805D-01  0.373970D-01 -0.208403D+00  0.753753D-01
     17 -0.129699D+00 -0.623958D-01 -0.265076D+00  0.147795D+00 -0.739098D-01
     18 -0.165433D-01  0.111270D+00  0.639132D-01 -0.571893D-01 -0.112654D+00
     19 -0.923008D-01 -0.236726D-01  0.314749D-01 -0.982104D-02 -0.108682D-01
     20  0.273759D-01  0.184524D-01 -0.185373D-01 -0.116411D-01  0.349441D-02
     21  0.194684D-01 -0.362934D-01 -0.139155D-01  0.264426D-02 -0.735973D-02
     22 -0.819001D-01  0.830607D-01 -0.200770D-01  0.124942D-01 -0.415503D-01
     23 -0.621895D-01 -0.248456D-01  0.175439D-01 -0.702739D-02  0.155571D-01
     24 -0.608778D-01 -0.140809D-01 -0.254623D-01  0.148190D-01 -0.234633D-01
     25  0.855299D-01  0.897250D-02  0.526042D-01 -0.318260D+00 -0.771929D-01
     26 -0.129540D+01  0.582658D+00 -0.373570D+00 -0.222286D+00 -0.991049D-01
     27  0.574349D+00 -0.369687D+01 -0.884367D-01 -0.803384D-01  0.225858D+00
     28 -0.403311D-01  0.600534D-01 -0.231660D+01 -0.875415D+00 -0.731205D+00
     29  0.201901D+00  0.226425D-01 -0.906997D+00 -0.328814D+01  0.431490D+00
     30  0.176396D-01  0.153658D+00 -0.722944D+00  0.415129D+00 -0.346175D+01
     31 -0.159010D-01  0.191151D-01  0.136759D+00 -0.188220D-01 -0.158491D-01
     32 -0.110160D+00  0.221485D-01  0.122350D+00  0.887937D-01 -0.716791D-01
     33  0.283211D-01  0.207844D-01  0.457320D-01 -0.294404D-01  0.113689D+00
               16            17            18            19            20 
     16  0.241194D+01
     17 -0.119579D+01  0.173635D+01
     18  0.184842D+00 -0.264315D-02  0.373308D+01
     19 -0.199677D+00 -0.106727D+00  0.898876D-01  0.153828D+01
     20 -0.832803D-01  0.106762D+00  0.286413D-01  0.950635D+00  0.294275D+01
     21  0.662707D-01  0.281908D-01  0.980624D-01  0.702332D+00 -0.425642D+00
     22  0.552266D-01 -0.248348D+00 -0.223931D+00  0.553052D-01  0.407237D-01
     23 -0.179501D+00  0.101470D-01 -0.218357D+00  0.343932D-01  0.486148D-01
     24 -0.216600D+00 -0.287192D+00  0.131948D-01  0.100774D+00 -0.893235D-01
     25  0.333297D-02  0.902324D-02 -0.478454D-03 -0.101275D-02  0.195475D-02
     26  0.153564D-01 -0.306034D-01  0.138183D-02 -0.660655D-02  0.266075D-02
     27  0.112249D-02 -0.179330D-02  0.538313D-02 -0.131293D-02  0.228234D-03
     28 -0.445608D-02 -0.388186D-02 -0.751492D-03  0.843544D-02 -0.431468D-02
     29  0.266646D-02  0.214446D-02  0.612739D-03 -0.490024D-02  0.161462D-02
     30  0.141277D-02  0.273188D-02 -0.723257D-03 -0.319344D-02  0.136498D-02
     31 -0.155831D-01  0.218891D-01 -0.285517D-01  0.102548D-02  0.159060D-02
     32  0.477140D-02  0.272112D-01  0.378619D-02  0.708114D-02 -0.489596D-02
     33 -0.256105D-01  0.493234D-02  0.149534D-01  0.976650D-02 -0.109064D-02
               21            22            23            24            25 
     21  0.309641D+01
     22  0.100786D+00  0.320432D+01
     23 -0.759264D-01  0.458820D-01  0.373122D+01
     24 -0.108498D+00 -0.605618D+00 -0.256924D+00  0.132034D+01
     25 -0.130119D-02  0.767442D-02 -0.303387D-01  0.168427D-01  0.391825D+01
     26  0.395993D-02 -0.438942D-01  0.360125D-01 -0.362260D-01  0.274752D-01
     27 -0.181474D-03  0.118675D-01 -0.154192D-01 -0.841611D-02 -0.326366D-01
     28 -0.306658D-02  0.508433D-02 -0.419744D-03  0.646998D-02 -0.257623D-01
     29  0.145470D-02 -0.320704D-02 -0.656065D-03 -0.351992D-02 -0.194940D-01
     30  0.297648D-03 -0.646853D-03 -0.301366D-04 -0.296531D-02  0.110280D-02
     31  0.247640D-02  0.120074D-01  0.520237D-02  0.156175D-01 -0.590039D-02
     32 -0.109904D-02  0.125283D-01 -0.656773D-02  0.142199D-01  0.583858D-02
     33 -0.436870D-02  0.253305D-01  0.706164D-02  0.158825D-01  0.282643D-02
               26            27            28            29            30 
     26  0.114401D+01
     27 -0.522355D+00  0.342713D+01
     28 -0.126035D-01  0.209832D-02  0.231011D+01
     29 -0.547816D-02  0.379596D-02  0.105384D+01  0.328110D+01
     30 -0.442453D-03  0.182224D-02  0.772037D+00 -0.401314D+00  0.329980D+01
     31 -0.314920D-02 -0.170390D-03  0.159989D-01 -0.479897D-01 -0.305213D-01
     32  0.270796D-01  0.965042D-02 -0.555000D-01  0.425612D-01  0.426621D-01
     33  0.169945D-01 -0.133026D-02 -0.366070D-01  0.459579D-01  0.879812D-02
               31            32            33 
     31  0.284788D+01
     32  0.116125D+01  0.452125D+01
     33  0.208741D+01 -0.127490D+01  0.373083D+01
 Leave Link  701 at Sun Sep 29 00:33:49 2019, MaxMem=   671088640 cpu:              49.9 elap:              24.9
 (Enter /shared/centos7/gaussian/g16/l702.exe)
 L702 exits ... SP integral derivatives will be done elsewhere.
 Leave Link  702 at Sun Sep 29 00:33:50 2019, MaxMem=   671088640 cpu:               1.6 elap:               0.8
 (Enter /shared/centos7/gaussian/g16/l703.exe)
 Integral derivatives from FoFJK, PRISM(SPDF).
 Compute integral second derivatives, UseDBF=F ICtDFT=           0.
 ICntrl=    100147.
 Calling FoFJK, ICntrl=    100147 FMM=F ISym2X=0 I1Cent= 0 IOpClX= 0 NMat=1 NMatS=1 NMatT=0.
 FoFJK:  IHMeth= 1 ICntrl=  100147 DoSepK=F KAlg= 0 I1Cent=           0 FoldK=F
 IRaf=         0 NMat=       1 IRICut=       1 DoRegI=T DoRafI=F ISym2E= 0 IDoP0=0 IntGTp=1.
 FoFCou: FMM=F IPFlag=           0 FMFlag=      100000 FMFlg1=         800
         NFxFlg=           0 DoJE=F BraDBF=F KetDBF=F FulRan=T
         wScrn=  0.000000 ICntrl=    100147 IOpCl=  0 I1Cent=           0 NGrid=           0
         NMat0=    1 NMatS0=      1 NMatT0=    0 NMatD0=    1 NMtDS0=    0 NMtDT0=    0
 Symmetry not used in FoFCou.
 FoFCou:  KetSym=F NOpSet=  1 NOpAb=1 NOp=  1.
 FoFCou:  CnvScl= 1.00D+00 Thresh= 1.00D-08 IAcrcy=      12.
 PrismS was handed   670738137 working-precision words and  3700 shell-pairs
 FoFCou: LinMIO=F DoNuc=F BraDBF=F KetDBF=F HaveP=T PDBF=F HaveZ=T HaveW=F
         NIJTC =      10 NIJTAt=       0 NIJTCD=       0 NIJTT =      10
         IJTBeg=       1 IJTEnd=      10 KLTBeg=       1 KLTEnd=      10
         IPTBeg=       1 IPTEnd=      10 IPTBCv=       1 IPTECv=      10
         IZTBeg=       1 IZTEnd=      10 IZTBCv=       1 IZTECv=      10
         IWTBeg=      11 IWTEnd=      10 IWTBCv=      11 IWTECv=      10
         INTBeg=       1 INTEnd=       0 IFTBCv=       1 IFTECv=      10
 NCel replicated for PrismC:     1
 CoulSu-InSpLW:  IPartL=    0 NPrtUS=   20 NPrtUL=    1 DoSpLW=F IThBeg=    0 IThEnd=   19 NThAct=   20.
 CoulSu:  IncDef=  1024 NBBP=        6846850 NTPThr=   100 NPartT=   20 Incr=        1024 LDynOK=F GPUOK=T.
 CoulSu:  NPrtUS=  20 ThrOK=T IAlg=1 NPAlg=1 LenDen=           0 LWGrdD=           0 DoCopy=F ISkipM=0
          DoSpLW=F IThBeg=    0 IThEnd=   19.
 Enter PrismC:  IPart=  0 JobTyp=22 DoJE=F Cont=F.
 Enter PrismC:  IPart=  1 JobTyp=22 DoJE=F Cont=F.
 PrismC:  IPart=     1 DynPar=T LinDyn=F Incr=        1024 UseFst=F UseS4=T ISplat=2.
 PrismC was handed    33455113 working-precision words and  3700 shell-pairs
 PrismC:  IPart=     0 DynPar=T LinDyn=F Incr=        1024 UseFst=F UseS4=T ISplat=2.
 PrismC was handed    33455113 working-precision words and  3700 shell-pairs
 Enter PrismC:  IPart=  6 JobTyp=22 DoJE=F Cont=F.
 PrismC:  IPart=     6 DynPar=T LinDyn=F Incr=        1024 UseFst=F UseS4=T ISplat=2.
 PrismC was handed    33455113 working-precision words and  3700 shell-pairs
 Enter PrismC:  IPart= 12 JobTyp=22 DoJE=F Cont=F.
 PrismC:  IPart=    12 DynPar=T LinDyn=F Incr=        1024 UseFst=F UseS4=T ISplat=2.
 PrismC was handed    33455113 working-precision words and  3700 shell-pairs
 Enter PrismC:  IPart=  9 JobTyp=22 DoJE=F Cont=F.
 PrismC:  IPart=     9 DynPar=T LinDyn=F Incr=        1024 UseFst=F UseS4=T ISplat=2.
 PrismC was handed    33455113 working-precision words and  3700 shell-pairs
 Enter PrismC:  IPart= 18 JobTyp=22 DoJE=F Cont=F.
 PrismC:  IPart=    18 DynPar=T LinDyn=F Incr=        1024 UseFst=F UseS4=T ISplat=2.
 PrismC was handed    33455113 working-precision words and  3700 shell-pairs
 Enter PrismC:  IPart= 11 JobTyp=22 DoJE=F Cont=F.
 PrismC:  IPart=    11 DynPar=T LinDyn=F Incr=        1024 UseFst=F UseS4=T ISplat=2.
 PrismC was handed    33455113 working-precision words and  3700 shell-pairs
 Enter PrismC:  IPart=  2 JobTyp=22 DoJE=F Cont=F.
 PrismC:  IPart=     2 DynPar=T LinDyn=F Incr=        1024 UseFst=F UseS4=T ISplat=2.
 PrismC was handed    33455113 working-precision words and  3700 shell-pairs
 Enter PrismC:  IPart=  5 JobTyp=22 DoJE=F Cont=F.
 PrismC:  IPart=     5 DynPar=T LinDyn=F Incr=        1024 UseFst=F UseS4=T ISplat=2.
 PrismC was handed    33455113 working-precision words and  3700 shell-pairs
 Enter PrismC:  IPart=  4 JobTyp=22 DoJE=F Cont=F.
 Enter PrismC:  IPart= 14 JobTyp=22 DoJE=F Cont=F.
 PrismC:  IPart=    14 DynPar=T LinDyn=F Incr=        1024 UseFst=F UseS4=T ISplat=2.
 PrismC was handed    33455113 working-precision words and  3700 shell-pairs
 PrismC:  IPart=     4 DynPar=T LinDyn=F Incr=        1024 UseFst=F UseS4=T ISplat=2.
 PrismC was handed    33455113 working-precision words and  3700 shell-pairs
 Enter PrismC:  IPart= 13 JobTyp=22 DoJE=F Cont=F.
 PrismC:  IPart=    13 DynPar=T LinDyn=F Incr=        1024 UseFst=F UseS4=T ISplat=2.
 PrismC was handed    33455113 working-precision words and  3700 shell-pairs
 Enter PrismC:  IPart= 16 JobTyp=22 DoJE=F Cont=F.
 PrismC:  IPart=    16 DynPar=T LinDyn=F Incr=        1024 UseFst=F UseS4=T ISplat=2.
 PrismC was handed    33455113 working-precision words and  3700 shell-pairs
 Enter PrismC:  IPart= 19 JobTyp=22 DoJE=F Cont=F.
 PrismC:  IPart=    19 DynPar=T LinDyn=F Incr=        1024 UseFst=F UseS4=T ISplat=2.
 PrismC was handed    33455113 working-precision words and  3700 shell-pairs
 Enter PrismC:  IPart=  7 JobTyp=22 DoJE=F Cont=F.
 PrismC:  IPart=     7 DynPar=T LinDyn=F Incr=        1024 UseFst=F UseS4=T ISplat=2.
 PrismC was handed    33455113 working-precision words and  3700 shell-pairs
 Enter PrismC:  IPart= 10 JobTyp=22 DoJE=F Cont=F.
 PrismC:  IPart=    10 DynPar=T LinDyn=F Incr=        1024 UseFst=F UseS4=T ISplat=2.
 PrismC was handed    33455113 working-precision words and  3700 shell-pairs
 Enter PrismC:  IPart=  3 JobTyp=22 DoJE=F Cont=F.
 PrismC:  IPart=     3 DynPar=T LinDyn=F Incr=        1024 UseFst=F UseS4=T ISplat=2.
 PrismC was handed    33455113 working-precision words and  3700 shell-pairs
 Enter PrismC:  IPart= 17 JobTyp=22 DoJE=F Cont=F.
 PrismC:  IPart=    17 DynPar=T LinDyn=F Incr=        1024 UseFst=F UseS4=T ISplat=2.
 PrismC was handed    33455113 working-precision words and  3700 shell-pairs
 Enter PrismC:  IPart=  8 JobTyp=22 DoJE=F Cont=F.
 PrismC:  IPart=     8 DynPar=T LinDyn=F Incr=        1024 UseFst=F UseS4=T ISplat=2.
 PrismC was handed    33455113 working-precision words and  3700 shell-pairs
 Enter PrismC:  IPart= 15 JobTyp=22 DoJE=F Cont=F.
 PrismC:  IPart=    15 DynPar=T LinDyn=F Incr=        1024 UseFst=F UseS4=T ISplat=2.
 PrismC was handed    33455113 working-precision words and  3700 shell-pairs
 IPart=  7 NShTot=      311178 NShNF=      311178 NShFF=           0 MinMC=       7
           NShCPU=      311178 NBCPU=       12098 AvBCPU=        25.7
           NShGPU=           0 NBGPU=           0 AvBGPU=         0.0
 IPart=  4 NShTot=      177397 NShNF=      177397 NShFF=           0 MinMC=       7
           NShCPU=      177397 NBCPU=        7814 AvBCPU=        22.7
           NShGPU=           0 NBGPU=           0 AvBGPU=         0.0
 IPart= 16 NShTot=      312011 NShNF=      312011 NShFF=           0 MinMC=       7
           NShCPU=      312011 NBCPU=       12154 AvBCPU=        25.7
           NShGPU=           0 NBGPU=           0 AvBGPU=         0.0
 IPart=  8 NShTot=      181182 NShNF=      181182 NShFF=           0 MinMC=       7
           NShCPU=      181182 NBCPU=        7491 AvBCPU=        24.2
           NShGPU=           0 NBGPU=           0 AvBGPU=         0.0
 IPart= 19 NShTot=      175414 NShNF=      175414 NShFF=           0 MinMC=       7
           NShCPU=      175414 NBCPU=        7556 AvBCPU=        23.2
           NShGPU=           0 NBGPU=           0 AvBGPU=         0.0
 IPart= 15 NShTot=      295258 NShNF=      295258 NShFF=           0 MinMC=       7
           NShCPU=      295258 NBCPU=       12686 AvBCPU=        23.3
           NShGPU=           0 NBGPU=           0 AvBGPU=         0.0
 IPart=  0 NShTot=      294885 NShNF=      294885 NShFF=           0 MinMC=       7
           NShCPU=      294885 NBCPU=       12068 AvBCPU=        24.4
           NShGPU=           0 NBGPU=           0 AvBGPU=         0.0
 IPart= 12 NShTot=      290757 NShNF=      290757 NShFF=           0 MinMC=       7
           NShCPU=      290757 NBCPU=       12499 AvBCPU=        23.3
           NShGPU=           0 NBGPU=           0 AvBGPU=         0.0
 IPart= 17 NShTot=      173692 NShNF=      173692 NShFF=           0 MinMC=       7
           NShCPU=      173692 NBCPU=        7879 AvBCPU=        22.0
           NShGPU=           0 NBGPU=           0 AvBGPU=         0.0
 IPart= 11 NShTot=      305492 NShNF=      305492 NShFF=           0 MinMC=       7
           NShCPU=      305492 NBCPU=       12527 AvBCPU=        24.4
           NShGPU=           0 NBGPU=           0 AvBGPU=         0.0
 IPart=  2 NShTot=      298759 NShNF=      298759 NShFF=           0 MinMC=       7
           NShCPU=      298759 NBCPU=       12986 AvBCPU=        23.0
           NShGPU=           0 NBGPU=           0 AvBGPU=         0.0
 IPart= 14 NShTot=      165552 NShNF=      165552 NShFF=           0 MinMC=       7
           NShCPU=      165552 NBCPU=        6908 AvBCPU=        24.0
           NShGPU=           0 NBGPU=           0 AvBGPU=         0.0
 IPart=  3 NShTot=      176113 NShNF=      176113 NShFF=           0 MinMC=       7
           NShCPU=      176113 NBCPU=        7423 AvBCPU=        23.7
           NShGPU=           0 NBGPU=           0 AvBGPU=         0.0
 IPart= 13 NShTot=      166693 NShNF=      166693 NShFF=           0 MinMC=       7
           NShCPU=      166693 NBCPU=        7407 AvBCPU=        22.5
           NShGPU=           0 NBGPU=           0 AvBGPU=         0.0
 IPart= 10 NShTot=      182831 NShNF=      182831 NShFF=           0 MinMC=       7
           NShCPU=      182831 NBCPU=        7681 AvBCPU=        23.8
           NShGPU=           0 NBGPU=           0 AvBGPU=         0.0
 IPart=  6 NShTot=      301645 NShNF=      301645 NShFF=           0 MinMC=       7
           NShCPU=      301645 NBCPU=       12745 AvBCPU=        23.7
           NShGPU=           0 NBGPU=           0 AvBGPU=         0.0
 IPart=  1 NShTot=      172065 NShNF=      172065 NShFF=           0 MinMC=       7
           NShCPU=      172065 NBCPU=        7740 AvBCPU=        22.2
           NShGPU=           0 NBGPU=           0 AvBGPU=         0.0
 IPart=  9 NShTot=      305656 NShNF=      305656 NShFF=           0 MinMC=       7
           NShCPU=      305656 NBCPU=       12750 AvBCPU=        24.0
           NShGPU=           0 NBGPU=           0 AvBGPU=         0.0
 IPart= 18 NShTot=      297350 NShNF=      297350 NShFF=           0 MinMC=       7
           NShCPU=      297350 NBCPU=       12113 AvBCPU=        24.5
           NShGPU=           0 NBGPU=           0 AvBGPU=         0.0
 IPart=  5 NShTot=      176875 NShNF=      176875 NShFF=           0 MinMC=       7
           NShCPU=      176875 NBCPU=        7339 AvBCPU=        24.1
           NShGPU=           0 NBGPU=           0 AvBGPU=         0.0
 CoulSu:  NxtVal=        7299073 LenVP=       33455114 MinMC=       7.
 ReadGW:  IGet=0 IStart=           1 Next=           1 LGW=           0.
 Remaining memory in FofDFT      639.93 Mw
 CkSvGd:  ISavGI=        -1 IRadAn=       5 IRASav=       5 ISavGd=        -1.
 CalDSu-InSpLW:  IPartL=    0 NPrtUS=   20 NPrtUL=    1 DoSpLW=F IThBeg=    0 IThEnd=   19 NThAct=   20.
 CalDSu:  NPrtUS=  20 ThrOK=T IAlg=1 NPAlg=2 DoDPD=T LenP=       35245 LenD1P=             0 GPUOK=F
          ISkipM=0 DoSpLW=F IThBeg=    0 IThEnd=   19.
 IPart=  0 IRanGd=          0 ScrnBf=T ScrnGd=T RCrit=4.00D+00 DoMicB=T.
 IPart= 13        12006 of        13190 points in      14 batches and       72 microbatches, Max-NSigAt=      11 Max-NSgAt2=      11
 IPart= 19        10873 of        11304 points in      11 batches and       57 microbatches, Max-NSigAt=      11 Max-NSgAt2=      11
 IPart=  1        12661 of        13924 points in      15 batches and       85 microbatches, Max-NSigAt=      11 Max-NSgAt2=      11
 IPart=  2        11747 of        13388 points in      15 batches and       90 microbatches, Max-NSigAt=      11 Max-NSgAt2=      11
 IPart=  0        11948 of        13450 points in      14 batches and       50 microbatches, Max-NSigAt=      11 Max-NSgAt2=      11
 IPart=  4        12682 of        13568 points in      13 batches and       58 microbatches, Max-NSigAt=      11 Max-NSgAt2=      11
 IPart=  5        12931 of        14444 points in      15 batches and       63 microbatches, Max-NSigAt=      11 Max-NSgAt2=      11
 IPart= 12        10522 of        11412 points in      12 batches and       87 microbatches, Max-NSigAt=      11 Max-NSgAt2=      11
 IPart= 17        10114 of        11104 points in      11 batches and       71 microbatches, Max-NSigAt=      11 Max-NSgAt2=      11
 IPart= 14         8717 of         9524 points in      11 batches and       67 microbatches, Max-NSigAt=      11 Max-NSgAt2=      11
 IPart= 15        12493 of        13822 points in      15 batches and       76 microbatches, Max-NSigAt=      11 Max-NSgAt2=      11
 IPart= 16        10893 of        11446 points in      11 batches and       47 microbatches, Max-NSigAt=      11 Max-NSgAt2=      11
 IPart=  7        11739 of        13040 points in      13 batches and       79 microbatches, Max-NSigAt=      11 Max-NSgAt2=      11
 IPart=  6        11353 of        12420 points in      13 batches and       48 microbatches, Max-NSigAt=      11 Max-NSgAt2=      11
 IPart= 10        10774 of        11936 points in      13 batches and       68 microbatches, Max-NSigAt=      11 Max-NSgAt2=      11
 IPart= 11        11343 of        12814 points in      14 batches and       59 microbatches, Max-NSigAt=      11 Max-NSgAt2=      11
 IPart= 18        11047 of        12062 points in      12 batches and       66 microbatches, Max-NSigAt=      11 Max-NSgAt2=      11
 IPart=  8         9590 of        10472 points in      10 batches and       61 microbatches, Max-NSigAt=      11 Max-NSgAt2=      11
 IPart=  9        11143 of        12090 points in      12 batches and       70 microbatches, Max-NSigAt=      11 Max-NSgAt2=      11
 IPart=  3         9914 of        10688 points in      11 batches and       64 microbatches, Max-NSigAt=      11 Max-NSgAt2=      11
 Polarizability after L703:
                1             2             3 
      1  0.000000D+00
      2  0.000000D+00  0.000000D+00
      3  0.000000D+00  0.000000D+00  0.000000D+00
 Dipole Derivatives after L703:
                 1             2             3             4             5 
      1  -0.157446D+00  0.509847D-01 -0.101738D+00  0.111298D+00  0.193580D+00
      2   0.139488D+00 -0.245138D+00 -0.622071D-01  0.551425D+00 -0.451502D+00
      3  -0.136255D+00 -0.109250D-01 -0.165012D+00  0.299144D+00 -0.204999D+00
                 6             7             8             9            10 
      1  -0.169134D+00 -0.978046D+00  0.370595D+00 -0.199396D+00 -0.463338D+00
      2  -0.371046D+00  0.517796D-01 -0.846896D+00  0.166483D-01  0.331644D-01
      3  -0.671926D+00 -0.742423D-01  0.232870D-01 -0.786560D+00  0.213835D+00
                11            12            13            14            15 
      1  -0.184868D+00  0.255591D+00 -0.706817D+00  0.195354D+00  0.219229D+00
      2  -0.716444D+00 -0.368189D+00 -0.297563D-01 -0.546046D+00  0.384789D-01
      3  -0.288665D+00 -0.162754D+00  0.133430D+00 -0.858410D-02  0.849753D-01
                16            17            18            19            20 
      1  -0.133919D-01 -0.157017D+00  0.599731D-01  0.955406D+00 -0.374566D+00
      2   0.318710D+00  0.446839D+00  0.219646D-01 -0.340056D+00  0.275898D+00
      3   0.163026D-01 -0.489659D-01  0.150076D+00 -0.979237D-01  0.819000D-02
                21            22            23            24            25 
      1  -0.445369D+00  0.212464D+00  0.117448D+00  0.575597D+00  0.183585D+00
      2   0.154326D+00 -0.605751D-02  0.152802D+00 -0.987029D-01  0.459136D-01
      3   0.165995D+00  0.117335D+00  0.109342D+00  0.590783D+00  0.754300D-03
                26            27            28            29            30 
      1   0.275541D-01 -0.441951D-02  0.898902D+00 -0.406035D+00 -0.382591D+00
      2   0.100990D+01  0.173252D+00 -0.296452D+00  0.357093D+00  0.184616D+00
      3   0.151206D+00  0.872332D-01 -0.193526D+00  0.134709D+00  0.199453D+00
                31            32            33 
      1  -0.426161D-01  0.166969D+00  0.192258D+00
      2  -0.468159D+00  0.563496D+00  0.310859D+00
      3  -0.278854D+00  0.135405D+00  0.507737D+00
 Hessian after L703:
                1             2             3             4             5 
      1  0.348781D+00
      2 -0.152469D+00  0.318518D+00
      3 -0.738726D-01 -0.871708D-01  0.209495D+00
      4  0.656962D-02 -0.741519D-03 -0.414354D-02  0.311941D+00
      5 -0.699281D-02  0.186882D-01  0.103370D-01  0.102823D-01  0.416277D+00
      6 -0.133204D-02  0.336187D-02 -0.316128D-02 -0.153693D+00  0.131906D+00
      7 -0.838499D-01  0.227269D-01  0.106507D-03 -0.683224D-03  0.128499D-03
      8  0.370200D-01 -0.157596D+00  0.656794D-01  0.551670D-02 -0.120701D-01
      9 -0.203855D-01  0.845213D-01 -0.117257D+00 -0.765581D-03  0.287097D-02
     10 -0.215882D+00  0.721882D-01  0.636684D-01  0.514403D-03 -0.383197D-02
     11  0.469716D-01 -0.113429D+00 -0.102398D-01 -0.406920D-01 -0.533880D-01
     12  0.826262D-01 -0.279162D-01 -0.880571D-01 -0.678822D-02 -0.215648D-01
     13 -0.457349D-01 -0.232156D-02  0.111497D-01 -0.106768D+00 -0.628261D-01
     14  0.341649D-01 -0.301906D-02 -0.111903D-01 -0.281975D-01 -0.274972D+00
     15  0.253790D-01 -0.545568D-03  0.588360D-03  0.179077D-01 -0.400703D-01
     16  0.111915D-01  0.118025D-01  0.140964D-03 -0.563510D-02  0.616168D-03
     17 -0.773220D-02 -0.321309D-01  0.949352D-02 -0.226606D-02  0.369651D-02
     18  0.109699D-01  0.204919D-01 -0.372382D-03 -0.146561D-02 -0.522249D-03
     19 -0.944238D-02  0.772125D-02  0.193583D-02 -0.727650D-03  0.144166D-03
     20  0.290583D-01 -0.159777D-01 -0.923585D-02 -0.126412D-02  0.205791D-02
     21 -0.188781D-01  0.950554D-02  0.767397D-02 -0.199491D-03 -0.230347D-04
     22 -0.225389D-02  0.544323D-02 -0.117446D-01 -0.635790D-03  0.923101D-03
     23  0.133540D-01 -0.415762D-02  0.368741D-01 -0.541529D-03  0.749283D-03
     24 -0.761251D-02  0.107388D-01 -0.182976D-01  0.242526D-03 -0.944629D-03
     25 -0.694185D-02  0.339242D-01  0.765705D-02 -0.374136D-02 -0.307437D-02
     26  0.944172D-02 -0.105342D-01 -0.372950D-02 -0.257581D-02  0.261234D-02
     27  0.593311D-02 -0.121446D-01  0.225671D-02  0.368792D-02 -0.194512D-02
     28 -0.220196D-02 -0.396800D-02  0.212538D-02  0.100530D-01 -0.416573D-02
     29 -0.412271D-02  0.431946D-03 -0.255401D-02  0.250518D-01 -0.237940D-01
     30  0.563817D-03 -0.220224D-02  0.963101D-02  0.472092D-02 -0.791425D-02
     31 -0.235551D-03  0.569371D-02  0.297697D-02 -0.210887D+00  0.687967D-01
     32  0.130604D-02 -0.793762D-03  0.173629D-02  0.354278D-01 -0.798571D-01
     33 -0.339119D-02  0.135990D-02 -0.249956D-02  0.140497D+00 -0.721301D-01
                6             7             8             9            10 
      6  0.209292D+00
      7 -0.233723D-02  0.523069D+00
      8  0.230558D-02  0.648201D-02  0.467621D+00
      9 -0.953825D-03 -0.741253D-02  0.467697D-01  0.558996D+00
     10 -0.103239D-02 -0.244869D-01  0.239065D-01 -0.393446D-03  0.790777D+00
     11 -0.642000D-02  0.348491D-01 -0.297253D-01 -0.102909D-01  0.180813D+00
     12  0.107556D-01 -0.152314D-01 -0.240264D-02  0.646122D-02 -0.118719D+00
     13  0.943023D-02 -0.306684D-03 -0.540459D-02  0.241017D-02 -0.491835D+00
     14 -0.656438D-01  0.198572D-02  0.147972D-01 -0.448273D-02 -0.219593D+00
     15 -0.719673D-01 -0.320424D-03  0.526251D-02  0.630389D-03  0.541461D-01
     16 -0.225828D-02 -0.155403D+00 -0.996181D-01 -0.863822D-02  0.282368D-02
     17 -0.966152D-03 -0.910431D-01 -0.145360D+00 -0.118942D-01 -0.494510D-02
     18 -0.110429D-02 -0.103322D-01 -0.993714D-02 -0.608137D-01  0.116998D-02
[...]
     Eigenvalues ---    0.13475   0.16484   0.18191   0.18736   0.19826
     Eigenvalues ---    0.22138   0.23301   0.33222   0.33591   0.35088
     Eigenvalues ---    0.36355   0.37354   0.39844   0.45086   0.45698
     Eigenvalues ---    0.53342   0.66236
 Angle between quadratic step and forces=  76.46 degrees.
 Linear search not attempted -- first point.
 Iteration  1 RMS(Cart)=  0.00000332 RMS(Int)=  0.00000000
 Iteration  2 RMS(Cart)=  0.00000000 RMS(Int)=  0.00000000
 ITry= 1 IFail=0 DXMaxC= 8.91D-06 DCOld= 1.00D+10 DXMaxT= 3.00D-01 DXLimC= 3.00D+00 Rises=F
 Variable       Old X    -DE/DX   Delta X   Delta X   Delta X     New X
                                 (Linear)    (Quad)   (Total)
    R1        2.67120   0.00000   0.00000  -0.00000  -0.00000   2.67120
    R2        2.59481   0.00000   0.00000   0.00000   0.00000   2.59481
    R3        2.56333  -0.00000   0.00000  -0.00000  -0.00000   2.56333
    R4        1.82346   0.00000   0.00000   0.00000   0.00000   1.82347
    R5        2.06457   0.00000   0.00000   0.00000   0.00000   2.06457
    R6        2.05345   0.00000   0.00000   0.00000   0.00000   2.05345
    R7        2.06653   0.00000   0.00000   0.00000   0.00000   2.06653
    R8        2.50502  -0.00000   0.00000  -0.00000  -0.00000   2.50502
    R9        2.04478   0.00000   0.00000   0.00000   0.00000   2.04478
   R10        2.03835  -0.00000   0.00000  -0.00000  -0.00000   2.03835
    A1        1.98208   0.00000   0.00000   0.00000   0.00000   1.98208
    A2        1.87243   0.00000   0.00000   0.00000   0.00000   1.87243
    A3        1.93727   0.00000   0.00000   0.00000   0.00000   1.93727
    A4        1.87229   0.00000   0.00000   0.00000   0.00000   1.87229
    A5        1.93110  -0.00000   0.00000   0.00000   0.00000   1.93110
    A6        1.91450   0.00000   0.00000   0.00000   0.00000   1.91450
    A7        1.90278  -0.00000   0.00000  -0.00000  -0.00000   1.90277
    A8        1.90554  -0.00000   0.00000  -0.00000  -0.00000   1.90554
    A9        2.08155   0.00000   0.00000   0.00000   0.00000   2.08155
   A10        2.05343  -0.00000   0.00000  -0.00000  -0.00000   2.05343
   A11        2.14729  -0.00000   0.00000  -0.00000  -0.00000   2.14729
   A12        2.16215   0.00000   0.00000   0.00000   0.00000   2.16215
   A13        1.98815   0.00000   0.00000   0.00000   0.00000   1.98815
   A14        2.13269  -0.00000   0.00000  -0.00000  -0.00000   2.13269
    D1        1.08700   0.00000   0.00000   0.00001   0.00001   1.08701
    D2       -3.10484   0.00000   0.00000   0.00001   0.00001  -3.10483
    D3       -1.02789   0.00000   0.00000   0.00001   0.00001  -1.02789
    D4       -2.45356  -0.00000   0.00000  -0.00000  -0.00000  -2.45356
    D5        0.73254   0.00000   0.00000  -0.00000  -0.00000   0.73254
    D6       -0.00097  -0.00000   0.00000  -0.00000  -0.00000  -0.00098
    D7        3.11981  -0.00000   0.00000  -0.00000  -0.00000   3.11981
    D8        0.03797  -0.00000   0.00000   0.00000   0.00000   0.03797
    D9       -3.08115   0.00000   0.00000   0.00000   0.00000  -3.08114
   D10        3.13254  -0.00000   0.00000  -0.00000  -0.00000   3.13254
   D11        0.01342  -0.00000   0.00000  -0.00000  -0.00000   0.01342
         Item               Value     Threshold  Converged?
 Maximum Force            0.000001     0.000015     YES
 RMS     Force            0.000000     0.000010     YES
 Maximum Displacement     0.000009     0.000060     YES
 RMS     Displacement     0.000003     0.000040     YES
 Predicted change in Energy=-1.420081D-12
 Optimization completed.
    -- Stationary point found.
                           ----------------------------
                           !   Optimized Parameters   !
                           ! (Angstroms and Degrees)  !
 --------------------------                            --------------------------
 ! Name  Definition              Value          Derivative Info.                !
 --------------------------------------------------------------------------------
 ! R1    R(1,3)                  1.4135         -DE/DX =    0.0                 !
 ! R2    R(1,4)                  1.3731         -DE/DX =    0.0                 !
 ! R3    R(2,5)                  1.3565         -DE/DX =    0.0                 !
 ! R4    R(2,11)                 0.9649         -DE/DX =    0.0                 !
 ! R5    R(3,6)                  1.0925         -DE/DX =    0.0                 !
 ! R6    R(3,7)                  1.0866         -DE/DX =    0.0                 !
 ! R7    R(3,8)                  1.0936         -DE/DX =    0.0                 !
 ! R8    R(4,5)                  1.3256         -DE/DX =    0.0                 !
 ! R9    R(4,9)                  1.0821         -DE/DX =    0.0                 !
 ! R10   R(5,10)                 1.0786         -DE/DX =    0.0                 !
 ! A1    A(3,1,4)              113.5649         -DE/DX =    0.0                 !
 ! A2    A(5,2,11)             107.2822         -DE/DX =    0.0                 !
 ! A3    A(1,3,6)              110.9976         -DE/DX =    0.0                 !
 ! A4    A(1,3,7)              107.2744         -DE/DX =    0.0                 !
 ! A5    A(1,3,8)              110.6436         -DE/DX =    0.0                 !
 ! A6    A(6,3,7)              109.6929         -DE/DX =    0.0                 !
 ! A7    A(6,3,8)              109.021          -DE/DX =    0.0                 !
 ! A8    A(7,3,8)              109.1795         -DE/DX =    0.0                 !
 ! A9    A(1,4,5)              119.2639         -DE/DX =    0.0                 !
 ! A10   A(1,4,9)              117.6531         -DE/DX =    0.0                 !
 ! A11   A(5,4,9)              123.0307         -DE/DX =    0.0                 !
 ! A12   A(2,5,4)              123.8823         -DE/DX =    0.0                 !
 ! A13   A(2,5,10)             113.9126         -DE/DX =    0.0                 !
 ! A14   A(4,5,10)             122.194          -DE/DX =    0.0                 !
 ! D1    D(4,1,3,6)             62.2808         -DE/DX =    0.0                 !
 ! D2    D(4,1,3,7)           -177.8941         -DE/DX =    0.0                 !
 ! D3    D(4,1,3,8)            -58.8939         -DE/DX =    0.0                 !
 ! D4    D(3,1,4,5)           -140.5784         -DE/DX =    0.0                 !
 ! D5    D(3,1,4,9)             41.9716         -DE/DX =    0.0                 !
 ! D6    D(11,2,5,4)            -0.0558         -DE/DX =    0.0                 !
 ! D7    D(11,2,5,10)          178.7521         -DE/DX =    0.0                 !
 ! D8    D(1,4,5,2)              2.1756         -DE/DX =    0.0                 !
 ! D9    D(1,4,5,10)          -176.5366         -DE/DX =    0.0                 !
 ! D10   D(9,4,5,2)            179.4813         -DE/DX =    0.0                 !
 ! D11   D(9,4,5,10)             0.7691         -DE/DX =    0.0                 !
 --------------------------------------------------------------------------------
 GradGradGradGradGradGradGradGradGradGradGradGradGradGradGradGradGradGrad

 Leave Link  103 at Sun Sep 29 03:47:29 2019, MaxMem=   671088640 cpu:             112.1 elap:              56.4
 (Enter /shared/centos7/gaussian/g16/l9999.exe)

 ----------------------------------------------------------------------

 Electric dipole moment (input orientation):
 (Debye = 10**-18 statcoulomb cm , SI units = C m)
                  (au)            (Debye)         (10**-30 SI)
   Tot        0.864538D+00      0.219744D+01      0.732985D+01
   x         -0.610018D+00     -0.155051D+01     -0.517195D+01
   y         -0.137049D+00     -0.348344D+00     -0.116195D+01
   z          0.597093D+00      0.151766D+01      0.506237D+01

 Dipole polarizability, Alpha (input orientation).
 (esu units = cm**3 , SI units = C**2 m**2 J**-1)
 Alpha(0;0):
               (au)            (10**-24 esu)      (10**-40 SI)
   iso        0.445369D+02      0.659968D+01      0.734314D+01
   aniso      0.248252D+02      0.367871D+01      0.409311D+01
   xx         0.407587D+02      0.603982D+01      0.672021D+01
   yx         0.934759D+01      0.138517D+01      0.154121D+01
   yy         0.441076D+02      0.653608D+01      0.727237D+01
   zx        -0.896179D+01     -0.132800D+01     -0.147760D+01
   zy        -0.465381D+01     -0.689624D+00     -0.767310D+00
   zz         0.487442D+02      0.722315D+01      0.803684D+01

 ----------------------------------------------------------------------

 Dipole orientation:
     8          0.55455482         -1.16620870          0.99260672
     8         -0.91766279          0.55595433         -3.69331355
     6         -0.17617086         -1.29834374          3.55851845
     6          1.16108218          1.23190771          0.20888912
     6          0.45758025          1.98908494         -2.07297694
     1         -1.88165783         -0.18615211          3.90025015
     1         -0.54026617         -3.27310493          3.98792755
     1          1.33678915         -0.60494629          4.78354942
     1          2.27172869          2.39159538          1.47487684
     1          0.97453924          3.81423125         -2.81894573
     1         -1.24515926         -1.03517873         -2.86502383

 Electric dipole moment (dipole orientation):
 (Debye = 10**-18 statcoulomb cm , SI units = C m)
                  (au)            (Debye)         (10**-30 SI)
   Tot        0.864538D+00      0.219744D+01      0.732985D+01
   x          0.000000D+00      0.000000D+00      0.000000D+00
   y          0.000000D+00      0.000000D+00      0.000000D+00
   z          0.864538D+00      0.219744D+01      0.732985D+01

 Dipole polarizability, Alpha (dipole orientation).
 (esu units = cm**3 , SI units = C**2 m**2 J**-1)
 Alpha(0;0):
               (au)            (10**-24 esu)      (10**-40 SI)
   iso        0.445369D+02      0.659968D+01      0.734314D+01
   aniso      0.248252D+02      0.367871D+01      0.409311D+01
   xx         0.353884D+02      0.524403D+01      0.583477D+01
   yx         0.344264D+01      0.510147D+00      0.567615D+00
   yy         0.417254D+02      0.618307D+01      0.687960D+01
   zx         0.414585D+01      0.614352D+00      0.683559D+00
   zy        -0.768583D+01     -0.113892D+01     -0.126722D+01
   zz         0.564967D+02      0.837195D+01      0.931505D+01

 ----------------------------------------------------------------------

 Test job not archived.
 1\1\GINC-C0184\Freq\RM062X\CC-pVTZ\C3H6O2\HARMS.N\29-Sep-2019\0\\#P Ge
 om=AllCheck Guess=TCheck SCRF=Check Test GenChk RM062X/CC-pVTZ Freq\\G
 aussian input prepared by ASE\\0,1\O,-0.1227591322,-0.7106398441,0.472
 0091041\O,1.016972107,0.6317729783,-1.6458262257\C,-1.3490239457,-0.96
 91860592,1.1258610198\C,0.3123544645,0.5840347614,0.613218664\C,0.8752
 195529,1.194808102,-0.4199117227\H,-2.1522907906,-0.3583444375,0.70724
 58139\H,-1.5761548387,-2.0219265752,0.9811950739\H,-1.2658602171,-0.76
 34431108,2.196668714\H,0.2136998449,1.0435096942,1.5878916357\H,1.2828
 585258,2.1907559392,-0.346414145\H,0.6411369077,-0.2557198316,-1.59886
 38429\\Version=EM64L-G16RevA.03\State=1-A\HF=-268.3241864\RMSD=3.014e-
 09\RMSF=9.169e-07\ZeroPoint=0.0911284\Thermal=0.0969967\Dipole=-0.6100
 184,-0.1370489,0.5970933\DipoleDeriv=-0.8129062,-0.3882214,0.3601466,-
 0.5978174,-1.0436445,0.4166741,0.2265714,0.0455313,-0.5511691,-0.35265
 37,0.0002681,0.071073,0.1628123,-0.3561235,-0.5138005,0.3123057,-0.022
 7732,-1.2216096,0.7946644,0.2320058,-0.2593432,0.0944975,0.331956,-0.0
 797203,-0.2536426,-0.1748824,0.5212661,-0.0757013,0.3036776,-0.0345522
 ,0.5373975,0.7524876,-0.2155924,0.0659837,0.0540789,-0.058596,-0.01477
 69,0.0614028,-0.175918,-0.0804828,0.1261278,0.4096612,-0.3764867,0.104
 5731,1.0708151,-0.1099798,-0.0045061,0.0075629,0.1320916,0.0012036,0.0
 273375,-0.0544557,0.072869,-0.008619,0.0256792,-0.0333666,0.0316581,-0
 .0753197,-0.1075864,0.0053202,0.0106755,-0.028431,0.0565103,-0.0106141
 ,-0.0470035,-0.0427371,0.0018331,0.0472179,-0.0642614,0.0391373,0.0040
 385,-0.1614523,0.1528326,-0.009005,0.0232701,-0.076273,0.0026849,-0.00
 48892,0.0188908,-0.0720183,-0.0403036,0.1148653,-0.0715455,0.0107687,-
 0.0520353,-0.0009054,-0.0453648,0.0239798,-0.0244449,0.0543783,0.28859
 05,-0.0437062,0.008071,-0.0467039,0.246582,0.0646356,-0.0129592,0.0414
 59,0.3387797\Polar=40.7587197,9.347592,44.1076443,-8.9617908,-4.653811
 9,48.7442222\Quadrupole=-0.4405086,1.139067,-0.6985584,1.6735115,-0.11
 62134,1.5703123\PG=C01 [X(C3H6O2)]\NImag=0\\0.35396737,0.14593944,0.42
 470995,-0.14157926,0.01779680,0.19252290,-0.00569285,0.00432253,-0.001
 77404,0.13384229,0.00454204,0.01269961,0.00475084,0.18905212,0.5669504
 3,0.00154743,0.01193332,0.00529368,-0.07529532,0.08963494,0.39997963,-
 0.20223755,-0.03613565,0.07554850,0.00016649,-0.00034787,-0.00432280,0
 .50586022,-0.00516687,-0.08372150,-0.00811828,0.00025908,0.00029843,-0
 .00105692,-0.00481892,0.62415097,0.08415164,0.01076177,-0.10936269,-0.
 00035290,0.00397751,0.00333793,0.03944361,0.01730184,0.55274707,-0.084
 30103,-0.05379167,0.02046257,0.01126648,-0.00302171,0.01062847,-0.0224
 7265,-0.04364378,-0.00103976,0.28265063,-0.08665769,-0.28045596,-0.024
 98246,0.00843338,0.00227849,-0.03670849,-0.01946910,-0.02349616,0.0075
 2484,0.20292297,0.58318446,0.01255813,-0.04047650,-0.08588433,0.022229
 18,-0.00235301,-0.06385644,0.00533938,0.02286046,-0.00004362,-0.239053
 11,-0.02670046,0.81011783,-0.00124388,-0.01870849,0.01434931,-0.061776
 47,-0.00480435,0.04902529,0.00150290,-0.00151945,0.00015064,-0.1515897
 1,-0.11390193,0.16000811,0.29501688,-0.03629550,-0.05393392,0.03303129
 ,-0.01998895,-0.14000426,-0.06712073,0.00612222,-0.00264094,-0.0066156
 1,-0.10174949,-0.18897677,0.14788944,0.25847072,0.70626528,-0.00356017
 ,-0.01074274,0.00528831,0.03175137,-0.11262813,-0.29387311,0.00206484,
 -0.00318569,-0.00414976,0.16848993,0.17725912,-0.37320144,-0.20647160,
 -0.04349030,0.73878571,-0.03935927,0.00982617,-0.00029230,-0.00002811,
 0.00036934,0.00055998,-0.17521234,0.10112605,-0.07546395,0.00286560,0.
 00575171,-0.00013829,-0.00011179,-0.00178263,-0.00000131,0.20608152,-0
 .00810105,0.00669394,-0.00331945,-0.00032300,-0.00050025,-0.00099508,0
 .10663071,-0.14014286,0.06062667,-0.00032316,0.00311203,-0.00203211,0.
 00040333,0.00067544,0.00177615,-0.11490365,0.14070466,0.02147431,-0.00
 896507,0.00844262,0.00013309,-0.00030648,-0.00036416,-0.07920490,0.062
 17852,-0.09737923,-0.00082054,-0.00248381,0.00074993,-0.00042134,0.000
 31769,-0.00014482,0.07663022,-0.06616309,0.09794550,-0.01526624,-0.036
 73611,-0.00129589,-0.00011897,0.00043542,0.00043462,-0.05700073,-0.038
 88434,-0.00742371,-0.00373445,0.00046506,0.00402482,-0.00048575,-0.001
 98948,-0.00109842,0.00686120,0.02174615,0.00434850,0.06961353,-0.00469
 892,-0.00500527,0.00126455,-0.00000517,0.00039482,0.00082721,-0.051045
 70,-0.31138355,-0.03889365,-0.00113360,0.00213865,0.00150033,-0.000156
 34,-0.00030756,-0.00121182,-0.00285871,-0.01501838,-0.00382271,0.05925
 633,0.33304373,0.00856498,0.02023764,0.00143654,0.00003727,-0.00030024
 ,-0.00015107,-0.01097570,-0.04531687,-0.05710706,0.00243026,-0.0004755
 7,-0.00160774,0.00014125,0.00102866,0.00099151,0.00247827,0.01385257,0
 .00269811,0.00269326,0.04094296,0.05618061,-0.01031763,0.00073459,0.04
 146077,0.00006643,-0.00070717,0.00014395,-0.05374405,-0.00750027,-0.03
 690640,0.00226401,0.00546481,0.00213154,-0.00048258,-0.00031619,0.0001
 5931,-0.00043370,-0.00546042,-0.02222095,0.00011257,0.00036030,-0.0055
 1114,0.06222760,-0.00236037,0.00184650,0.00715593,0.00009215,-0.000361
 01,-0.00019798,-0.00498314,-0.06359108,-0.05038727,0.00065653,0.002483
 31,0.00321094,-0.00004172,-0.00001432,0.00011155,0.00281735,0.00453067
 ,0.01889450,-0.00387092,-0.00371742,-0.03069558,0.00756014,0.05862886,
 0.01472831,0.00133885,-0.01788573,0.00026045,0.00015335,0.00017720,-0.
 03137046,-0.04828081,-0.29098181,-0.00177818,-0.00373441,0.00057854,0.
 00012392,0.00094188,0.00001102,-0.00301225,-0.00373544,-0.01158434,-0.
 00174981,-0.00067600,-0.00245432,0.02249203,0.05270689,0.32168931,0.00
 013467,-0.00826443,-0.00813277,0.00749316,-0.00587306,0.00314325,0.002
 13984,-0.00027919,-0.00327807,-0.03653557,0.00270736,0.03368486,0.0003
 9304,0.00984928,0.01047856,-0.00045973,-0.00010139,-0.00004689,-0.0000
 8078,0.00029019,0.00016123,0.00045141,0.00024468,0.00054577,0.03043174
 ,-0.00361389,-0.02432735,-0.02870158,-0.00523580,0.00104331,0.00290422
 ,0.00437969,0.00146751,-0.00357550,0.00260086,-0.09670709,-0.10462154,
 0.00119712,0.01012865,0.01269358,-0.00048861,-0.00004791,0.00035249,-0
 .00007854,0.00007798,0.00047873,-0.00029518,0.00020213,0.00139937,0.00
 017487,0.10973927,-0.00130383,-0.00361107,0.00155645,0.00464168,0.0015
 8891,0.00023789,0.00108530,0.00103987,0.00228520,0.03541341,-0.1056147
 9,-0.29223553,-0.00186462,-0.01263427,-0.01492024,-0.00036239,-0.00007
 764,-0.00043772,-0.00029933,0.00012840,0.00025214,-0.00104248,-0.00072
 929,-0.00001444,-0.03502844,0.11851686,0.30307340,0.00620494,-0.006085
 15,0.00341754,0.00365392,0.00554371,0.00021260,0.00182037,0.00078284,0
 .00043765,-0.00164432,-0.00883613,-0.00441718,-0.08442033,-0.11479796,
 0.00073432,-0.00009068,0.00027762,-0.00006171,0.00008877,0.00008800,-0
 .00008349,-0.00027461,-0.00014392,0.00006479,-0.00344005,0.00170214,-0
 .00088872,0.07636857,-0.00378950,0.00435149,0.00086801,-0.00411602,-0.
 01259578,-0.00595788,-0.00012360,-0.00094176,-0.00015634,-0.00272478,-
 0.00842286,-0.00395127,-0.11183163,-0.30538535,-0.01263670,0.00001599,
 -0.00011793,-0.00000545,-0.00023249,-0.00004793,0.00013715,0.00001730,
 0.00002735,0.00006802,0.00126910,-0.00049818,0.00103593,0.12123180,0.3
 2185705,0.00523489,-0.00031756,-0.00317579,-0.01273602,-0.03482230,-0.
 00516976,-0.00031779,0.00137779,0.00027706,0.00619624,0.02122225,0.009
 17200,0.00203138,-0.00801879,-0.05546074,0.00005517,0.00003480,0.00000
 501,0.00045355,0.00008751,-0.00027029,0.00006341,0.00000971,-0.0001033
 1,-0.00103635,0.00013111,-0.00039727,-0.00106642,0.02277094,0.06039578
 ,-0.00188851,-0.00110122,-0.00216443,-0.08887238,-0.18518848,0.0139225
 3,-0.00082250,-0.00035517,0.00028124,0.00123099,0.00311956,0.00363255,
 0.00319769,0.00247796,-0.00254683,-0.00011271,0.00015485,0.00019021,0.
 00001085,-0.00009638,0.00006380,0.00013054,0.00002924,-0.00030457,-0.0
 0052773,-0.00034265,-0.00035059,0.00173342,0.00028382,0.00112193,0.085
 92033,0.00020231,-0.00285750,0.00025436,-0.17249032,-0.43020379,0.0067
 3740,-0.00020864,0.00000093,-0.00056424,0.00020783,0.00486191,0.004673
 71,-0.00910726,-0.02580625,-0.00794503,0.00012697,0.00011058,0.0000034
 0,-0.00011109,-0.00017507,0.00011055,0.00014209,-0.00003498,-0.0001817
 1,-0.00001742,-0.00107833,0.00035708,0.00023704,0.00177389,-0.00247547
 ,0.18101849,0.45340861,-0.00181643,0.00204456,0.00176805,0.03110523,0.
 05030461,-0.04561180,0.00271002,0.00120008,0.00037691,-0.00092928,-0.0
 0530622,-0.00378919,-0.01707235,-0.04532927,-0.00332644,-0.00045316,0.
 00003262,0.00006911,-0.00008759,-0.00014677,0.00003158,-0.00077005,-0.
 00007941,0.00056789,-0.00049116,0.00042226,0.00060012,0.00165063,-0.00
 217241,-0.00527268,-0.01384585,-0.00097005,0.05458645\\-0.00000048,-0.
 00000017,-0.00000078,-0.00000133,0.00000019,-0.00000046,-0.00000039,0.
 00000011,-0.00000007,0.00000052,-0.00000087,0.00000046,0.00000041,-0.0
 0000021,0.00000005,0.00000009,0.00000123,0.00000124,-0.00000121,0.0000
 0090,-0.00000086,0.00000082,-0.00000088,0.00000006,0.00000183,-0.00000
 160,0.00000053,0.00000135,-0.00000051,0.00000081,-0.00000159,0.0000018
 1,-0.00000097\\\@


 THE WORLD IS MADE UP OF THE WILLS, THE WON'TS, AND THE CANT'S:
 THE WILLS DO EVERYTHING,
 THE WON'TS DO NOTHING,
 THE CAN'TS CAN'T DO ANYTHING.

                               -- FROM WALT DISNEY'S "BLACK HOLE"
 Job cpu time:       0 days  1 hours  8 minutes 14.0 seconds.
 Elapsed time:       0 days  0 hours 34 minutes  8.2 seconds.
 File lengths (MBytes):  RWF=   1312 Int=      0 D2E=      0 Chk=     32 Scr=     32
 Normal termination of Gaussian 16 at Sun Sep 29 03:47:30 2019.
