 Entering Gaussian System, Link 0=g16
 Input=med/species/COC=CO/conformers/COC=CO_15.com
 Output=med/species/COC=CO/conformers/COC=CO_15.log
 Initial command:
 /shared/centos7/gaussian/g16/l1.exe "/scratch/harms.n/gauss_scrdir/Gau-5202.inp" -scrdir="/scratch/harms.n/gauss_scrdir/"
 Entering Link 1 = /shared/centos7/gaussian/g16/l1.exe PID=      5203.
  
 Copyright (c) 1988,1990,1992,1993,1995,1998,2003,2009,2016,
            Gaussian, Inc.  All Rights Reserved.
  
 This is part of the Gaussian(R) 16 program.  It is based on
 the Gaussian(R) 09 system (copyright 2009, Gaussian, Inc.),
 the Gaussian(R) 03 system (copyright 2003, Gaussian, Inc.),
 the Gaussian(R) 98 system (copyright 1998, Gaussian, Inc.),
 the Gaussian(R) 94 system (copyright 1995, Gaussian, Inc.),
 the Gaussian 92(TM) system (copyright 1992, Gaussian, Inc.),
 the Gaussian 90(TM) system (copyright 1990, Gaussian, Inc.),
 the Gaussian 88(TM) system (copyright 1988, Gaussian, Inc.),
 the Gaussian 86(TM) system (copyright 1986, Carnegie Mellon
 University), and the Gaussian 82(TM) system (copyright 1983,
 Carnegie Mellon University). Gaussian is a federally registered
 trademark of Gaussian, Inc.
  
 This software contains proprietary and confidential information,
 including trade secrets, belonging to Gaussian, Inc.
  
 This software is provided under written license and may be
 used, copied, transmitted, or stored only in accord with that
 written license.
  
 The following legend is applicable only to US Government
 contracts under FAR:
  
                    RESTRICTED RIGHTS LEGEND
  
 Use, reproduction and disclosure by the US Government is
 subject to restrictions as set forth in subparagraphs (a)
 and (c) of the Commercial Computer Software - Restricted
 Rights clause in FAR 52.227-19.
  
 Gaussian, Inc.
 340 Quinnipiac St., Bldg. 40, Wallingford CT 06492
  
  
 ---------------------------------------------------------------
 Warning -- This program may not be used in any manner that
 competes with the business of Gaussian, Inc. or will provide
 assistance to any competitor of Gaussian, Inc.  The licensee
 of this program is prohibited from giving any competitor of
 Gaussian, Inc. access to this program.  By using this program,
 the user acknowledges that Gaussian, Inc. is engaged in the
 business of creating and licensing software in the field of
 computational chemistry and represents and warrants to the
 licensee that it is not a competitor of Gaussian, Inc. and that
 it will not use this program in any manner prohibited above.
 ---------------------------------------------------------------
  

 Cite this work as:
 Gaussian 16, Revision A.03,
 M. J. Frisch, G. W. Trucks, H. B. Schlegel, G. E. Scuseria, 
 M. A. Robb, J. R. Cheeseman, G. Scalmani, V. Barone, 
 G. A. Petersson, H. Nakatsuji, X. Li, M. Caricato, A. V. Marenich, 
 J. Bloino, B. G. Janesko, R. Gomperts, B. Mennucci, H. P. Hratchian, 
 J. V. Ortiz, A. F. Izmaylov, J. L. Sonnenberg, D. Williams-Young, 
 F. Ding, F. Lipparini, F. Egidi, J. Goings, B. Peng, A. Petrone, 
 T. Henderson, D. Ranasinghe, V. G. Zakrzewski, J. Gao, N. Rega, 
 G. Zheng, W. Liang, M. Hada, M. Ehara, K. Toyota, R. Fukuda, 
 J. Hasegawa, M. Ishida, T. Nakajima, Y. Honda, O. Kitao, H. Nakai, 
 T. Vreven, K. Throssell, J. A. Montgomery, Jr., J. E. Peralta, 
 F. Ogliaro, M. J. Bearpark, J. J. Heyd, E. N. Brothers, K. N. Kudin, 
 V. N. Staroverov, T. A. Keith, R. Kobayashi, J. Normand, 
 K. Raghavachari, A. P. Rendell, J. C. Burant, S. S. Iyengar, 
 J. Tomasi, M. Cossi, J. M. Millam, M. Klene, C. Adamo, R. Cammi, 
 J. W. Ochterski, R. L. Martin, K. Morokuma, O. Farkas, 
 J. B. Foresman, and D. J. Fox, Gaussian, Inc., Wallingford CT, 2016.
 
 ******************************************
 Gaussian 16:  EM64L-G16RevA.03 25-Dec-2016
                 5-Sep-2019 
 ******************************************
 %nprocshared=20
 Will use up to   20 processors via shared memory.
 %mem=5GB
 ----------------------------------------------------------------------
 #p m062x/cc-pVTZ opt=(calcfc,maxcycles=900,Tight) freq IOP(7/33=1,2/16
 =3) scf=(maxcycle=900)
 ----------------------------------------------------------------------
 1/6=900,7=10,10=4,18=20,19=15,26=3,38=1/1,3;
 2/9=110,12=2,16=3,17=6,18=5,40=1/2;
 3/5=16,6=1,11=2,25=1,30=1,71=2,74=-55,140=1/1,2,3;
 4//1;
 5/5=2,7=900,38=5/2;
 8/6=4,10=90,11=11/1;
 11/6=1,8=1,9=11,15=111,16=1/1,2,10;
 10/6=1,13=1/2;
 6/7=2,8=2,9=2,10=2,28=1/1;
 7/10=1,18=20,25=1,33=1/1,2,3,16;
 1/6=900,7=10,10=4,18=20,19=15,26=3/3(2);
 2/9=110,16=3/2;
 99//99;
 2/9=110,16=3/2;
 3/5=16,6=1,11=2,25=1,30=1,71=1,74=-55/1,2,3;
 4/5=5,16=3,69=1/1;
 5/5=2,7=900,38=5/2;
 7/33=1/1,2,3,16;
 1/6=900,7=10,18=20,19=15,26=3/3(-5);
 2/9=110,16=3/2;
 6/7=2,8=2,9=2,10=2,19=2,28=1/1;
 99/9=1/99;
 Leave Link    1 at Thu Sep  5 16:33:18 2019, MaxMem=   671088640 cpu:               4.3 elap:               2.1
 (Enter /shared/centos7/gaussian/g16/l101.exe)
 ------------------------------
 Gaussian input prepared by ASE
 ------------------------------
 Symbolic Z-matrix:
 Charge =  0 Multiplicity = 1
 O                     0.21829  -0.73679   1.09824 
 O                     0.42461   2.88088   0.4449 
 C                    -1.17923  -0.92617   0.86493 
 C                     0.64914   0.5754    0.94954 
 C                    -0.07285   1.60295   0.57026 
 H                    -1.32045  -1.62541  -0.00889 
 H                    -1.63705  -1.40243   1.77831 
 H                    -1.67503   0.02165   0.65444 
 H                     1.70858   0.66722   1.18102 
 H                    -1.11226   1.53747   0.329 
 H                     1.39846   2.84912   0.73582 
 
 ITRead=  0  0  0  0  0  0  0  0  0  0  0
 MicOpt= -1 -1 -1 -1 -1 -1 -1 -1 -1 -1 -1
 NAtoms=     11 NQM=       11 NQMF=       0 NMMI=      0 NMMIF=      0
                NMic=       0 NMicF=      0.
                    Isotopes and Nuclear Properties:
 (Nuclear quadrupole moments (NQMom) in fm**2, nuclear magnetic moments (NMagM)
  in nuclear magnetons)

  Atom         1           2           3           4           5           6           7           8           9          10
 IAtWgt=          16          16          12          12          12           1           1           1           1           1
 AtmWgt=  15.9949146  15.9949146  12.0000000  12.0000000  12.0000000   1.0078250   1.0078250   1.0078250   1.0078250   1.0078250
 NucSpn=           0           0           0           0           0           1           1           1           1           1
 AtZEff=  -0.0000000  -0.0000000  -0.0000000  -0.0000000  -0.0000000  -0.0000000  -0.0000000  -0.0000000  -0.0000000  -0.0000000
 NQMom=    0.0000000   0.0000000   0.0000000   0.0000000   0.0000000   0.0000000   0.0000000   0.0000000   0.0000000   0.0000000
 NMagM=    0.0000000   0.0000000   0.0000000   0.0000000   0.0000000   2.7928460   2.7928460   2.7928460   2.7928460   2.7928460
 AtZNuc=   8.0000000   8.0000000   6.0000000   6.0000000   6.0000000   1.0000000   1.0000000   1.0000000   1.0000000   1.0000000

  Atom        11
 IAtWgt=           1
 AtmWgt=   1.0078250
 NucSpn=           1
 AtZEff=  -0.0000000
 NQMom=    0.0000000
 NMagM=    2.7928460
 AtZNuc=   1.0000000
 Leave Link  101 at Thu Sep  5 16:33:20 2019, MaxMem=   671088640 cpu:               2.8 elap:               1.4
 (Enter /shared/centos7/gaussian/g16/l103.exe)

 GradGradGradGradGradGradGradGradGradGradGradGradGradGradGradGradGradGrad
 Berny optimization.
 Initialization pass.
                           ----------------------------
                           !    Initial Parameters    !
                           ! (Angstroms and Degrees)  !
 --------------------------                            --------------------------
 ! Name  Definition              Value          Derivative Info.                !
 --------------------------------------------------------------------------------
 ! R1    R(1,3)                  1.4295         calculate D2E/DX2 analytically  !
 ! R2    R(1,4)                  1.3891         calculate D2E/DX2 analytically  !
 ! R3    R(2,5)                  1.3771         calculate D2E/DX2 analytically  !
 ! R4    R(2,11)                 1.0169         calculate D2E/DX2 analytically  !
 ! R5    R(3,6)                  1.128          calculate D2E/DX2 analytically  !
 ! R6    R(3,7)                  1.1272         calculate D2E/DX2 analytically  !
 ! R7    R(3,8)                  1.0902         calculate D2E/DX2 analytically  !
 ! R8    R(4,5)                  1.3119         calculate D2E/DX2 analytically  !
 ! R9    R(4,9)                  1.0883         calculate D2E/DX2 analytically  !
 ! R10   R(5,10)                 1.0691         calculate D2E/DX2 analytically  !
 ! A1    A(3,1,4)              114.2623         calculate D2E/DX2 analytically  !
 ! A2    A(5,2,11)             106.9135         calculate D2E/DX2 analytically  !
 ! A3    A(1,3,6)              109.3266         calculate D2E/DX2 analytically  !
 ! A4    A(1,3,7)              108.711          calculate D2E/DX2 analytically  !
 ! A5    A(1,3,8)              111.1587         calculate D2E/DX2 analytically  !
 ! A6    A(6,3,7)              108.357          calculate D2E/DX2 analytically  !
 ! A7    A(6,3,8)              109.4159         calculate D2E/DX2 analytically  !
 ! A8    A(7,3,8)              109.8201         calculate D2E/DX2 analytically  !
 ! A9    A(1,4,5)              126.8812         calculate D2E/DX2 analytically  !
 ! A10   A(1,4,9)              111.0307         calculate D2E/DX2 analytically  !
 ! A11   A(5,4,9)              122.0841         calculate D2E/DX2 analytically  !
 ! A12   A(2,5,4)              123.6692         calculate D2E/DX2 analytically  !
 ! A13   A(2,5,10)             112.8006         calculate D2E/DX2 analytically  !
 ! A14   A(4,5,10)             123.5299         calculate D2E/DX2 analytically  !
 ! D1    D(4,1,3,6)            118.1197         calculate D2E/DX2 analytically  !
 ! D2    D(4,1,3,7)           -123.7711         calculate D2E/DX2 analytically  !
 ! D3    D(4,1,3,8)             -2.7764         calculate D2E/DX2 analytically  !
 ! D4    D(3,1,4,5)             -3.2111         calculate D2E/DX2 analytically  !
 ! D5    D(3,1,4,9)            177.5146         calculate D2E/DX2 analytically  !
 ! D6    D(11,2,5,4)            -2.4166         calculate D2E/DX2 analytically  !
 ! D7    D(11,2,5,10)          177.3626         calculate D2E/DX2 analytically  !
 ! D8    D(1,4,5,2)            179.9934         calculate D2E/DX2 analytically  !
 ! D9    D(1,4,5,10)             0.2376         calculate D2E/DX2 analytically  !
 ! D10   D(9,4,5,2)             -0.806          calculate D2E/DX2 analytically  !
 ! D11   D(9,4,5,10)           179.4382         calculate D2E/DX2 analytically  !
 --------------------------------------------------------------------------------
 Trust Radius=3.00D-01 FncErr=1.00D-07 GrdErr=1.00D-06 EigMax=2.50D+02 EigMin=1.00D-04
 Number of steps in this run=    100 maximum allowed number of steps=    100.
 GradGradGradGradGradGradGradGradGradGradGradGradGradGradGradGradGradGrad

 Leave Link  103 at Thu Sep  5 16:33:21 2019, MaxMem=   671088640 cpu:               1.4 elap:               0.7
 (Enter /shared/centos7/gaussian/g16/l202.exe)
                          Input orientation:                          
 ---------------------------------------------------------------------
 Center     Atomic      Atomic             Coordinates (Angstroms)
 Number     Number       Type             X           Y           Z
 ---------------------------------------------------------------------
      1          8           0        0.218292   -0.736788    1.098236
      2          8           0        0.424610    2.880883    0.444899
      3          6           0       -1.179230   -0.926173    0.864932
      4          6           0        0.649141    0.575402    0.949539
      5          6           0       -0.072849    1.602947    0.570258
      6          1           0       -1.320451   -1.625405   -0.008888
      7          1           0       -1.637053   -1.402433    1.778314
      8          1           0       -1.675030    0.021648    0.654437
      9          1           0        1.708581    0.667225    1.181020
     10          1           0       -1.112263    1.537471    0.329000
     11          1           0        1.398455    2.849116    0.735815
 ---------------------------------------------------------------------
                    Distance matrix (angstroms):
                    1          2          3          4          5
     1  O    0.000000
     2  O    3.681978   0.000000
     3  C    1.429464   4.152398   0.000000
     4  C    1.389094   2.370722   2.367451   0.000000
     5  C    2.416171   1.377063   2.776213   1.311858   0.000000
     6  H    2.093584   4.853637   1.128020   3.105065   3.509156
     7  H    2.085161   4.937129   1.127250   3.134546   3.597004
     8  H    2.087307   3.553536   1.090179   2.407384   2.252682
     9  H    2.049162   2.662844   3.313349   1.088314   2.102878
    10  H    2.744878   2.044546   2.522151   2.100759   1.069052
    11  H    3.792472   1.016866   4.573176   2.403524   1.935222
                    6          7          8          9         10
     6  H    0.000000
     7  H    1.828673   0.000000
     8  H    1.810666   1.814538   0.000000
     9  H    3.980838   3.979134   3.484664   0.000000
    10  H    3.187678   3.319480   1.649344   3.072527   0.000000
    11  H    5.288513   5.326986   4.177022   2.248340   2.861750
                   11
    11  H    0.000000
 Stoichiometry    C3H6O2
 Framework group  C1[X(C3H6O2)]
 Deg. of freedom    27
 Full point group                 C1      NOp   1
 Largest Abelian subgroup         C1      NOp   1
 Largest concise Abelian subgroup C1      NOp   1
                         Standard orientation:                         
 ---------------------------------------------------------------------
 Center     Atomic      Atomic             Coordinates (Angstroms)
 Number     Number       Type             X           Y           Z
 ---------------------------------------------------------------------
      1          8           0       -1.282023    0.699276    0.016950
      2          8           0        2.266336   -0.283437   -0.002774
      3          6           0       -1.873841   -0.601514   -0.015651
      4          6           0        0.106957    0.695031   -0.000371
      5          6           0        0.891340   -0.356365    0.016461
      6          1           0       -2.473423   -0.762577    0.926150
      7          1           0       -2.574724   -0.657940   -0.896714
      8          1           0       -1.113081   -1.377996   -0.098173
      9          1           0        0.500430    1.709570   -0.018176
     10          1           0        0.530150   -1.362208    0.042814
     11          1           0        2.509406    0.701525   -0.071941
 ---------------------------------------------------------------------
 Rotational constants (GHZ):          16.6479907           2.7592165           2.4052753
 Leave Link  202 at Thu Sep  5 16:33:22 2019, MaxMem=   671088640 cpu:               3.4 elap:               1.7
 (Enter /shared/centos7/gaussian/g16/l301.exe)
 Standard basis: CC-pVTZ (5D, 7F)
 Ernie: Thresh=  0.10000D-02 Tol=  0.10000D-05 Strict=F.
 Ernie:  15 primitive shells out of 178 were deleted.
 There are   265 symmetry adapted cartesian basis functions of A   symmetry.
 There are   234 symmetry adapted basis functions of A   symmetry.
   234 basis functions,   362 primitive gaussians,   265 cartesian basis functions
    20 alpha electrons       20 beta electrons
       nuclear repulsion energy       174.7553300608 Hartrees.
 IExCor= 4336 DFT=T Ex+Corr=M062X ExCW=0 ScaHFX=  0.540000
 ScaDFX=  1.000000  1.000000  1.000000  1.000000 ScalE2=  1.000000  1.000000
 IRadAn=      5 IRanWt=     -1 IRanGd=            0 ICorTp=0 IEmpDi=  4
 NAtoms=   11 NActive=   11 NUniq=   11 SFac= 1.00D+00 NAtFMM=   60 NAOKFM=F Big=F
 Integral buffers will be    131072 words long.
 Raffenetti 2 integral format.
 Two-electron integral symmetry is turned on.
 Leave Link  301 at Thu Sep  5 16:33:23 2019, MaxMem=   671088640 cpu:               1.5 elap:               0.7
 (Enter /shared/centos7/gaussian/g16/l302.exe)
 NPDir=0 NMtPBC=     1 NCelOv=     1 NCel=       1 NClECP=     1 NCelD=      1
         NCelK=      1 NCelE2=     1 NClLst=     1 CellRange=     0.0.
 One-electron integrals computed using PRISM.
 One-electron integral symmetry used in STVInt
 NBasis=   234 RedAO= T EigKep=  3.39D-04  NBF=   234
 NBsUse=   234 1.00D-06 EigRej= -1.00D+00 NBFU=   234
 Precomputing XC quadrature grid using
 IXCGrd= 4 IRadAn=           5 IRanWt=          -1 IRanGd=           0 AccXCQ= 0.00D+00.
 Generated NRdTot=       0 NPtTot=           0 NUsed=           0 NTot=          32
 NSgBfM=   265   265   265   265   265 MxSgAt=    11 MxSgA2=    11.
 Leave Link  302 at Thu Sep  5 16:34:12 2019, MaxMem=   671088640 cpu:              97.9 elap:              49.0
 (Enter /shared/centos7/gaussian/g16/l303.exe)
 DipDrv:  MaxL=1.
 Leave Link  303 at Thu Sep  5 16:34:18 2019, MaxMem=   671088640 cpu:              10.5 elap:               5.3
 (Enter /shared/centos7/gaussian/g16/l401.exe)
 ExpMin= 1.03D-01 ExpMax= 1.53D+04 ExpMxC= 5.22D+02 IAcc=3 IRadAn=         5 AccDes= 0.00D+00
 Harris functional with IExCor= 1009 and IRadAn=       5 diagonalized for initial guess.
 HarFok:  IExCor= 1009 AccDes= 0.00D+00 IRadAn=         5 IDoV= 1 UseB2=F ITyADJ=14
 ICtDFT=  3500011 ScaDFX=  1.000000  1.000000  1.000000  1.000000
 FoFCou: FMM=F IPFlag=           0 FMFlag=      100000 FMFlg1=           0
         NFxFlg=           0 DoJE=T BraDBF=F KetDBF=T FulRan=T
         wScrn=  0.000000 ICntrl=       500 IOpCl=  0 I1Cent=   200000004 NGrid=           0
         NMat0=    1 NMatS0=      1 NMatT0=    0 NMatD0=    1 NMtDS0=    0 NMtDT0=    0
 Petite list used in FoFCou.
 Harris En= -268.191282067571    
 JPrj=0 DoOrth=F DoCkMO=F.
 Leave Link  401 at Thu Sep  5 16:34:41 2019, MaxMem=   671088640 cpu:              47.0 elap:              23.5
 (Enter /shared/centos7/gaussian/g16/l502.exe)
 Keep R1 ints in memory in canonical form, NReq=399924305.
 FoFCou: FMM=F IPFlag=           0 FMFlag=           0 FMFlg1=           0
         NFxFlg=           0 DoJE=F BraDBF=F KetDBF=F FulRan=T
         wScrn=  0.000000 ICntrl=       600 IOpCl=  0 I1Cent=           0 NGrid=           0
         NMat0=    1 NMatS0=  27495 NMatT0=    0 NMatD0=    1 NMtDS0=    0 NMtDT0=    0
 Symmetry not used in FoFCou.
 Two-electron integral symmetry not used.
 Closed shell SCF:
 Using DIIS extrapolation, IDIIS=  1040.
 NGot=   671088640 LenX=   292939207 LenY=   292868541
 Requested convergence on RMS density matrix=1.00D-08 within 900 cycles.
 Requested convergence on MAX density matrix=1.00D-06.
 Requested convergence on             energy=1.00D-06.
 No special actions if energy rises.
 Integral accuracy reduced to 1.0D-05 until final iterations.

 Cycle   1  Pass 0  IDiag  1:
 E= -268.180000386302    
 DIIS: error= 2.05D-02 at cycle   1 NSaved=   1.
 NSaved= 1 IEnMin= 1 EnMin= -268.180000386302     IErMin= 1 ErrMin= 2.05D-02
 ErrMax= 2.05D-02  0.00D+00 EMaxC= 1.00D-01 BMatC= 1.71D-01 BMatP= 1.71D-01
 IDIUse=3 WtCom= 7.95D-01 WtEn= 2.05D-01
 Coeff-Com:  0.100D+01
 Coeff-En:   0.100D+01
 Coeff:      0.100D+01
 Gap=     0.349 Goal=   None    Shift=    0.000
 GapD=    0.349 DampG=1.000 DampE=0.500 DampFc=0.5000 IDamp=-1.
 Damping current iteration by 5.00D-01
 RMSDP=1.88D-03 MaxDP=6.48D-02              OVMax= 1.10D-01

 Cycle   2  Pass 0  IDiag  1:
 E= -268.244582864399     Delta-E=       -0.064582478097 Rises=F Damp=T
 DIIS: error= 5.25D-03 at cycle   2 NSaved=   2.
 NSaved= 2 IEnMin= 2 EnMin= -268.244582864399     IErMin= 2 ErrMin= 5.25D-03
 ErrMax= 5.25D-03  0.00D+00 EMaxC= 1.00D-01 BMatC= 1.66D-02 BMatP= 1.71D-01
 IDIUse=3 WtCom= 9.48D-01 WtEn= 5.25D-02
 Coeff-Com: -0.178D+00 0.118D+01
 Coeff-En:   0.000D+00 0.100D+01
 Coeff:     -0.169D+00 0.117D+01
 Gap=     0.328 Goal=   None    Shift=    0.000
 RMSDP=3.71D-04 MaxDP=1.08D-02 DE=-6.46D-02 OVMax= 5.19D-02

 Cycle   3  Pass 0  IDiag  1:
 E= -268.300930303228     Delta-E=       -0.056347438829 Rises=F Damp=F
 DIIS: error= 3.55D-03 at cycle   3 NSaved=   3.
 NSaved= 3 IEnMin= 3 EnMin= -268.300930303228     IErMin= 3 ErrMin= 3.55D-03
 ErrMax= 3.55D-03  0.00D+00 EMaxC= 1.00D-01 BMatC= 3.53D-03 BMatP= 1.66D-02
 IDIUse=3 WtCom= 9.65D-01 WtEn= 3.55D-02
 Coeff-Com: -0.115D+00 0.382D+00 0.733D+00
 Coeff-En:   0.000D+00 0.000D+00 0.100D+01
 Coeff:     -0.111D+00 0.368D+00 0.743D+00
 Gap=     0.329 Goal=   None    Shift=    0.000
 RMSDP=1.66D-04 MaxDP=5.96D-03 DE=-5.63D-02 OVMax= 1.88D-02

 Cycle   4  Pass 0  IDiag  1:
 E= -268.302558751858     Delta-E=       -0.001628448631 Rises=F Damp=F
 DIIS: error= 1.29D-03 at cycle   4 NSaved=   4.
 NSaved= 4 IEnMin= 4 EnMin= -268.302558751858     IErMin= 4 ErrMin= 1.29D-03
 ErrMax= 1.29D-03  0.00D+00 EMaxC= 1.00D-01 BMatC= 8.96D-04 BMatP= 3.53D-03
 IDIUse=3 WtCom= 9.87D-01 WtEn= 1.29D-02
 Coeff-Com: -0.385D-01 0.971D-01 0.383D+00 0.558D+00
 Coeff-En:   0.000D+00 0.000D+00 0.209D+00 0.791D+00
 Coeff:     -0.380D-01 0.959D-01 0.381D+00 0.561D+00
 Gap=     0.324 Goal=   None    Shift=    0.000
 RMSDP=7.63D-05 MaxDP=2.92D-03 DE=-1.63D-03 OVMax= 9.10D-03

 Cycle   5  Pass 0  IDiag  1:
 E= -268.303246036899     Delta-E=       -0.000687285041 Rises=F Damp=F
 DIIS: error= 2.28D-04 at cycle   5 NSaved=   5.
 NSaved= 5 IEnMin= 5 EnMin= -268.303246036899     IErMin= 5 ErrMin= 2.28D-04
 ErrMax= 2.28D-04  0.00D+00 EMaxC= 1.00D-01 BMatC= 1.73D-05 BMatP= 8.96D-04
 IDIUse=3 WtCom= 9.98D-01 WtEn= 2.28D-03
 Coeff-Com: -0.598D-02 0.118D-01 0.854D-01 0.193D+00 0.716D+00
 Coeff-En:   0.000D+00 0.000D+00 0.000D+00 0.000D+00 0.100D+01
 Coeff:     -0.596D-02 0.118D-01 0.852D-01 0.193D+00 0.716D+00
 Gap=     0.325 Goal=   None    Shift=    0.000
 RMSDP=1.40D-05 MaxDP=4.61D-04 DE=-6.87D-04 OVMax= 1.91D-03

 Cycle   6  Pass 0  IDiag  1:
 E= -268.303259151879     Delta-E=       -0.000013114980 Rises=F Damp=F
 DIIS: error= 8.87D-05 at cycle   6 NSaved=   6.
 NSaved= 6 IEnMin= 6 EnMin= -268.303259151879     IErMin= 6 ErrMin= 8.87D-05
 ErrMax= 8.87D-05  0.00D+00 EMaxC= 1.00D-01 BMatC= 3.04D-06 BMatP= 1.73D-05
 IDIUse=1 WtCom= 1.00D+00 WtEn= 0.00D+00
 Coeff-Com: -0.116D-02 0.108D-02 0.258D-01 0.765D-01 0.383D+00 0.515D+00
 Coeff:     -0.116D-02 0.108D-02 0.258D-01 0.765D-01 0.383D+00 0.515D+00
 Gap=     0.325 Goal=   None    Shift=    0.000
 RMSDP=4.54D-06 MaxDP=1.49D-04 DE=-1.31D-05 OVMax= 5.37D-04

 Initial convergence to 1.0D-05 achieved.  Increase integral accuracy.
 Cycle   7  Pass 1  IDiag  1:
 E= -268.303290955771     Delta-E=       -0.000031803892 Rises=F Damp=F
 DIIS: error= 2.09D-05 at cycle   1 NSaved=   1.
 NSaved= 1 IEnMin= 1 EnMin= -268.303290955771     IErMin= 1 ErrMin= 2.09D-05
 ErrMax= 2.09D-05  0.00D+00 EMaxC= 1.00D-01 BMatC= 2.96D-07 BMatP= 2.96D-07
 IDIUse=1 WtCom= 1.00D+00 WtEn= 0.00D+00
 Coeff-Com:  0.100D+01
 Coeff:      0.100D+01
 Gap=     0.325 Goal=   None    Shift=    0.000
 RMSDP=4.54D-06 MaxDP=1.49D-04 DE=-3.18D-05 OVMax= 2.04D-04

 Cycle   8  Pass 1  IDiag  1:
 E= -268.303291122960     Delta-E=       -0.000000167189 Rises=F Damp=F
 DIIS: error= 1.97D-05 at cycle   2 NSaved=   2.
 NSaved= 2 IEnMin= 2 EnMin= -268.303291122960     IErMin= 2 ErrMin= 1.97D-05
 ErrMax= 1.97D-05  0.00D+00 EMaxC= 1.00D-01 BMatC= 1.13D-07 BMatP= 2.96D-07
 IDIUse=1 WtCom= 1.00D+00 WtEn= 0.00D+00
 Coeff-Com:  0.323D+00 0.677D+00
 Coeff:      0.323D+00 0.677D+00
 Gap=     0.325 Goal=   None    Shift=    0.000
 RMSDP=1.28D-06 MaxDP=3.47D-05 DE=-1.67D-07 OVMax= 1.43D-04

 Cycle   9  Pass 1  IDiag  1:
 E= -268.303291173001     Delta-E=       -0.000000050041 Rises=F Damp=F
 DIIS: error= 1.40D-05 at cycle   3 NSaved=   3.
 NSaved= 3 IEnMin= 3 EnMin= -268.303291173001     IErMin= 3 ErrMin= 1.40D-05
 ErrMax= 1.40D-05  0.00D+00 EMaxC= 1.00D-01 BMatC= 4.32D-08 BMatP= 1.13D-07
 IDIUse=1 WtCom= 1.00D+00 WtEn= 0.00D+00
 Coeff-Com: -0.356D-01 0.380D+00 0.656D+00
 Coeff:     -0.356D-01 0.380D+00 0.656D+00
 Gap=     0.325 Goal=   None    Shift=    0.000
 RMSDP=5.68D-07 MaxDP=1.95D-05 DE=-5.00D-08 OVMax= 7.33D-05

 Cycle  10  Pass 1  IDiag  1:
 E= -268.303291206013     Delta-E=       -0.000000033012 Rises=F Damp=F
 DIIS: error= 1.55D-06 at cycle   4 NSaved=   4.
 NSaved= 4 IEnMin= 4 EnMin= -268.303291206013     IErMin= 4 ErrMin= 1.55D-06
 ErrMax= 1.55D-06  0.00D+00 EMaxC= 1.00D-01 BMatC= 5.95D-10 BMatP= 4.32D-08
 IDIUse=1 WtCom= 1.00D+00 WtEn= 0.00D+00
 Coeff-Com: -0.180D-01 0.857D-01 0.200D+00 0.732D+00
 Coeff:     -0.180D-01 0.857D-01 0.200D+00 0.732D+00
 Gap=     0.325 Goal=   None    Shift=    0.000
 RMSDP=9.03D-08 MaxDP=3.50D-06 DE=-3.30D-08 OVMax= 9.29D-06

 Cycle  11  Pass 1  IDiag  1:
 E= -268.303291206537     Delta-E=       -0.000000000525 Rises=F Damp=F
 DIIS: error= 6.06D-07 at cycle   5 NSaved=   5.
 NSaved= 5 IEnMin= 5 EnMin= -268.303291206537     IErMin= 5 ErrMin= 6.06D-07
 ErrMax= 6.06D-07  0.00D+00 EMaxC= 1.00D-01 BMatC= 1.29D-10 BMatP= 5.95D-10
 IDIUse=1 WtCom= 1.00D+00 WtEn= 0.00D+00
 Coeff-Com: -0.297D-02-0.220D-01-0.744D-02 0.311D+00 0.721D+00
 Coeff:     -0.297D-02-0.220D-01-0.744D-02 0.311D+00 0.721D+00
 Gap=     0.325 Goal=   None    Shift=    0.000
 RMSDP=3.88D-08 MaxDP=1.05D-06 DE=-5.25D-10 OVMax= 3.67D-06

 Cycle  12  Pass 1  IDiag  1:
 E= -268.303291206652     Delta-E=       -0.000000000114 Rises=F Damp=F
 DIIS: error= 2.78D-07 at cycle   6 NSaved=   6.
 NSaved= 6 IEnMin= 6 EnMin= -268.303291206652     IErMin= 6 ErrMin= 2.78D-07
 ErrMax= 2.78D-07  0.00D+00 EMaxC= 1.00D-01 BMatC= 1.66D-11 BMatP= 1.29D-10
 IDIUse=1 WtCom= 1.00D+00 WtEn= 0.00D+00
 Coeff-Com:  0.135D-02-0.224D-01-0.304D-01 0.371D-01 0.323D+00 0.691D+00
 Coeff:      0.135D-02-0.224D-01-0.304D-01 0.371D-01 0.323D+00 0.691D+00
 Gap=     0.325 Goal=   None    Shift=    0.000
 RMSDP=1.28D-08 MaxDP=4.61D-07 DE=-1.14D-10 OVMax= 1.43D-06

 Cycle  13  Pass 1  IDiag  1:
 E= -268.303291206664     Delta-E=       -0.000000000012 Rises=F Damp=F
 DIIS: error= 4.17D-08 at cycle   7 NSaved=   7.
 NSaved= 7 IEnMin= 7 EnMin= -268.303291206664     IErMin= 7 ErrMin= 4.17D-08
 ErrMax= 4.17D-08  0.00D+00 EMaxC= 1.00D-01 BMatC= 5.54D-13 BMatP= 1.66D-11
 IDIUse=1 WtCom= 1.00D+00 WtEn= 0.00D+00
 Coeff-Com:  0.629D-03-0.545D-02-0.870D-02-0.930D-02 0.551D-01 0.206D+00
 Coeff-Com:  0.762D+00
 Coeff:      0.629D-03-0.545D-02-0.870D-02-0.930D-02 0.551D-01 0.206D+00
 Coeff:      0.762D+00
 Gap=     0.325 Goal=   None    Shift=    0.000
 RMSDP=3.29D-09 MaxDP=8.27D-08 DE=-1.21D-11 OVMax= 2.21D-07

 SCF Done:  E(RM062X) =  -268.303291207     A.U. after   13 cycles
            NFock= 13  Conv=0.33D-08     -V/T= 2.0060
 KE= 2.666959122348D+02 PE=-9.777714926787D+02 EE= 2.680169591764D+02
 Leave Link  502 at Thu Sep  5 16:39:11 2019, MaxMem=   671088640 cpu:             532.9 elap:             270.2
 (Enter /shared/centos7/gaussian/g16/l801.exe)
 DoSCS=F DFT=T ScalE2(SS,OS)=  1.000000  1.000000
 Range of M.O.s used for correlation:     1   234
 NBasis=   234 NAE=    20 NBE=    20 NFC=     0 NFV=     0
 NROrb=    234 NOA=    20 NOB=    20 NVA=   214 NVB=   214

 **** Warning!!: The largest alpha MO coefficient is  0.11442119D+02

 Leave Link  801 at Thu Sep  5 16:39:13 2019, MaxMem=   671088640 cpu:               2.3 elap:               1.2
 (Enter /shared/centos7/gaussian/g16/l1101.exe)
 Using compressed storage, NAtomX=    11.
 Will process     12 centers per pass.
 Leave Link 1101 at Thu Sep  5 16:39:33 2019, MaxMem=   671088640 cpu:              41.2 elap:              20.6
 (Enter /shared/centos7/gaussian/g16/l1102.exe)
 Symmetrizing basis deriv contribution to polar:
 IMax=3 JMax=2 DiffMx= 0.00D+00
 Leave Link 1102 at Thu Sep  5 16:39:36 2019, MaxMem=   671088640 cpu:               5.0 elap:               2.5
 (Enter /shared/centos7/gaussian/g16/l1110.exe)
 Forming Gx(P) for the SCF density, NAtomX=    11.
 Integral derivatives from FoFJK, PRISM(SPDF).
 Do as many integral derivatives as possible in FoFJK.
 G2DrvN: MDV=     671087712.
 G2DrvN: will do    12 centers at a time, making    1 passes.
 Calling FoFCou, ICntrl=  3107 FMM=F I1Cent=   0 AccDes= 0.00D+00.
 FoFJK:  IHMeth= 1 ICntrl=    3107 DoSepK=F KAlg= 0 I1Cent=           0 FoldK=F
 IRaf=         0 NMat=       1 IRICut=       1 DoRegI=T DoRafI=F ISym2E= 0 IDoP0=0 IntGTp=1.
 FoFCou: FMM=F IPFlag=           0 FMFlag=      100000 FMFlg1=           0
         NFxFlg=           0 DoJE=F BraDBF=F KetDBF=F FulRan=T
         wScrn=  0.000000 ICntrl=      3107 IOpCl=  0 I1Cent=           0 NGrid=           0
         NMat0=    1 NMatS0=      1 NMatT0=    0 NMatD0=    1 NMtDS0=    0 NMtDT0=    0
 Symmetry not used in FoFCou.
 End of G2Drv F.D. properties file   721 does not exist.
 End of G2Drv F.D. properties file   722 does not exist.
 End of G2Drv F.D. properties file   788 does not exist.
 Leave Link 1110 at Thu Sep  5 16:44:27 2019, MaxMem=   671088640 cpu:             582.5 elap:             291.3
 (Enter /shared/centos7/gaussian/g16/l1002.exe)
 Minotr:  Closed shell wavefunction.
          IDoAtm=11111111111
          Direct CPHF calculation.
          Differentiating once with respect to nuclear coordinates.
          Requested convergence is 1.0D-08 RMS, and 1.0D-07 maximum.
          Secondary convergence is 1.0D-12 RMS, and 1.0D-12 maximum.
          NewPWx=T KeepS1=F KeepF1=F KeepIn=T MapXYZ=F SortEE=F KeepMc=T.
         3279 words used for storage of precomputed grid.
 Keep R1 ints in memory in canonical form, NReq=399865278.
 FoFCou: FMM=F IPFlag=           0 FMFlag=           0 FMFlg1=           0
         NFxFlg=           0 DoJE=F BraDBF=F KetDBF=F FulRan=T
         wScrn=  0.000000 ICntrl=       600 IOpCl=  0 I1Cent=           0 NGrid=           0
         NMat0=    1 NMatS0=  27495 NMatT0=    0 NMatD0=    1 NMtDS0=    0 NMtDT0=    0
 Symmetry not used in FoFCou.
 Two-electron integral symmetry not used.
          MDV=     671088640 using IRadAn=       1.
          Solving linear equations simultaneously, MaxMat=       0.
          There are    36 degrees of freedom in the 1st order CPHF.  IDoFFX=6 NUNeed=     0.
     30 vectors produced by pass  0 Test12= 1.19D-14 2.78D-09 XBig12= 6.53D-02 6.77D-02.
 AX will form    30 AO Fock derivatives at one time.
     30 vectors produced by pass  1 Test12= 1.19D-14 2.78D-09 XBig12= 8.06D-03 3.73D-02.
     30 vectors produced by pass  2 Test12= 1.19D-14 2.78D-09 XBig12= 2.49D-04 3.35D-03.
     30 vectors produced by pass  3 Test12= 1.19D-14 2.78D-09 XBig12= 3.64D-06 3.40D-04.
     30 vectors produced by pass  4 Test12= 1.19D-14 2.78D-09 XBig12= 2.44D-08 2.27D-05.
     30 vectors produced by pass  5 Test12= 1.19D-14 2.78D-09 XBig12= 1.10D-10 1.30D-06.
     22 vectors produced by pass  6 Test12= 1.19D-14 2.78D-09 XBig12= 4.67D-13 1.15D-07.
      3 vectors produced by pass  7 Test12= 1.19D-14 2.78D-09 XBig12= 1.79D-15 6.07D-09.
 InvSVY:  IOpt=1 It=  1 EMax= 1.55D-15
 Solved reduced A of dimension   205 with    30 vectors.
 End of Minotr F.D. properties file   721 does not exist.
 End of Minotr F.D. properties file   722 does not exist.
 End of Minotr F.D. properties file   788 does not exist.
 Leave Link 1002 at Thu Sep  5 16:51:44 2019, MaxMem=   671088640 cpu:             874.6 elap:             437.4
 (Enter /shared/centos7/gaussian/g16/l601.exe)
 Copying SCF densities to generalized density rwf, IOpCl= 0 IROHF=0.

 **********************************************************************

            Population analysis using the SCF density.

 **********************************************************************

 Orbital symmetries:
       Occupied  (A) (A) (A) (A) (A) (A) (A) (A) (A) (A) (A) (A)
                 (A) (A) (A) (A) (A) (A) (A) (A)
       Virtual   (A) (A) (A) (A) (A) (A) (A) (A) (A) (A) (A) (A)
                 (A) (A) (A) (A) (A) (A) (A) (A) (A) (A) (A) (A)
                 (A) (A) (A) (A) (A) (A) (A) (A) (A) (A) (A) (A)
                 (A) (A) (A) (A) (A) (A) (A) (A) (A) (A) (A) (A)
                 (A) (A) (A) (A) (A) (A) (A) (A) (A) (A) (A) (A)
                 (A) (A) (A) (A) (A) (A) (A) (A) (A) (A) (A) (A)
                 (A) (A) (A) (A) (A) (A) (A) (A) (A) (A) (A) (A)
                 (A) (A) (A) (A) (A) (A) (A) (A) (A) (A) (A) (A)
                 (A) (A) (A) (A) (A) (A) (A) (A) (A) (A) (A) (A)
                 (A) (A) (A) (A) (A) (A) (A) (A) (A) (A) (A) (A)
                 (A) (A) (A) (A) (A) (A) (A) (A) (A) (A) (A) (A)
                 (A) (A) (A) (A) (A) (A) (A) (A) (A) (A) (A) (A)
                 (A) (A) (A) (A) (A) (A) (A) (A) (A) (A) (A) (A)
                 (A) (A) (A) (A) (A) (A) (A) (A) (A) (A) (A) (A)
                 (A) (A) (A) (A) (A) (A) (A) (A) (A) (A) (A) (A)
                 (A) (A) (A) (A) (A) (A) (A) (A) (A) (A) (A) (A)
                 (A) (A) (A) (A) (A) (A) (A) (A) (A) (A) (A) (A)
                 (A) (A) (A) (A) (A) (A) (A) (A) (A) (A)
 The electronic state is 1-A.
 Alpha  occ. eigenvalues --  -19.65033 -19.64945 -10.59370 -10.58585 -10.58290
 Alpha  occ. eigenvalues --   -1.17640  -1.16206  -0.85268  -0.79290  -0.68104
 Alpha  occ. eigenvalues --   -0.60187  -0.59558  -0.53490  -0.50041  -0.47575
 Alpha  occ. eigenvalues --   -0.46998  -0.46597  -0.40285  -0.40046  -0.26823
 Alpha virt. eigenvalues --    0.05674   0.07854   0.07965   0.09720   0.13413
 Alpha virt. eigenvalues --    0.14385   0.15275   0.18979   0.24956   0.25991
 Alpha virt. eigenvalues --    0.28180   0.28937   0.32655   0.36847   0.37923
 Alpha virt. eigenvalues --    0.38377   0.40284   0.41576   0.42426   0.45300
 Alpha virt. eigenvalues --    0.46183   0.47209   0.47579   0.49955   0.52837
 Alpha virt. eigenvalues --    0.57510   0.58275   0.61051   0.61843   0.63275
 Alpha virt. eigenvalues --    0.64074   0.67829   0.68834   0.71761   0.74141
 Alpha virt. eigenvalues --    0.75677   0.80579   0.81145   0.82206   0.87308
 Alpha virt. eigenvalues --    0.89807   0.92553   0.96492   0.99342   1.01348
 Alpha virt. eigenvalues --    1.03312   1.06395   1.07968   1.09228   1.11568
 Alpha virt. eigenvalues --    1.12813   1.15218   1.17399   1.21928   1.24380
 Alpha virt. eigenvalues --    1.25890   1.28308   1.31757   1.35173   1.36016
 Alpha virt. eigenvalues --    1.37056   1.40081   1.42908   1.45030   1.48145
 Alpha virt. eigenvalues --    1.51896   1.54544   1.68373   1.76124   1.79132
 Alpha virt. eigenvalues --    1.81270   1.85549   1.93939   1.95245   1.99881
 Alpha virt. eigenvalues --    2.05950   2.10626   2.11409   2.18615   2.22132
 Alpha virt. eigenvalues --    2.24226   2.28264   2.30366   2.32029   2.36662
 Alpha virt. eigenvalues --    2.38461   2.47672   2.50674   2.53066   2.57044
 Alpha virt. eigenvalues --    2.62075   2.63282   2.68786   2.72085   2.77270
 Alpha virt. eigenvalues --    2.78328   2.80024   2.82220   2.83427   2.85198
 Alpha virt. eigenvalues --    2.87148   2.91165   2.93150   2.95443   2.97242
 Alpha virt. eigenvalues --    3.01296   3.02364   3.03774   3.06115   3.11467
 Alpha virt. eigenvalues --    3.13138   3.15636   3.16763   3.20065   3.22591
 Alpha virt. eigenvalues --    3.24549   3.25793   3.26912   3.28948   3.29175
 Alpha virt. eigenvalues --    3.30700   3.35631   3.36151   3.37199   3.41613
 Alpha virt. eigenvalues --    3.44790   3.48127   3.50152   3.54227   3.56972
 Alpha virt. eigenvalues --    3.60848   3.61317   3.63158   3.66488   3.68460
 Alpha virt. eigenvalues --    3.72168   3.74493   3.78130   3.80913   3.81653
 Alpha virt. eigenvalues --    3.81944   3.86051   3.88357   3.91018   3.92426
 Alpha virt. eigenvalues --    3.98024   3.99166   4.01224   4.03771   4.05740
 Alpha virt. eigenvalues --    4.06911   4.15933   4.20682   4.22351   4.26181
 Alpha virt. eigenvalues --    4.26855   4.30629   4.38785   4.46444   4.50536
 Alpha virt. eigenvalues --    4.55117   4.56258   4.56943   4.66468   4.74858
 Alpha virt. eigenvalues --    4.77727   4.78441   4.85230   4.87771   4.88511
 Alpha virt. eigenvalues --    4.89510   4.94783   4.98297   5.00763   5.05037
 Alpha virt. eigenvalues --    5.08247   5.15279   5.19469   5.24786   5.31284
 Alpha virt. eigenvalues --    5.35701   5.42672   5.47295   5.52964   5.59541
 Alpha virt. eigenvalues --    5.68470   5.72045   5.74449   5.80371   5.88474
 Alpha virt. eigenvalues --    5.97979   6.01162   6.18194   6.26994   6.30213
 Alpha virt. eigenvalues --    6.39888   6.49387   6.58281   6.64749   6.71674
 Alpha virt. eigenvalues --    6.75568   6.76280   6.83736   6.92252   7.04861
 Alpha virt. eigenvalues --    7.12886   7.21101   7.27764   7.34175  10.42460
 Alpha virt. eigenvalues --   10.87971  11.65621  12.95539  14.06475
          Condensed to atoms (all electrons):
               1          2          3          4          5          6
     1  O    7.846310   0.003136   0.282115   0.344020  -0.067980  -0.035457
     2  O    0.003136   7.802058   0.000252  -0.073817   0.340811   0.000007
     3  C    0.282115   0.000252   4.714351  -0.049849  -0.024348   0.404813
     4  C    0.344020  -0.073817  -0.049849   4.948555   0.548875   0.000320
     5  C   -0.067980   0.340811  -0.024348   0.548875   4.951134   0.002492
     6  H   -0.035457   0.000007   0.404813   0.000320   0.002492   0.620596
     7  H   -0.035511   0.000006   0.399807   0.002316   0.001380  -0.042638
     8  H   -0.040693  -0.000991   0.391371  -0.016931  -0.005725  -0.049619
     9  H   -0.033098  -0.003053   0.006520   0.429199  -0.080062  -0.000283
    10  H   -0.001709  -0.028862  -0.009135  -0.063182   0.419739   0.001268
    11  H    0.000248   0.327195  -0.000051  -0.004390  -0.054191   0.000006
               7          8          9         10         11
     1  O   -0.035511  -0.040693  -0.033098  -0.001709   0.000248
     2  O    0.000006  -0.000991  -0.003053  -0.028862   0.327195
     3  C    0.399807   0.391371   0.006520  -0.009135  -0.000051
     4  C    0.002316  -0.016931   0.429199  -0.063182  -0.004390
     5  C    0.001380  -0.005725  -0.080062   0.419739  -0.054191
     6  H   -0.042638  -0.049619  -0.000283   0.001268   0.000006
     7  H    0.613590  -0.039988  -0.000161   0.000266   0.000008
     8  H   -0.039988   0.689796  -0.000156  -0.006546  -0.000168
     9  H   -0.000161  -0.000156   0.537764   0.002835   0.004721
    10  H    0.000266  -0.006546   0.002835   0.516096   0.006639
    11  H    0.000008  -0.000168   0.004721   0.006639   0.456206
 Mulliken charges:
               1
     1  O   -0.261381
     2  O   -0.366742
     3  C   -0.115847
     4  C   -0.065115
     5  C   -0.032124
     6  H    0.098495
     7  H    0.100925
     8  H    0.079651
     9  H    0.135773
    10  H    0.162591
    11  H    0.263776
 Sum of Mulliken charges =  -0.00000
 Mulliken charges with hydrogens summed into heavy atoms:
               1
     1  O   -0.261381
     2  O   -0.102967
     3  C    0.163223
     4  C    0.070658
     5  C    0.130467
 APT charges:
               1
     1  O   -0.149819
     2  O   -0.474972
     3  C   -0.888755
     4  C   -0.418487
     5  C   -0.303384
     6  H    0.415101
     7  H    0.434577
     8  H    0.159576
     9  H    0.386122
    10  H    0.312970
    11  H    0.527071
 Sum of APT charges =  -0.00000
 APT charges with hydrogens summed into heavy atoms:
               1
     1  O   -0.149819
     2  O    0.052099
     3  C    0.120498
     4  C   -0.032365
     5  C    0.009586
 Electronic spatial extent (au):  <R**2>=            500.3705
 Charge=             -0.0000 electrons
 Dipole moment (field-independent basis, Debye):
    X=             -0.3220    Y=              0.0276    Z=             -0.1380  Tot=              0.3514
 Quadrupole moment (field-independent basis, Debye-Ang):
   XX=            -30.6335   YY=            -27.9893   ZZ=            -32.1936
   XY=              7.2180   XZ=             -0.2138   YZ=             -0.2192
 Traceless Quadrupole moment (field-independent basis, Debye-Ang):
   XX=             -0.3614   YY=              2.2829   ZZ=             -1.9214
   XY=              7.2180   XZ=             -0.2138   YZ=             -0.2192
 Octapole moment (field-independent basis, Debye-Ang**2):
  XXX=             -2.4691  YYY=              2.4687  ZZZ=              0.0493  XYY=              6.4178
  XXY=              7.9305  XXZ=             -1.0866  XZZ=             -1.2316  YZZ=              0.1496
  YYZ=             -0.0637  XYZ=             -0.2505
 Hexadecapole moment (field-independent basis, Debye-Ang**3):
 XXXX=           -457.2074 YYYY=           -103.3525 ZZZZ=            -39.5531 XXXY=             35.8141
 XXXZ=             -1.4699 YYYX=              0.4630 YYYZ=             -0.1952 ZZZX=             -0.4135
 ZZZY=             -0.1960 XXYY=            -94.2962 XXZZ=            -83.1647 YYZZ=            -26.3725
 XXYZ=             -1.1139 YYXZ=             -0.3242 ZZXY=             -0.0503
 N-N= 1.747553300608D+02 E-N=-9.777714818477D+02  KE= 2.666959122348D+02
  Exact polarizability:   0.000   0.000   0.000   0.000   0.000   0.000
 Approx polarizability:  61.101  -5.533  56.624   0.007  -0.527  38.496
 No NMR shielding tensors so no spin-rotation constants.
 Leave Link  601 at Thu Sep  5 16:52:09 2019, MaxMem=   671088640 cpu:              49.7 elap:              24.9
 (Enter /shared/centos7/gaussian/g16/l701.exe)
 SCFChk:  SCF convergence  3.29D-09 required  1.00D-08
 ... and contract with generalized density number  0.
 Compute integral second derivatives.
 Entering OneElI...
 Calculate overlap and kinetic energy integrals
    NBasis = 265  MinDer = 2  MaxDer = 2
 Requested accuracy = 0.1000D-12
 PrmmSu-InSpLW:  IPartL=    0 NPrtUS=   20 NPrtUL=    1 DoSpLW=F IThBeg=    0 IThEnd=   19 NThAct=   20.
 PrsmSu:  NPrtUS=  20 ThrOK=T IAlg=1 NPAlg=1 LenDen=           0 ISkipM=0 DoSpLW=F IThBeg=    0 IThEnd=   19.
 Prism:   IPart=     0 DynPar=F LinDyn=F Incr=           1.
 PRISM was handed    33439721 working-precision words and  3728 shell-pairs
 PRISM was handed    33439721 working-precision words and  3728 shell-pairs
 PRISM was handed    33439721 working-precision words and  3728 shell-pairs
 PRISM was handed    33439721 working-precision words and  3728 shell-pairs
 PRISM was handed    33439721 working-precision words and  3728 shell-pairs
 PRISM was handed    33439721 working-precision words and  3728 shell-pairs
 PRISM was handed    33439721 working-precision words and  3728 shell-pairs
 PRISM was handed    33439721 working-precision words and  3728 shell-pairs
 PRISM was handed    33439721 working-precision words and  3728 shell-pairs
 PRISM was handed    33439721 working-precision words and  3728 shell-pairs
 PRISM was handed    33439721 working-precision words and  3728 shell-pairs
 PRISM was handed    33439721 working-precision words and  3728 shell-pairs
 PRISM was handed    33439721 working-precision words and  3728 shell-pairs
 PRISM was handed    33439721 working-precision words and  3728 shell-pairs
 PRISM was handed    33439721 working-precision words and  3728 shell-pairs
 PRISM was handed    33439721 working-precision words and  3728 shell-pairs
 PRISM was handed    33439721 working-precision words and  3728 shell-pairs
 IPart=  8 NShTot=         183 NBatch=          29 AvBLen=         6.3
 IPart=  0 NShTot=         230 NBatch=          70 AvBLen=         3.3
 PRISM was handed    33439721 working-precision words and  3728 shell-pairs
 PRISM was handed    33439721 working-precision words and  3728 shell-pairs
 IPart= 13 NShTot=         176 NBatch=          27 AvBLen=         6.5
 IPart= 12 NShTot=         176 NBatch=          27 AvBLen=         6.5
 IPart=  5 NShTot=         198 NBatch=          42 AvBLen=         4.7
 PRISM was handed    33439721 working-precision words and  3728 shell-pairs
 IPart= 15 NShTot=         169 NBatch=          26 AvBLen=         6.5
 IPart=  4 NShTot=         204 NBatch=          48 AvBLen=         4.3
 IPart=  1 NShTot=         221 NBatch=          61 AvBLen=         3.6
 IPart= 19 NShTot=         163 NBatch=          25 AvBLen=         6.5
 IPart= 10 NShTot=         177 NBatch=          27 AvBLen=         6.6
 IPart=  3 NShTot=         209 NBatch=          49 AvBLen=         4.3
 IPart= 14 NShTot=         175 NBatch=          27 AvBLen=         6.5
 IPart=  9 NShTot=         178 NBatch=          27 AvBLen=         6.6
 IPart= 17 NShTot=         165 NBatch=          25 AvBLen=         6.6
 IPart= 18 NShTot=         163 NBatch=          25 AvBLen=         6.5
 IPart=  2 NShTot=         212 NBatch=          52 AvBLen=         4.1
 IPart= 16 NShTot=         166 NBatch=          25 AvBLen=         6.6
 IPart= 11 NShTot=         177 NBatch=          27 AvBLen=         6.6
 IPart=  6 NShTot=         195 NBatch=          39 AvBLen=         5.0
 IPart=  7 NShTot=         191 NBatch=          35 AvBLen=         5.5
 PrSmSu:  NxtVal=             21.
 Entering OneElI...
 Calculate potential energy integrals
    NBasis = 265  MinDer = 2  MaxDer = 2
 Requested accuracy = 0.1000D-12
 PrmmSu-InSpLW:  IPartL=    0 NPrtUS=   20 NPrtUL=    1 DoSpLW=F IThBeg=    0 IThEnd=   19 NThAct=   20.
 PrsmSu:  NPrtUS=  20 ThrOK=T IAlg=1 NPAlg=1 LenDen=           0 ISkipM=0 DoSpLW=F IThBeg=    0 IThEnd=   19.
 Prism:   IPart=     0 DynPar=F LinDyn=F Incr=          19.
 PRISM was handed    33456126 working-precision words and  3523 shell-pairs
 PRISM was handed    33456126 working-precision words and  3523 shell-pairs
 PRISM was handed    33456126 working-precision words and  3523 shell-pairs
 PRISM was handed    33456126 working-precision words and  3523 shell-pairs
 PRISM was handed    33456126 working-precision words and  3523 shell-pairs
 PRISM was handed    33456126 working-precision words and  3523 shell-pairs
 PRISM was handed    33456126 working-precision words and  3523 shell-pairs
 PRISM was handed    33456126 working-precision words and  3523 shell-pairs
 PRISM was handed    33456126 working-precision words and  3523 shell-pairs
 PRISM was handed    33456126 working-precision words and  3523 shell-pairs
 PRISM was handed    33456126 working-precision words and  3523 shell-pairs
 PRISM was handed    33456126 working-precision words and  3523 shell-pairs
 PRISM was handed    33456126 working-precision words and  3523 shell-pairs
 PRISM was handed    33456126 working-precision words and  3523 shell-pairs
 PRISM was handed    33456126 working-precision words and  3523 shell-pairs
 PRISM was handed    33456126 working-precision words and  3523 shell-pairs
 PRISM was handed    33456126 working-precision words and  3523 shell-pairs
 PRISM was handed    33456126 working-precision words and  3523 shell-pairs
 PRISM was handed    33456126 working-precision words and  3523 shell-pairs
 PRISM was handed    33456126 working-precision words and  3523 shell-pairs
 IPart= 12 NShTot=        1826 NBatch=         166 AvBLen=        11.0
 IPart= 15 NShTot=        1771 NBatch=         161 AvBLen=        11.0
 IPart=  5 NShTot=        1969 NBatch=         179 AvBLen=        11.0
 IPart=  8 NShTot=        1892 NBatch=         172 AvBLen=        11.0
 IPart= 13 NShTot=        1815 NBatch=         165 AvBLen=        11.0
 IPart= 16 NShTot=        1760 NBatch=         160 AvBLen=        11.0
 IPart= 14 NShTot=        1793 NBatch=         163 AvBLen=        11.0
 IPart=  2 NShTot=        2244 NBatch=         204 AvBLen=        11.0
 IPart=  9 NShTot=        1881 NBatch=         171 AvBLen=        11.0
 IPart=  4 NShTot=        2079 NBatch=         189 AvBLen=        11.0
 IPart=  7 NShTot=        1903 NBatch=         173 AvBLen=        11.0
 IPart= 10 NShTot=        1859 NBatch=         169 AvBLen=        11.0
 IPart=  0 NShTot=        2420 NBatch=         220 AvBLen=        11.0
 IPart=  1 NShTot=        2332 NBatch=         212 AvBLen=        11.0
 IPart= 18 NShTot=        1749 NBatch=         159 AvBLen=        11.0
 IPart=  3 NShTot=        2145 NBatch=         195 AvBLen=        11.0
 IPart= 17 NShTot=        1760 NBatch=         160 AvBLen=        11.0
 IPart= 11 NShTot=        1848 NBatch=         168 AvBLen=        11.0
 IPart=  6 NShTot=        1958 NBatch=         178 AvBLen=        11.0
 IPart= 19 NShTot=        1749 NBatch=         159 AvBLen=        11.0
 PrSmSu:  NxtVal=            381.
 Polarizability after L701:
                1             2             3 
      1  0.000000D+00
      2  0.000000D+00  0.000000D+00
      3  0.000000D+00  0.000000D+00  0.000000D+00
 Dipole Derivatives after L701:
                 1             2             3             4             5 
      1  -0.617125D-01 -0.100523D+00 -0.103252D-01 -0.286777D+00 -0.140418D+01
      2  -0.204088D+00 -0.134173D+00  0.844961D-02 -0.308296D+00 -0.739331D+00
      3   0.271755D-02  0.368486D-02 -0.253571D+00  0.194266D-01  0.408611D-01
                 6             7             8             9            10 
      1   0.885119D-01 -0.111546D+01 -0.533675D+00  0.236121D-01 -0.511497D+00
      2   0.282325D-01 -0.991140D-01 -0.763675D+00  0.214758D-01 -0.301680D-01
      3  -0.398808D+00 -0.176415D-01  0.148613D-02 -0.787125D+00  0.730021D-02
                11            12            13            14            15 
      1   0.429624D-01  0.261610D-01 -0.346750D+00  0.276917D+00 -0.205628D-01
      2  -0.762625D+00  0.149068D-01  0.921139D-01 -0.606109D+00 -0.162093D-02
      3   0.107550D-01  0.186617D-01 -0.198746D-02  0.276574D-01  0.427086D-01
                16            17            18            19            20 
      1   0.619984D+00  0.198208D+00 -0.765107D+00  0.740156D+00  0.101252D+00
      2   0.164975D+00  0.182363D+00 -0.189412D+00  0.164564D+00  0.155120D+00
      3  -0.216174D+00 -0.299453D-01  0.442956D+00  0.244971D+00 -0.809353D-02
                21            22            23            24            25 
      1   0.753129D+00 -0.445292D-01  0.239038D+00 -0.363362D-02  0.228359D+00
      2   0.145491D+00 -0.383910D+00  0.445298D+00  0.772148D-02  0.251902D+00
      3   0.408454D+00 -0.214867D-01  0.359704D-01  0.779582D-01 -0.282671D-02
                26            27            28            29            30 
      1   0.196404D+00 -0.252539D-02  0.897732D-01 -0.228727D+00 -0.471101D-02
      2   0.855222D+00 -0.112179D-01  0.248572D+00  0.754993D+00  0.167920D-02
      3  -0.115314D-01  0.747856D-01 -0.422175D-02 -0.348247D-01  0.941427D-01
                31            32            33 
      1   0.688458D+00  0.121233D+01 -0.845489D-01
      2   0.103448D+00  0.612918D+00 -0.257049D-01
      3  -0.100777D-01 -0.360201D-01  0.279837D+00
 Hessian after L701:
                1             2             3             4             5 
      1  0.350920D+01
      2 -0.257445D+01  0.888028D+01
      3  0.694923D-02 -0.145739D+00  0.145488D+02
      4  0.450104D+00 -0.190235D+00 -0.387782D-02  0.291926D+01
      5 -0.229209D+00 -0.167834D+00  0.312706D-02 -0.132452D+01  0.863061D+01
      6 -0.478352D-03  0.943923D-03 -0.207040D+00  0.213887D+00  0.307468D+00
      7 -0.522898D+01  0.339742D+01  0.117841D+00  0.208618D+00  0.794131D-02
      8  0.318005D+01 -0.633376D+00  0.106325D+00  0.348741D-02 -0.118266D+00
      9  0.109975D+00  0.125169D+00 -0.703291D+01  0.175539D-02 -0.101528D-02
     10  0.112678D+01  0.269129D+00 -0.181559D+00  0.417069D-01 -0.318589D+00
     11  0.453145D+00 -0.811611D+01  0.396083D-01 -0.218618D+00 -0.711889D-02
     12 -0.143083D+00  0.276059D-01 -0.810994D+01  0.276024D-01  0.786105D-02
     13  0.657587D-01 -0.367456D+00  0.629615D-01  0.103377D+01  0.421803D+00
     14 -0.378595D+00  0.137978D+00 -0.974346D-02  0.560671D+00 -0.770260D+01
     15  0.370633D-01 -0.669047D-02  0.203526D+00 -0.155054D+00  0.387973D-02
     16  0.249009D-01 -0.103770D+00 -0.123013D+00  0.290925D-01 -0.162343D-02
     17 -0.106980D+00 -0.159266D+00 -0.570936D-01  0.590592D-02 -0.101203D-01
     18 -0.118050D+00 -0.740047D-01  0.257588D+00 -0.200117D-01  0.358291D-02
     19  0.354414D-01 -0.114477D+00  0.128420D+00  0.294357D-01 -0.323995D-02
     20 -0.126680D+00 -0.162240D+00  0.257890D-01  0.309723D-02 -0.911578D-02
     21  0.120041D+00  0.435167D-01  0.238283D+00  0.180600D-01 -0.374066D-02
     22  0.184695D+00 -0.221422D+00 -0.167359D-01 -0.206582D-02  0.353561D-02
     23 -0.147815D+00  0.558192D-02  0.621952D-01  0.345143D-01 -0.161264D-01
     24 -0.140332D-01  0.400992D-01  0.106493D+00  0.352173D-02  0.191810D-02
     25 -0.205145D+00 -0.629884D-01 -0.218499D-02 -0.228607D-01 -0.283819D-01
     26 -0.209411D-01  0.157872D+00 -0.627965D-02 -0.740090D-01  0.812373D-01
     27  0.482120D-03 -0.300678D-02  0.580989D-01  0.270023D-02 -0.368272D-02
     28 -0.171544D-01 -0.325853D-01  0.126575D-01 -0.171156D+00 -0.840408D-01
     29 -0.959662D-01  0.771226D-01 -0.168102D-01 -0.355108D-01  0.103216D+00
     30  0.542172D-02 -0.787624D-02 -0.445527D-01 -0.418400D-03 -0.471495D-02
     31  0.544021D-01  0.842552D-03 -0.145840D-02 -0.451590D+01  0.155632D+01
     32  0.474395D-01 -0.200112D-01 -0.137937D-02  0.123522D+01 -0.783882D+00
     33 -0.428851D-02 -0.181828D-04 -0.183787D-01 -0.881650D-01 -0.314683D+00
                6             7             8             9            10 
      6  0.131403D+02
      7 -0.230198D-02  0.122212D+02
      8 -0.106776D-02 -0.294992D+01  0.965137D+01
      9 -0.109225D+00 -0.136851D+00 -0.103285D+00  0.151977D+02
     10  0.570518D-01  0.291200D+00  0.348313D+00  0.370923D-01  0.707548D+01
     11 -0.404230D-02  0.280059D+00 -0.929911D-04  0.351114D-01  0.283604D+01
     12  0.177473D+00  0.381549D-01  0.449629D-01 -0.178868D+00  0.178692D+00
     13 -0.160668D+00  0.237692D+00 -0.394907D-01  0.312976D-01 -0.519056D+01
     14  0.209354D-01  0.652184D-01 -0.181277D+00  0.795501D-02 -0.420190D+01
     15 -0.775674D+01  0.367299D-01  0.991214D-02 -0.176256D+00 -0.526652D-01
     16 -0.805061D-02 -0.259080D+01  0.275756D+00 -0.111490D+01  0.421821D-01
     17 -0.893332D-03  0.295878D+00 -0.322736D+01 -0.460967D+00  0.450566D-01
     18 -0.498465D-02 -0.101818D+01 -0.389686D+00 -0.181141D+01 -0.583009D-01
     19  0.816298D-02 -0.234556D+01  0.174226D+00  0.117131D+01  0.759700D-01
     20  0.498900D-03  0.208361D+00 -0.327521D+01  0.263338D+00  0.498081D-01
     21 -0.467569D-02  0.108984D+01  0.202925D+00 -0.200373D+01  0.670488D-01
     22  0.833124D-02 -0.285860D+01 -0.106491D+01 -0.958830D-01 -0.340254D-01
     23  0.463729D-02 -0.137165D+01 -0.229918D+01  0.134897D+00 -0.330053D-01
     24 -0.215329D-01 -0.118706D+00  0.131975D+00 -0.381097D+01 -0.164091D-01
     25  0.326797D-02  0.557694D-01  0.982871D-01  0.905401D-03 -0.359748D+01
     26 -0.622138D-02  0.114277D+00  0.656253D-01  0.662911D-03  0.887614D+00
     27 -0.489040D-01 -0.964190D-03 -0.100780D-02 -0.426844D-01 -0.173795D-01
     28 -0.110563D-01 -0.688309D-02 -0.275331D-01 -0.446747D-02  0.204553D+00
     29 -0.134081D-01 -0.701296D-01  0.243428D-01 -0.192818D-02  0.945218D-01
     30  0.358446D-01 -0.384415D-02 -0.878342D-03 -0.246756D-01 -0.893175D-02
     31 -0.108146D+00  0.163142D-01  0.173351D-02 -0.240006D-03 -0.357965D-01
     32 -0.308850D+00  0.225575D-01 -0.657029D-02  0.624693D-04  0.230044D-01
     33 -0.520048D+01 -0.172401D-02 -0.174685D-03 -0.692892D-02 -0.464015D-02
               11            12            13            14            15 
     11  0.137966D+02
     12  0.349028D-01  0.244474D+02
     13 -0.433250D+01 -0.611329D-01  0.711878D+01
     14 -0.363555D+01 -0.812785D-01  0.299478D+01  0.134434D+02
     15 -0.783378D-01 -0.125408D+02  0.171083D+00  0.749071D-01  0.241902D+02
     16  0.408447D-01 -0.407552D-01  0.824832D-01  0.135541D-01 -0.170206D-01
     17 -0.702460D-02 -0.178081D-01  0.209006D-01 -0.239959D-01 -0.374819D-03
     18 -0.291429D-01  0.114232D-02 -0.383107D-01 -0.375210D-02 -0.169847D-01
     19  0.473618D-01  0.500836D-01  0.695493D-01  0.208679D-02  0.129324D-01
     20 -0.164942D-01  0.158097D-01  0.734474D-02 -0.222305D-01 -0.212981D-02
     21  0.261427D-01 -0.399546D-02  0.315074D-01  0.165124D-03 -0.155088D-01
     22 -0.746462D-01 -0.220309D-01  0.122366D-01  0.140173D+00 -0.429970D-01
     23 -0.262982D-01 -0.321431D-01  0.196090D+00  0.753618D-01 -0.180893D-01
     24 -0.265620D-01  0.574350D-02 -0.303883D-01 -0.555388D-02 -0.744111D-01
     25  0.884820D+00 -0.174077D-01  0.252633D+00  0.114870D+00 -0.203614D-02
     26 -0.163494D+01 -0.432630D-01  0.122792D+00 -0.364554D+00  0.169268D-01
     27 -0.416228D-01 -0.395925D+01 -0.280515D-02  0.133285D-01  0.228217D+00
     28  0.149737D+00 -0.852870D-02 -0.380838D+01  0.805892D+00  0.456770D-02
     29 -0.329722D+00  0.450628D-01  0.951824D+00 -0.177843D+01 -0.374644D-02
     30  0.415168D-01  0.174538D+00 -0.383290D-03 -0.216886D-01 -0.413511D+01
     31 -0.662417D-01 -0.159522D-02  0.126036D+00 -0.116755D+00  0.739614D-02
     32 -0.232586D-01 -0.171246D-02  0.239142D-01  0.519094D-01  0.374282D-02
     33  0.242584D-02 -0.135113D-01 -0.316157D-02  0.472534D-02  0.938046D-01
               16            17            18            19            20 
     16  0.235267D+01
     17 -0.359474D+00  0.319660D+01
     18  0.111190D+01  0.593542D+00  0.183186D+01
     19  0.140063D+00  0.617218D-02 -0.299244D-01  0.210156D+01
     20  0.396986D-02  0.120118D+00  0.101944D-01 -0.249838D+00  0.329365D+01
     21 -0.991739D-02  0.331779D-01 -0.259414D+00 -0.119845D+01 -0.388607D+00
     22 -0.100588D+00  0.927307D-01  0.184048D+00 -0.118907D+00  0.102953D+00
     23  0.133807D+00  0.113227D+00 -0.108703D+00  0.136133D+00  0.709821D-01
     24  0.211201D+00 -0.897463D-01  0.573144D-02 -0.147917D+00  0.755399D-01
     25  0.166364D-02  0.618102D-03 -0.392500D-02  0.319856D-02  0.108621D-02
     26  0.622123D-02  0.242769D-02 -0.651172D-02  0.808713D-02  0.210966D-02
     27 -0.938865D-03 -0.606268D-03 -0.719062D-03  0.107309D-02  0.665244D-03
     28  0.145754D-01 -0.241917D-02 -0.625418D-02  0.517931D-02 -0.133583D-02
     29 -0.152465D-01 -0.601529D-02  0.940026D-02 -0.129119D-01 -0.232527D-02
     30 -0.763732D-02  0.106472D-02 -0.276155D-02  0.430086D-02 -0.111236D-02
     31  0.375432D-02  0.161136D-02 -0.299283D-02  0.406961D-02  0.123375D-02
     32  0.596091D-02  0.141532D-02 -0.491917D-02  0.640025D-02  0.759024D-03
     33 -0.868405D-03 -0.294933D-03 -0.542187D-04  0.000000D+00  0.142033D-04
               21            22            23            24            25 
     21  0.199978D+01
     22 -0.127398D+00  0.290416D+01
     23  0.833340D-01  0.103332D+01  0.208870D+01
     24  0.529261D-01  0.110205D+00 -0.126875D+00  0.376254D+01
     25  0.412224D-02 -0.360783D-02  0.561490D-02 -0.831873D-04  0.350486D+01
     26  0.640144D-02 -0.358272D-02  0.106689D-01 -0.253666D-03 -0.100713D+01
     27 -0.104809D-02  0.189418D-03  0.247921D-03 -0.261375D-02  0.186714D-01
     28  0.236652D-02  0.188934D-01  0.882496D-02  0.262154D-02 -0.132897D-01
     29 -0.778692D-02 -0.632025D-02 -0.293831D-01 -0.440918D-03  0.807378D-02
     30 -0.189581D-02  0.195151D-02  0.833567D-03 -0.228739D-01  0.110811D-03
     31  0.277273D-02 -0.218952D-02  0.416679D-02 -0.118936D-04  0.242633D-01
     32  0.447243D-02 -0.183373D-02  0.647176D-02 -0.100029D-03 -0.148735D-01
     33 -0.720453D-03  0.320535D-03 -0.334106D-03 -0.103881D-02 -0.144074D-02
               26            27            28            29            30 
     26  0.164477D+01
     27  0.363617D-01  0.379337D+01
     28  0.868467D-02 -0.815146D-04  0.374478D+01
     29  0.579668D-01 -0.115303D-02 -0.890105D+00  0.182242D+01
     30 -0.819041D-04 -0.360843D-02  0.122311D-01 -0.388042D-02  0.404553D+01
     31 -0.420176D-01 -0.946971D-03  0.288765D-01  0.717707D-01 -0.280108D-02
     32 -0.231755D-01  0.475985D-03  0.648798D-01  0.608128D-01 -0.318226D-02
     33  0.225846D-02 -0.208603D-01 -0.405614D-02 -0.530889D-02 -0.204301D-01
               31            32            33 
     31  0.429617D+01
     32 -0.141267D+01  0.735529D+00
     33  0.108023D+00  0.311390D+00  0.518860D+01
 Leave Link  701 at Thu Sep  5 16:52:29 2019, MaxMem=   671088640 cpu:              40.4 elap:              20.2
 (Enter /shared/centos7/gaussian/g16/l702.exe)
 L702 exits ... SP integral derivatives will be done elsewhere.
 Leave Link  702 at Thu Sep  5 16:52:30 2019, MaxMem=   671088640 cpu:               1.4 elap:               0.7
 (Enter /shared/centos7/gaussian/g16/l703.exe)
 Integral derivatives from FoFJK, PRISM(SPDF).
 Compute integral second derivatives, UseDBF=F ICtDFT=           0.
 ICntrl=    100147.
 Calling FoFJK, ICntrl=    100147 FMM=F ISym2X=0 I1Cent= 0 IOpClX= 0 NMat=1 NMatS=1 NMatT=0.
 FoFJK:  IHMeth= 1 ICntrl=  100147 DoSepK=F KAlg= 0 I1Cent=           0 FoldK=F
 IRaf=         0 NMat=       1 IRICut=       1 DoRegI=T DoRafI=F ISym2E= 0 IDoP0=0 IntGTp=1.
 FoFCou: FMM=F IPFlag=           0 FMFlag=      100000 FMFlg1=         800
         NFxFlg=           0 DoJE=F BraDBF=F KetDBF=F FulRan=T
         wScrn=  0.000000 ICntrl=    100147 IOpCl=  0 I1Cent=           0 NGrid=           0
         NMat0=    1 NMatS0=      1 NMatT0=    0 NMatD0=    1 NMtDS0=    0 NMtDT0=    0
 Symmetry not used in FoFCou.
 FoFCou:  KetSym=F NOpSet=  1 NOpAb=1 NOp=  1.
 FoFCou:  CnvScl= 1.00D+00 Thresh= 1.00D-08 IAcrcy=      12.
 PrismS was handed   670741977 working-precision words and  3634 shell-pairs
 FoFCou: LinMIO=F DoNuc=F BraDBF=F KetDBF=F HaveP=T PDBF=F HaveZ=T HaveW=F
         NIJTC =      10 NIJTAt=       0 NIJTCD=       0 NIJTT =      10
         IJTBeg=       1 IJTEnd=      10 KLTBeg=       1 KLTEnd=      10
         IPTBeg=       1 IPTEnd=      10 IPTBCv=       1 IPTECv=      10
         IZTBeg=       1 IZTEnd=      10 IZTBCv=       1 IZTECv=      10
         IWTBeg=      11 IWTEnd=      10 IWTBCv=      11 IWTECv=      10
         INTBeg=       1 INTEnd=       0 IFTBCv=       1 IFTECv=      10
 NCel replicated for PrismC:     1
 CoulSu-InSpLW:  IPartL=    0 NPrtUS=   20 NPrtUL=    1 DoSpLW=F IThBeg=    0 IThEnd=   19 NThAct=   20.
 CoulSu:  IncDef=  1024 NBBP=        6604795 NTPThr=   100 NPartT=   20 Incr=        1024 LDynOK=F GPUOK=T.
 CoulSu:  NPrtUS=  20 ThrOK=T IAlg=1 NPAlg=1 LenDen=           0 LWGrdD=           0 DoCopy=F ISkipM=0
          DoSpLW=F IThBeg=    0 IThEnd=   19.
 Enter PrismC:  IPart=  0 JobTyp=22 DoJE=F Cont=F.
 PrismC:  IPart=     0 DynPar=T LinDyn=F Incr=        1024 UseFst=F UseS4=T ISplat=2.
 PrismC was handed    33456927 working-precision words and  3634 shell-pairs
 Enter PrismC:  IPart=  4 JobTyp=22 DoJE=F Cont=F.
 PrismC:  IPart=     4 DynPar=T LinDyn=F Incr=        1024 UseFst=F UseS4=T ISplat=2.
 PrismC was handed    33456927 working-precision words and  3634 shell-pairs
 Enter PrismC:  IPart=  2 JobTyp=22 DoJE=F Cont=F.
 PrismC:  IPart=     2 DynPar=T LinDyn=F Incr=        1024 UseFst=F UseS4=T ISplat=2.
 PrismC was handed    33456927 working-precision words and  3634 shell-pairs
 Enter PrismC:  IPart= 10 JobTyp=22 DoJE=F Cont=F.
 PrismC:  IPart=    10 DynPar=T LinDyn=F Incr=        1024 UseFst=F UseS4=T ISplat=2.
 PrismC was handed    33456927 working-precision words and  3634 shell-pairs
 Enter PrismC:  IPart= 11 JobTyp=22 DoJE=F Cont=F.
 PrismC:  IPart=    11 DynPar=T LinDyn=F Incr=        1024 UseFst=F UseS4=T ISplat=2.
 PrismC was handed    33456927 working-precision words and  3634 shell-pairs
 Enter PrismC:  IPart=  6 JobTyp=22 DoJE=F Cont=F.
 Enter PrismC:  IPart= 14 JobTyp=22 DoJE=F Cont=F.
 PrismC:  IPart=     6 DynPar=T LinDyn=F Incr=        1024 UseFst=F UseS4=T ISplat=2.
 PrismC was handed    33456927 working-precision words and  3634 shell-pairs
 PrismC:  IPart=    14 DynPar=T LinDyn=F Incr=        1024 UseFst=F UseS4=T ISplat=2.
 PrismC was handed    33456927 working-precision words and  3634 shell-pairs
 Enter PrismC:  IPart= 15 JobTyp=22 DoJE=F Cont=F.
 Enter PrismC:  IPart= 12 JobTyp=22 DoJE=F Cont=F.
 PrismC:  IPart=    15 DynPar=T LinDyn=F Incr=        1024 UseFst=F UseS4=T ISplat=2.
 PrismC was handed    33456927 working-precision words and  3634 shell-pairs
 PrismC:  IPart=    12 DynPar=T LinDyn=F Incr=        1024 UseFst=F UseS4=T ISplat=2.
 PrismC was handed    33456927 working-precision words and  3634 shell-pairs
 Enter PrismC:  IPart= 18 JobTyp=22 DoJE=F Cont=F.
 PrismC:  IPart=    18 DynPar=T LinDyn=F Incr=        1024 UseFst=F UseS4=T ISplat=2.
 PrismC was handed    33456927 working-precision words and  3634 shell-pairs
 Enter PrismC:  IPart=  1 JobTyp=22 DoJE=F Cont=F.
 PrismC:  IPart=     1 DynPar=T LinDyn=F Incr=        1024 UseFst=F UseS4=T ISplat=2.
 PrismC was handed    33456927 working-precision words and  3634 shell-pairs
 Enter PrismC:  IPart= 19 JobTyp=22 DoJE=F Cont=F.
 PrismC:  IPart=    19 DynPar=T LinDyn=F Incr=        1024 UseFst=F UseS4=T ISplat=2.
 PrismC was handed    33456927 working-precision words and  3634 shell-pairs
 Enter PrismC:  IPart=  7 JobTyp=22 DoJE=F Cont=F.
 PrismC:  IPart=     7 DynPar=T LinDyn=F Incr=        1024 UseFst=F UseS4=T ISplat=2.
 PrismC was handed    33456927 working-precision words and  3634 shell-pairs
 Enter PrismC:  IPart=  9 JobTyp=22 DoJE=F Cont=F.
 PrismC:  IPart=     9 DynPar=T LinDyn=F Incr=        1024 UseFst=F UseS4=T ISplat=2.
 PrismC was handed    33456927 working-precision words and  3634 shell-pairs
 Enter PrismC:  IPart=  3 JobTyp=22 DoJE=F Cont=F.
 PrismC:  IPart=     3 DynPar=T LinDyn=F Incr=        1024 UseFst=F UseS4=T ISplat=2.
 PrismC was handed    33456927 working-precision words and  3634 shell-pairs
 Enter PrismC:  IPart=  8 JobTyp=22 DoJE=F Cont=F.
 PrismC:  IPart=     8 DynPar=T LinDyn=F Incr=        1024 UseFst=F UseS4=T ISplat=2.
 PrismC was handed    33456927 working-precision words and  3634 shell-pairs
 Enter PrismC:  IPart= 16 JobTyp=22 DoJE=F Cont=F.
 PrismC:  IPart=    16 DynPar=T LinDyn=F Incr=        1024 UseFst=F UseS4=T ISplat=2.
 PrismC was handed    33456927 working-precision words and  3634 shell-pairs
 Enter PrismC:  IPart= 17 JobTyp=22 DoJE=F Cont=F.
 PrismC:  IPart=    17 DynPar=T LinDyn=F Incr=        1024 UseFst=F UseS4=T ISplat=2.
 PrismC was handed    33456927 working-precision words and  3634 shell-pairs
 Enter PrismC:  IPart=  5 JobTyp=22 DoJE=F Cont=F.
 PrismC:  IPart=     5 DynPar=T LinDyn=F Incr=        1024 UseFst=F UseS4=T ISplat=2.
 PrismC was handed    33456927 working-precision words and  3634 shell-pairs
 Enter PrismC:  IPart= 13 JobTyp=22 DoJE=F Cont=F.
 PrismC:  IPart=    13 DynPar=T LinDyn=F Incr=        1024 UseFst=F UseS4=T ISplat=2.
 PrismC was handed    33456927 working-precision words and  3634 shell-pairs
 IPart=  0 NShTot=      215361 NShNF=      215361 NShFF=           0 MinMC=       7
           NShCPU=      215361 NBCPU=        9411 AvBCPU=        22.9
           NShGPU=           0 NBGPU=           0 AvBGPU=         0.0
 IPart=  2 NShTot=      221677 NShNF=      221677 NShFF=           0 MinMC=       7
           NShCPU=      221677 NBCPU=        9076 AvBCPU=        24.4
           NShGPU=           0 NBGPU=           0 AvBGPU=         0.0
 IPart= 19 NShTot=      233702 NShNF=      233702 NShFF=           0 MinMC=       7
           NShCPU=      233702 NBCPU=        9566 AvBCPU=        24.4
           NShGPU=           0 NBGPU=           0 AvBGPU=         0.0
 IPart=  3 NShTot=      224423 NShNF=      224423 NShFF=           0 MinMC=       7
           NShCPU=      224423 NBCPU=        9399 AvBCPU=        23.9
           NShGPU=           0 NBGPU=           0 AvBGPU=         0.0
 IPart=  9 NShTot=      226263 NShNF=      226263 NShFF=           0 MinMC=       7
           NShCPU=      226263 NBCPU=        9371 AvBCPU=        24.1
           NShGPU=           0 NBGPU=           0 AvBGPU=         0.0
 IPart= 15 NShTot=      219624 NShNF=      219624 NShFF=           0 MinMC=       7
           NShCPU=      219624 NBCPU=        9356 AvBCPU=        23.5
           NShGPU=           0 NBGPU=           0 AvBGPU=         0.0
 IPart= 14 NShTot=      221958 NShNF=      221958 NShFF=           0 MinMC=       7
           NShCPU=      221958 NBCPU=        9412 AvBCPU=        23.6
           NShGPU=           0 NBGPU=           0 AvBGPU=         0.0
 IPart=  6 NShTot=      223071 NShNF=      223071 NShFF=           0 MinMC=       7
           NShCPU=      223071 NBCPU=        8749 AvBCPU=        25.5
           NShGPU=           0 NBGPU=           0 AvBGPU=         0.0
 IPart= 12 NShTot=      228922 NShNF=      228922 NShFF=           0 MinMC=       7
           NShCPU=      228922 NBCPU=        9111 AvBCPU=        25.1
           NShGPU=           0 NBGPU=           0 AvBGPU=         0.0
 IPart=  1 NShTot=      241182 NShNF=      241182 NShFF=           0 MinMC=       7
           NShCPU=      241182 NBCPU=        9730 AvBCPU=        24.8
           NShGPU=           0 NBGPU=           0 AvBGPU=         0.0
 IPart= 11 NShTot=      224826 NShNF=      224826 NShFF=           0 MinMC=       7
           NShCPU=      224826 NBCPU=        8918 AvBCPU=        25.2
           NShGPU=           0 NBGPU=           0 AvBGPU=         0.0
 IPart=  7 NShTot=      216352 NShNF=      216352 NShFF=           0 MinMC=       7
           NShCPU=      216352 NBCPU=       10061 AvBCPU=        21.5
           NShGPU=           0 NBGPU=           0 AvBGPU=         0.0
 IPart= 17 NShTot=      220477 NShNF=      220477 NShFF=           0 MinMC=       7
           NShCPU=      220477 NBCPU=        9490 AvBCPU=        23.2
           NShGPU=           0 NBGPU=           0 AvBGPU=         0.0
 IPart= 16 NShTot=      222405 NShNF=      222405 NShFF=           0 MinMC=       7
           NShCPU=      222405 NBCPU=        9464 AvBCPU=        23.5
           NShGPU=           0 NBGPU=           0 AvBGPU=         0.0
 IPart= 13 NShTot=      229075 NShNF=      229075 NShFF=           0 MinMC=       7
           NShCPU=      229075 NBCPU=        9799 AvBCPU=        23.4
           NShGPU=           0 NBGPU=           0 AvBGPU=         0.0
 IPart= 10 NShTot=      228287 NShNF=      228287 NShFF=           0 MinMC=       7
           NShCPU=      228287 NBCPU=        9204 AvBCPU=        24.8
           NShGPU=           0 NBGPU=           0 AvBGPU=         0.0
 IPart=  8 NShTot=      209889 NShNF=      209889 NShFF=           0 MinMC=       7
           NShCPU=      209889 NBCPU=        9636 AvBCPU=        21.8
           NShGPU=           0 NBGPU=           0 AvBGPU=         0.0
 IPart=  5 NShTot=      227136 NShNF=      227136 NShFF=           0 MinMC=       7
           NShCPU=      227136 NBCPU=        9691 AvBCPU=        23.4
           NShGPU=           0 NBGPU=           0 AvBGPU=         0.0
 IPart=  4 NShTot=      224985 NShNF=      224985 NShFF=           0 MinMC=       7
           NShCPU=      224985 NBCPU=        9164 AvBCPU=        24.6
           NShGPU=           0 NBGPU=           0 AvBGPU=         0.0
 IPart= 18 NShTot=      221618 NShNF=      221618 NShFF=           0 MinMC=       7
           NShCPU=      221618 NBCPU=        9437 AvBCPU=        23.5
           NShGPU=           0 NBGPU=           0 AvBGPU=         0.0
 CoulSu:  NxtVal=        7045121 LenVP=       33456928 MinMC=       7.
 ReadGW:  IGet=0 IStart=           1 Next=           1 LGW=           0.
 Remaining memory in FofDFT      639.93 Mw
 CkSvGd:  ISavGI=        -1 IRadAn=       5 IRASav=       5 ISavGd=        -1.
 CalDSu-InSpLW:  IPartL=    0 NPrtUS=   20 NPrtUL=    1 DoSpLW=F IThBeg=    0 IThEnd=   19 NThAct=   20.
 CalDSu:  NPrtUS=  20 ThrOK=T IAlg=1 NPAlg=2 DoDPD=T LenP=       35245 LenD1P=             0 GPUOK=F
          ISkipM=0 DoSpLW=F IThBeg=    0 IThEnd=   19.
 IPart=  0 IRanGd=          0 ScrnBf=T ScrnGd=T RCrit=4.00D+00 DoMicB=T.
 IPart=  2        12701 of        14680 points in      17 batches and       69 microbatches, Max-NSigAt=      11 Max-NSgAt2=      11
 IPart= 12        11341 of        12358 points in      13 batches and       63 microbatches, Max-NSigAt=      11 Max-NSgAt2=      11
 IPart=  5        10809 of        11460 points in      11 batches and       62 microbatches, Max-NSigAt=      11 Max-NSgAt2=      11
 IPart= 15        11811 of        13508 points in      14 batches and       77 microbatches, Max-NSigAt=      11 Max-NSgAt2=      11
 IPart= 11        11586 of        13228 points in      14 batches and       78 microbatches, Max-NSigAt=      11 Max-NSgAt2=      11
 IPart= 17        12906 of        14630 points in      17 batches and       60 microbatches, Max-NSigAt=      11 Max-NSgAt2=      11
 IPart=  6        12476 of        13496 points in      13 batches and       48 microbatches, Max-NSigAt=      11 Max-NSgAt2=      11
 IPart= 10        12827 of        15006 points in      17 batches and       86 microbatches, Max-NSigAt=      11 Max-NSgAt2=      11
 IPart=  9         9952 of        10660 points in      11 batches and       65 microbatches, Max-NSigAt=      11 Max-NSgAt2=      11
 IPart= 16        10715 of        11654 points in      11 batches and       71 microbatches, Max-NSigAt=      11 Max-NSgAt2=      11
 IPart=  1         9912 of        10676 points in      11 batches and       74 microbatches, Max-NSigAt=      11 Max-NSgAt2=      11
 IPart=  8        10417 of        11034 points in      11 batches and       63 microbatches, Max-NSigAt=      11 Max-NSgAt2=      11
 IPart= 19        10087 of        11018 points in      12 batches and       81 microbatches, Max-NSigAt=      11 Max-NSgAt2=      11
 IPart=  0        10323 of        11002 points in      11 batches and       69 microbatches, Max-NSigAt=      11 Max-NSgAt2=      11
 IPart= 13        12420 of        14198 points in      16 batches and       88 microbatches, Max-NSigAt=      11 Max-NSgAt2=      11
 IPart= 18        10940 of        11638 points in      11 batches and       57 microbatches, Max-NSigAt=      11 Max-NSgAt2=      11
 IPart= 14        10464 of        11034 points in      11 batches and       54 microbatches, Max-NSigAt=      11 Max-NSgAt2=      11
 IPart=  7        11672 of        12376 points in      12 batches and       56 microbatches, Max-NSigAt=      11 Max-NSgAt2=      11
 IPart=  4        10831 of        11440 points in      11 batches and       58 microbatches, Max-NSigAt=      11 Max-NSgAt2=      11
 IPart=  3        10509 of        11304 points in      11 batches and       62 microbatches, Max-NSigAt=      11 Max-NSgAt2=      11
 Polarizability after L703:
                1             2             3 
      1  0.000000D+00
      2  0.000000D+00  0.000000D+00
      3  0.000000D+00  0.000000D+00  0.000000D+00
 Dipole Derivatives after L703:
                 1             2             3             4             5 
      1  -0.617125D-01 -0.100523D+00 -0.103252D-01 -0.286777D+00 -0.140418D+01
      2  -0.204088D+00 -0.134173D+00  0.844961D-02 -0.308296D+00 -0.739331D+00
      3   0.271755D-02  0.368486D-02 -0.253571D+00  0.194266D-01  0.408611D-01
                 6             7             8             9            10 
      1   0.885119D-01 -0.111546D+01 -0.533675D+00  0.236121D-01 -0.511497D+00
      2   0.282325D-01 -0.991140D-01 -0.763675D+00  0.214758D-01 -0.301680D-01
      3  -0.398808D+00 -0.176415D-01  0.148613D-02 -0.787125D+00  0.730021D-02
                11            12            13            14            15 
      1   0.429624D-01  0.261610D-01 -0.346750D+00  0.276917D+00 -0.205628D-01
      2  -0.762625D+00  0.149068D-01  0.921139D-01 -0.606109D+00 -0.162093D-02
      3   0.107550D-01  0.186617D-01 -0.198746D-02  0.276574D-01  0.427086D-01
                16            17            18            19            20 
      1   0.619984D+00  0.198208D+00 -0.765107D+00  0.740156D+00  0.101252D+00
      2   0.164975D+00  0.182363D+00 -0.189412D+00  0.164564D+00  0.155120D+00
      3  -0.216174D+00 -0.299453D-01  0.442956D+00  0.244971D+00 -0.809353D-02
                21            22            23            24            25 
      1   0.753129D+00 -0.445292D-01  0.239038D+00 -0.363362D-02  0.228359D+00
      2   0.145491D+00 -0.383910D+00  0.445298D+00  0.772148D-02  0.251902D+00
      3   0.408454D+00 -0.214867D-01  0.359704D-01  0.779582D-01 -0.282671D-02
                26            27            28            29            30 
      1   0.196404D+00 -0.252539D-02  0.897732D-01 -0.228727D+00 -0.471101D-02
      2   0.855222D+00 -0.112179D-01  0.248572D+00  0.754993D+00  0.167920D-02
      3  -0.115314D-01  0.747856D-01 -0.422175D-02 -0.348247D-01  0.941427D-01
                31            32            33 
      1   0.688458D+00  0.121233D+01 -0.845489D-01
      2   0.103448D+00  0.612918D+00 -0.257049D-01
      3  -0.100777D-01 -0.360201D-01  0.279837D+00
 Hessian after L703:
                1             2             3             4             5 
      1  0.460236D+00
      2  0.709005D-01  0.358301D+00
      3 -0.159048D-02  0.629449D-02  0.637961D-01
      4 -0.235797D-01 -0.607949D-04  0.460807D-03  0.452688D+00
      5  0.125071D-02 -0.302281D-02  0.663541D-03  0.589362D-01  0.432169D+00
      6  0.268110D-03 -0.854302D-04  0.115861D-01 -0.979205D-02 -0.253594D-01
      7 -0.107244D+00 -0.201935D-01  0.374276D-03  0.441925D-02 -0.178469D-02
      8 -0.600310D-01 -0.199732D+00 -0.252958D-02  0.797025D-02 -0.268110D-02
      9 -0.124110D-02 -0.470141D-02 -0.591028D-01  0.868907D-05 -0.500703D-03
     10 -0.269619D+00 -0.502320D-02  0.163658D-02 -0.347942D-01  0.357100D-01
     11  0.336576D-01 -0.105196D+00 -0.904658D-03 -0.185102D-02  0.969372D-02
     12  0.280415D-02 -0.169318D-03 -0.327943D-01 -0.703358D-04 -0.898198D-03
     13 -0.242497D-01  0.294177D-01 -0.971500D-03 -0.309147D+00 -0.278901D-01
     14  0.666376D-02  0.142701D-01 -0.118093D-02  0.195908D-01 -0.104006D+00
     15  0.125380D-03 -0.391149D-05  0.425355D-02  0.251569D-02  0.363464D-02
     16 -0.110608D-01 -0.101295D-01  0.100753D-01 -0.727788D-03 -0.187031D-03
     17 -0.276826D-01 -0.163657D-01  0.229728D-01 -0.102594D-02  0.334421D-03
     18  0.285097D-03  0.474381D-02  0.940481D-02  0.535050D-03  0.543406D-04
     19 -0.123142D-01 -0.989211D-02 -0.886895D-02 -0.900854D-03 -0.287274D-03
     20 -0.309552D-01 -0.127798D-01 -0.222059D-01 -0.951812D-03  0.498492D-03
     21 -0.129158D-02 -0.529313D-02  0.733223D-02 -0.465423D-03  0.316267D-04
     22  0.103908D-01 -0.174358D-01 -0.109224D-02 -0.200152D-03 -0.578909D-03
     23  0.915130D-02 -0.378313D-01 -0.281148D-02 -0.552026D-03  0.954705D-03
     24  0.168366D-03 -0.107233D-02 -0.797577D-03 -0.155689D-03  0.262124D-03
     25 -0.228337D-01 -0.348798D-01  0.123734D-03  0.382702D-02  0.173065D-02
     26 -0.330344D-02  0.253887D-02 -0.798190D-04 -0.906217D-03  0.272127D-02
     27  0.587461D-03  0.233198D-03  0.134032D-02 -0.223132D-03 -0.413736D-03
     28 -0.137334D-02 -0.370617D-02 -0.756623D-04 -0.182630D-01 -0.345607D-01
     29 -0.136705D-02  0.600668D-03 -0.414052D-04 -0.310985D-02  0.221520D-02
     30 -0.246117D-03  0.119214D-03 -0.372633D-02  0.703684D-03  0.604735D-03
     31  0.164714D-02  0.100270D-02 -0.718572D-04 -0.733213D-01 -0.323389D-01
     32  0.171554D-02 -0.782392D-03 -0.177106D-03 -0.780396D-01 -0.338877D+00
     33  0.130712D-03 -0.651877D-04 -0.129201D-02  0.648272D-02  0.219210D-01
                6             7             8             9            10 
      6  0.545494D-01
      7 -0.133553D-03  0.569703D+00
      8  0.192150D-03 -0.650112D-01  0.487715D+00
      9  0.665564D-03 -0.432248D-02  0.216027D-02  0.494037D+00
     10 -0.309931D-03 -0.265832D-01 -0.252395D-01 -0.145106D-03  0.666654D+00
     11  0.345483D-03 -0.446838D-01 -0.836347D-02  0.840678D-03 -0.142635D+00
     12  0.419275D-02 -0.867475D-03  0.138159D-03 -0.555950D-02 -0.570619D-03
     13  0.571428D-02 -0.511623D-02 -0.532446D-03 -0.667677D-03 -0.275948D+00
     14  0.276314D-02  0.494722D-02  0.295282D-02  0.995612D-03  0.210343D+00
     15 -0.355082D-01  0.275020D-03 -0.731695D-03  0.960434D-03 -0.266570D-02
     16  0.101366D-03 -0.107827D+00 -0.603721D-02  0.825480D-01  0.171803D-02
     17 -0.295393D-03 -0.311538D-02 -0.536626D-01  0.116546D-01  0.424833D-02
     18 -0.292685D-04  0.868639D-01  0.154616D-01 -0.198709D+00 -0.204529D-02
[...]
     Eigenvalues ---    0.22501   0.31079   0.33039   0.33499   0.35245
     Eigenvalues ---    0.36308   0.37434   0.40546   0.44209   0.51140
     Eigenvalues ---    0.54162   0.65553
 Angle between quadratic step and forces=  58.99 degrees.
 Linear search not attempted -- first point.
 Iteration  1 RMS(Cart)=  0.00001567 RMS(Int)=  0.00000000
 Iteration  2 RMS(Cart)=  0.00000000 RMS(Int)=  0.00000000
 ITry= 1 IFail=0 DXMaxC= 4.14D-05 DCOld= 1.00D+10 DXMaxT= 3.00D-01 DXLimC= 3.00D+00 Rises=F
 Variable       Old X    -DE/DX   Delta X   Delta X   Delta X     New X
                                 (Linear)    (Quad)   (Total)
    R1        2.65861   0.00000   0.00000   0.00000   0.00000   2.65861
    R2        2.56838   0.00000   0.00000   0.00000   0.00000   2.56838
    R3        2.58763   0.00000   0.00000   0.00000   0.00000   2.58763
    R4        1.81658  -0.00001   0.00000  -0.00001  -0.00001   1.81657
    R5        2.06764  -0.00000   0.00000  -0.00000  -0.00000   2.06763
    R6        2.05178  -0.00000   0.00000  -0.00000  -0.00000   2.05178
    R7        2.06764  -0.00000   0.00000  -0.00000  -0.00000   2.06763
    R8        2.51126  -0.00000   0.00000  -0.00000  -0.00000   2.51125
    R9        2.04733   0.00000   0.00000   0.00000   0.00000   2.04733
   R10        2.03837  -0.00000   0.00000  -0.00000  -0.00000   2.03837
    A1        2.01871   0.00000   0.00000   0.00001   0.00001   2.01872
    A2        1.91222  -0.00000   0.00000  -0.00000  -0.00000   1.91222
    A3        1.93529   0.00000   0.00000   0.00001   0.00001   1.93529
    A4        1.86506  -0.00000   0.00000  -0.00000  -0.00000   1.86506
    A5        1.93529  -0.00000   0.00000  -0.00000  -0.00000   1.93529
    A6        1.91341  -0.00000   0.00000  -0.00001  -0.00001   1.91341
    A7        1.90112   0.00000   0.00000   0.00001   0.00001   1.90113
    A8        1.91341  -0.00000   0.00000  -0.00000  -0.00000   1.91341
    A9        2.21963   0.00000   0.00000   0.00000   0.00000   2.21963
   A10        1.94478  -0.00000   0.00000  -0.00000  -0.00000   1.94478
   A11        2.11878  -0.00000   0.00000  -0.00000  -0.00000   2.11878
   A12        2.17288  -0.00000   0.00000  -0.00000  -0.00000   2.17288
   A13        1.94814   0.00000   0.00000   0.00000   0.00000   1.94814
   A14        2.16216   0.00000   0.00000  -0.00000  -0.00000   2.16216
    D1        1.05717   0.00000   0.00000  -0.00001  -0.00001   1.05716
    D2       -3.14158  -0.00000   0.00000  -0.00001  -0.00001  -3.14159
    D3       -1.05714  -0.00000   0.00000  -0.00002  -0.00002  -1.05716
    D4        0.00001  -0.00000   0.00000  -0.00001  -0.00001  -0.00000
    D5       -3.14157  -0.00000   0.00000  -0.00002  -0.00002   3.14159
    D6       -0.00001   0.00000   0.00000   0.00001   0.00001  -0.00000
    D7        3.14159  -0.00000   0.00000   0.00000   0.00000   3.14159
    D8       -3.14159  -0.00000   0.00000  -0.00001  -0.00001   3.14159
    D9        0.00000  -0.00000   0.00000  -0.00000  -0.00000  -0.00000
   D10       -0.00000  -0.00000   0.00000   0.00000   0.00000  -0.00000
   D11        3.14159   0.00000   0.00000   0.00001   0.00001   3.14159
         Item               Value     Threshold  Converged?
 Maximum Force            0.000007     0.000015     YES
 RMS     Force            0.000001     0.000010     YES
 Maximum Displacement     0.000041     0.000060     YES
 RMS     Displacement     0.000016     0.000040     YES
 Predicted change in Energy=-8.361851D-11
 Optimization completed.
    -- Stationary point found.
                           ----------------------------
                           !   Optimized Parameters   !
                           ! (Angstroms and Degrees)  !
 --------------------------                            --------------------------
 ! Name  Definition              Value          Derivative Info.                !
 --------------------------------------------------------------------------------
 ! R1    R(1,3)                  1.4069         -DE/DX =    0.0                 !
 ! R2    R(1,4)                  1.3591         -DE/DX =    0.0                 !
 ! R3    R(2,5)                  1.3693         -DE/DX =    0.0                 !
 ! R4    R(2,11)                 0.9613         -DE/DX =    0.0                 !
 ! R5    R(3,6)                  1.0941         -DE/DX =    0.0                 !
 ! R6    R(3,7)                  1.0858         -DE/DX =    0.0                 !
 ! R7    R(3,8)                  1.0941         -DE/DX =    0.0                 !
 ! R8    R(4,5)                  1.3289         -DE/DX =    0.0                 !
 ! R9    R(4,9)                  1.0834         -DE/DX =    0.0                 !
 ! R10   R(5,10)                 1.0787         -DE/DX =    0.0                 !
 ! A1    A(3,1,4)              115.6636         -DE/DX =    0.0                 !
 ! A2    A(5,2,11)             109.5624         -DE/DX =    0.0                 !
 ! A3    A(1,3,6)              110.8837         -DE/DX =    0.0                 !
 ! A4    A(1,3,7)              106.8603         -DE/DX =    0.0                 !
 ! A5    A(1,3,8)              110.8842         -DE/DX =    0.0                 !
 ! A6    A(6,3,7)              109.6305         -DE/DX =    0.0                 !
 ! A7    A(6,3,8)              108.9261         -DE/DX =    0.0                 !
 ! A8    A(7,3,8)              109.6301         -DE/DX =    0.0                 !
 ! A9    A(1,4,5)              127.1754         -DE/DX =    0.0                 !
 ! A10   A(1,4,9)              111.4276         -DE/DX =    0.0                 !
 ! A11   A(5,4,9)              121.397          -DE/DX =    0.0                 !
 ! A12   A(2,5,4)              124.497          -DE/DX =    0.0                 !
 ! A13   A(2,5,10)             111.6202         -DE/DX =    0.0                 !
 ! A14   A(4,5,10)             123.8827         -DE/DX =    0.0                 !
 ! D1    D(4,1,3,6)             60.5711         -DE/DX =    0.0                 !
 ! D2    D(4,1,3,7)           -179.9992         -DE/DX =    0.0                 !
 ! D3    D(4,1,3,8)            -60.5696         -DE/DX =    0.0                 !
 ! D4    D(3,1,4,5)              0.0006         -DE/DX =    0.0                 !
 ! D5    D(3,1,4,9)            180.001          -DE/DX =    0.0                 !
 ! D6    D(11,2,5,4)            -0.0005         -DE/DX =    0.0                 !
 ! D7    D(11,2,5,10)          179.9998         -DE/DX =    0.0                 !
 ! D8    D(1,4,5,2)            180.0004         -DE/DX =    0.0                 !
 ! D9    D(1,4,5,10)             0.0001         -DE/DX =    0.0                 !
 ! D10   D(9,4,5,2)             -0.0001         -DE/DX =    0.0                 !
 ! D11   D(9,4,5,10)           179.9996         -DE/DX =    0.0                 !
 --------------------------------------------------------------------------------
 GradGradGradGradGradGradGradGradGradGradGradGradGradGradGradGradGradGrad

 Leave Link  103 at Thu Sep  5 19:03:07 2019, MaxMem=   671088640 cpu:             101.5 elap:              50.8
 (Enter /shared/centos7/gaussian/g16/l9999.exe)

 ----------------------------------------------------------------------

 Electric dipole moment (input orientation):
 (Debye = 10**-18 statcoulomb cm , SI units = C m)
                  (au)            (Debye)         (10**-30 SI)
   Tot        0.167472D+00      0.425672D+00      0.141989D+01
   x         -0.165901D-01     -0.421677D-01     -0.140656D+00
   y         -0.155995D+00     -0.396499D+00     -0.132258D+01
   z          0.586291D-01      0.149020D+00      0.497078D+00

 Dipole polarizability, Alpha (input orientation).
 (esu units = cm**3 , SI units = C**2 m**2 J**-1)
 Alpha(0;0):
               (au)            (10**-24 esu)      (10**-40 SI)
   iso        0.437928D+02      0.648943D+01      0.722047D+01
   aniso      0.213475D+02      0.316337D+01      0.351972D+01
   xx         0.434161D+02      0.643361D+01      0.715835D+01
   yx         0.463128D+01      0.686285D+00      0.763596D+00
   yy         0.525164D+02      0.778212D+01      0.865878D+01
   zx         0.291191D+01      0.431500D+00      0.480108D+00
   zy        -0.700152D+01     -0.103752D+01     -0.115439D+01
   zz         0.354460D+02      0.525256D+01      0.584426D+01

 ----------------------------------------------------------------------

 Dipole orientation:
     8          0.56912180          2.01606550          2.02982874
     8          0.63606310          2.03568008         -4.90031496
     6         -1.94608659          1.27077450          2.46162815
     6          1.26097624          2.22099512         -0.43511171
     6         -0.17148469          1.79648495         -2.45359052
     1         -2.31316514         -0.59287351          1.64481471
     1         -2.20333433          1.19464338          4.49579343
     1         -3.26922544          2.63349343          1.64467006
     1          3.21614588          2.80030775         -0.61750326
     1         -2.12380963          1.21799953         -2.36022193
     1          2.37770695          2.55174879         -4.91830915

 Electric dipole moment (dipole orientation):
 (Debye = 10**-18 statcoulomb cm , SI units = C m)
                  (au)            (Debye)         (10**-30 SI)
   Tot        0.167472D+00      0.425672D+00      0.141989D+01
   x          0.000000D+00      0.000000D+00      0.000000D+00
   y          0.000000D+00      0.000000D+00      0.000000D+00
   z          0.167472D+00      0.425672D+00      0.141989D+01

 Dipole polarizability, Alpha (dipole orientation).
 (esu units = cm**3 , SI units = C**2 m**2 J**-1)
 Alpha(0;0):
               (au)            (10**-24 esu)      (10**-40 SI)
   iso        0.437928D+02      0.648943D+01      0.722047D+01
   aniso      0.213475D+02      0.316337D+01      0.351972D+01
   xx         0.434195D+02      0.643411D+01      0.715891D+01
   yx         0.357771D+01      0.530162D+00      0.589884D+00
   yy         0.324051D+02      0.480194D+01      0.534288D+01
   zx        -0.215124D+01     -0.318781D+00     -0.354692D+00
   zy        -0.636732D+00     -0.943540D-01     -0.104983D+00
   zz         0.555539D+02      0.823224D+01      0.915961D+01

 ----------------------------------------------------------------------

 Test job not archived.
 1\1\GINC-C0327\Freq\RM062X\CC-pVTZ\C3H6O2\HARMS.N\05-Sep-2019\0\\#P Ge
 om=AllCheck Guess=TCheck SCRF=Check Test GenChk RM062X/CC-pVTZ Freq\\G
 aussian input prepared by ASE\\0,1\O,0.1196563746,-0.6398655412,1.3996
 113565\O,0.5173988584,2.7773640717,0.128940391\C,-1.1973406204,-0.9026
 725227,0.9803928631\C,0.6049119757,0.5888601144,1.0802469276\C,-0.0264
 398497,1.5553218842,0.421975595\H,-1.2799574889,-0.8391999655,-0.10878
 10168\H,-1.4363604804,-1.9104268881,1.3062224553\H,-1.8988859262,-0.19
 44383091,1.4313850537\H,1.6206320517,0.717599389,1.4344993033\H,-1.036
 0287574,1.4705165156,0.0517880767\H,1.4146167081,2.8208331768,0.471281
 4551\\Version=EM64L-G16RevA.03\State=1-A\HF=-268.3193098\RMSD=2.056e-0
 9\RMSF=1.720e-06\ZeroPoint=0.0911031\Thermal=0.0968973\Dipole=-0.01659
 01,-0.1559948,0.0586291\DipoleDeriv=-0.8175101,-0.5975019,0.0282116,-0
 .2695766,-1.2058529,0.2854025,-0.1090589,0.1536333,-0.3734268,-0.37337
 24,-0.5257084,0.2138457,-0.2043075,-1.2273445,0.2818684,0.0793041,0.15
 27251,-0.3899495,0.6897336,0.3387586,-0.0046364,0.0543743,0.3316703,0.
 0288469,0.1144106,0.1431236,0.3344481,0.2457689,0.4540037,-0.0322538,0
 .2242272,0.8675459,-0.3345642,0.0639311,-0.2422316,-0.0198389,0.135244
 3,0.5230405,-0.1023953,0.1584263,0.8864978,-0.3722477,0.0502357,-0.225
 7379,-0.0401302,-0.0090741,-0.0461887,0.0413508,0.0172985,0.0581732,0.
 0430452,-0.0515568,-0.046395,-0.1374335,0.0421792,-0.0392274,-0.000118
 1,-0.0707335,-0.0891841,0.0437974,0.013072,0.0564595,0.0649534,-0.0618
 91,-0.0187313,0.0301463,0.1247354,-0.0250337,-0.0757192,0.0364171,-0.0
 694454,-0.0014116,-0.0561522,-0.087984,-0.055785,-0.0834748,0.0257727,
 0.0286452,-0.0576705,0.0268316,0.1399266,-0.0047161,-0.0649391,-0.0454
 365,-0.0323841,0.0704444,0.0311772,-0.0590652,0.0180954,0.1446976,0.20
 979,0.0644781,-0.0729293,0.0814149,0.3073108,0.0397483,-0.0800192,0.03
 29414,0.2781649\Polar=43.4161335,4.6312837,52.5163746,2.9119063,-7.001
 5201,35.4460398\Quadrupole=4.0090463,-1.9506195,-2.0584268,3.7091041,0
 .7344494,1.6026515\PG=C01 [X(C3H6O2)]\NImag=0\\0.43316935,0.14849623,0
 .42500575,0.08158243,-0.08665181,0.14451808,-0.00437071,-0.00908899,-0
 .00331927,0.58506884,-0.01031898,-0.01928314,0.00951768,0.12498435,0.3
 6663424,-0.00280428,0.01001196,0.00804027,0.17252209,-0.09256655,0.133
 61167,-0.23045278,-0.04022475,-0.05000020,0.00201348,0.00993153,-0.003
 32874,0.49912215,-0.00598358,-0.08811073,0.00763604,-0.00010255,0.0013
 6099,-0.00063148,-0.00136410,0.62788442,-0.06433414,-0.00612411,-0.087
 41445,0.00087182,0.00340056,-0.00112243,-0.02740650,-0.02530759,0.5683
 2416,-0.12022977,-0.05654845,-0.01007059,0.01503706,-0.01724708,0.0124
 8160,-0.03213631,-0.04494965,0.00654485,0.67721062,-0.09614189,-0.2821
 5204,0.06429953,0.01608404,-0.03196063,0.02065539,-0.01902281,-0.02041
 752,0.00023423,-0.02138686,0.69082715,0.00650396,0.08021049,-0.0672232
 5,-0.00147108,0.00726218,-0.00168853,-0.00430844,-0.01018466,0.0009341
 2,0.23558439,-0.25038968,0.31269562,0.01725993,-0.00617982,0.00863063,
 -0.12981991,-0.06331656,-0.01250941,0.00543910,-0.00299849,0.00355339,
 -0.23741643,0.12981871,-0.12955905,0.68635208,0.01525768,-0.02729923,0
 .01848766,-0.10682535,-0.27307352,0.05768614,-0.00158578,-0.00284301,0
 .00043585,0.14320153,-0.32375054,0.17203952,-0.02660893,0.68185167,-0.
 00034349,0.00987321,-0.00205206,0.00570413,0.07516951,-0.06190397,0.00
 296228,-0.00013214,0.00096556,-0.13516126,0.16666245,-0.17431523,0.242
 10797,-0.24942253,0.31326344,-0.01884592,-0.00447842,-0.04209719,-0.00
 051450,-0.00042347,0.00023880,-0.04975369,-0.00001061,-0.00121926,0.00
 254761,0.00636633,-0.00243609,0.00172162,-0.00061034,0.00154838,0.0609
 7766,-0.00350618,-0.00005952,-0.00670781,0.00003521,0.00056508,0.00023
 973,0.00050019,-0.05441138,0.01817234,0.00018626,0.00369813,-0.0025574
 6,0.00127153,-0.00095586,0.00025455,0.00064661,0.05080451,-0.01530683,
 -0.00258092,-0.00813258,0.00003295,-0.00148047,0.00058033,-0.00701144,
 0.01541590,-0.30263803,0.00214449,0.00208683,0.00088693,-0.00121634,0.
 00123329,-0.00124487,0.01885193,-0.01658547,0.33043108,-0.01948421,-0.
 04011756,0.00901614,0.00026257,-0.00086714,0.00041529,-0.05585605,-0.0
 3916039,0.01475733,-0.00468245,0.00122332,-0.00271861,-0.00081150,0.00
 096418,-0.00087098,0.00123905,0.00121260,0.00105676,0.07303846,-0.0059
 1995,-0.00525237,-0.00023393,-0.00037160,-0.00038770,0.00006843,-0.051
 68518,-0.29160248,0.07962653,-0.00018995,0.00231880,-0.00070843,0.0003
 8803,0.00039639,0.00013716,0.00109139,0.00056926,0.00008912,0.06035116
 ,0.31102509,-0.00529994,-0.01397631,0.00359274,0.00020782,-0.00013070,
 0.00027069,0.02000064,0.08465973,-0.07918762,-0.00212716,-0.00014064,0
 .00001283,-0.00062978,0.00036864,-0.00005583,0.00563434,0.02966422,-0.
 00738073,-0.01492754,-0.08614610,0.07737869,-0.04288687,0.01431913,0.0
 0755633,-0.00018825,-0.00124948,0.00015931,-0.14004292,0.09788538,0.06
 610525,0.00306684,0.00722365,-0.00145629,0.00098233,-0.00005368,0.0002
 7078,0.00302859,-0.00020971,0.00084680,0.00607406,-0.00334429,-0.00313
 418,0.17015873,-0.00445984,0.00744271,0.00626350,0.00014121,0.00096108
 ,-0.00078710,0.10342416,-0.16563036,-0.07402649,-0.00150410,0.00400264
 ,-0.00071709,0.00202334,-0.00151684,0.00163117,-0.00192162,0.00152922,
 0.00191204,0.01736495,-0.01688385,-0.01392943,-0.11380362,0.17077403,-
 0.01177939,0.00929257,0.00840694,-0.00040910,0.00018998,-0.00014190,0.
 06936476,-0.07370100,-0.10112886,0.00020390,0.00062933,0.00006324,0.00
 137845,-0.00093870,0.00005516,0.01950917,-0.02178950,-0.01293788,-0.00
 727690,0.00727482,0.00523712,-0.07095159,0.07873660,0.10127934,-0.0136
 1787,-0.00841526,-0.00225557,0.00193891,0.00077248,0.00283326,0.003474
 11,-0.00132621,0.00085418,-0.29924015,-0.02460996,-0.09538708,-0.01175
 416,-0.00575943,-0.00530694,-0.00034828,-0.00002295,-0.00017697,-0.000
 57233,-0.00016256,-0.00030235,-0.00005291,0.00020778,0.00001417,0.3193
 0319,-0.03712380,-0.01131203,-0.00986348,0.00230452,0.00232187,-0.0025
 2276,0.00031368,-0.00373176,0.00283132,-0.01924158,-0.05279312,-0.0007
 9372,0.01927087,0.00590187,0.00839286,0.00000860,0.00001609,-0.0002519
 5,-0.00141994,-0.00023523,-0.00032588,-0.00047784,-0.00003813,-0.00000
 637,0.03702405,0.06255658,0.00976219,0.00167253,0.00398432,0.00219191,
 -0.00313852,-0.00372217,0.00016746,0.00217218,0.00188837,-0.09763402,-
 0.00295079,-0.07421608,-0.01578497,-0.00166495,0.00180693,0.00047018,0
 .00024028,0.00004762,0.00022399,0.00017940,0.00036431,-0.00035914,-0.0
 0023576,-0.00019356,0.10385092,-0.00198012,0.06484560,-0.00093479,-0.0
 0035086,0.00128395,-0.01330686,-0.00691500,-0.00311919,-0.00082099,-0.
 00186100,0.00083481,-0.00861000,-0.00240722,-0.00508064,-0.30993114,-0
 .01500499,-0.10380004,-0.00001355,-0.00002465,0.00055478,0.00062302,-0
 .00020498,0.00055169,-0.00023126,-0.00136716,0.00000984,0.00111259,0.0
 0030363,-0.00307696,0.33053199,-0.00165668,0.00060073,-0.00249308,-0.0
 3510512,-0.00821621,-0.00997247,0.00056288,-0.00245517,0.00085229,0.02
 016409,0.00954877,0.00684371,-0.01063791,-0.05173925,0.00232040,-0.000
 71087,-0.00178245,0.00003212,0.00024148,0.00001610,-0.00013423,-0.0003
 9728,-0.00047485,0.00038384,0.00061842,-0.00222486,0.00471863,0.029681
 23,0.06142184,0.00183056,-0.00196822,-0.00220495,0.00868168,0.00135535
 ,0.00458047,-0.00017990,-0.00012179,-0.00098086,-0.01452928,-0.0022263
 5,0.00163505,-0.10562829,0.00056557,-0.07866658,-0.00053950,-0.0010071
 1,0.00047136,0.00036481,-0.00031365,-0.00025850,0.00098545,0.00130916,
 -0.00061868,-0.00320868,0.00459211,0.00524182,0.11138312,-0.00439777,0
 .06902361,0.00039363,0.00258876,-0.00032667,-0.45612063,-0.03535066,-0
 .16688873,-0.00098611,-0.00012880,-0.00056172,0.00445297,0.00285269,0.
 00032893,-0.02202192,-0.00297491,-0.00711083,-0.00003859,-0.00008892,0
 .00022388,0.00016940,0.00004792,0.00002645,0.00009164,-0.00010509,-0.0
 0006331,-0.00024311,-0.00096219,0.00018843,0.00158098,-0.00276025,0.00
 084004,0.47272173,0.00135698,0.00041986,-0.00025428,0.00794428,-0.0389
 2207,0.01781873,-0.00084983,-0.00004301,-0.00009492,-0.00248421,0.0006
 7835,-0.00100485,-0.04303079,-0.00697169,-0.01488663,0.00004239,0.0000
 2691,0.00012949,0.00020735,0.00003599,0.00009071,0.00010773,-0.0001656
 6,-0.00007156,0.00167364,-0.00046129,0.00098713,-0.00184900,-0.0046946
 5,0.00221269,0.03688145,0.05009725,0.00018893,0.00024061,-0.00151505,-
 0.18501296,0.00042099,-0.07850444,-0.00025991,0.00019482,0.00036002,0.
 00256308,0.00113971,0.00121530,0.00965741,0.00120952,0.00214744,0.0000
 3924,0.00007624,-0.00008324,-0.00004029,0.00002665,0.00002630,-0.00002
 272,-0.00015660,-0.00002091,-0.00091496,-0.00007201,-0.00004716,0.0004
 5863,0.00184657,0.00177725,0.17334353,-0.00492651,0.07464450\\-0.00000
 026,-0.00000016,-0.00000092,-0.00000588,-0.00000097,-0.00000227,0.0000
 0121,-0.00000044,0.00000065,0.00000005,-0.00000106,0.00000110,-0.00000
 045,0.00000076,0.,0.00000034,0.00000095,-0.00000044,-0.00000058,-0.000
 00035,0.00000027,-0.00000067,0.00000101,-0.00000044,0.00000007,-0.0000
 0031,-0.00000016,-0.00000027,0.00000005,-0.00000018,0.00000642,0.00000
 050,0.00000239\\\@


       THE DEATH-KNELL OF THE ATOM

 SO THE ATOMS IN TURN, WE NOW CLEARLY DISCERN,
 FLY TO BITS WITH THE UTMOST FACILITY;
 THEY WEND ON THEIR WAY, AND, IN SPLITTING, DISPLAY
 AN ABSOLUTE LACK OF STABILITY.

          SIR WM. RAMSAY, 1905
 Job cpu time:       0 days  0 hours 52 minutes 16.9 seconds.
 Elapsed time:       0 days  0 hours 26 minutes  9.5 seconds.
 File lengths (MBytes):  RWF=   1312 Int=      0 D2E=      0 Chk=     32 Scr=     32
 Normal termination of Gaussian 16 at Thu Sep  5 19:03:08 2019.
