 Entering Gaussian System, Link 0=g16
 Input=med/species/COC=CO/conformers/COC=CO_32.com
 Output=med/species/COC=CO/conformers/COC=CO_32.log
 Initial command:
 /shared/centos7/gaussian/g16/l1.exe "/scratch/harms.n/gauss_scrdir/Gau-43113.inp" -scrdir="/scratch/harms.n/gauss_scrdir/"
 Entering Link 1 = /shared/centos7/gaussian/g16/l1.exe PID=     43114.
  
 Copyright (c) 1988,1990,1992,1993,1995,1998,2003,2009,2016,
            Gaussian, Inc.  All Rights Reserved.
  
 This is part of the Gaussian(R) 16 program.  It is based on
 the Gaussian(R) 09 system (copyright 2009, Gaussian, Inc.),
 the Gaussian(R) 03 system (copyright 2003, Gaussian, Inc.),
 the Gaussian(R) 98 system (copyright 1998, Gaussian, Inc.),
 the Gaussian(R) 94 system (copyright 1995, Gaussian, Inc.),
 the Gaussian 92(TM) system (copyright 1992, Gaussian, Inc.),
 the Gaussian 90(TM) system (copyright 1990, Gaussian, Inc.),
 the Gaussian 88(TM) system (copyright 1988, Gaussian, Inc.),
 the Gaussian 86(TM) system (copyright 1986, Carnegie Mellon
 University), and the Gaussian 82(TM) system (copyright 1983,
 Carnegie Mellon University). Gaussian is a federally registered
 trademark of Gaussian, Inc.
  
 This software contains proprietary and confidential information,
 including trade secrets, belonging to Gaussian, Inc.
  
 This software is provided under written license and may be
 used, copied, transmitted, or stored only in accord with that
 written license.
  
 The following legend is applicable only to US Government
 contracts under FAR:
  
                    RESTRICTED RIGHTS LEGEND
  
 Use, reproduction and disclosure by the US Government is
 subject to restrictions as set forth in subparagraphs (a)
 and (c) of the Commercial Computer Software - Restricted
 Rights clause in FAR 52.227-19.
  
 Gaussian, Inc.
 340 Quinnipiac St., Bldg. 40, Wallingford CT 06492
  
  
 ---------------------------------------------------------------
 Warning -- This program may not be used in any manner that
 competes with the business of Gaussian, Inc. or will provide
 assistance to any competitor of Gaussian, Inc.  The licensee
 of this program is prohibited from giving any competitor of
 Gaussian, Inc. access to this program.  By using this program,
 the user acknowledges that Gaussian, Inc. is engaged in the
 business of creating and licensing software in the field of
 computational chemistry and represents and warrants to the
 licensee that it is not a competitor of Gaussian, Inc. and that
 it will not use this program in any manner prohibited above.
 ---------------------------------------------------------------
  

 Cite this work as:
 Gaussian 16, Revision A.03,
 M. J. Frisch, G. W. Trucks, H. B. Schlegel, G. E. Scuseria, 
 M. A. Robb, J. R. Cheeseman, G. Scalmani, V. Barone, 
 G. A. Petersson, H. Nakatsuji, X. Li, M. Caricato, A. V. Marenich, 
 J. Bloino, B. G. Janesko, R. Gomperts, B. Mennucci, H. P. Hratchian, 
 J. V. Ortiz, A. F. Izmaylov, J. L. Sonnenberg, D. Williams-Young, 
 F. Ding, F. Lipparini, F. Egidi, J. Goings, B. Peng, A. Petrone, 
 T. Henderson, D. Ranasinghe, V. G. Zakrzewski, J. Gao, N. Rega, 
 G. Zheng, W. Liang, M. Hada, M. Ehara, K. Toyota, R. Fukuda, 
 J. Hasegawa, M. Ishida, T. Nakajima, Y. Honda, O. Kitao, H. Nakai, 
 T. Vreven, K. Throssell, J. A. Montgomery, Jr., J. E. Peralta, 
 F. Ogliaro, M. J. Bearpark, J. J. Heyd, E. N. Brothers, K. N. Kudin, 
 V. N. Staroverov, T. A. Keith, R. Kobayashi, J. Normand, 
 K. Raghavachari, A. P. Rendell, J. C. Burant, S. S. Iyengar, 
 J. Tomasi, M. Cossi, J. M. Millam, M. Klene, C. Adamo, R. Cammi, 
 J. W. Ochterski, R. L. Martin, K. Morokuma, O. Farkas, 
 J. B. Foresman, and D. J. Fox, Gaussian, Inc., Wallingford CT, 2016.
 
 ******************************************
 Gaussian 16:  EM64L-G16RevA.03 25-Dec-2016
                24-Sep-2019 
 ******************************************
 %nprocshared=20
 Will use up to   20 processors via shared memory.
 %mem=5GB
 ----------------------------------------------------------------------
 #p m062x/cc-pVTZ opt=(calcfc,maxcycles=900,Tight) freq IOP(7/33=1,2/16
 =3) scf=(maxcycle=900)
 ----------------------------------------------------------------------
 1/6=900,7=10,10=4,18=20,19=15,26=3,38=1/1,3;
 2/9=110,12=2,16=3,17=6,18=5,40=1/2;
 3/5=16,6=1,11=2,25=1,30=1,71=2,74=-55,140=1/1,2,3;
 4//1;
 5/5=2,7=900,38=5/2;
 8/6=4,10=90,11=11/1;
 11/6=1,8=1,9=11,15=111,16=1/1,2,10;
 10/6=1,13=1/2;
 6/7=2,8=2,9=2,10=2,28=1/1;
 7/10=1,18=20,25=1,33=1/1,2,3,16;
 1/6=900,7=10,10=4,18=20,19=15,26=3/3(2);
 2/9=110,16=3/2;
 99//99;
 2/9=110,16=3/2;
 3/5=16,6=1,11=2,25=1,30=1,71=1,74=-55/1,2,3;
 4/5=5,16=3,69=1/1;
 5/5=2,7=900,38=5/2;
 7/33=1/1,2,3,16;
 1/6=900,7=10,18=20,19=15,26=3/3(-5);
 2/9=110,16=3/2;
 6/7=2,8=2,9=2,10=2,19=2,28=1/1;
 99/9=1/99;
 Leave Link    1 at Tue Sep 24 22:51:34 2019, MaxMem=   671088640 cpu:               5.2 elap:               2.6
 (Enter /shared/centos7/gaussian/g16/l101.exe)
 ------------------------------
 Gaussian input prepared by ASE
 ------------------------------
 Symbolic Z-matrix:
 Charge =  0 Multiplicity = 1
 O                     0.22547  -0.74346   1.08803 
 O                     2.12353   2.10794  -0.18435 
 C                    -1.18021  -0.86169   0.85688 
 C                     0.65393   0.55494   0.84277 
 C                     1.65116   0.83355   0.03724 
 H                    -1.63634   0.14633   0.63716 
 H                    -1.35237  -1.53016  -0.0343 
 H                    -1.66443  -1.30526   1.7271 
 H                     0.13299   1.32823   1.4041 
 H                     2.17309   0.0895   -0.52565 
 H                     1.5911    2.73019   0.41842 
 
 ITRead=  0  0  0  0  0  0  0  0  0  0  0
 MicOpt= -1 -1 -1 -1 -1 -1 -1 -1 -1 -1 -1
 NAtoms=     11 NQM=       11 NQMF=       0 NMMI=      0 NMMIF=      0
                NMic=       0 NMicF=      0.
                    Isotopes and Nuclear Properties:
 (Nuclear quadrupole moments (NQMom) in fm**2, nuclear magnetic moments (NMagM)
  in nuclear magnetons)

  Atom         1           2           3           4           5           6           7           8           9          10
 IAtWgt=          16          16          12          12          12           1           1           1           1           1
 AtmWgt=  15.9949146  15.9949146  12.0000000  12.0000000  12.0000000   1.0078250   1.0078250   1.0078250   1.0078250   1.0078250
 NucSpn=           0           0           0           0           0           1           1           1           1           1
 AtZEff=  -0.0000000  -0.0000000  -0.0000000  -0.0000000  -0.0000000  -0.0000000  -0.0000000  -0.0000000  -0.0000000  -0.0000000
 NQMom=    0.0000000   0.0000000   0.0000000   0.0000000   0.0000000   0.0000000   0.0000000   0.0000000   0.0000000   0.0000000
 NMagM=    0.0000000   0.0000000   0.0000000   0.0000000   0.0000000   2.7928460   2.7928460   2.7928460   2.7928460   2.7928460
 AtZNuc=   8.0000000   8.0000000   6.0000000   6.0000000   6.0000000   1.0000000   1.0000000   1.0000000   1.0000000   1.0000000

  Atom        11
 IAtWgt=           1
 AtmWgt=   1.0078250
 NucSpn=           1
 AtZEff=  -0.0000000
 NQMom=    0.0000000
 NMagM=    2.7928460
 AtZNuc=   1.0000000
 Leave Link  101 at Tue Sep 24 22:51:35 2019, MaxMem=   671088640 cpu:               2.4 elap:               1.2
 (Enter /shared/centos7/gaussian/g16/l103.exe)

 GradGradGradGradGradGradGradGradGradGradGradGradGradGradGradGradGradGrad
 Berny optimization.
 Initialization pass.
                           ----------------------------
                           !    Initial Parameters    !
                           ! (Angstroms and Degrees)  !
 --------------------------                            --------------------------
 ! Name  Definition              Value          Derivative Info.                !
 --------------------------------------------------------------------------------
 ! R1    R(1,3)                  1.4295         calculate D2E/DX2 analytically  !
 ! R2    R(1,4)                  1.3891         calculate D2E/DX2 analytically  !
 ! R3    R(2,5)                  1.3771         calculate D2E/DX2 analytically  !
 ! R4    R(2,11)                 1.0169         calculate D2E/DX2 analytically  !
 ! R5    R(3,6)                  1.128          calculate D2E/DX2 analytically  !
 ! R6    R(3,7)                  1.1272         calculate D2E/DX2 analytically  !
 ! R7    R(3,8)                  1.0902         calculate D2E/DX2 analytically  !
 ! R8    R(4,5)                  1.3119         calculate D2E/DX2 analytically  !
 ! R9    R(4,9)                  1.0883         calculate D2E/DX2 analytically  !
 ! R10   R(5,10)                 1.0691         calculate D2E/DX2 analytically  !
 ! A1    A(3,1,4)              110.6141         calculate D2E/DX2 analytically  !
 ! A2    A(5,2,11)             106.9364         calculate D2E/DX2 analytically  !
 ! A3    A(1,3,6)              110.8068         calculate D2E/DX2 analytically  !
 ! A4    A(1,3,7)              109.0909         calculate D2E/DX2 analytically  !
 ! A5    A(1,3,8)              109.9588         calculate D2E/DX2 analytically  !
 ! A6    A(6,3,7)              108.311          calculate D2E/DX2 analytically  !
 ! A7    A(6,3,8)              109.845          calculate D2E/DX2 analytically  !
 ! A8    A(7,3,8)              108.7813         calculate D2E/DX2 analytically  !
 ! A9    A(1,4,5)              122.7784         calculate D2E/DX2 analytically  !
 ! A10   A(1,4,9)              115.1783         calculate D2E/DX2 analytically  !
 ! A11   A(5,4,9)              121.9835         calculate D2E/DX2 analytically  !
 ! A12   A(2,5,4)              123.7866         calculate D2E/DX2 analytically  !
 ! A13   A(2,5,10)             113.0728         calculate D2E/DX2 analytically  !
 ! A14   A(4,5,10)             123.1363         calculate D2E/DX2 analytically  !
 ! D1    D(4,1,3,6)             -6.0805         calculate D2E/DX2 analytically  !
 ! D2    D(4,1,3,7)            113.0745         calculate D2E/DX2 analytically  !
 ! D3    D(4,1,3,8)           -127.7061         calculate D2E/DX2 analytically  !
 ! D4    D(3,1,4,5)           -127.1454         calculate D2E/DX2 analytically  !
 ! D5    D(3,1,4,9)             55.6192         calculate D2E/DX2 analytically  !
 ! D6    D(11,2,5,4)             2.8938         calculate D2E/DX2 analytically  !
 ! D7    D(11,2,5,10)         -177.8434         calculate D2E/DX2 analytically  !
 ! D8    D(1,4,5,2)           -177.6086         calculate D2E/DX2 analytically  !
 ! D9    D(1,4,5,10)             3.2014         calculate D2E/DX2 analytically  !
 ! D10   D(9,4,5,2)             -0.5584         calculate D2E/DX2 analytically  !
 ! D11   D(9,4,5,10)          -179.7485         calculate D2E/DX2 analytically  !
 --------------------------------------------------------------------------------
 Trust Radius=3.00D-01 FncErr=1.00D-07 GrdErr=1.00D-06 EigMax=2.50D+02 EigMin=1.00D-04
 Number of steps in this run=    100 maximum allowed number of steps=    100.
 GradGradGradGradGradGradGradGradGradGradGradGradGradGradGradGradGradGrad

 Leave Link  103 at Tue Sep 24 22:51:36 2019, MaxMem=   671088640 cpu:               1.4 elap:               0.7
 (Enter /shared/centos7/gaussian/g16/l202.exe)
                          Input orientation:                          
 ---------------------------------------------------------------------
 Center     Atomic      Atomic             Coordinates (Angstroms)
 Number     Number       Type             X           Y           Z
 ---------------------------------------------------------------------
      1          8           0        0.225474   -0.743461    1.088034
      2          8           0        2.123529    2.107936   -0.184350
      3          6           0       -1.180214   -0.861690    0.856883
      4          6           0        0.653931    0.554944    0.842773
      5          6           0        1.651160    0.833546    0.037238
      6          1           0       -1.636336    0.146330    0.637162
      7          1           0       -1.352368   -1.530156   -0.034301
      8          1           0       -1.664425   -1.305257    1.727100
      9          1           0        0.132992    1.328226    1.404098
     10          1           0        2.173092    0.089495   -0.525655
     11          1           0        1.591096    2.730186    0.418423
 ---------------------------------------------------------------------
                    Distance matrix (angstroms):
                    1          2          3          4          5
     1  O    0.000000
     2  O    3.654044   0.000000
     3  C    1.429464   4.562626   0.000000
     4  C    1.389094   2.372021   2.317572   0.000000
     5  C    2.371435   1.377063   3.400341   1.311858   0.000000
     6  H    2.112191   4.319648   1.128020   2.335501   3.411716
     7  H    2.090003   5.033894   1.127250   3.023597   3.822746
     8  H    2.072617   5.445376   1.090179   3.101154   4.292228
     9  H    2.097698   2.663335   2.611453   1.088314   2.101868
    10  H    2.662897   2.047693   3.749777   2.096923   1.069052
    11  H    3.792034   1.016866   4.557848   2.406248   1.935498
                    6          7          8          9         10
     6  H    0.000000
     7  H    1.828143   0.000000
     8  H    1.815450   1.802911   0.000000
     9  H    2.261767   3.527837   3.204727   0.000000
    10  H    3.983355   3.910700   4.663344   3.069268   0.000000
    11  H    4.140105   5.198024   5.347509   2.250137   2.864132
                   11
    11  H    0.000000
 Stoichiometry    C3H6O2
 Framework group  C1[X(C3H6O2)]
 Deg. of freedom    27
 Full point group                 C1      NOp   1
 Largest Abelian subgroup         C1      NOp   1
 Largest concise Abelian subgroup C1      NOp   1
                         Standard orientation:                         
 ---------------------------------------------------------------------
 Center     Atomic      Atomic             Coordinates (Angstroms)
 Number     Number       Type             X           Y           Z
 ---------------------------------------------------------------------
      1          8           0        1.170676   -0.488523   -0.369514
      2          8           0       -2.381650    0.191735    0.150356
      3          6           0        2.177751    0.271933    0.301956
      4          6           0       -0.054904    0.162623   -0.309958
      5          6           0       -1.147216   -0.418109    0.126593
      6          1           0        1.773084    1.273100    0.628053
      7          1           0        2.513738   -0.290146    1.219492
      8          1           0        3.035570    0.415748   -0.355276
      9          1           0       -0.057940    1.179998   -0.696437
     10          1           0       -1.164677   -1.414564    0.513434
     11          1           0       -2.265760    1.111488   -0.267543
 ---------------------------------------------------------------------
 Rotational constants (GHZ):          23.0264349           2.3174015           2.2448320
 Leave Link  202 at Tue Sep 24 22:51:38 2019, MaxMem=   671088640 cpu:               3.5 elap:               1.8
 (Enter /shared/centos7/gaussian/g16/l301.exe)
 Standard basis: CC-pVTZ (5D, 7F)
 Ernie: Thresh=  0.10000D-02 Tol=  0.10000D-05 Strict=F.
 Ernie:  15 primitive shells out of 178 were deleted.
 There are   265 symmetry adapted cartesian basis functions of A   symmetry.
 There are   234 symmetry adapted basis functions of A   symmetry.
   234 basis functions,   362 primitive gaussians,   265 cartesian basis functions
    20 alpha electrons       20 beta electrons
       nuclear repulsion energy       172.1501849396 Hartrees.
 IExCor= 4336 DFT=T Ex+Corr=M062X ExCW=0 ScaHFX=  0.540000
 ScaDFX=  1.000000  1.000000  1.000000  1.000000 ScalE2=  1.000000  1.000000
 IRadAn=      5 IRanWt=     -1 IRanGd=            0 ICorTp=0 IEmpDi=  4
 NAtoms=   11 NActive=   11 NUniq=   11 SFac= 1.00D+00 NAtFMM=   60 NAOKFM=F Big=F
 Integral buffers will be    131072 words long.
 Raffenetti 2 integral format.
 Two-electron integral symmetry is turned on.
 Leave Link  301 at Tue Sep 24 22:51:39 2019, MaxMem=   671088640 cpu:               1.6 elap:               0.8
 (Enter /shared/centos7/gaussian/g16/l302.exe)
 NPDir=0 NMtPBC=     1 NCelOv=     1 NCel=       1 NClECP=     1 NCelD=      1
         NCelK=      1 NCelE2=     1 NClLst=     1 CellRange=     0.0.
 One-electron integrals computed using PRISM.
 One-electron integral symmetry used in STVInt
 NBasis=   234 RedAO= T EigKep=  3.26D-04  NBF=   234
 NBsUse=   234 1.00D-06 EigRej= -1.00D+00 NBFU=   234
 Precomputing XC quadrature grid using
 IXCGrd= 4 IRadAn=           5 IRanWt=          -1 IRanGd=           0 AccXCQ= 0.00D+00.
 Generated NRdTot=       0 NPtTot=           0 NUsed=           0 NTot=          32
 NSgBfM=   265   265   265   265   265 MxSgAt=    11 MxSgA2=    11.
 Leave Link  302 at Tue Sep 24 22:52:29 2019, MaxMem=   671088640 cpu:             100.9 elap:              50.5
 (Enter /shared/centos7/gaussian/g16/l303.exe)
 DipDrv:  MaxL=1.
 Leave Link  303 at Tue Sep 24 22:52:33 2019, MaxMem=   671088640 cpu:               7.5 elap:               3.8
 (Enter /shared/centos7/gaussian/g16/l401.exe)
 ExpMin= 1.03D-01 ExpMax= 1.53D+04 ExpMxC= 5.22D+02 IAcc=3 IRadAn=         5 AccDes= 0.00D+00
 Harris functional with IExCor= 1009 and IRadAn=       5 diagonalized for initial guess.
 HarFok:  IExCor= 1009 AccDes= 0.00D+00 IRadAn=         5 IDoV= 1 UseB2=F ITyADJ=14
 ICtDFT=  3500011 ScaDFX=  1.000000  1.000000  1.000000  1.000000
 FoFCou: FMM=F IPFlag=           0 FMFlag=      100000 FMFlg1=           0
         NFxFlg=           0 DoJE=T BraDBF=F KetDBF=T FulRan=T
         wScrn=  0.000000 ICntrl=       500 IOpCl=  0 I1Cent=   200000004 NGrid=           0
         NMat0=    1 NMatS0=      1 NMatT0=    0 NMatD0=    1 NMtDS0=    0 NMtDT0=    0
 Petite list used in FoFCou.
 Harris En= -268.196333614895    
 JPrj=0 DoOrth=F DoCkMO=F.
 Leave Link  401 at Tue Sep 24 22:52:58 2019, MaxMem=   671088640 cpu:              50.1 elap:              25.1
 (Enter /shared/centos7/gaussian/g16/l502.exe)
 Keep R1 ints in memory in canonical form, NReq=399924305.
 FoFCou: FMM=F IPFlag=           0 FMFlag=           0 FMFlg1=           0
         NFxFlg=           0 DoJE=F BraDBF=F KetDBF=F FulRan=T
         wScrn=  0.000000 ICntrl=       600 IOpCl=  0 I1Cent=           0 NGrid=           0
         NMat0=    1 NMatS0=  27495 NMatT0=    0 NMatD0=    1 NMtDS0=    0 NMtDT0=    0
 Symmetry not used in FoFCou.
 Two-electron integral symmetry not used.
 Closed shell SCF:
 Using DIIS extrapolation, IDIIS=  1040.
 NGot=   671088640 LenX=   292939207 LenY=   292868541
 Requested convergence on RMS density matrix=1.00D-08 within 900 cycles.
 Requested convergence on MAX density matrix=1.00D-06.
 Requested convergence on             energy=1.00D-06.
 No special actions if energy rises.
 Integral accuracy reduced to 1.0D-05 until final iterations.

 Cycle   1  Pass 0  IDiag  1:
 E= -268.182886063217    
 DIIS: error= 1.86D-02 at cycle   1 NSaved=   1.
 NSaved= 1 IEnMin= 1 EnMin= -268.182886063217     IErMin= 1 ErrMin= 1.86D-02
 ErrMax= 1.86D-02  0.00D+00 EMaxC= 1.00D-01 BMatC= 1.72D-01 BMatP= 1.72D-01
 IDIUse=3 WtCom= 8.14D-01 WtEn= 1.86D-01
 Coeff-Com:  0.100D+01
 Coeff-En:   0.100D+01
 Coeff:      0.100D+01
 Gap=     0.353 Goal=   None    Shift=    0.000
 GapD=    0.353 DampG=1.000 DampE=0.500 DampFc=0.5000 IDamp=-1.
 Damping current iteration by 5.00D-01
 RMSDP=2.09D-03 MaxDP=5.33D-02              OVMax= 1.11D-01

 Cycle   2  Pass 0  IDiag  1:
 E= -268.248409796333     Delta-E=       -0.065523733116 Rises=F Damp=T
 DIIS: error= 5.79D-03 at cycle   2 NSaved=   2.
 NSaved= 2 IEnMin= 2 EnMin= -268.248409796333     IErMin= 2 ErrMin= 5.79D-03
 ErrMax= 5.79D-03  0.00D+00 EMaxC= 1.00D-01 BMatC= 1.63D-02 BMatP= 1.72D-01
 IDIUse=3 WtCom= 9.42D-01 WtEn= 5.79D-02
 Coeff-Com: -0.176D+00 0.118D+01
 Coeff-En:   0.000D+00 0.100D+01
 Coeff:     -0.166D+00 0.117D+01
 Gap=     0.338 Goal=   None    Shift=    0.000
 RMSDP=3.92D-04 MaxDP=9.37D-03 DE=-6.55D-02 OVMax= 5.08D-02

 Cycle   3  Pass 0  IDiag  1:
 E= -268.305617202908     Delta-E=       -0.057207406574 Rises=F Damp=F
 DIIS: error= 2.20D-03 at cycle   3 NSaved=   3.
 NSaved= 3 IEnMin= 3 EnMin= -268.305617202908     IErMin= 3 ErrMin= 2.20D-03
 ErrMax= 2.20D-03  0.00D+00 EMaxC= 1.00D-01 BMatC= 3.44D-03 BMatP= 1.63D-02
 IDIUse=3 WtCom= 9.78D-01 WtEn= 2.20D-02
 Coeff-Com: -0.114D+00 0.378D+00 0.736D+00
 Coeff-En:   0.000D+00 0.000D+00 0.100D+01
 Coeff:     -0.111D+00 0.369D+00 0.742D+00
 Gap=     0.340 Goal=   None    Shift=    0.000
 RMSDP=1.55D-04 MaxDP=5.00D-03 DE=-5.72D-02 OVMax= 1.31D-02

 Cycle   4  Pass 0  IDiag  1:
 E= -268.307222587646     Delta-E=       -0.001605384739 Rises=F Damp=F
 DIIS: error= 1.14D-03 at cycle   4 NSaved=   4.
 NSaved= 4 IEnMin= 4 EnMin= -268.307222587646     IErMin= 4 ErrMin= 1.14D-03
 ErrMax= 1.14D-03  0.00D+00 EMaxC= 1.00D-01 BMatC= 8.19D-04 BMatP= 3.44D-03
 IDIUse=3 WtCom= 9.89D-01 WtEn= 1.14D-02
 Coeff-Com: -0.368D-01 0.907D-01 0.375D+00 0.571D+00
 Coeff-En:   0.000D+00 0.000D+00 0.189D+00 0.811D+00
 Coeff:     -0.364D-01 0.897D-01 0.373D+00 0.574D+00
 Gap=     0.335 Goal=   None    Shift=    0.000
 RMSDP=6.36D-05 MaxDP=2.02D-03 DE=-1.61D-03 OVMax= 6.64D-03

 Cycle   5  Pass 0  IDiag  1:
 E= -268.307835868944     Delta-E=       -0.000613281297 Rises=F Damp=F
 DIIS: error= 1.52D-04 at cycle   5 NSaved=   5.
 NSaved= 5 IEnMin= 5 EnMin= -268.307835868944     IErMin= 5 ErrMin= 1.52D-04
 ErrMax= 1.52D-04  0.00D+00 EMaxC= 1.00D-01 BMatC= 1.15D-05 BMatP= 8.19D-04
 IDIUse=3 WtCom= 9.98D-01 WtEn= 1.52D-03
 Coeff-Com: -0.540D-02 0.102D-01 0.776D-01 0.177D+00 0.741D+00
 Coeff-En:   0.000D+00 0.000D+00 0.000D+00 0.000D+00 0.100D+01
 Coeff:     -0.539D-02 0.102D-01 0.775D-01 0.177D+00 0.741D+00
 Gap=     0.336 Goal=   None    Shift=    0.000
 RMSDP=1.20D-05 MaxDP=3.77D-04 DE=-6.13D-04 OVMax= 1.48D-03

 Cycle   6  Pass 0  IDiag  1:
 E= -268.307844557672     Delta-E=       -0.000008688728 Rises=F Damp=F
 DIIS: error= 6.17D-05 at cycle   6 NSaved=   6.
 NSaved= 6 IEnMin= 6 EnMin= -268.307844557672     IErMin= 6 ErrMin= 6.17D-05
 ErrMax= 6.17D-05  0.00D+00 EMaxC= 1.00D-01 BMatC= 1.81D-06 BMatP= 1.15D-05
 IDIUse=1 WtCom= 1.00D+00 WtEn= 0.00D+00
 Coeff-Com: -0.722D-03 0.361D-03 0.192D-01 0.610D-01 0.354D+00 0.566D+00
 Coeff:     -0.722D-03 0.361D-03 0.192D-01 0.610D-01 0.354D+00 0.566D+00
 Gap=     0.336 Goal=   None    Shift=    0.000
 RMSDP=4.03D-06 MaxDP=1.47D-04 DE=-8.69D-06 OVMax= 6.24D-04

 Initial convergence to 1.0D-05 achieved.  Increase integral accuracy.
 Cycle   7  Pass 1  IDiag  1:
 E= -268.307872281042     Delta-E=       -0.000027723370 Rises=F Damp=F
 DIIS: error= 1.90D-05 at cycle   1 NSaved=   1.
 NSaved= 1 IEnMin= 1 EnMin= -268.307872281042     IErMin= 1 ErrMin= 1.90D-05
 ErrMax= 1.90D-05  0.00D+00 EMaxC= 1.00D-01 BMatC= 3.40D-07 BMatP= 3.40D-07
 IDIUse=1 WtCom= 1.00D+00 WtEn= 0.00D+00
 Coeff-Com:  0.100D+01
 Coeff:      0.100D+01
 Gap=     0.336 Goal=   None    Shift=    0.000
 RMSDP=4.03D-06 MaxDP=1.47D-04 DE=-2.77D-05 OVMax= 3.03D-04

 Cycle   8  Pass 1  IDiag  1:
 E= -268.307872360538     Delta-E=       -0.000000079496 Rises=F Damp=F
 DIIS: error= 2.01D-05 at cycle   2 NSaved=   2.
 NSaved= 2 IEnMin= 2 EnMin= -268.307872360538     IErMin= 1 ErrMin= 1.90D-05
 ErrMax= 2.01D-05  0.00D+00 EMaxC= 1.00D-01 BMatC= 2.51D-07 BMatP= 3.40D-07
 IDIUse=1 WtCom= 1.00D+00 WtEn= 0.00D+00
 Coeff-Com:  0.450D+00 0.550D+00
 Coeff:      0.450D+00 0.550D+00
 Gap=     0.336 Goal=   None    Shift=    0.000
 RMSDP=1.60D-06 MaxDP=5.30D-05 DE=-7.95D-08 OVMax= 2.38D-04

 Cycle   9  Pass 1  IDiag  1:
 E= -268.307872540099     Delta-E=       -0.000000179560 Rises=F Damp=F
 DIIS: error= 6.40D-06 at cycle   3 NSaved=   3.
 NSaved= 3 IEnMin= 3 EnMin= -268.307872540099     IErMin= 3 ErrMin= 6.40D-06
 ErrMax= 6.40D-06  0.00D+00 EMaxC= 1.00D-01 BMatC= 2.87D-08 BMatP= 2.51D-07
 IDIUse=1 WtCom= 1.00D+00 WtEn= 0.00D+00
 Coeff-Com: -0.381D-01 0.238D+00 0.800D+00
 Coeff:     -0.381D-01 0.238D+00 0.800D+00
 Gap=     0.336 Goal=   None    Shift=    0.000
 RMSDP=5.23D-07 MaxDP=1.18D-05 DE=-1.80D-07 OVMax= 5.69D-05

 Cycle  10  Pass 1  IDiag  1:
 E= -268.307872564152     Delta-E=       -0.000000024054 Rises=F Damp=F
 DIIS: error= 9.02D-07 at cycle   4 NSaved=   4.
 NSaved= 4 IEnMin= 4 EnMin= -268.307872564152     IErMin= 4 ErrMin= 9.02D-07
 ErrMax= 9.02D-07  0.00D+00 EMaxC= 1.00D-01 BMatC= 3.90D-10 BMatP= 2.87D-08
 IDIUse=1 WtCom= 1.00D+00 WtEn= 0.00D+00
 Coeff-Com: -0.188D-01 0.537D-01 0.217D+00 0.748D+00
 Coeff:     -0.188D-01 0.537D-01 0.217D+00 0.748D+00
 Gap=     0.336 Goal=   None    Shift=    0.000
 RMSDP=7.41D-08 MaxDP=2.04D-06 DE=-2.41D-08 OVMax= 8.74D-06

 Cycle  11  Pass 1  IDiag  1:
 E= -268.307872564502     Delta-E=       -0.000000000350 Rises=F Damp=F
 DIIS: error= 5.01D-07 at cycle   5 NSaved=   5.
 NSaved= 5 IEnMin= 5 EnMin= -268.307872564502     IErMin= 5 ErrMin= 5.01D-07
 ErrMax= 5.01D-07  0.00D+00 EMaxC= 1.00D-01 BMatC= 1.05D-10 BMatP= 3.90D-10
 IDIUse=1 WtCom= 1.00D+00 WtEn= 0.00D+00
 Coeff-Com: -0.235D-02-0.145D-01-0.319D-01 0.310D+00 0.739D+00
 Coeff:     -0.235D-02-0.145D-01-0.319D-01 0.310D+00 0.739D+00
 Gap=     0.336 Goal=   None    Shift=    0.000
 RMSDP=3.99D-08 MaxDP=9.55D-07 DE=-3.50D-10 OVMax= 3.05D-06

 Cycle  12  Pass 1  IDiag  1:
 E= -268.307872564592     Delta-E=       -0.000000000090 Rises=F Damp=F
 DIIS: error= 1.16D-07 at cycle   6 NSaved=   6.
 NSaved= 6 IEnMin= 6 EnMin= -268.307872564592     IErMin= 6 ErrMin= 1.16D-07
 ErrMax= 1.16D-07  0.00D+00 EMaxC= 1.00D-01 BMatC= 9.68D-12 BMatP= 1.05D-10
 IDIUse=1 WtCom= 1.00D+00 WtEn= 0.00D+00
 Coeff-Com:  0.181D-02-0.122D-01-0.411D-01 0.180D-01 0.281D+00 0.752D+00
 Coeff:      0.181D-02-0.122D-01-0.411D-01 0.180D-01 0.281D+00 0.752D+00
 Gap=     0.336 Goal=   None    Shift=    0.000
 RMSDP=1.31D-08 MaxDP=3.12D-07 DE=-9.04D-11 OVMax= 1.25D-06

 Cycle  13  Pass 1  IDiag  1:
 E= -268.307872564604     Delta-E=       -0.000000000012 Rises=F Damp=F
 DIIS: error= 2.11D-08 at cycle   7 NSaved=   7.
 NSaved= 7 IEnMin= 7 EnMin= -268.307872564604     IErMin= 7 ErrMin= 2.11D-08
 ErrMax= 2.11D-08  0.00D+00 EMaxC= 1.00D-01 BMatC= 4.22D-13 BMatP= 9.68D-12
 IDIUse=1 WtCom= 1.00D+00 WtEn= 0.00D+00
 Coeff-Com:  0.671D-03-0.317D-02-0.117D-01-0.910D-02 0.546D-01 0.227D+00
 Coeff-Com:  0.742D+00
 Coeff:      0.671D-03-0.317D-02-0.117D-01-0.910D-02 0.546D-01 0.227D+00
 Coeff:      0.742D+00
 Gap=     0.336 Goal=   None    Shift=    0.000
 RMSDP=2.90D-09 MaxDP=6.75D-08 DE=-1.22D-11 OVMax= 1.80D-07

 SCF Done:  E(RM062X) =  -268.307872565     A.U. after   13 cycles
            NFock= 13  Conv=0.29D-08     -V/T= 2.0061
 KE= 2.666850759340D+02 PE=-9.726225300630D+02 EE= 2.654793966248D+02
 Leave Link  502 at Tue Sep 24 22:57:30 2019, MaxMem=   671088640 cpu:             536.4 elap:             271.7
 (Enter /shared/centos7/gaussian/g16/l801.exe)
 DoSCS=F DFT=T ScalE2(SS,OS)=  1.000000  1.000000
 Range of M.O.s used for correlation:     1   234
 NBasis=   234 NAE=    20 NBE=    20 NFC=     0 NFV=     0
 NROrb=    234 NOA=    20 NOB=    20 NVA=   214 NVB=   214

 **** Warning!!: The largest alpha MO coefficient is  0.11472714D+02

 Leave Link  801 at Tue Sep 24 22:57:30 2019, MaxMem=   671088640 cpu:               1.4 elap:               0.7
 (Enter /shared/centos7/gaussian/g16/l1101.exe)
 Using compressed storage, NAtomX=    11.
 Will process     12 centers per pass.
 Leave Link 1101 at Tue Sep 24 22:57:52 2019, MaxMem=   671088640 cpu:              43.2 elap:              21.6
 (Enter /shared/centos7/gaussian/g16/l1102.exe)
 Symmetrizing basis deriv contribution to polar:
 IMax=3 JMax=2 DiffMx= 0.00D+00
 Leave Link 1102 at Tue Sep 24 22:57:54 2019, MaxMem=   671088640 cpu:               4.3 elap:               2.2
 (Enter /shared/centos7/gaussian/g16/l1110.exe)
 Forming Gx(P) for the SCF density, NAtomX=    11.
 Integral derivatives from FoFJK, PRISM(SPDF).
 Do as many integral derivatives as possible in FoFJK.
 G2DrvN: MDV=     671087712.
 G2DrvN: will do    12 centers at a time, making    1 passes.
 Calling FoFCou, ICntrl=  3107 FMM=F I1Cent=   0 AccDes= 0.00D+00.
 FoFJK:  IHMeth= 1 ICntrl=    3107 DoSepK=F KAlg= 0 I1Cent=           0 FoldK=F
 IRaf=         0 NMat=       1 IRICut=       1 DoRegI=T DoRafI=F ISym2E= 0 IDoP0=0 IntGTp=1.
 FoFCou: FMM=F IPFlag=           0 FMFlag=      100000 FMFlg1=           0
         NFxFlg=           0 DoJE=F BraDBF=F KetDBF=F FulRan=T
         wScrn=  0.000000 ICntrl=      3107 IOpCl=  0 I1Cent=           0 NGrid=           0
         NMat0=    1 NMatS0=      1 NMatT0=    0 NMatD0=    1 NMtDS0=    0 NMtDT0=    0
 Symmetry not used in FoFCou.
 End of G2Drv F.D. properties file   721 does not exist.
 End of G2Drv F.D. properties file   722 does not exist.
 End of G2Drv F.D. properties file   788 does not exist.
 Leave Link 1110 at Tue Sep 24 23:02:52 2019, MaxMem=   671088640 cpu:             594.9 elap:             297.5
 (Enter /shared/centos7/gaussian/g16/l1002.exe)
 Minotr:  Closed shell wavefunction.
          IDoAtm=11111111111
          Direct CPHF calculation.
          Differentiating once with respect to nuclear coordinates.
          Requested convergence is 1.0D-08 RMS, and 1.0D-07 maximum.
          Secondary convergence is 1.0D-12 RMS, and 1.0D-12 maximum.
          NewPWx=T KeepS1=F KeepF1=F KeepIn=T MapXYZ=F SortEE=F KeepMc=T.
         3279 words used for storage of precomputed grid.
 Keep R1 ints in memory in canonical form, NReq=399865278.
 FoFCou: FMM=F IPFlag=           0 FMFlag=           0 FMFlg1=           0
         NFxFlg=           0 DoJE=F BraDBF=F KetDBF=F FulRan=T
         wScrn=  0.000000 ICntrl=       600 IOpCl=  0 I1Cent=           0 NGrid=           0
         NMat0=    1 NMatS0=  27495 NMatT0=    0 NMatD0=    1 NMtDS0=    0 NMtDT0=    0
 Symmetry not used in FoFCou.
 Two-electron integral symmetry not used.
          MDV=     671088640 using IRadAn=       1.
          Solving linear equations simultaneously, MaxMat=       0.
          There are    36 degrees of freedom in the 1st order CPHF.  IDoFFX=6 NUNeed=     0.
     30 vectors produced by pass  0 Test12= 1.19D-14 2.78D-09 XBig12= 6.70D-02 6.99D-02.
 AX will form    30 AO Fock derivatives at one time.
     30 vectors produced by pass  1 Test12= 1.19D-14 2.78D-09 XBig12= 9.22D-03 2.59D-02.
     30 vectors produced by pass  2 Test12= 1.19D-14 2.78D-09 XBig12= 3.58D-04 3.73D-03.
     30 vectors produced by pass  3 Test12= 1.19D-14 2.78D-09 XBig12= 3.83D-06 3.17D-04.
     30 vectors produced by pass  4 Test12= 1.19D-14 2.78D-09 XBig12= 3.12D-08 3.73D-05.
     30 vectors produced by pass  5 Test12= 1.19D-14 2.78D-09 XBig12= 1.51D-10 1.96D-06.
     18 vectors produced by pass  6 Test12= 1.19D-14 2.78D-09 XBig12= 7.25D-13 1.51D-07.
      4 vectors produced by pass  7 Test12= 1.19D-14 2.78D-09 XBig12= 2.76D-15 6.27D-09.
 InvSVY:  IOpt=1 It=  1 EMax= 1.55D-15
 Solved reduced A of dimension   202 with    30 vectors.
 End of Minotr F.D. properties file   721 does not exist.
 End of Minotr F.D. properties file   722 does not exist.
 End of Minotr F.D. properties file   788 does not exist.
 Leave Link 1002 at Tue Sep 24 23:10:13 2019, MaxMem=   671088640 cpu:             883.2 elap:             441.7
 (Enter /shared/centos7/gaussian/g16/l601.exe)
 Copying SCF densities to generalized density rwf, IOpCl= 0 IROHF=0.

 **********************************************************************

            Population analysis using the SCF density.

 **********************************************************************

 Orbital symmetries:
       Occupied  (A) (A) (A) (A) (A) (A) (A) (A) (A) (A) (A) (A)
                 (A) (A) (A) (A) (A) (A) (A) (A)
       Virtual   (A) (A) (A) (A) (A) (A) (A) (A) (A) (A) (A) (A)
                 (A) (A) (A) (A) (A) (A) (A) (A) (A) (A) (A) (A)
                 (A) (A) (A) (A) (A) (A) (A) (A) (A) (A) (A) (A)
                 (A) (A) (A) (A) (A) (A) (A) (A) (A) (A) (A) (A)
                 (A) (A) (A) (A) (A) (A) (A) (A) (A) (A) (A) (A)
                 (A) (A) (A) (A) (A) (A) (A) (A) (A) (A) (A) (A)
                 (A) (A) (A) (A) (A) (A) (A) (A) (A) (A) (A) (A)
                 (A) (A) (A) (A) (A) (A) (A) (A) (A) (A) (A) (A)
                 (A) (A) (A) (A) (A) (A) (A) (A) (A) (A) (A) (A)
                 (A) (A) (A) (A) (A) (A) (A) (A) (A) (A) (A) (A)
                 (A) (A) (A) (A) (A) (A) (A) (A) (A) (A) (A) (A)
                 (A) (A) (A) (A) (A) (A) (A) (A) (A) (A) (A) (A)
                 (A) (A) (A) (A) (A) (A) (A) (A) (A) (A) (A) (A)
                 (A) (A) (A) (A) (A) (A) (A) (A) (A) (A) (A) (A)
                 (A) (A) (A) (A) (A) (A) (A) (A) (A) (A) (A) (A)
                 (A) (A) (A) (A) (A) (A) (A) (A) (A) (A) (A) (A)
                 (A) (A) (A) (A) (A) (A) (A) (A) (A) (A) (A) (A)
                 (A) (A) (A) (A) (A) (A) (A) (A) (A) (A)
 The electronic state is 1-A.
 Alpha  occ. eigenvalues --  -19.65413 -19.64311 -10.59244 -10.58789 -10.57988
 Alpha  occ. eigenvalues --   -1.17433  -1.16372  -0.85709  -0.76894  -0.69214
 Alpha  occ. eigenvalues --   -0.60054  -0.58213  -0.53610  -0.51283  -0.48514
 Alpha  occ. eigenvalues --   -0.47122  -0.44796  -0.41879  -0.36759  -0.27882
 Alpha virt. eigenvalues --    0.05698   0.06850   0.08423   0.10601   0.12703
 Alpha virt. eigenvalues --    0.14262   0.14361   0.16089   0.23504   0.26340
 Alpha virt. eigenvalues --    0.27138   0.29375   0.31661   0.34698   0.37654
 Alpha virt. eigenvalues --    0.40281   0.41629   0.42870   0.43990   0.45494
 Alpha virt. eigenvalues --    0.47434   0.47724   0.48723   0.50109   0.53922
 Alpha virt. eigenvalues --    0.54991   0.55377   0.58117   0.59994   0.60902
 Alpha virt. eigenvalues --    0.64195   0.65450   0.71572   0.72473   0.75506
 Alpha virt. eigenvalues --    0.76550   0.78639   0.83213   0.84112   0.86554
 Alpha virt. eigenvalues --    0.88975   0.91504   0.96823   1.00027   1.01256
 Alpha virt. eigenvalues --    1.03163   1.06371   1.07469   1.08818   1.09460
 Alpha virt. eigenvalues --    1.14481   1.14820   1.17926   1.18937   1.21768
 Alpha virt. eigenvalues --    1.27380   1.29474   1.31014   1.31353   1.34840
 Alpha virt. eigenvalues --    1.35661   1.36654   1.40232   1.43621   1.45436
 Alpha virt. eigenvalues --    1.49537   1.51268   1.55711   1.74538   1.77460
 Alpha virt. eigenvalues --    1.83739   1.88634   1.94718   1.98602   1.99430
 Alpha virt. eigenvalues --    2.05583   2.09097   2.11947   2.12766   2.20550
 Alpha virt. eigenvalues --    2.21497   2.24399   2.29263   2.31790   2.36565
 Alpha virt. eigenvalues --    2.38064   2.46483   2.48804   2.53081   2.55930
 Alpha virt. eigenvalues --    2.63326   2.64337   2.67278   2.73054   2.75685
 Alpha virt. eigenvalues --    2.78523   2.80340   2.82592   2.84801   2.85728
 Alpha virt. eigenvalues --    2.87429   2.90006   2.93058   2.94159   2.97065
 Alpha virt. eigenvalues --    2.98006   2.99981   3.01398   3.04138   3.05147
 Alpha virt. eigenvalues --    3.10203   3.12412   3.18540   3.20858   3.22826
 Alpha virt. eigenvalues --    3.24290   3.26284   3.27520   3.28361   3.29132
 Alpha virt. eigenvalues --    3.32343   3.33305   3.36767   3.39196   3.42150
 Alpha virt. eigenvalues --    3.42794   3.44490   3.51657   3.51816   3.52787
 Alpha virt. eigenvalues --    3.54715   3.59358   3.64521   3.67868   3.68988
 Alpha virt. eigenvalues --    3.70745   3.72524   3.74243   3.76365   3.80956
 Alpha virt. eigenvalues --    3.83276   3.85713   3.87425   3.89463   3.92932
 Alpha virt. eigenvalues --    3.96442   3.98179   3.98597   4.01116   4.06082
 Alpha virt. eigenvalues --    4.07410   4.13110   4.13936   4.20092   4.21306
 Alpha virt. eigenvalues --    4.23262   4.28324   4.32632   4.39209   4.47390
 Alpha virt. eigenvalues --    4.53502   4.55569   4.59556   4.62073   4.71076
 Alpha virt. eigenvalues --    4.77110   4.79151   4.81035   4.84858   4.85157
 Alpha virt. eigenvalues --    4.89573   4.95139   5.00582   5.00946   5.03302
 Alpha virt. eigenvalues --    5.06320   5.11271   5.16210   5.23875   5.26287
 Alpha virt. eigenvalues --    5.37096   5.39469   5.47971   5.53093   5.57673
 Alpha virt. eigenvalues --    5.65865   5.71810   5.73608   5.83326   5.86069
 Alpha virt. eigenvalues --    5.95847   6.09762   6.14150   6.26662   6.31141
 Alpha virt. eigenvalues --    6.40185   6.45165   6.58118   6.67266   6.71077
 Alpha virt. eigenvalues --    6.75246   6.76966   6.77605   6.97964   7.04435
 Alpha virt. eigenvalues --    7.11505   7.22528   7.25469   7.28121  10.34497
 Alpha virt. eigenvalues --   10.86242  11.63189  12.81393  13.96634
          Condensed to atoms (all electrons):
               1          2          3          4          5          6
     1  O    7.881450   0.002830   0.296259   0.313176  -0.056174  -0.044865
     2  O    0.002830   7.785257   0.000147  -0.079589   0.357441  -0.000196
     3  C    0.296259   0.000147   4.738951  -0.091406  -0.003495   0.381978
     4  C    0.313176  -0.079589  -0.091406   4.997331   0.594968  -0.005298
     5  C   -0.056174   0.357441  -0.003495   0.594968   4.823704   0.000082
     6  H   -0.044865  -0.000196   0.381978  -0.005298   0.000082   0.674212
     7  H   -0.041359  -0.000052   0.385375   0.009436   0.003712  -0.039254
     8  H   -0.033665   0.000015   0.406314  -0.000571  -0.000948  -0.041207
     9  H   -0.047401  -0.001356  -0.002940   0.405047  -0.083897   0.006484
    10  H    0.005175  -0.028975  -0.000220  -0.060434   0.400150   0.000567
    11  H    0.000008   0.325076   0.000065  -0.006465  -0.053356   0.000076
               7          8          9         10         11
     1  O   -0.041359  -0.033665  -0.047401   0.005175   0.000008
     2  O   -0.000052   0.000015  -0.001356  -0.028975   0.325076
     3  C    0.385375   0.406314  -0.002940  -0.000220   0.000065
     4  C    0.009436  -0.000571   0.405047  -0.060434  -0.006465
     5  C    0.003712  -0.000948  -0.083897   0.400150  -0.053356
     6  H   -0.039254  -0.041207   0.006484   0.000567   0.000076
     7  H    0.632097  -0.043596  -0.002355  -0.000182  -0.000011
     8  H   -0.043596   0.600790   0.002533   0.000006   0.000004
     9  H   -0.002355   0.002533   0.612201   0.005866   0.007271
    10  H   -0.000182   0.000006   0.005866   0.501835   0.007063
    11  H   -0.000011   0.000004   0.007271   0.007063   0.456459
 Mulliken charges:
               1
     1  O   -0.275433
     2  O   -0.360597
     3  C   -0.111028
     4  C   -0.076194
     5  C    0.017813
     6  H    0.067420
     7  H    0.096188
     8  H    0.110326
     9  H    0.098546
    10  H    0.169149
    11  H    0.263809
 Sum of Mulliken charges =  -0.00000
 Mulliken charges with hydrogens summed into heavy atoms:
               1
     1  O   -0.275433
     2  O   -0.096787
     3  C    0.162905
     4  C    0.022352
     5  C    0.186962
 APT charges:
               1
     1  O   -0.174416
     2  O   -0.385283
     3  C   -0.922712
     4  C   -0.367372
     5  C   -0.293489
     6  H    0.190243
     7  H    0.367627
     8  H    0.487587
     9  H    0.265752
    10  H    0.376611
    11  H    0.455454
 Sum of APT charges =  -0.00000
 APT charges with hydrogens summed into heavy atoms:
               1
     1  O   -0.174416
     2  O    0.070171
     3  C    0.122744
     4  C   -0.101620
     5  C    0.083121
 Electronic spatial extent (au):  <R**2>=            544.2297
 Charge=             -0.0000 electrons
 Dipole moment (field-independent basis, Debye):
    X=              0.9874    Y=              1.9808    Z=              0.2091  Tot=              2.2231
 Quadrupole moment (field-independent basis, Debye-Ang):
   XX=            -31.1991   YY=            -27.5176   ZZ=            -31.7497
   XY=             -0.4833   XZ=              2.5081   YZ=             -2.4099
 Traceless Quadrupole moment (field-independent basis, Debye-Ang):
   XX=             -1.0436   YY=              2.6379   ZZ=             -1.5942
   XY=             -0.4833   XZ=              2.5081   YZ=             -2.4099
 Octapole moment (field-independent basis, Debye-Ang**2):
  XXX=             16.6989  YYY=              1.8675  ZZZ=             -0.0903  XYY=             -9.0510
  XXY=              7.5140  XXZ=             -2.4012  XZZ=             -0.4873  YZZ=             -0.0862
  YYZ=             -0.0048  XYZ=              1.7810
 Hexadecapole moment (field-independent basis, Debye-Ang**3):
 XXXX=           -566.5303 YYYY=            -67.0947 ZZZZ=            -56.4538 XXXY=            -17.7111
 XXXZ=              7.2183 YYYX=             -8.4926 YYYZ=             -3.0302 ZZZX=             -1.4097
 ZZZY=             -1.5271 XXYY=            -92.1354 XXZZ=           -101.0554 YYZZ=            -20.7305
 XXYZ=             -7.2264 YYXZ=              0.8204 ZZXY=             -2.0075
 N-N= 1.721501849396D+02 E-N=-9.726225224627D+02  KE= 2.666850759340D+02
  Exact polarizability:   0.000   0.000   0.000   0.000   0.000   0.000
 Approx polarizability:  64.400   3.121  50.376  -3.813  -4.237  41.860
 No NMR shielding tensors so no spin-rotation constants.
 Leave Link  601 at Tue Sep 24 23:10:35 2019, MaxMem=   671088640 cpu:              43.0 elap:              21.5
 (Enter /shared/centos7/gaussian/g16/l701.exe)
 SCFChk:  SCF convergence  2.90D-09 required  1.00D-08
 ... and contract with generalized density number  0.
 Compute integral second derivatives.
 Entering OneElI...
 Calculate overlap and kinetic energy integrals
    NBasis = 265  MinDer = 2  MaxDer = 2
 Requested accuracy = 0.1000D-12
 PrmmSu-InSpLW:  IPartL=    0 NPrtUS=   20 NPrtUL=    1 DoSpLW=F IThBeg=    0 IThEnd=   19 NThAct=   20.
 PrsmSu:  NPrtUS=  20 ThrOK=T IAlg=1 NPAlg=1 LenDen=           0 ISkipM=0 DoSpLW=F IThBeg=    0 IThEnd=   19.
 Prism:   IPart=     0 DynPar=F LinDyn=F Incr=           1.
 PRISM was handed    33440517 working-precision words and  3716 shell-pairs
 PRISM was handed    33440517 working-precision words and  3716 shell-pairs
 PRISM was handed    33440517 working-precision words and  3716 shell-pairs
 PRISM was handed    33440517 working-precision words and  3716 shell-pairs
 PRISM was handed    33440517 working-precision words and  3716 shell-pairs
 PRISM was handed    33440517 working-precision words and  3716 shell-pairs
 PRISM was handed    33440517 working-precision words and  3716 shell-pairs
 PRISM was handed    33440517 working-precision words and  3716 shell-pairs
 PRISM was handed    33440517 working-precision words and  3716 shell-pairs
 PRISM was handed    33440517 working-precision words and  3716 shell-pairs
 PRISM was handed    33440517 working-precision words and  3716 shell-pairs
 PRISM was handed    33440517 working-precision words and  3716 shell-pairs
 PRISM was handed    33440517 working-precision words and  3716 shell-pairs
 IPart=  0 NShTot=         228 NBatch=          68 AvBLen=         3.4
 PRISM was handed    33440517 working-precision words and  3716 shell-pairs
 PRISM was handed    33440517 working-precision words and  3716 shell-pairs
 IPart=  8 NShTot=         181 NBatch=          28 AvBLen=         6.5
 PRISM was handed    33440517 working-precision words and  3716 shell-pairs
 IPart=  2 NShTot=         212 NBatch=          52 AvBLen=         4.1
 PRISM was handed    33440517 working-precision words and  3716 shell-pairs
 IPart=  5 NShTot=         195 NBatch=          40 AvBLen=         4.9
 PRISM was handed    33440517 working-precision words and  3716 shell-pairs
 PRISM was handed    33440517 working-precision words and  3716 shell-pairs
 IPart= 16 NShTot=         166 NBatch=          26 AvBLen=         6.4
 PRISM was handed    33440517 working-precision words and  3716 shell-pairs
 IPart= 18 NShTot=         165 NBatch=          25 AvBLen=         6.6
 IPart=  9 NShTot=         180 NBatch=          28 AvBLen=         6.4
 IPart= 15 NShTot=         168 NBatch=          26 AvBLen=         6.5
 IPart= 11 NShTot=         177 NBatch=          27 AvBLen=         6.6
 IPart= 13 NShTot=         175 NBatch=          27 AvBLen=         6.5
 IPart=  6 NShTot=         191 NBatch=          37 AvBLen=         5.2
 IPart= 10 NShTot=         178 NBatch=          28 AvBLen=         6.4
 IPart=  4 NShTot=         204 NBatch=          47 AvBLen=         4.3
 IPart= 19 NShTot=         162 NBatch=          25 AvBLen=         6.5
 IPart= 14 NShTot=         173 NBatch=          27 AvBLen=         6.4
 IPart=  7 NShTot=         187 NBatch=          34 AvBLen=         5.5
 IPart= 17 NShTot=         165 NBatch=          25 AvBLen=         6.6
 IPart= 12 NShTot=         177 NBatch=          27 AvBLen=         6.6
 IPart=  1 NShTot=         222 NBatch=          62 AvBLen=         3.6
 IPart=  3 NShTot=         210 NBatch=          50 AvBLen=         4.2
 PrSmSu:  NxtVal=             21.
 Entering OneElI...
 Calculate potential energy integrals
    NBasis = 265  MinDer = 2  MaxDer = 2
 Requested accuracy = 0.1000D-12
 PrmmSu-InSpLW:  IPartL=    0 NPrtUS=   20 NPrtUL=    1 DoSpLW=F IThBeg=    0 IThEnd=   19 NThAct=   20.
 PrsmSu:  NPrtUS=  20 ThrOK=T IAlg=1 NPAlg=1 LenDen=           0 ISkipM=0 DoSpLW=F IThBeg=    0 IThEnd=   19.
 Prism:   IPart=     0 DynPar=F LinDyn=F Incr=          19.
 PRISM was handed    33457644 working-precision words and  3470 shell-pairs
 PRISM was handed    33457644 working-precision words and  3470 shell-pairs
 PRISM was handed    33457644 working-precision words and  3470 shell-pairs
 PRISM was handed    33457644 working-precision words and  3470 shell-pairs
 PRISM was handed    33457644 working-precision words and  3470 shell-pairs
 PRISM was handed    33457644 working-precision words and  3470 shell-pairs
 PRISM was handed    33457644 working-precision words and  3470 shell-pairs
 PRISM was handed    33457644 working-precision words and  3470 shell-pairs
 PRISM was handed    33457644 working-precision words and  3470 shell-pairs
 PRISM was handed    33457644 working-precision words and  3470 shell-pairs
 PRISM was handed    33457644 working-precision words and  3470 shell-pairs
 PRISM was handed    33457644 working-precision words and  3470 shell-pairs
 PRISM was handed    33457644 working-precision words and  3470 shell-pairs
 PRISM was handed    33457644 working-precision words and  3470 shell-pairs
 PRISM was handed    33457644 working-precision words and  3470 shell-pairs
 PRISM was handed    33457644 working-precision words and  3470 shell-pairs
 PRISM was handed    33457644 working-precision words and  3470 shell-pairs
 PRISM was handed    33457644 working-precision words and  3470 shell-pairs
 PRISM was handed    33457644 working-precision words and  3470 shell-pairs
 PRISM was handed    33457644 working-precision words and  3470 shell-pairs
 IPart= 16 NShTot=        1760 NBatch=         160 AvBLen=        11.0
 IPart= 18 NShTot=        1727 NBatch=         157 AvBLen=        11.0
 IPart=  8 NShTot=        1892 NBatch=         172 AvBLen=        11.0
 IPart=  2 NShTot=        2178 NBatch=         198 AvBLen=        11.0
 IPart=  5 NShTot=        1936 NBatch=         176 AvBLen=        11.0
 IPart= 17 NShTot=        1738 NBatch=         158 AvBLen=        11.0
 IPart=  9 NShTot=        1870 NBatch=         170 AvBLen=        11.0
 IPart= 10 NShTot=        1859 NBatch=         169 AvBLen=        11.0
 IPart= 11 NShTot=        1826 NBatch=         166 AvBLen=        11.0
 IPart=  1 NShTot=        2255 NBatch=         205 AvBLen=        11.0
 IPart= 13 NShTot=        1793 NBatch=         163 AvBLen=        11.0
 IPart=  4 NShTot=        2024 NBatch=         184 AvBLen=        11.0
 IPart=  3 NShTot=        2090 NBatch=         190 AvBLen=        11.0
 IPart=  6 NShTot=        1914 NBatch=         174 AvBLen=        11.0
 IPart= 14 NShTot=        1760 NBatch=         160 AvBLen=        11.0
 IPart=  0 NShTot=        2365 NBatch=         215 AvBLen=        11.0
 IPart= 12 NShTot=        1804 NBatch=         164 AvBLen=        11.0
 IPart=  7 NShTot=        1903 NBatch=         173 AvBLen=        11.0
 IPart= 15 NShTot=        1760 NBatch=         160 AvBLen=        11.0
 IPart= 19 NShTot=        1716 NBatch=         156 AvBLen=        11.0
 PrSmSu:  NxtVal=            381.
 Polarizability after L701:
                1             2             3 
      1  0.000000D+00
      2  0.000000D+00  0.000000D+00
      3  0.000000D+00  0.000000D+00  0.000000D+00
 Dipole Derivatives after L701:
                 1             2             3             4             5 
      1  -0.157137D+00 -0.987079D-01 -0.522006D-01  0.264461D+00  0.957113D+00
      2  -0.601494D-01 -0.136753D+00  0.334751D-01  0.202643D-01 -0.975045D+00
      3  -0.117936D+00  0.785796D-01 -0.229359D+00 -0.700511D-01  0.155479D+00
                 6             7             8             9            10 
      1  -0.560131D+00 -0.128136D+01 -0.301306D+00 -0.333096D+00 -0.390650D+00
      2   0.239541D+00 -0.545097D-01 -0.742178D+00  0.174674D-02  0.112496D+00
      3  -0.445265D+00 -0.302808D-01  0.218053D-01 -0.744604D+00  0.171211D+00
                11            12            13            14            15 
      1   0.126251D-01  0.186562D+00 -0.396553D+00 -0.251036D+00  0.224185D+00
      2  -0.626428D+00  0.209294D+00 -0.407329D-02 -0.435704D+00  0.183341D+00
      3   0.228680D+00 -0.850393D-01  0.152788D+00  0.252553D+00 -0.482102D-01
                16            17            18            19            20 
      1  -0.633512D-01  0.471753D+00  0.185659D+00  0.421654D+00 -0.412533D+00
      2  -0.179678D+00  0.498630D+00  0.148673D+00 -0.652125D-02  0.205113D+00
      3  -0.585607D-01  0.202572D+00  0.135449D+00  0.155922D+00 -0.256047D+00
                21            22            23            24            25 
      1   0.736023D+00  0.107287D+01  0.211387D+00 -0.635296D+00  0.114936D+00
      2  -0.124908D+00  0.127652D+00  0.126085D+00 -0.623144D-01  0.137930D-02
      3   0.476115D+00 -0.133833D+00 -0.192207D-02  0.263809D+00 -0.417705D-01
                26            27            28            29            30 
      1  -0.244116D-01 -0.322362D-01  0.167881D+00  0.491560D+00 -0.176979D+00
      2   0.536688D+00 -0.164469D+00  0.254691D-01  0.762282D+00 -0.240999D+00
      3  -0.307369D+00  0.145633D+00 -0.194444D-01 -0.253301D+00  0.199670D+00
                31            32            33 
      1   0.247249D+00 -0.105644D+01  0.457510D+00
      2   0.176706D-01  0.787312D+00 -0.223380D+00
      3  -0.804505D-02 -0.121028D+00  0.331802D+00
 Hessian after L701:
                1             2             3             4             5 
      1  0.248811D+01
      2  0.591208D+00  0.112476D+02
      3 -0.188992D+01 -0.178679D+01  0.130734D+02
      4  0.472226D+00 -0.152561D+00 -0.923748D-01  0.474205D+01
      5 -0.113506D+00 -0.201174D+00  0.227644D-01  0.317342D+01  0.756980D+01
      6 -0.126517D+00  0.368044D-01 -0.194783D+00  0.519118D+00  0.170367D+01
      7 -0.258556D+01  0.301598D+01  0.268532D+01  0.153213D+00  0.161011D-01
      8  0.287634D+01 -0.494843D+01  0.183395D+01 -0.246593D-02 -0.949223D-01
      9  0.261372D+01  0.185496D+01 -0.544866D+01 -0.748687D-03 -0.414770D-03
     10 -0.524907D+00 -0.359437D+01 -0.913024D-01  0.240267D+00  0.217631D+00
     11 -0.353713D+01 -0.626976D+01  0.420479D+00  0.137350D+00 -0.151497D+00
     12  0.288088D-01  0.347579D+00 -0.793223D+01 -0.687030D-01  0.922544D-01
     13  0.280067D+00  0.268865D+00 -0.200872D+00 -0.655795D+00 -0.350489D+01
     14  0.264074D+00 -0.183386D+00  0.304844D-01 -0.366149D+01 -0.603337D+01
     15 -0.188031D+00  0.328961D-02  0.141018D-01 -0.126782D+00 -0.901495D-02
     16  0.362904D-01 -0.174539D+00 -0.114841D+00  0.150149D-01  0.900570D-02
     17 -0.135953D+00  0.201810D+00 -0.349597D-01  0.305879D-01 -0.176879D-02
     18 -0.888179D-01 -0.359541D-01  0.456886D-01  0.103582D-01  0.521963D-02
     19 -0.158427D+00 -0.159291D+00 -0.693936D-01  0.215433D-01  0.183123D-02
     20 -0.156822D+00  0.577468D-01 -0.188659D+00 -0.124509D-01 -0.941007D-02
     21 -0.742850D-01 -0.170914D+00  0.249302D+00  0.196062D-01  0.242017D-02
     22  0.426560D-01 -0.222369D-01 -0.224419D+00  0.283119D-01  0.713321D-02
     23 -0.377592D-01  0.970437D-02 -0.903133D-01  0.399510D-02 -0.640466D-02
     24 -0.233357D+00 -0.101913D+00  0.679001D-01 -0.111970D-01 -0.232456D-02
     25 -0.161838D+00  0.227813D+00  0.583721D-01  0.348227D-01  0.495879D-01
     26  0.220239D+00  0.120376D+00 -0.170269D+00  0.887885D-01  0.359532D-02
     27  0.206361D-01 -0.121028D+00  0.188399D+00 -0.544165D-01 -0.376008D-01
     28  0.885927D-01  0.216575D-01 -0.606007D-01 -0.865428D-01  0.157591D+00
     29  0.906089D-01 -0.458760D-01 -0.380402D-01  0.111896D+00  0.214426D-02
     30 -0.782127D-01 -0.185659D-01 -0.453144D-01 -0.169034D-01 -0.239499D-01
     31  0.227898D-01 -0.225328D-01  0.343338D-04 -0.496511D+01 -0.139001D-01
     32 -0.613078D-01  0.113921D-01  0.135420D-02  0.282936D+00 -0.107699D+01
     33  0.159736D-01 -0.747418D-02 -0.178242D-01 -0.177957D+00 -0.175302D+01
                6             7             8             9            10 
      6  0.124353D+02
      7 -0.227701D-03  0.992053D+01
      8  0.172823D-02 -0.239886D+01  0.127960D+02
      9 -0.834934D-01 -0.246613D+01 -0.153803D+01  0.133171D+02
     10 -0.815640D-01  0.265949D+00  0.607585D-01  0.239434D+00  0.640544D+01
     11  0.106204D+00  0.539662D-01 -0.910191D-01  0.346507D-01  0.956438D+00
     12  0.180405D+00  0.237388D+00  0.441911D-01  0.214299D-01  0.285421D+01
     13 -0.170733D+00  0.227363D+00  0.901451D-01  0.811453D-01 -0.263262D+01
     14  0.374135D-01  0.104166D+00 -0.112302D+00  0.184003D-01  0.264998D+01
     15 -0.792936D+01  0.794965D-01  0.234591D-01 -0.120947D+00 -0.316789D+01
     16  0.335826D-02 -0.320840D+01 -0.508101D+00 -0.181568D+00 -0.213245D-01
     17  0.139304D-02 -0.728052D+00 -0.142446D+01  0.702405D+00  0.333854D-01
     18 -0.137424D-01 -0.272976D+00  0.730967D+00 -0.313433D+01 -0.359942D-02
     19  0.539376D-02 -0.296212D+01 -0.418248D+00  0.732499D+00  0.542205D-01
     20 -0.123866D-02 -0.341884D+00 -0.279442D+01 -0.805273D+00 -0.452094D-01
     21 -0.637295D-02  0.635129D+00 -0.855265D+00 -0.169850D+01  0.100855D+00
     22 -0.606378D-02 -0.187886D+01  0.327803D+00 -0.102549D+01  0.103969D+00
     23 -0.382454D-03  0.334871D+00 -0.333540D+01 -0.237410D+00  0.196211D-01
     24 -0.336969D-02 -0.929632D+00 -0.209042D+00 -0.279969D+01 -0.368911D-01
     25 -0.620838D-01  0.405185D-01 -0.375704D-01  0.885813D-02 -0.391982D+01
     26 -0.558622D-01 -0.684061D-01  0.290043D-02 -0.225770D-01 -0.102216D+00
     27 -0.229483D-01  0.288262D-01 -0.240939D-01 -0.320808D-01  0.578076D-01
     28 -0.286945D-01  0.155180D-01  0.155007D-01 -0.314306D-02  0.559388D-01
     29 -0.222797D-01  0.312775D-01  0.172214D-02 -0.691172D-02 -0.184584D+00
     30  0.501835D-01 -0.644546D-02 -0.440319D-02 -0.133859D-01  0.114288D+00
     31 -0.519863D-01  0.118616D-01 -0.530365D-02  0.142138D-02 -0.271160D-01
     32 -0.180745D+01 -0.191603D-01  0.311745D-03  0.195571D-03 -0.114372D-01
     33 -0.441181D+01  0.925423D-02 -0.346049D-02 -0.741806D-02  0.146532D-01
               11            12            13            14            15 
     11  0.161137D+02
     12  0.243197D+01  0.224142D+02
     13  0.269732D+01 -0.323430D+01  0.631163D+01
     14 -0.790750D+01 -0.236662D+01  0.770574D+00  0.160427D+02
     15 -0.233345D+01 -0.109236D+02  0.324051D+01  0.277181D+01  0.224425D+02
     16 -0.682861D-02 -0.301007D-01  0.162986D-01  0.137278D-01  0.242321D-02
     17 -0.142398D-01 -0.662337D-03  0.438453D-01 -0.258177D-02  0.435298D-02
     18 -0.491061D-03 -0.524993D-01  0.108545D-01  0.528071D-02 -0.200395D-01
     19 -0.441583D-01  0.797045D-01  0.909718D-01 -0.172282D-02  0.228408D-01
     20 -0.373848D-01 -0.370407D-01 -0.178374D-01 -0.233579D-01 -0.379186D-02
     21 -0.369089D-01  0.154194D-01  0.509301D-01 -0.121506D-02 -0.149129D-01
     22  0.783647D-02 -0.311902D-01  0.176570D-01  0.498156D-02 -0.589716D-02
     23 -0.316858D-01  0.487154D-03  0.638246D-02 -0.630592D-02 -0.392856D-03
     24 -0.339451D-02 -0.200141D-01 -0.129859D-01  0.551689D-04 -0.430623D-02
     25 -0.119555D+00  0.614463D-01  0.116071D+00 -0.270247D+00  0.192102D+00
     26 -0.150415D+01 -0.680963D+00 -0.280460D+00 -0.123235D+00  0.286342D+00
     27 -0.771991D+00 -0.376090D+01  0.207667D+00  0.286639D+00  0.588137D-01
     28 -0.217089D+00  0.124384D+00 -0.391101D+01  0.498995D-01 -0.991201D-02
     29 -0.634223D-01  0.152598D+00 -0.236162D-01 -0.168900D+01 -0.773194D+00
     30  0.154784D+00  0.692766D-01  0.134497D-01 -0.786734D+00 -0.359275D+01
     31  0.718467D-01 -0.216541D-01  0.139368D+00  0.760598D-01 -0.388551D-01
     32 -0.430346D-01  0.162096D-01 -0.503278D-01  0.383670D-01  0.305886D-01
     33 -0.184721D-02 -0.114414D-01  0.143313D-01  0.448341D-02  0.905669D-01
               16            17            18            19            20 
     16  0.312074D+01
     17  0.440023D+00  0.136657D+01
     18  0.192553D+00 -0.692542D+00  0.308051D+01
     19  0.535589D-01  0.143986D+00 -0.529502D-01  0.279965D+01
     20  0.105526D+00 -0.144104D+00  0.103754D+00  0.516989D+00  0.288323D+01
     21 -0.420726D-01  0.111794D+00  0.901245D-01 -0.800248D+00  0.807386D+00
     22 -0.527315D-01  0.146853D+00  0.158099D+00  0.109433D+00 -0.530920D-01
     23  0.123185D+00  0.488376D-01 -0.107279D+00 -0.471222D-01  0.653514D-01
     24  0.126344D+00 -0.104172D+00  0.635152D-02  0.903750D-01  0.123007D+00
     25  0.336281D-01  0.136543D-01  0.436365D-01 -0.125720D-01  0.642334D-02
     26 -0.824521D-02 -0.358262D-01 -0.907646D-02  0.570199D-02  0.343848D-02
     27  0.424000D-01  0.119300D-01  0.172372D-02 -0.973893D-02  0.335900D-02
     28  0.440594D-02  0.968857D-02  0.124648D-02  0.244751D-02 -0.660400D-03
     29  0.787958D-02  0.124042D-01  0.243767D-02  0.659893D-02 -0.374655D-02
     30 -0.175675D-03 -0.230644D-02 -0.370921D-02 -0.847930D-03  0.169832D-03
     31  0.252003D-02  0.198099D-02  0.159617D-02  0.129247D-02 -0.982352D-03
     32 -0.163390D-02 -0.663566D-02 -0.231525D-02 -0.456469D-02  0.264900D-02
     33  0.167935D-02  0.276777D-02 -0.774101D-04  0.236610D-02 -0.167176D-02
               21            22            23            24            25 
     21  0.154174D+01
     22  0.117515D+00  0.158745D+01
     23  0.141075D+00 -0.397793D+00  0.326282D+01
     24 -0.172545D+00  0.100883D+01  0.295817D+00  0.293698D+01
     25 -0.117164D-01  0.363937D-01 -0.716468D-02  0.844711D-03  0.379234D+01
     26  0.812122D-03 -0.228900D-01 -0.715093D-02  0.303147D-02  0.122976D+00
     27 -0.326800D-02  0.907194D-02 -0.903305D-03 -0.991553D-02 -0.271380D+00
     28  0.287758D-02  0.336765D-02  0.176914D-02 -0.168374D-02 -0.134449D-01
     29  0.591282D-02  0.803061D-02  0.160008D-02 -0.367587D-02  0.271723D-01
     30 -0.276297D-02 -0.305800D-02 -0.101225D-02  0.266012D-03 -0.100672D-01
     31  0.140912D-02  0.235785D-02  0.146658D-04 -0.644335D-03  0.539020D-01
     32 -0.509729D-02 -0.662687D-02 -0.137009D-02  0.261209D-02 -0.130890D-01
     33  0.176624D-02  0.260633D-02  0.315174D-03 -0.165957D-02 -0.100124D-01
               26            27            28            29            30 
     26  0.151830D+01
     27  0.679838D+00  0.360415D+01
     28  0.288040D-01 -0.103332D-01  0.385398D+01
     29  0.632265D-01 -0.316703D-01 -0.334532D-01  0.162982D+01
     30 -0.337833D-01  0.321226D-02 -0.265247D-01  0.752030D+00  0.354367D+01
     31  0.157081D-01 -0.205403D-01 -0.132595D-01 -0.418104D-01  0.144975D-01
     32 -0.414755D-01  0.552138D-02 -0.337072D-01  0.911275D-01 -0.362278D-01
     33  0.250827D-02 -0.271867D-01  0.123835D-01 -0.372061D-01 -0.869475D-02
               31            32            33 
     31  0.477139D+01
     32 -0.810809D-01  0.102566D+01
     33  0.114721D+00  0.179460D+01  0.439378D+01
 Leave Link  701 at Tue Sep 24 23:10:57 2019, MaxMem=   671088640 cpu:              43.5 elap:              21.8
 (Enter /shared/centos7/gaussian/g16/l702.exe)
 L702 exits ... SP integral derivatives will be done elsewhere.
 Leave Link  702 at Tue Sep 24 23:10:58 2019, MaxMem=   671088640 cpu:               1.6 elap:               0.8
 (Enter /shared/centos7/gaussian/g16/l703.exe)
 Integral derivatives from FoFJK, PRISM(SPDF).
 Compute integral second derivatives, UseDBF=F ICtDFT=           0.
 ICntrl=    100147.
 Calling FoFJK, ICntrl=    100147 FMM=F ISym2X=0 I1Cent= 0 IOpClX= 0 NMat=1 NMatS=1 NMatT=0.
 FoFJK:  IHMeth= 1 ICntrl=  100147 DoSepK=F KAlg= 0 I1Cent=           0 FoldK=F
 IRaf=         0 NMat=       1 IRICut=       1 DoRegI=T DoRafI=F ISym2E= 0 IDoP0=0 IntGTp=1.
 FoFCou: FMM=F IPFlag=           0 FMFlag=      100000 FMFlg1=         800
         NFxFlg=           0 DoJE=F BraDBF=F KetDBF=F FulRan=T
         wScrn=  0.000000 ICntrl=    100147 IOpCl=  0 I1Cent=           0 NGrid=           0
         NMat0=    1 NMatS0=      1 NMatT0=    0 NMatD0=    1 NMtDS0=    0 NMtDT0=    0
 Symmetry not used in FoFCou.
 FoFCou:  KetSym=F NOpSet=  1 NOpAb=1 NOp=  1.
 FoFCou:  CnvScl= 1.00D+00 Thresh= 1.00D-08 IAcrcy=      12.
 PrismS was handed   670745147 working-precision words and  3584 shell-pairs
 FoFCou: LinMIO=F DoNuc=F BraDBF=F KetDBF=F HaveP=T PDBF=F HaveZ=T HaveW=F
         NIJTC =      10 NIJTAt=       0 NIJTCD=       0 NIJTT =      10
         IJTBeg=       1 IJTEnd=      10 KLTBeg=       1 KLTEnd=      10
         IPTBeg=       1 IPTEnd=      10 IPTBCv=       1 IPTECv=      10
         IZTBeg=       1 IZTEnd=      10 IZTBCv=       1 IZTECv=      10
         IWTBeg=      11 IWTEnd=      10 IWTBCv=      11 IWTECv=      10
         INTBeg=       1 INTEnd=       0 IFTBCv=       1 IFTECv=      10
 NCel replicated for PrismC:     1
 CoulSu-InSpLW:  IPartL=    0 NPrtUS=   20 NPrtUL=    1 DoSpLW=F IThBeg=    0 IThEnd=   19 NThAct=   20.
 CoulSu:  IncDef=  1024 NBBP=        6424320 NTPThr=   100 NPartT=   20 Incr=        1024 LDynOK=F GPUOK=T.
 CoulSu:  NPrtUS=  20 ThrOK=T IAlg=1 NPAlg=1 LenDen=           0 LWGrdD=           0 DoCopy=F ISkipM=0
          DoSpLW=F IThBeg=    0 IThEnd=   19.
 Enter PrismC:  IPart=  0 JobTyp=22 DoJE=F Cont=F.
 PrismC:  IPart=     0 DynPar=T LinDyn=F Incr=        1024 UseFst=F UseS4=T ISplat=2.
 PrismC was handed    33458456 working-precision words and  3584 shell-pairs
 Enter PrismC:  IPart=  4 JobTyp=22 DoJE=F Cont=F.
 PrismC:  IPart=     4 DynPar=T LinDyn=F Incr=        1024 UseFst=F UseS4=T ISplat=2.
 PrismC was handed    33458456 working-precision words and  3584 shell-pairs
 Enter PrismC:  IPart=  5 JobTyp=22 DoJE=F Cont=F.
 Enter PrismC:  IPart=  1 JobTyp=22 DoJE=F Cont=F.
 PrismC:  IPart=     5 DynPar=T LinDyn=F Incr=        1024 UseFst=F UseS4=T ISplat=2.
 PrismC was handed    33458456 working-precision words and  3584 shell-pairs
 PrismC:  IPart=     1 DynPar=T LinDyn=F Incr=        1024 UseFst=F UseS4=T ISplat=2.
 PrismC was handed    33458456 working-precision words and  3584 shell-pairs
 Enter PrismC:  IPart= 13 JobTyp=22 DoJE=F Cont=F.
 PrismC:  IPart=    13 DynPar=T LinDyn=F Incr=        1024 UseFst=F UseS4=T ISplat=2.
 PrismC was handed    33458456 working-precision words and  3584 shell-pairs
 Enter PrismC:  IPart= 12 JobTyp=22 DoJE=F Cont=F.
 PrismC:  IPart=    12 DynPar=T LinDyn=F Incr=        1024 UseFst=F UseS4=T ISplat=2.
 PrismC was handed    33458456 working-precision words and  3584 shell-pairs
 Enter PrismC:  IPart=  8 JobTyp=22 DoJE=F Cont=F.
 PrismC:  IPart=     8 DynPar=T LinDyn=F Incr=        1024 UseFst=F UseS4=T ISplat=2.
 PrismC was handed    33458456 working-precision words and  3584 shell-pairs
 Enter PrismC:  IPart= 11 JobTyp=22 DoJE=F Cont=F.
 PrismC:  IPart=    11 DynPar=T LinDyn=F Incr=        1024 UseFst=F UseS4=T ISplat=2.
 PrismC was handed    33458456 working-precision words and  3584 shell-pairs
 Enter PrismC:  IPart= 10 JobTyp=22 DoJE=F Cont=F.
 Enter PrismC:  IPart=  9 JobTyp=22 DoJE=F Cont=F.
 PrismC:  IPart=     9 DynPar=T LinDyn=F Incr=        1024 UseFst=F UseS4=T ISplat=2.
 PrismC was handed    33458456 working-precision words and  3584 shell-pairs
 PrismC:  IPart=    10 DynPar=T LinDyn=F Incr=        1024 UseFst=F UseS4=T ISplat=2.
 PrismC was handed    33458456 working-precision words and  3584 shell-pairs
 Enter PrismC:  IPart=  2 JobTyp=22 DoJE=F Cont=F.
 PrismC:  IPart=     2 DynPar=T LinDyn=F Incr=        1024 UseFst=F UseS4=T ISplat=2.
 PrismC was handed    33458456 working-precision words and  3584 shell-pairs
 Enter PrismC:  IPart= 16 JobTyp=22 DoJE=F Cont=F.
 PrismC:  IPart=    16 DynPar=T LinDyn=F Incr=        1024 UseFst=F UseS4=T ISplat=2.
 PrismC was handed    33458456 working-precision words and  3584 shell-pairs
 Enter PrismC:  IPart=  3 JobTyp=22 DoJE=F Cont=F.
 PrismC:  IPart=     3 DynPar=T LinDyn=F Incr=        1024 UseFst=F UseS4=T ISplat=2.
 PrismC was handed    33458456 working-precision words and  3584 shell-pairs
 Enter PrismC:  IPart= 14 JobTyp=22 DoJE=F Cont=F.
 PrismC:  IPart=    14 DynPar=T LinDyn=F Incr=        1024 UseFst=F UseS4=T ISplat=2.
 PrismC was handed    33458456 working-precision words and  3584 shell-pairs
 Enter PrismC:  IPart=  7 JobTyp=22 DoJE=F Cont=F.
 PrismC:  IPart=     7 DynPar=T LinDyn=F Incr=        1024 UseFst=F UseS4=T ISplat=2.
 PrismC was handed    33458456 working-precision words and  3584 shell-pairs
 Enter PrismC:  IPart= 15 JobTyp=22 DoJE=F Cont=F.
 PrismC:  IPart=    15 DynPar=T LinDyn=F Incr=        1024 UseFst=F UseS4=T ISplat=2.
 PrismC was handed    33458456 working-precision words and  3584 shell-pairs
 Enter PrismC:  IPart= 17 JobTyp=22 DoJE=F Cont=F.
 PrismC:  IPart=    17 DynPar=T LinDyn=F Incr=        1024 UseFst=F UseS4=T ISplat=2.
 PrismC was handed    33458456 working-precision words and  3584 shell-pairs
 Enter PrismC:  IPart=  6 JobTyp=22 DoJE=F Cont=F.
 PrismC:  IPart=     6 DynPar=T LinDyn=F Incr=        1024 UseFst=F UseS4=T ISplat=2.
 PrismC was handed    33458456 working-precision words and  3584 shell-pairs
 Enter PrismC:  IPart= 19 JobTyp=22 DoJE=F Cont=F.
 PrismC:  IPart=    19 DynPar=T LinDyn=F Incr=        1024 UseFst=F UseS4=T ISplat=2.
 PrismC was handed    33458456 working-precision words and  3584 shell-pairs
 Enter PrismC:  IPart= 18 JobTyp=22 DoJE=F Cont=F.
 PrismC:  IPart=    18 DynPar=T LinDyn=F Incr=        1024 UseFst=F UseS4=T ISplat=2.
 PrismC was handed    33458456 working-precision words and  3584 shell-pairs
 IPart= 13 NShTot=      166740 NShNF=      166740 NShFF=           0 MinMC=       7
           NShCPU=      166740 NBCPU=        7231 AvBCPU=        23.1
           NShGPU=           0 NBGPU=           0 AvBGPU=         0.0
 IPart= 11 NShTot=      256319 NShNF=      256319 NShFF=           0 MinMC=       7
           NShCPU=      256319 NBCPU=       10742 AvBCPU=        23.9
           NShGPU=           0 NBGPU=           0 AvBGPU=         0.0
 IPart= 15 NShTot=      160443 NShNF=      160443 NShFF=           0 MinMC=       7
           NShCPU=      160443 NBCPU=        6779 AvBCPU=        23.7
           NShGPU=           0 NBGPU=           0 AvBGPU=         0.0
 IPart= 16 NShTot=      242881 NShNF=      242881 NShFF=           0 MinMC=       7
           NShCPU=      242881 NBCPU=       10236 AvBCPU=        23.7
           NShGPU=           0 NBGPU=           0 AvBGPU=         0.0
 IPart= 19 NShTot=      219656 NShNF=      219656 NShFF=           0 MinMC=       7
           NShCPU=      219656 NBCPU=        8995 AvBCPU=        24.4
           NShGPU=           0 NBGPU=           0 AvBGPU=         0.0
 IPart=  3 NShTot=      169641 NShNF=      169641 NShFF=           0 MinMC=       7
           NShCPU=      169641 NBCPU=        6625 AvBCPU=        25.6
           NShGPU=           0 NBGPU=           0 AvBGPU=         0.0
 IPart= 10 NShTot=      254845 NShNF=      254845 NShFF=           0 MinMC=       7
           NShCPU=      254845 NBCPU=       10560 AvBCPU=        24.1
           NShGPU=           0 NBGPU=           0 AvBGPU=         0.0
 IPart=  9 NShTot=      171255 NShNF=      171255 NShFF=           0 MinMC=       7
           NShCPU=      171255 NBCPU=        7017 AvBCPU=        24.4
           NShGPU=           0 NBGPU=           0 AvBGPU=         0.0
 IPart=  7 NShTot=      162320 NShNF=      162320 NShFF=           0 MinMC=       7
           NShCPU=      162320 NBCPU=        7187 AvBCPU=        22.6
           NShGPU=           0 NBGPU=           0 AvBGPU=         0.0
 IPart=  0 NShTot=      179677 NShNF=      179677 NShFF=           0 MinMC=       7
           NShCPU=      179677 NBCPU=        7070 AvBCPU=        25.4
           NShGPU=           0 NBGPU=           0 AvBGPU=         0.0
 IPart=  8 NShTot=      262561 NShNF=      262561 NShFF=           0 MinMC=       7
           NShCPU=      262561 NBCPU=       10750 AvBCPU=        24.4
           NShGPU=           0 NBGPU=           0 AvBGPU=         0.0
 IPart=  6 NShTot=      249276 NShNF=      249276 NShFF=           0 MinMC=       7
           NShCPU=      249276 NBCPU=       11103 AvBCPU=        22.5
           NShGPU=           0 NBGPU=           0 AvBGPU=         0.0
 IPart=  2 NShTot=      252601 NShNF=      252601 NShFF=           0 MinMC=       7
           NShCPU=      252601 NBCPU=       10238 AvBCPU=        24.7
           NShGPU=           0 NBGPU=           0 AvBGPU=         0.0
 IPart=  1 NShTot=      249308 NShNF=      249308 NShFF=           0 MinMC=       7
           NShCPU=      249308 NBCPU=       10416 AvBCPU=        23.9
           NShGPU=           0 NBGPU=           0 AvBGPU=         0.0
 IPart= 14 NShTot=      173933 NShNF=      173933 NShFF=           0 MinMC=       7
           NShCPU=      173933 NBCPU=        7103 AvBCPU=        24.5
           NShGPU=           0 NBGPU=           0 AvBGPU=         0.0
 IPart= 18 NShTot=      166538 NShNF=      166538 NShFF=           0 MinMC=       7
           NShCPU=      166538 NBCPU=        7257 AvBCPU=        22.9
           NShGPU=           0 NBGPU=           0 AvBGPU=         0.0
 IPart=  4 NShTot=      260030 NShNF=      260030 NShFF=           0 MinMC=       7
           NShCPU=      260030 NBCPU=       10991 AvBCPU=        23.7
           NShGPU=           0 NBGPU=           0 AvBGPU=         0.0
 IPart= 12 NShTot=      158591 NShNF=      158591 NShFF=           0 MinMC=       7
           NShCPU=      158591 NBCPU=        6654 AvBCPU=        23.8
           NShGPU=           0 NBGPU=           0 AvBGPU=         0.0
 IPart=  5 NShTot=      260967 NShNF=      260967 NShFF=           0 MinMC=       7
           NShCPU=      260967 NBCPU=       11133 AvBCPU=        23.4
           NShGPU=           0 NBGPU=           0 AvBGPU=         0.0
 IPart= 17 NShTot=      174617 NShNF=      174617 NShFF=           0 MinMC=       7
           NShCPU=      174617 NBCPU=        7640 AvBCPU=        22.9
           NShGPU=           0 NBGPU=           0 AvBGPU=         0.0
 CoulSu:  NxtVal=        6859777 LenVP=       33458457 MinMC=       7.
 ReadGW:  IGet=0 IStart=           1 Next=           1 LGW=           0.
 Remaining memory in FofDFT      639.93 Mw
 CkSvGd:  ISavGI=        -1 IRadAn=       5 IRASav=       5 ISavGd=        -1.
 CalDSu-InSpLW:  IPartL=    0 NPrtUS=   20 NPrtUL=    1 DoSpLW=F IThBeg=    0 IThEnd=   19 NThAct=   20.
 CalDSu:  NPrtUS=  20 ThrOK=T IAlg=1 NPAlg=2 DoDPD=T LenP=       35245 LenD1P=             0 GPUOK=F
          ISkipM=0 DoSpLW=F IThBeg=    0 IThEnd=   19.
 IPart=  0 IRanGd=          0 ScrnBf=T ScrnGd=T RCrit=4.00D+00 DoMicB=T.
 IPart= 10        10036 of        10684 points in      11 batches and       64 microbatches, Max-NSigAt=      11 Max-NSgAt2=      11
 IPart=  5        14393 of        16056 points in      17 batches and       65 microbatches, Max-NSigAt=      11 Max-NSgAt2=      11
 IPart= 18         9144 of        10128 points in      11 batches and       83 microbatches, Max-NSigAt=      11 Max-NSgAt2=      11
 IPart= 13        11131 of        13062 points in      14 batches and       80 microbatches, Max-NSigAt=      11 Max-NSgAt2=      11
 IPart=  4        11886 of        12560 points in      11 batches and       43 microbatches, Max-NSigAt=      11 Max-NSgAt2=      11
 IPart=  7         8969 of         9480 points in       9 batches and       56 microbatches, Max-NSigAt=      11 Max-NSgAt2=      11
 IPart= 15        11833 of        14014 points in      16 batches and       91 microbatches, Max-NSigAt=      11 Max-NSgAt2=      11
 IPart= 16        12430 of        13138 points in      13 batches and       53 microbatches, Max-NSigAt=      11 Max-NSgAt2=      11
 IPart= 19        10762 of        11262 points in      11 batches and       61 microbatches, Max-NSigAt=      11 Max-NSgAt2=      11
 IPart=  8        11040 of        12076 points in      13 batches and       79 microbatches, Max-NSigAt=      11 Max-NSgAt2=      11
 IPart=  1        12730 of        14248 points in      15 batches and       68 microbatches, Max-NSigAt=      11 Max-NSgAt2=      11
 IPart= 17         9684 of        10458 points in      11 batches and       71 microbatches, Max-NSigAt=      11 Max-NSgAt2=      11
 IPart=  0         9867 of        10784 points in      12 batches and       82 microbatches, Max-NSigAt=      11 Max-NSgAt2=      11
 IPart=  9        10263 of        11328 points in      12 batches and       56 microbatches, Max-NSigAt=      11 Max-NSgAt2=      11
 IPart=  6        11800 of        12108 points in      11 batches and       48 microbatches, Max-NSigAt=      11 Max-NSgAt2=      11
 IPart= 14        11262 of        11904 points in      12 batches and       49 microbatches, Max-NSigAt=      11 Max-NSgAt2=      11
 IPart=  3         9769 of        10900 points in      12 batches and       98 microbatches, Max-NSigAt=      11 Max-NSgAt2=      11
 IPart= 12        10453 of        11168 points in      12 batches and       63 microbatches, Max-NSigAt=      11 Max-NSgAt2=      11
 IPart=  2        14653 of        16576 points in      17 batches and       75 microbatches, Max-NSigAt=      11 Max-NSgAt2=      11
 IPart= 11        13509 of        14768 points in      16 batches and       75 microbatches, Max-NSigAt=      11 Max-NSgAt2=      11
 Polarizability after L703:
                1             2             3 
      1  0.000000D+00
      2  0.000000D+00  0.000000D+00
      3  0.000000D+00  0.000000D+00  0.000000D+00
 Dipole Derivatives after L703:
                 1             2             3             4             5 
      1  -0.157137D+00 -0.987079D-01 -0.522006D-01  0.264461D+00  0.957113D+00
      2  -0.601494D-01 -0.136753D+00  0.334751D-01  0.202643D-01 -0.975045D+00
      3  -0.117936D+00  0.785796D-01 -0.229359D+00 -0.700511D-01  0.155479D+00
                 6             7             8             9            10 
      1  -0.560131D+00 -0.128136D+01 -0.301306D+00 -0.333096D+00 -0.390650D+00
      2   0.239541D+00 -0.545097D-01 -0.742178D+00  0.174674D-02  0.112496D+00
      3  -0.445265D+00 -0.302808D-01  0.218053D-01 -0.744604D+00  0.171211D+00
                11            12            13            14            15 
      1   0.126251D-01  0.186562D+00 -0.396553D+00 -0.251036D+00  0.224185D+00
      2  -0.626428D+00  0.209294D+00 -0.407329D-02 -0.435704D+00  0.183341D+00
      3   0.228680D+00 -0.850393D-01  0.152788D+00  0.252553D+00 -0.482102D-01
                16            17            18            19            20 
      1  -0.633512D-01  0.471753D+00  0.185659D+00  0.421654D+00 -0.412533D+00
      2  -0.179678D+00  0.498630D+00  0.148673D+00 -0.652125D-02  0.205113D+00
      3  -0.585607D-01  0.202572D+00  0.135449D+00  0.155922D+00 -0.256047D+00
                21            22            23            24            25 
      1   0.736023D+00  0.107287D+01  0.211387D+00 -0.635296D+00  0.114936D+00
      2  -0.124908D+00  0.127652D+00  0.126085D+00 -0.623144D-01  0.137930D-02
      3   0.476115D+00 -0.133833D+00 -0.192207D-02  0.263809D+00 -0.417705D-01
                26            27            28            29            30 
      1  -0.244116D-01 -0.322362D-01  0.167881D+00  0.491560D+00 -0.176979D+00
      2   0.536688D+00 -0.164469D+00  0.254691D-01  0.762282D+00 -0.240999D+00
      3  -0.307369D+00  0.145633D+00 -0.194444D-01 -0.253301D+00  0.199670D+00
                31            32            33 
      1   0.247249D+00 -0.105644D+01  0.457510D+00
      2   0.176706D-01  0.787312D+00 -0.223380D+00
      3  -0.804505D-02 -0.121028D+00  0.331802D+00
 Hessian after L703:
                1             2             3             4             5 
      1  0.475825D+00
      2 -0.301963D-01  0.268943D+00
      3  0.731541D-01  0.831462D-01  0.139737D+00
      4 -0.180203D-01 -0.790925D-03  0.384104D-02  0.392386D+00
      5  0.417840D-02  0.189111D-02  0.355824D-02 -0.678797D-01  0.420069D+00
      6 -0.292155D-04  0.649037D-02  0.112100D-01 -0.448076D-01 -0.139829D+00
      7 -0.143242D+00 -0.336928D-01 -0.414100D-01  0.403997D-02 -0.858987D-03
      8 -0.636737D-01 -0.121707D+00 -0.523231D-01  0.493851D-02 -0.188279D-02
      9 -0.576728D-01 -0.428062D-01 -0.970143D-01  0.269879D-02  0.345422D-03
     10 -0.226098D+00  0.665241D-01 -0.840083D-04 -0.432746D-01 -0.590741D-02
     11  0.980454D-01 -0.136210D+00 -0.432419D-02  0.219939D-01  0.140255D-01
     12  0.203803D-01 -0.135383D-01 -0.471859D-01  0.733170D-03 -0.225015D-02
     13 -0.333052D-01 -0.767477D-02  0.924722D-02 -0.265352D+00  0.963906D-01
     14  0.204496D-01  0.152371D-01 -0.776146D-02  0.561440D-01 -0.134149D+00
     15  0.445846D-02 -0.479107D-02  0.331734D-03  0.247411D-01  0.174327D-01
     16 -0.540533D-03 -0.252087D-01 -0.120108D-01  0.265461D-03 -0.108214D-05
     17 -0.585592D-02 -0.198646D-01 -0.982564D-02 -0.146678D-03 -0.143322D-03
     18 -0.172889D-02 -0.169350D-01 -0.811510D-02 -0.151023D-03 -0.852045D-04
     19 -0.172204D-01  0.585016D-02 -0.257845D-01 -0.121657D-02  0.641559D-03
     20 -0.125923D-01  0.999207D-02 -0.189069D-01 -0.122926D-04  0.285522D-04
     21 -0.169735D-01 -0.196245D-02 -0.115221D-01 -0.118928D-02  0.504376D-03
     22 -0.265197D-01 -0.636357D-02  0.505392D-02 -0.111575D-02  0.358524D-03
     23 -0.210399D-01 -0.158948D-02  0.429935D-02 -0.460839D-03 -0.371945D-04
     24 -0.203675D-01 -0.375210D-02  0.132640D-01 -0.313637D-03 -0.305004D-04
     25 -0.141841D-01  0.320967D-01 -0.107480D-01  0.351209D-02 -0.258963D-02
     26  0.125887D-01 -0.164071D-01  0.483418D-02 -0.116189D-04  0.190852D-02
     27 -0.973593D-03 -0.393739D-02  0.518819D-02 -0.441842D-03 -0.358260D-02
     28  0.235956D-02  0.951474D-03 -0.202078D-02 -0.281521D-02  0.340800D-01
     29  0.273076D-03  0.556568D-03 -0.258240D-02  0.446744D-02 -0.128732D-01
     30 -0.915237D-03 -0.158902D-02 -0.493927D-02 -0.123706D-02 -0.745602D-03
     31  0.945249D-03 -0.149534D-02  0.761757D-03 -0.684088D-01 -0.584123D-01
     32 -0.217706D-02 -0.840755D-03 -0.114286D-03 -0.182418D-01 -0.288837D+00
     33  0.667927D-03 -0.325064D-03 -0.953982D-03  0.161264D-01  0.124683D+00
                6             7             8             9            10 
      6  0.126580D+00
      7  0.235126D-02  0.553686D+00
      8 -0.549297D-03 -0.269924D-01  0.484833D+00
      9 -0.279260D-03 -0.590551D-01 -0.180055D-01  0.508191D+00
     10  0.136125D-01 -0.555654D-01  0.467784D-03 -0.753409D-02  0.801260D+00
     11 -0.821337D-02 -0.148668D-01  0.961445D-02  0.634544D-02  0.130504D+00
     12  0.528872D-02 -0.179507D-01  0.778710D-02 -0.389387D-02 -0.162975D+00
     13  0.724941D-02 -0.862301D-03  0.470031D-03  0.223935D-02 -0.431868D+00
     14  0.250224D-01  0.221174D-02 -0.995773D-03 -0.371665D-02 -0.188419D+00
     15 -0.543235D-01 -0.366336D-02 -0.835514D-03  0.115493D-02  0.143947D+00
     16  0.332453D-04 -0.892504D-01  0.747088D-01  0.248350D-01  0.180635D-02
     17  0.465829D-05  0.640625D-01 -0.202501D+00 -0.459389D-01  0.614950D-02
     18 -0.152640D-03  0.198998D-01 -0.420956D-01 -0.708110D-01  0.222822D-02
[...]
 ITU=  0
     Eigenvalues ---    0.00481   0.00521   0.00580   0.02433   0.02896
     Eigenvalues ---    0.04506   0.08689   0.08753   0.10040   0.12730
     Eigenvalues ---    0.13604   0.15635   0.17816   0.18082   0.18948
     Eigenvalues ---    0.21695   0.23493   0.32983   0.33421   0.34683
     Eigenvalues ---    0.35055   0.36978   0.39795   0.43897   0.46230
     Eigenvalues ---    0.54047   0.65356
 Angle between quadratic step and forces=  69.00 degrees.
 Linear search not attempted -- first point.
 Iteration  1 RMS(Cart)=  0.00001320 RMS(Int)=  0.00000000
 Iteration  2 RMS(Cart)=  0.00000000 RMS(Int)=  0.00000000
 ITry= 1 IFail=0 DXMaxC= 2.72D-05 DCOld= 1.00D+10 DXMaxT= 3.00D-01 DXLimC= 3.00D+00 Rises=F
 Variable       Old X    -DE/DX   Delta X   Delta X   Delta X     New X
                                 (Linear)    (Quad)   (Total)
    R1        2.66967   0.00000   0.00000   0.00000   0.00000   2.66967
    R2        2.58410   0.00000   0.00000  -0.00000  -0.00000   2.58409
    R3        2.57255   0.00000   0.00000   0.00000   0.00000   2.57255
    R4        1.81729  -0.00000   0.00000  -0.00000  -0.00000   1.81729
    R5        2.06849  -0.00000   0.00000  -0.00000  -0.00000   2.06849
    R6        2.06549  -0.00000   0.00000  -0.00000  -0.00000   2.06548
    R7        2.05367   0.00000   0.00000   0.00000   0.00000   2.05367
    R8        2.50350  -0.00000   0.00000  -0.00000  -0.00000   2.50350
    R9        2.05854  -0.00000   0.00000  -0.00000  -0.00000   2.05853
   R10        2.04186  -0.00000   0.00000  -0.00000  -0.00000   2.04186
    A1        1.97246   0.00000   0.00000   0.00001   0.00001   1.97247
    A2        1.91328  -0.00000   0.00000  -0.00000  -0.00000   1.91328
    A3        1.93548   0.00000   0.00000   0.00000   0.00000   1.93549
    A4        1.93602   0.00000   0.00000  -0.00000  -0.00000   1.93602
    A5        1.87134  -0.00000   0.00000  -0.00000  -0.00000   1.87134
    A6        1.90058  -0.00000   0.00000  -0.00000  -0.00000   1.90058
    A7        1.90571  -0.00000   0.00000   0.00000   0.00000   1.90571
    A8        1.91438  -0.00000   0.00000  -0.00000  -0.00000   1.91438
    A9        2.11248  -0.00000   0.00000  -0.00000  -0.00000   2.11248
   A10        2.03047   0.00000   0.00000   0.00000   0.00000   2.03047
   A11        2.13941  -0.00000   0.00000  -0.00000  -0.00000   2.13941
   A12        2.19770  -0.00000   0.00000  -0.00000  -0.00000   2.19770
   A13        1.96888   0.00000   0.00000  -0.00000  -0.00000   1.96888
   A14        2.11635   0.00000   0.00000   0.00000   0.00000   2.11635
    D1       -1.00893  -0.00000   0.00000  -0.00001  -0.00001  -1.00893
    D2        1.10532   0.00000   0.00000  -0.00001  -0.00001   1.10531
    D3       -3.08798  -0.00000   0.00000  -0.00001  -0.00001  -3.08799
    D4       -2.27485   0.00000   0.00000   0.00002   0.00002  -2.27483
    D5        0.90914   0.00000   0.00000   0.00002   0.00002   0.90917
    D6        0.00002   0.00000   0.00000  -0.00000  -0.00000   0.00002
    D7       -3.11727  -0.00000   0.00000  -0.00000  -0.00000  -3.11727
    D8       -3.06125  -0.00000   0.00000  -0.00000  -0.00000  -3.06125
    D9        0.05414   0.00000   0.00000   0.00000   0.00000   0.05414
   D10        0.03525  -0.00000   0.00000  -0.00000  -0.00000   0.03525
   D11       -3.13255  -0.00000   0.00000  -0.00000  -0.00000  -3.13255
         Item               Value     Threshold  Converged?
 Maximum Force            0.000002     0.000015     YES
 RMS     Force            0.000001     0.000010     YES
 Maximum Displacement     0.000027     0.000060     YES
 RMS     Displacement     0.000013     0.000040     YES
 Predicted change in Energy=-2.165015D-11
 Optimization completed.
    -- Stationary point found.
                           ----------------------------
                           !   Optimized Parameters   !
                           ! (Angstroms and Degrees)  !
 --------------------------                            --------------------------
 ! Name  Definition              Value          Derivative Info.                !
 --------------------------------------------------------------------------------
 ! R1    R(1,3)                  1.4127         -DE/DX =    0.0                 !
 ! R2    R(1,4)                  1.3674         -DE/DX =    0.0                 !
 ! R3    R(2,5)                  1.3613         -DE/DX =    0.0                 !
 ! R4    R(2,11)                 0.9617         -DE/DX =    0.0                 !
 ! R5    R(3,6)                  1.0946         -DE/DX =    0.0                 !
 ! R6    R(3,7)                  1.093          -DE/DX =    0.0                 !
 ! R7    R(3,8)                  1.0868         -DE/DX =    0.0                 !
 ! R8    R(4,5)                  1.3248         -DE/DX =    0.0                 !
 ! R9    R(4,9)                  1.0893         -DE/DX =    0.0                 !
 ! R10   R(5,10)                 1.0805         -DE/DX =    0.0                 !
 ! A1    A(3,1,4)              113.0136         -DE/DX =    0.0                 !
 ! A2    A(5,2,11)             109.6227         -DE/DX =    0.0                 !
 ! A3    A(1,3,6)              110.8949         -DE/DX =    0.0                 !
 ! A4    A(1,3,7)              110.9258         -DE/DX =    0.0                 !
 ! A5    A(1,3,8)              107.22           -DE/DX =    0.0                 !
 ! A6    A(6,3,7)              108.8953         -DE/DX =    0.0                 !
 ! A7    A(6,3,8)              109.189          -DE/DX =    0.0                 !
 ! A8    A(7,3,8)              109.6861         -DE/DX =    0.0                 !
 ! A9    A(1,4,5)              121.0364         -DE/DX =    0.0                 !
 ! A10   A(1,4,9)              116.3375         -DE/DX =    0.0                 !
 ! A11   A(5,4,9)              122.5791         -DE/DX =    0.0                 !
 ! A12   A(2,5,4)              125.9188         -DE/DX =    0.0                 !
 ! A13   A(2,5,10)             112.8087         -DE/DX =    0.0                 !
 ! A14   A(4,5,10)             121.2577         -DE/DX =    0.0                 !
 ! D1    D(4,1,3,6)            -57.8072         -DE/DX =    0.0                 !
 ! D2    D(4,1,3,7)             63.3301         -DE/DX =    0.0                 !
 ! D3    D(4,1,3,8)           -176.928          -DE/DX =    0.0                 !
 ! D4    D(3,1,4,5)           -130.3393         -DE/DX =    0.0                 !
 ! D5    D(3,1,4,9)             52.0899         -DE/DX =    0.0                 !
 ! D6    D(11,2,5,4)             0.0011         -DE/DX =    0.0                 !
 ! D7    D(11,2,5,10)         -178.6063         -DE/DX =    0.0                 !
 ! D8    D(1,4,5,2)           -175.3964         -DE/DX =    0.0                 !
 ! D9    D(1,4,5,10)             3.1019         -DE/DX =    0.0                 !
 ! D10   D(9,4,5,2)              2.0199         -DE/DX =    0.0                 !
 ! D11   D(9,4,5,10)          -179.4818         -DE/DX =    0.0                 !
 --------------------------------------------------------------------------------
 GradGradGradGradGradGradGradGradGradGradGradGradGradGradGradGradGradGrad

 Leave Link  103 at Wed Sep 25 00:44:37 2019, MaxMem=   671088640 cpu:             109.1 elap:              54.7
 (Enter /shared/centos7/gaussian/g16/l9999.exe)

 ----------------------------------------------------------------------

 Electric dipole moment (input orientation):
 (Debye = 10**-18 statcoulomb cm , SI units = C m)
                  (au)            (Debye)         (10**-30 SI)
   Tot        0.850865D+00      0.216268D+01      0.721393D+01
   x         -0.788333D+00     -0.200374D+01     -0.668377D+01
   y          0.320115D+00      0.813652D+00      0.271405D+01
   z          0.527511D-02      0.134080D-01      0.447242D-01

 Dipole polarizability, Alpha (input orientation).
 (esu units = cm**3 , SI units = C**2 m**2 J**-1)
 Alpha(0;0):
               (au)            (10**-24 esu)      (10**-40 SI)
   iso        0.451720D+02      0.669380D+01      0.744785D+01
   aniso      0.264874D+02      0.392503D+01      0.436718D+01
   xx         0.529685D+02      0.784912D+01      0.873333D+01
   yx         0.835293D+01      0.123778D+01      0.137721D+01
   yy         0.463133D+02      0.686292D+01      0.763603D+01
   zx        -0.925791D+01     -0.137188D+01     -0.152642D+01
   zy        -0.271917D+01     -0.402939D+00     -0.448330D+00
   zz         0.362341D+02      0.536935D+01      0.597420D+01

 ----------------------------------------------------------------------

 Dipole orientation:
     8          1.79607194         -1.72406102         -0.67317011
     8          1.47936370          4.87630201         -2.50143052
     6          0.68034579         -2.81232971          1.49431250
     6          2.00502971          0.84695650         -0.51904765
     6          1.21404732          2.32025557         -2.38217021
     1          1.75815705         -2.33934263          3.19527047
     1         -1.26417379         -2.15726624          1.73088667
     1          0.69692147         -4.84875087          1.22921679
     1          2.91900053          1.58938596          1.16944946
     1          0.29796897          1.54169094         -4.03257394
     1          2.33803016          5.47079374         -1.01421327

 Electric dipole moment (dipole orientation):
 (Debye = 10**-18 statcoulomb cm , SI units = C m)
                  (au)            (Debye)         (10**-30 SI)
   Tot        0.850865D+00      0.216268D+01      0.721393D+01
   x          0.000000D+00      0.000000D+00      0.000000D+00
   y          0.000000D+00      0.000000D+00      0.000000D+00
   z          0.850865D+00      0.216268D+01      0.721393D+01

 Dipole polarizability, Alpha (dipole orientation).
 (esu units = cm**3 , SI units = C**2 m**2 J**-1)
 Alpha(0;0):
               (au)            (10**-24 esu)      (10**-40 SI)
   iso        0.451720D+02      0.669380D+01      0.744785D+01
   aniso      0.264874D+02      0.392503D+01      0.436718D+01
   xx         0.343896D+02      0.509601D+01      0.567008D+01
   yx         0.163817D+01      0.242752D+00      0.270098D+00
   yy         0.548300D+02      0.812497D+01      0.904025D+01
   zx         0.380207D+01      0.563408D+00      0.626876D+00
   zy        -0.105509D+02     -0.156348D+01     -0.173960D+01
   zz         0.462963D+02      0.686040D+01      0.763323D+01

 ----------------------------------------------------------------------

 Test job not archived.
 1\1\GINC-C0237\Freq\RM062X\CC-pVTZ\C3H6O2\HARMS.N\25-Sep-2019\0\\#P Ge
 om=AllCheck Guess=TCheck SCRF=Check Test GenChk RM062X/CC-pVTZ Freq\\G
 aussian input prepared by ASE\\0,1\O,0.153582853,-0.5887571886,1.22162
 36117\O,2.2353248867,1.9906256477,-0.2537109294\C,-1.1953236831,-0.856
 6474249,0.898370613\C,0.5655802974,0.6493696095,0.8127176742\C,1.68765
 56658,0.8034024957,0.1254794348\H,-1.8588042581,-0.1053357008,1.338221
 4851\H,-1.3423563105,-0.8681377477,-0.1846418411\H,-1.4373809832,-1.83
 24220958,1.3110564452\H,-0.0551303171,1.4906905137,1.1185558464\H,2.28
 2901455,-0.047152795,-0.1740729497\H,1.6818807883,2.7144627971,0.05380
 46336\\Version=EM64L-G16RevA.03\State=1-A\HF=-268.3171465\RMSD=2.693e-
 09\RMSF=2.050e-06\ZeroPoint=0.0903549\Thermal=0.0964586\Dipole=-0.7883
 331,0.3201151,0.0052751\DipoleDeriv=-1.029097,-0.3210108,0.1128959,-0.
 6400966,-0.9380226,0.2502967,0.17184,0.1397314,-0.4586366,-0.5841747,-
 0.2946993,0.1018354,-0.7554826,-1.0430091,0.4117748,0.1539151,0.189276
 5,-0.4337167,0.9114852,0.2482569,-0.0127538,0.0688137,0.3269747,0.0498
 779,0.1029688,0.0842081,0.366561,0.047671,-0.0281203,-0.204037,0.56140
 37,0.7472312,-0.2672773,-0.3073668,-0.1219536,-0.0040503,0.421388,0.26
 09271,-0.2636382,0.603229,0.8180908,-0.3967019,-0.3255894,-0.1890708,0
 .0962044,-0.0781043,0.0064336,0.0282638,0.1271782,-0.0618121,-0.076576
 9,0.0465378,-0.0783623,0.0047292,-0.0275573,-0.04079,0.0358329,0.01820
 4,0.0523617,0.0098406,-0.0997544,-0.0495775,-0.1426131,0.0062695,-0.03
 71446,0.0060774,-0.0820897,-0.0843328,0.0607745,0.0211176,0.0701988,0.
 0453077,0.0528221,0.097728,0.0678811,0.0046585,-0.1186858,-0.0058161,0
 .1170778,0.0000938,0.1014902,0.0820312,0.0366949,0.0531733,0.0181618,-
 0.0181834,-0.0022924,0.0463985,-0.0044594,0.1432839,0.1972661,0.071724
 3,0.0744693,0.07602,0.3193874,-0.0338999,0.0728552,-0.0400849,0.281440
 1\Polar=52.9685092,8.3529284,46.3132822,-9.2579096,-2.7191656,36.23413
 66\Quadrupole=-0.2094122,2.6271395,-2.4177272,-0.3704186,0.017187,1.47
 87979\PG=C01 [X(C3H6O2)]\NImag=0\\0.42901950,0.12865934,0.40906382,0.0
 2922085,-0.09709452,0.13834263,-0.00597285,-0.00726680,0.01074063,0.33
 311535,-0.01058188,-0.01136409,0.00736882,-0.09856246,0.62679730,0.010
 19820,0.00107634,0.00894553,-0.18113540,0.03667779,0.13785029,-0.23426
 966,-0.03561238,-0.03847778,0.00454786,0.00727035,-0.00101843,0.487250
 33,-0.00513832,-0.08446266,0.00651748,0.00045216,-0.00025531,0.0025696
 6,-0.00489830,0.61573670,-0.05474835,-0.00393254,-0.07528737,0.0011900
 1,0.00026006,-0.00116878,-0.02318385,-0.02523463,0.57458810,-0.1072332
 5,-0.03795066,0.01911203,-0.00845658,-0.01331491,0.00972818,-0.0257182
 1,-0.04720612,0.01559228,0.72409888,-0.07010732,-0.27541549,0.06697866
 ,-0.03798573,-0.00645330,0.02449437,-0.02334136,-0.02269036,0.00251154
 ,0.00284078,0.61269711,0.03616631,0.08024458,-0.07273402,0.00786254,0.
 00582140,-0.00278206,0.00329541,-0.00390556,-0.00101223,-0.33530553,-0
 .04068191,0.32069411,-0.00579602,-0.00902652,0.00505751,-0.13124342,-0
 .09941063,0.05826979,-0.00096819,0.00101375,0.00064432,-0.43140528,-0.
 01954502,0.22837807,0.71694762,-0.03837360,-0.00641164,0.02123491,-0.0
 5836950,-0.27987492,0.04477390,-0.00140419,-0.00236588,0.00439304,-0.0
 1792087,-0.12499073,0.01753404,-0.02052504,0.67403386,0.01079182,0.011
 82646,-0.00868774,0.05897966,0.06984669,-0.07562211,-0.00258858,-0.002
 71700,0.00106311,0.22401990,0.01356382,-0.18616925,-0.35090139,-0.0174
 4305,0.33425480,-0.04182073,0.01568271,0.00881015,-0.00047262,-0.00059
 291,0.00004589,-0.12762906,0.09722636,0.05993804,0.00209864,0.00778482
 ,-0.00130617,0.00001057,-0.00099195,0.00029661,0.15745933,-0.00436648,
 0.00770538,0.00495370,0.00006745,0.00024831,-0.00028973,0.10234307,-0.
 17955741,-0.07488982,-0.00210548,0.00368718,0.00097201,-0.00006247,-0.
 00013408,0.00017174,-0.11267163,0.18527901,-0.00811661,0.00772712,0.00
 779843,-0.00005860,0.00001944,-0.00005045,0.06208270,-0.07610575,-0.09
 817065,0.00014592,0.00045539,-0.00010952,-0.00011542,0.00003275,-0.000
 11109,-0.06455496,0.08222804,0.09682217,-0.02257451,-0.00755574,-0.040
 03713,-0.00029234,-0.00055423,0.00015732,-0.05012760,-0.00027692,-0.01
 615065,0.00354169,0.00553941,-0.00301218,-0.00019421,0.00031373,0.0012
 4697,0.00408696,-0.00051903,0.01820805,0.06421222,-0.00614840,0.001059
 39,-0.00646166,0.00036361,0.00053000,-0.00000983,0.00094209,-0.0543080
 6,0.00091446,0.00153950,0.00175543,-0.00262312,-0.00056051,-0.00018850
 ,0.00072612,-0.00132960,0.00042224,-0.02376946,0.00209048,0.04847223,-
 0.01187875,-0.00204329,-0.00363947,-0.00073594,-0.00110998,0.00013873,
 -0.02224373,-0.00110015,-0.30589774,0.00056084,0.00203644,0.00172374,0
 .00021508,-0.00030174,-0.00001465,-0.00001900,0.00091144,-0.01231483,0
 .03376727,0.00271467,0.33024613,-0.01750650,-0.03814656,0.01209519,-0.
 00054019,-0.00085099,0.00101590,-0.05662900,-0.03819971,0.01752435,-0.
 00592700,0.00110021,-0.00101005,0.00040805,-0.00122639,-0.00059733,0.0
 0570557,0.01593457,-0.00815762,0.00179335,0.00294581,0.00026571,0.0727
 2939,-0.00477611,-0.00530884,0.00118915,-0.00028676,-0.00063346,0.0003
 3635,-0.05028586,-0.27374559,0.09537498,-0.00175526,0.00185469,-0.0005
 5458,0.00022864,0.00026873,-0.00050073,-0.00363932,-0.01797051,0.00922
 584,0.00150255,0.00256781,-0.00083578,0.05881723,0.29255765,-0.0034008
 4,-0.00985273,0.00413984,0.00000500,0.00016151,0.00007661,0.02332776,0
 .10007269,-0.09471004,-0.00114965,-0.00085051,0.00080777,-0.00047136,-
 0.00053229,0.00053412,-0.00319673,-0.01360950,0.00617880,0.00577421,0.
 02892561,-0.00989134,-0.02085132,-0.10438249,0.09309296,0.00682004,-0.
 00918487,-0.00251946,0.00085516,0.00132475,-0.00339763,0.00399896,-0.0
 0226348,-0.00086337,-0.14572897,0.11570777,0.05733960,-0.00801534,0.02
 199306,0.00777280,0.00037226,0.00134954,0.00053028,-0.00035011,0.00018
 896,0.00006039,0.00013406,0.00019645,0.00001118,0.14386519,0.00893803,
 -0.03759146,-0.00354091,0.00008919,0.00374830,-0.00035090,0.00623196,0
 .00146972,0.00092169,0.11740684,-0.19908420,-0.05807658,-0.00343927,0.
 00276262,0.00213876,-0.00153500,0.00055029,0.00022454,-0.00064310,-0.0
 0025334,-0.00036089,-0.00057891,0.00031024,0.00005369,-0.12704330,0.22
 811413,-0.00485433,0.01292194,0.00669167,-0.00316402,0.00043108,-0.003
 36943,-0.00128077,0.00022331,0.00032377,0.05757818,-0.05870378,-0.0649
 8855,0.00997721,-0.01437534,0.00161836,0.00011909,-0.00068767,-0.00012
 594,0.00026145,-0.00026798,-0.00038025,-0.00008723,0.00013175,-0.00017
 078,-0.06479761,0.05847072,0.05552872,0.00087699,-0.00010632,-0.004519
 34,0.01072891,-0.01496703,-0.00455342,-0.00058035,-0.00038981,0.000159
 01,-0.00665142,0.02264573,0.00817839,-0.14995391,0.13190062,0.05699164
 ,0.00024111,0.00007003,-0.00000910,-0.00009575,-0.00003712,0.00008719,
 -0.00009858,-0.00000713,-0.00005375,-0.00138129,-0.00080700,0.00578884
 ,0.14650121,0.00017967,0.00087066,-0.00047126,0.01345518,-0.03058697,-
 0.00634039,-0.00021175,0.00009238,-0.00004532,-0.00191379,0.00542917,0
 .00164942,0.12673559,-0.22318099,-0.06452629,-0.00001515,-0.00014557,-
 0.00004205,0.00002345,0.00000782,-0.00002258,0.00001602,-0.00000371,0.
 00001924,-0.00107966,0.00012283,0.00119731,-0.13454182,0.25032404,-0.0
 0338560,-0.00103353,-0.00418685,-0.00607714,0.00949986,0.00480613,0.00
 002415,-0.00022112,-0.00004075,0.01079557,-0.01207654,0.00414950,0.056
 11808,-0.06677572,-0.07034825,-0.00017337,0.00021488,0.00008496,-0.000
 21372,-0.00008065,0.00007731,-0.00014895,0.00004112,-0.00002376,0.0053
 9102,0.00143469,0.00502482,-0.06375809,0.06645955,0.05843472,-0.001543
 02,0.00050780,0.00051734,-0.20226927,0.23023995,0.11068960,0.00012490,
 -0.00031962,-0.00010178,0.00138149,-0.00463929,-0.00058639,0.01021013,
 -0.01539587,-0.00601210,-0.00005202,-0.00003958,0.00004535,0.00000030,
 0.00000519,-0.00007906,-0.00006916,0.00000557,0.00000549,-0.00056997,0
 .00138055,0.00045920,0.00041307,-0.00264774,0.00142806,0.19237354,0.00
 171507,0.00185494,-0.00067436,0.18804365,-0.30215587,-0.10293755,-0.00
 103363,0.00008647,-0.00027346,0.00037998,0.00321051,-0.00037970,0.0245
 9149,-0.03991848,-0.01308653,0.00008166,-0.00008482,0.00000416,0.00007
 940,-0.00006501,0.00011187,0.00018872,0.00010299,-0.00000522,-0.001189
 22,-0.00014913,0.00065866,-0.00376015,-0.00292966,0.00253745,-0.209096
 95,0.34004806,0.00000731,0.00016017,-0.00138266,0.11239325,-0.12897666
 ,-0.06882444,0.00006312,-0.00009893,0.00031259,-0.00107773,0.00227251,
 0.00042052,-0.00717190,0.01145950,0.00348271,0.00004045,0.00002490,-0.
 00000188,-0.00000156,-0.00006816,-0.00004761,-0.00004864,-0.00002560,-
 0.00003418,0.00047279,-0.00091479,-0.00015238,0.00168863,0.00212238,0.
 00202215,-0.10636571,0.11404469,0.06420516\\0.00000044,-0.00000234,-0.
 00000151,0.00000005,-0.00000074,-0.00000068,0.00000047,0.00000046,0.00
 000071,0.00000032,-0.00000086,-0.00000003,-0.00000032,-0.00000029,-0.0
 0000253,0.00000123,0.00000149,0.00000481,-0.00000320,0.00000375,0.0000
 0003,-0.00000065,0.00000034,-0.00000107,0.00000246,-0.00000100,0.00000
 363,-0.00000222,-0.00000061,-0.00000587,0.00000143,-0.00000020,0.00000
 251\\\@


 IF YOU GIVE EVERYONE A PIECE OF YOUR MIND,
 PRETTY SOON IT WILL BE ALL GONE.
 Job cpu time:       0 days  0 hours 50 minutes 56.5 seconds.
 Elapsed time:       0 days  0 hours 25 minutes 28.9 seconds.
 File lengths (MBytes):  RWF=   1312 Int=      0 D2E=      0 Chk=     32 Scr=     32
 Normal termination of Gaussian 16 at Wed Sep 25 00:44:38 2019.
