 Entering Gaussian System, Link 0=g16
 Input=med/species/COC=CO/conformers/COC=CO_0.com
 Output=med/species/COC=CO/conformers/COC=CO_0.log
 Initial command:
 /shared/centos7/gaussian/g16/l1.exe "/scratch/harms.n/gauss_scrdir/Gau-30780.inp" -scrdir="/scratch/harms.n/gauss_scrdir/"
 Entering Link 1 = /shared/centos7/gaussian/g16/l1.exe PID=     30781.
  
 Copyright (c) 1988,1990,1992,1993,1995,1998,2003,2009,2016,
            Gaussian, Inc.  All Rights Reserved.
  
 This is part of the Gaussian(R) 16 program.  It is based on
 the Gaussian(R) 09 system (copyright 2009, Gaussian, Inc.),
 the Gaussian(R) 03 system (copyright 2003, Gaussian, Inc.),
 the Gaussian(R) 98 system (copyright 1998, Gaussian, Inc.),
 the Gaussian(R) 94 system (copyright 1995, Gaussian, Inc.),
 the Gaussian 92(TM) system (copyright 1992, Gaussian, Inc.),
 the Gaussian 90(TM) system (copyright 1990, Gaussian, Inc.),
 the Gaussian 88(TM) system (copyright 1988, Gaussian, Inc.),
 the Gaussian 86(TM) system (copyright 1986, Carnegie Mellon
 University), and the Gaussian 82(TM) system (copyright 1983,
 Carnegie Mellon University). Gaussian is a federally registered
 trademark of Gaussian, Inc.
  
 This software contains proprietary and confidential information,
 including trade secrets, belonging to Gaussian, Inc.
  
 This software is provided under written license and may be
 used, copied, transmitted, or stored only in accord with that
 written license.
  
 The following legend is applicable only to US Government
 contracts under FAR:
  
                    RESTRICTED RIGHTS LEGEND
  
 Use, reproduction and disclosure by the US Government is
 subject to restrictions as set forth in subparagraphs (a)
 and (c) of the Commercial Computer Software - Restricted
 Rights clause in FAR 52.227-19.
  
 Gaussian, Inc.
 340 Quinnipiac St., Bldg. 40, Wallingford CT 06492
  
  
 ---------------------------------------------------------------
 Warning -- This program may not be used in any manner that
 competes with the business of Gaussian, Inc. or will provide
 assistance to any competitor of Gaussian, Inc.  The licensee
 of this program is prohibited from giving any competitor of
 Gaussian, Inc. access to this program.  By using this program,
 the user acknowledges that Gaussian, Inc. is engaged in the
 business of creating and licensing software in the field of
 computational chemistry and represents and warrants to the
 licensee that it is not a competitor of Gaussian, Inc. and that
 it will not use this program in any manner prohibited above.
 ---------------------------------------------------------------
  

 Cite this work as:
 Gaussian 16, Revision A.03,
 M. J. Frisch, G. W. Trucks, H. B. Schlegel, G. E. Scuseria, 
 M. A. Robb, J. R. Cheeseman, G. Scalmani, V. Barone, 
 G. A. Petersson, H. Nakatsuji, X. Li, M. Caricato, A. V. Marenich, 
 J. Bloino, B. G. Janesko, R. Gomperts, B. Mennucci, H. P. Hratchian, 
 J. V. Ortiz, A. F. Izmaylov, J. L. Sonnenberg, D. Williams-Young, 
 F. Ding, F. Lipparini, F. Egidi, J. Goings, B. Peng, A. Petrone, 
 T. Henderson, D. Ranasinghe, V. G. Zakrzewski, J. Gao, N. Rega, 
 G. Zheng, W. Liang, M. Hada, M. Ehara, K. Toyota, R. Fukuda, 
 J. Hasegawa, M. Ishida, T. Nakajima, Y. Honda, O. Kitao, H. Nakai, 
 T. Vreven, K. Throssell, J. A. Montgomery, Jr., J. E. Peralta, 
 F. Ogliaro, M. J. Bearpark, J. J. Heyd, E. N. Brothers, K. N. Kudin, 
 V. N. Staroverov, T. A. Keith, R. Kobayashi, J. Normand, 
 K. Raghavachari, A. P. Rendell, J. C. Burant, S. S. Iyengar, 
 J. Tomasi, M. Cossi, J. M. Millam, M. Klene, C. Adamo, R. Cammi, 
 J. W. Ochterski, R. L. Martin, K. Morokuma, O. Farkas, 
 J. B. Foresman, and D. J. Fox, Gaussian, Inc., Wallingford CT, 2016.
 
 ******************************************
 Gaussian 16:  EM64L-G16RevA.03 25-Dec-2016
                24-Sep-2019 
 ******************************************
 %nprocshared=20
 Will use up to   20 processors via shared memory.
 %mem=5GB
 ----------------------------------------------------------------------
 #p m062x/cc-pVTZ opt=(calcfc,maxcycles=900,Tight) freq IOP(7/33=1,2/16
 =3) scf=(maxcycle=900)
 ----------------------------------------------------------------------
 1/6=900,7=10,10=4,18=20,19=15,26=3,38=1/1,3;
 2/9=110,12=2,16=3,17=6,18=5,40=1/2;
 3/5=16,6=1,11=2,25=1,30=1,71=2,74=-55,140=1/1,2,3;
 4//1;
 5/5=2,7=900,38=5/2;
 8/6=4,10=90,11=11/1;
 11/6=1,8=1,9=11,15=111,16=1/1,2,10;
 10/6=1,13=1/2;
 6/7=2,8=2,9=2,10=2,28=1/1;
 7/10=1,18=20,25=1,33=1/1,2,3,16;
 1/6=900,7=10,10=4,18=20,19=15,26=3/3(2);
 2/9=110,16=3/2;
 99//99;
 2/9=110,16=3/2;
 3/5=16,6=1,11=2,25=1,30=1,71=1,74=-55/1,2,3;
 4/5=5,16=3,69=1/1;
 5/5=2,7=900,38=5/2;
 7/33=1/1,2,3,16;
 1/6=900,7=10,18=20,19=15,26=3/3(-5);
 2/9=110,16=3/2;
 6/7=2,8=2,9=2,10=2,19=2,28=1/1;
 99/9=1/99;
 Leave Link    1 at Tue Sep 24 23:02:13 2019, MaxMem=   671088640 cpu:               4.0 elap:               2.0
 (Enter /shared/centos7/gaussian/g16/l101.exe)
 ------------------------------
 Gaussian input prepared by ASE
 ------------------------------
 Symbolic Z-matrix:
 Charge =  0 Multiplicity = 1
 O                     0.21885  -0.78583   1.14036 
 O                     2.92913  -0.02169   1.58783 
 C                    -1.18059  -0.84724   0.85545 
 C                     0.69661   0.50246   0.93636 
 C                     1.95082   0.83357   1.13204 
 H                    -1.75444  -0.21357   1.59138 
 H                    -1.38671  -0.47338  -0.18783 
 H                    -1.49192  -1.88845   0.94169 
 H                    -0.04176   1.23709   0.62084 
 H                     2.31277   1.82274   0.94923 
 H                     2.46725  -0.9039    1.79372 
 
 ITRead=  0  0  0  0  0  0  0  0  0  0  0
 MicOpt= -1 -1 -1 -1 -1 -1 -1 -1 -1 -1 -1
 NAtoms=     11 NQM=       11 NQMF=       0 NMMI=      0 NMMIF=      0
                NMic=       0 NMicF=      0.
                    Isotopes and Nuclear Properties:
 (Nuclear quadrupole moments (NQMom) in fm**2, nuclear magnetic moments (NMagM)
  in nuclear magnetons)

  Atom         1           2           3           4           5           6           7           8           9          10
 IAtWgt=          16          16          12          12          12           1           1           1           1           1
 AtmWgt=  15.9949146  15.9949146  12.0000000  12.0000000  12.0000000   1.0078250   1.0078250   1.0078250   1.0078250   1.0078250
 NucSpn=           0           0           0           0           0           1           1           1           1           1
 AtZEff=  -0.0000000  -0.0000000  -0.0000000  -0.0000000  -0.0000000  -0.0000000  -0.0000000  -0.0000000  -0.0000000  -0.0000000
 NQMom=    0.0000000   0.0000000   0.0000000   0.0000000   0.0000000   0.0000000   0.0000000   0.0000000   0.0000000   0.0000000
 NMagM=    0.0000000   0.0000000   0.0000000   0.0000000   0.0000000   2.7928460   2.7928460   2.7928460   2.7928460   2.7928460
 AtZNuc=   8.0000000   8.0000000   6.0000000   6.0000000   6.0000000   1.0000000   1.0000000   1.0000000   1.0000000   1.0000000

  Atom        11
 IAtWgt=           1
 AtmWgt=   1.0078250
 NucSpn=           1
 AtZEff=  -0.0000000
 NQMom=    0.0000000
 NMagM=    2.7928460
 AtZNuc=   1.0000000
 Leave Link  101 at Tue Sep 24 23:02:14 2019, MaxMem=   671088640 cpu:               2.1 elap:               1.1
 (Enter /shared/centos7/gaussian/g16/l103.exe)

 GradGradGradGradGradGradGradGradGradGradGradGradGradGradGradGradGradGrad
 Berny optimization.
 Initialization pass.
                           ----------------------------
                           !    Initial Parameters    !
                           ! (Angstroms and Degrees)  !
 --------------------------                            --------------------------
 ! Name  Definition              Value          Derivative Info.                !
 --------------------------------------------------------------------------------
 ! R1    R(1,3)                  1.4295         calculate D2E/DX2 analytically  !
 ! R2    R(1,4)                  1.3891         calculate D2E/DX2 analytically  !
 ! R3    R(2,5)                  1.3771         calculate D2E/DX2 analytically  !
 ! R4    R(2,11)                 1.0169         calculate D2E/DX2 analytically  !
 ! R5    R(3,6)                  1.128          calculate D2E/DX2 analytically  !
 ! R6    R(3,7)                  1.1272         calculate D2E/DX2 analytically  !
 ! R7    R(3,8)                  1.0902         calculate D2E/DX2 analytically  !
 ! R8    R(4,5)                  1.3119         calculate D2E/DX2 analytically  !
 ! R9    R(4,9)                  1.0883         calculate D2E/DX2 analytically  !
 ! R10   R(5,10)                 1.0691         calculate D2E/DX2 analytically  !
 ! A1    A(3,1,4)              110.3211         calculate D2E/DX2 analytically  !
 ! A2    A(5,2,11)             106.4485         calculate D2E/DX2 analytically  !
 ! A3    A(1,3,6)              110.1135         calculate D2E/DX2 analytically  !
 ! A4    A(1,3,7)              110.4405         calculate D2E/DX2 analytically  !
 ! A5    A(1,3,8)              107.7488         calculate D2E/DX2 analytically  !
 ! A6    A(6,3,7)              108.9336         calculate D2E/DX2 analytically  !
 ! A7    A(6,3,8)              109.8545         calculate D2E/DX2 analytically  !
 ! A8    A(7,3,8)              109.7396         calculate D2E/DX2 analytically  !
 ! A9    A(1,4,5)              122.7516         calculate D2E/DX2 analytically  !
 ! A10   A(1,4,9)              115.8022         calculate D2E/DX2 analytically  !
 ! A11   A(5,4,9)              121.4341         calculate D2E/DX2 analytically  !
 ! A12   A(2,5,4)              124.8778         calculate D2E/DX2 analytically  !
 ! A13   A(2,5,10)             113.0002         calculate D2E/DX2 analytically  !
 ! A14   A(4,5,10)             122.1216         calculate D2E/DX2 analytically  !
 ! D1    D(4,1,3,6)            -65.1804         calculate D2E/DX2 analytically  !
 ! D2    D(4,1,3,7)             55.1678         calculate D2E/DX2 analytically  !
 ! D3    D(4,1,3,8)            175.0189         calculate D2E/DX2 analytically  !
 ! D4    D(3,1,4,5)            179.7048         calculate D2E/DX2 analytically  !
 ! D5    D(3,1,4,9)              0.9551         calculate D2E/DX2 analytically  !
 ! D6    D(11,2,5,4)            -3.9323         calculate D2E/DX2 analytically  !
 ! D7    D(11,2,5,10)          175.8477         calculate D2E/DX2 analytically  !
 ! D8    D(1,4,5,2)             -1.75           calculate D2E/DX2 analytically  !
 ! D9    D(1,4,5,10)           178.4891         calculate D2E/DX2 analytically  !
 ! D10   D(9,4,5,2)            176.9308         calculate D2E/DX2 analytically  !
 ! D11   D(9,4,5,10)            -2.8302         calculate D2E/DX2 analytically  !
 --------------------------------------------------------------------------------
 Trust Radius=3.00D-01 FncErr=1.00D-07 GrdErr=1.00D-06 EigMax=2.50D+02 EigMin=1.00D-04
 Number of steps in this run=    100 maximum allowed number of steps=    100.
 GradGradGradGradGradGradGradGradGradGradGradGradGradGradGradGradGradGrad

 Leave Link  103 at Tue Sep 24 23:02:15 2019, MaxMem=   671088640 cpu:               1.5 elap:               0.8
 (Enter /shared/centos7/gaussian/g16/l202.exe)
                          Input orientation:                          
 ---------------------------------------------------------------------
 Center     Atomic      Atomic             Coordinates (Angstroms)
 Number     Number       Type             X           Y           Z
 ---------------------------------------------------------------------
      1          8           0        0.218851   -0.785834    1.140360
      2          8           0        2.929132   -0.021689    1.587830
      3          6           0       -1.180586   -0.847240    0.855454
      4          6           0        0.696611    0.502463    0.936357
      5          6           0        1.950824    0.833570    1.132037
      6          1           0       -1.754442   -0.213572    1.591378
      7          1           0       -1.386714   -0.473383   -0.187826
      8          1           0       -1.491921   -1.888453    0.941688
      9          1           0       -0.041763    1.237094    0.620844
     10          1           0        2.312770    1.822736    0.949230
     11          1           0        2.467250   -0.903895    1.793722
 ---------------------------------------------------------------------
                    Distance matrix (angstroms):
                    1          2          3          4          5
     1  O    0.000000
     2  O    2.851275   0.000000
     3  C    1.429464   4.255314   0.000000
     4  C    1.389094   2.383968   2.313464   0.000000
     5  C    2.371133   1.377063   3.564737   1.311858   0.000000
     6  H    2.103518   4.687505   1.128020   2.636176   3.877692
     7  H    2.107023   4.688658   1.127250   2.560529   3.819598
     8  H    2.044989   4.842315   1.090179   3.241324   4.392965
     9  H    2.104770   3.368355   2.386715   1.088314   2.096319
    10  H    3.350473   2.046855   4.397853   2.086925   1.069052
    11  H    2.344380   1.016866   3.766996   2.418280   1.929588
                    6          7          8          9         10
     6  H    0.000000
     7  H    1.835291   0.000000
     8  H    1.815555   1.813641   0.000000
     9  H    2.445330   2.321330   3.460484   0.000000
    10  H    4.593596   4.500139   5.314947   2.448396   0.000000
    11  H    4.282543   4.354872   4.167775   3.500661   2.858593
                   11
    11  H    0.000000
 Stoichiometry    C3H6O2
 Framework group  C1[X(C3H6O2)]
 Deg. of freedom    27
 Full point group                 C1      NOp   1
 Largest Abelian subgroup         C1      NOp   1
 Largest concise Abelian subgroup C1      NOp   1
                         Standard orientation:                         
 ---------------------------------------------------------------------
 Center     Atomic      Atomic             Coordinates (Angstroms)
 Number     Number       Type             X           Y           Z
 ---------------------------------------------------------------------
      1          8           0       -0.802175   -0.479331   -0.018077
      2          8           0        2.047124   -0.583997   -0.000495
      3          6           0       -2.180831   -0.102258    0.004122
      4          6           0        0.007083    0.649504    0.002319
      5          6           0        1.317266    0.583727   -0.005848
      6          1           0       -2.428565    0.405007    0.980718
      7          1           0       -2.409277    0.604801   -0.843564
      8          1           0       -2.775348   -1.009765   -0.102980
      9          1           0       -0.512995    1.604458    0.047151
     10          1           0        1.930344    1.459480   -0.013828
     11          1           0        1.375145   -1.343190    0.077520
 ---------------------------------------------------------------------
 Rotational constants (GHZ):          17.9219516           2.7752042           2.4428410
 Leave Link  202 at Tue Sep 24 23:02:17 2019, MaxMem=   671088640 cpu:               3.3 elap:               1.7
 (Enter /shared/centos7/gaussian/g16/l301.exe)
 Standard basis: CC-pVTZ (5D, 7F)
 Ernie: Thresh=  0.10000D-02 Tol=  0.10000D-05 Strict=F.
 Ernie:  15 primitive shells out of 178 were deleted.
 There are   265 symmetry adapted cartesian basis functions of A   symmetry.
 There are   234 symmetry adapted basis functions of A   symmetry.
   234 basis functions,   362 primitive gaussians,   265 cartesian basis functions
    20 alpha electrons       20 beta electrons
       nuclear repulsion energy       174.9991883197 Hartrees.
 IExCor= 4336 DFT=T Ex+Corr=M062X ExCW=0 ScaHFX=  0.540000
 ScaDFX=  1.000000  1.000000  1.000000  1.000000 ScalE2=  1.000000  1.000000
 IRadAn=      5 IRanWt=     -1 IRanGd=            0 ICorTp=0 IEmpDi=  4
 NAtoms=   11 NActive=   11 NUniq=   11 SFac= 1.00D+00 NAtFMM=   60 NAOKFM=F Big=F
 Integral buffers will be    131072 words long.
 Raffenetti 2 integral format.
 Two-electron integral symmetry is turned on.
 Leave Link  301 at Tue Sep 24 23:02:18 2019, MaxMem=   671088640 cpu:               2.5 elap:               1.3
 (Enter /shared/centos7/gaussian/g16/l302.exe)
 NPDir=0 NMtPBC=     1 NCelOv=     1 NCel=       1 NClECP=     1 NCelD=      1
         NCelK=      1 NCelE2=     1 NClLst=     1 CellRange=     0.0.
 One-electron integrals computed using PRISM.
 One-electron integral symmetry used in STVInt
 NBasis=   234 RedAO= T EigKep=  2.63D-04  NBF=   234
 NBsUse=   234 1.00D-06 EigRej= -1.00D+00 NBFU=   234
 Precomputing XC quadrature grid using
 IXCGrd= 4 IRadAn=           5 IRanWt=          -1 IRanGd=           0 AccXCQ= 0.00D+00.
 Generated NRdTot=       0 NPtTot=           0 NUsed=           0 NTot=          32
 NSgBfM=   265   265   265   265   265 MxSgAt=    11 MxSgA2=    11.
 Leave Link  302 at Tue Sep 24 23:03:07 2019, MaxMem=   671088640 cpu:              98.3 elap:              49.2
 (Enter /shared/centos7/gaussian/g16/l303.exe)
 DipDrv:  MaxL=1.
 Leave Link  303 at Tue Sep 24 23:03:11 2019, MaxMem=   671088640 cpu:               8.3 elap:               4.2
 (Enter /shared/centos7/gaussian/g16/l401.exe)
 ExpMin= 1.03D-01 ExpMax= 1.53D+04 ExpMxC= 5.22D+02 IAcc=3 IRadAn=         5 AccDes= 0.00D+00
 Harris functional with IExCor= 1009 and IRadAn=       5 diagonalized for initial guess.
 HarFok:  IExCor= 1009 AccDes= 0.00D+00 IRadAn=         5 IDoV= 1 UseB2=F ITyADJ=14
 ICtDFT=  3500011 ScaDFX=  1.000000  1.000000  1.000000  1.000000
 FoFCou: FMM=F IPFlag=           0 FMFlag=      100000 FMFlg1=           0
         NFxFlg=           0 DoJE=T BraDBF=F KetDBF=T FulRan=T
         wScrn=  0.000000 ICntrl=       500 IOpCl=  0 I1Cent=   200000004 NGrid=           0
         NMat0=    1 NMatS0=      1 NMatT0=    0 NMatD0=    1 NMtDS0=    0 NMtDT0=    0
 Petite list used in FoFCou.
 Harris En= -268.201866503876    
 JPrj=0 DoOrth=F DoCkMO=F.
 Leave Link  401 at Tue Sep 24 23:03:35 2019, MaxMem=   671088640 cpu:              47.0 elap:              23.5
 (Enter /shared/centos7/gaussian/g16/l502.exe)
 Keep R1 ints in memory in canonical form, NReq=399924305.
 FoFCou: FMM=F IPFlag=           0 FMFlag=           0 FMFlg1=           0
         NFxFlg=           0 DoJE=F BraDBF=F KetDBF=F FulRan=T
         wScrn=  0.000000 ICntrl=       600 IOpCl=  0 I1Cent=           0 NGrid=           0
         NMat0=    1 NMatS0=  27495 NMatT0=    0 NMatD0=    1 NMtDS0=    0 NMtDT0=    0
 Symmetry not used in FoFCou.
 Two-electron integral symmetry not used.
 Closed shell SCF:
 Using DIIS extrapolation, IDIIS=  1040.
 NGot=   671088640 LenX=   292939207 LenY=   292868541
 Requested convergence on RMS density matrix=1.00D-08 within 900 cycles.
 Requested convergence on MAX density matrix=1.00D-06.
 Requested convergence on             energy=1.00D-06.
 No special actions if energy rises.
 Integral accuracy reduced to 1.0D-05 until final iterations.

 Cycle   1  Pass 0  IDiag  1:
 E= -268.194497756402    
 DIIS: error= 2.20D-02 at cycle   1 NSaved=   1.
 NSaved= 1 IEnMin= 1 EnMin= -268.194497756402     IErMin= 1 ErrMin= 2.20D-02
 ErrMax= 2.20D-02  0.00D+00 EMaxC= 1.00D-01 BMatC= 1.70D-01 BMatP= 1.70D-01
 IDIUse=3 WtCom= 7.80D-01 WtEn= 2.20D-01
 Coeff-Com:  0.100D+01
 Coeff-En:   0.100D+01
 Coeff:      0.100D+01
 Gap=     0.354 Goal=   None    Shift=    0.000
 GapD=    0.354 DampG=1.000 DampE=0.500 DampFc=0.5000 IDamp=-1.
 Damping current iteration by 5.00D-01
 RMSDP=2.03D-03 MaxDP=6.15D-02              OVMax= 1.23D-01

 Cycle   2  Pass 0  IDiag  1:
 E= -268.259053399602     Delta-E=       -0.064555643200 Rises=F Damp=T
 DIIS: error= 5.75D-03 at cycle   2 NSaved=   2.
 NSaved= 2 IEnMin= 2 EnMin= -268.259053399602     IErMin= 2 ErrMin= 5.75D-03
 ErrMax= 5.75D-03  0.00D+00 EMaxC= 1.00D-01 BMatC= 1.64D-02 BMatP= 1.70D-01
 IDIUse=3 WtCom= 9.43D-01 WtEn= 5.75D-02
 Coeff-Com: -0.181D+00 0.118D+01
 Coeff-En:   0.000D+00 0.100D+01
 Coeff:     -0.171D+00 0.117D+01
 Gap=     0.346 Goal=   None    Shift=    0.000
 RMSDP=4.28D-04 MaxDP=9.25D-03 DE=-6.46D-02 OVMax= 5.86D-02

 Cycle   3  Pass 0  IDiag  1:
 E= -268.314791423756     Delta-E=       -0.055738024154 Rises=F Damp=F
 DIIS: error= 3.73D-03 at cycle   3 NSaved=   3.
 NSaved= 3 IEnMin= 3 EnMin= -268.314791423756     IErMin= 3 ErrMin= 3.73D-03
 ErrMax= 3.73D-03  0.00D+00 EMaxC= 1.00D-01 BMatC= 3.97D-03 BMatP= 1.64D-02
 IDIUse=3 WtCom= 9.63D-01 WtEn= 3.73D-02
 Coeff-Com: -0.119D+00 0.406D+00 0.713D+00
 Coeff-En:   0.000D+00 0.000D+00 0.100D+01
 Coeff:     -0.115D+00 0.391D+00 0.724D+00
 Gap=     0.341 Goal=   None    Shift=    0.000
 RMSDP=1.98D-04 MaxDP=6.45D-03 DE=-5.57D-02 OVMax= 2.04D-02

 Cycle   4  Pass 0  IDiag  1:
 E= -268.316713827077     Delta-E=       -0.001922403322 Rises=F Damp=F
 DIIS: error= 1.91D-03 at cycle   4 NSaved=   4.
 NSaved= 4 IEnMin= 4 EnMin= -268.316713827077     IErMin= 4 ErrMin= 1.91D-03
 ErrMax= 1.91D-03  0.00D+00 EMaxC= 1.00D-01 BMatC= 9.63D-04 BMatP= 3.97D-03
 IDIUse=3 WtCom= 9.81D-01 WtEn= 1.91D-02
 Coeff-Com: -0.362D-01 0.900D-01 0.371D+00 0.575D+00
 Coeff-En:   0.000D+00 0.000D+00 0.201D+00 0.799D+00
 Coeff:     -0.355D-01 0.883D-01 0.368D+00 0.579D+00
 Gap=     0.336 Goal=   None    Shift=    0.000
 RMSDP=7.82D-05 MaxDP=2.80D-03 DE=-1.92D-03 OVMax= 8.43D-03

 Cycle   5  Pass 0  IDiag  1:
 E= -268.317449229494     Delta-E=       -0.000735402416 Rises=F Damp=F
 DIIS: error= 2.87D-04 at cycle   5 NSaved=   5.
 NSaved= 5 IEnMin= 5 EnMin= -268.317449229494     IErMin= 5 ErrMin= 2.87D-04
 ErrMax= 2.87D-04  0.00D+00 EMaxC= 1.00D-01 BMatC= 1.48D-05 BMatP= 9.63D-04
 IDIUse=3 WtCom= 9.97D-01 WtEn= 2.87D-03
 Coeff-Com: -0.554D-02 0.104D-01 0.841D-01 0.192D+00 0.719D+00
 Coeff-En:   0.000D+00 0.000D+00 0.000D+00 0.000D+00 0.100D+01
 Coeff:     -0.553D-02 0.103D-01 0.838D-01 0.191D+00 0.720D+00
 Gap=     0.336 Goal=   None    Shift=    0.000
 RMSDP=1.34D-05 MaxDP=4.71D-04 DE=-7.35D-04 OVMax= 1.76D-03

 Cycle   6  Pass 0  IDiag  1:
 E= -268.317461276423     Delta-E=       -0.000012046929 Rises=F Damp=F
 DIIS: error= 6.93D-05 at cycle   6 NSaved=   6.
 NSaved= 6 IEnMin= 6 EnMin= -268.317461276423     IErMin= 6 ErrMin= 6.93D-05
 ErrMax= 6.93D-05  0.00D+00 EMaxC= 1.00D-01 BMatC= 1.89D-06 BMatP= 1.48D-05
 IDIUse=1 WtCom= 1.00D+00 WtEn= 0.00D+00
 Coeff-Com: -0.106D-02 0.946D-03 0.245D-01 0.707D-01 0.348D+00 0.557D+00
 Coeff:     -0.106D-02 0.946D-03 0.245D-01 0.707D-01 0.348D+00 0.557D+00
 Gap=     0.336 Goal=   None    Shift=    0.000
 RMSDP=3.94D-06 MaxDP=1.40D-04 DE=-1.20D-05 OVMax= 4.93D-04

 Initial convergence to 1.0D-05 achieved.  Increase integral accuracy.
 Cycle   7  Pass 1  IDiag  1:
 E= -268.317467451363     Delta-E=       -0.000006174940 Rises=F Damp=F
 DIIS: error= 2.73D-05 at cycle   1 NSaved=   1.
 NSaved= 1 IEnMin= 1 EnMin= -268.317467451363     IErMin= 1 ErrMin= 2.73D-05
 ErrMax= 2.73D-05  0.00D+00 EMaxC= 1.00D-01 BMatC= 2.93D-07 BMatP= 2.93D-07
 IDIUse=1 WtCom= 1.00D+00 WtEn= 0.00D+00
 Coeff-Com:  0.100D+01
 Coeff:      0.100D+01
 Gap=     0.336 Goal=   None    Shift=    0.000
 RMSDP=3.94D-06 MaxDP=1.40D-04 DE=-6.17D-06 OVMax= 3.09D-04

 Cycle   8  Pass 1  IDiag  1:
 E= -268.317467536304     Delta-E=       -0.000000084941 Rises=F Damp=F
 DIIS: error= 2.78D-05 at cycle   2 NSaved=   2.
 NSaved= 2 IEnMin= 2 EnMin= -268.317467536304     IErMin= 1 ErrMin= 2.73D-05
 ErrMax= 2.78D-05  0.00D+00 EMaxC= 1.00D-01 BMatC= 2.15D-07 BMatP= 2.93D-07
 IDIUse=1 WtCom= 1.00D+00 WtEn= 0.00D+00
 Coeff-Com:  0.450D+00 0.550D+00
 Coeff:      0.450D+00 0.550D+00
 Gap=     0.336 Goal=   None    Shift=    0.000
 RMSDP=1.43D-06 MaxDP=4.89D-05 DE=-8.49D-08 OVMax= 1.95D-04

 Cycle   9  Pass 1  IDiag  1:
 E= -268.317467681052     Delta-E=       -0.000000144748 Rises=F Damp=F
 DIIS: error= 9.41D-06 at cycle   3 NSaved=   3.
 NSaved= 3 IEnMin= 3 EnMin= -268.317467681052     IErMin= 3 ErrMin= 9.41D-06
 ErrMax= 9.41D-06  0.00D+00 EMaxC= 1.00D-01 BMatC= 2.27D-08 BMatP= 2.15D-07
 IDIUse=1 WtCom= 1.00D+00 WtEn= 0.00D+00
 Coeff-Com: -0.294D-01 0.230D+00 0.799D+00
 Coeff:     -0.294D-01 0.230D+00 0.799D+00
 Gap=     0.336 Goal=   None    Shift=    0.000
 RMSDP=5.61D-07 MaxDP=1.53D-05 DE=-1.45D-07 OVMax= 6.33D-05

 Cycle  10  Pass 1  IDiag  1:
 E= -268.317467700404     Delta-E=       -0.000000019352 Rises=F Damp=F
 DIIS: error= 1.67D-06 at cycle   4 NSaved=   4.
 NSaved= 4 IEnMin= 4 EnMin= -268.317467700404     IErMin= 4 ErrMin= 1.67D-06
 ErrMax= 1.67D-06  0.00D+00 EMaxC= 1.00D-01 BMatC= 6.20D-10 BMatP= 2.27D-08
 IDIUse=1 WtCom= 1.00D+00 WtEn= 0.00D+00
 Coeff-Com: -0.196D-01 0.496D-01 0.254D+00 0.716D+00
 Coeff:     -0.196D-01 0.496D-01 0.254D+00 0.716D+00
 Gap=     0.336 Goal=   None    Shift=    0.000
 RMSDP=8.13D-08 MaxDP=2.53D-06 DE=-1.94D-08 OVMax= 9.32D-06

 Cycle  11  Pass 1  IDiag  1:
 E= -268.317467700926     Delta-E=       -0.000000000522 Rises=F Damp=F
 DIIS: error= 7.81D-07 at cycle   5 NSaved=   5.
 NSaved= 5 IEnMin= 5 EnMin= -268.317467700926     IErMin= 5 ErrMin= 7.81D-07
 ErrMax= 7.81D-07  0.00D+00 EMaxC= 1.00D-01 BMatC= 1.26D-10 BMatP= 6.20D-10
 IDIUse=1 WtCom= 1.00D+00 WtEn= 0.00D+00
 Coeff-Com: -0.455D-02-0.162D-01-0.858D-02 0.297D+00 0.732D+00
 Coeff:     -0.455D-02-0.162D-01-0.858D-02 0.297D+00 0.732D+00
 Gap=     0.336 Goal=   None    Shift=    0.000
 RMSDP=4.18D-08 MaxDP=1.25D-06 DE=-5.22D-10 OVMax= 2.69D-06

 Cycle  12  Pass 1  IDiag  1:
 E= -268.317467701034     Delta-E=       -0.000000000108 Rises=F Damp=F
 DIIS: error= 2.63D-07 at cycle   6 NSaved=   6.
 NSaved= 6 IEnMin= 6 EnMin= -268.317467701034     IErMin= 6 ErrMin= 2.63D-07
 ErrMax= 2.63D-07  0.00D+00 EMaxC= 1.00D-01 BMatC= 1.23D-11 BMatP= 1.26D-10
 IDIUse=1 WtCom= 1.00D+00 WtEn= 0.00D+00
 Coeff-Com:  0.141D-02-0.136D-01-0.402D-01 0.114D-01 0.286D+00 0.755D+00
 Coeff:      0.141D-02-0.136D-01-0.402D-01 0.114D-01 0.286D+00 0.755D+00
 Gap=     0.336 Goal=   None    Shift=    0.000
 RMSDP=1.30D-08 MaxDP=4.53D-07 DE=-1.08D-10 OVMax= 1.66D-06

 Cycle  13  Pass 1  IDiag  1:
 E= -268.317467701045     Delta-E=       -0.000000000010 Rises=F Damp=F
 DIIS: error= 3.96D-08 at cycle   7 NSaved=   7.
 NSaved= 7 IEnMin= 7 EnMin= -268.317467701045     IErMin= 7 ErrMin= 3.96D-08
 ErrMax= 3.96D-08  0.00D+00 EMaxC= 1.00D-01 BMatC= 8.60D-13 BMatP= 1.23D-11
 IDIUse=1 WtCom= 1.00D+00 WtEn= 0.00D+00
 Coeff-Com:  0.816D-03-0.490D-02-0.165D-01-0.848D-02 0.810D-01 0.303D+00
 Coeff-Com:  0.645D+00
 Coeff:      0.816D-03-0.490D-02-0.165D-01-0.848D-02 0.810D-01 0.303D+00
 Coeff:      0.645D+00
 Gap=     0.336 Goal=   None    Shift=    0.000
 RMSDP=3.32D-09 MaxDP=1.12D-07 DE=-1.05D-11 OVMax= 3.51D-07

 SCF Done:  E(RM062X) =  -268.317467701     A.U. after   13 cycles
            NFock= 13  Conv=0.33D-08     -V/T= 2.0062
 KE= 2.666650264403D+02 PE=-9.782826939164D+02 EE= 2.683010114554D+02
 Leave Link  502 at Tue Sep 24 23:08:24 2019, MaxMem=   671088640 cpu:             572.7 elap:             289.7
 (Enter /shared/centos7/gaussian/g16/l801.exe)
 DoSCS=F DFT=T ScalE2(SS,OS)=  1.000000  1.000000
 Range of M.O.s used for correlation:     1   234
 NBasis=   234 NAE=    20 NBE=    20 NFC=     0 NFV=     0
 NROrb=    234 NOA=    20 NOB=    20 NVA=   214 NVB=   214

 **** Warning!!: The largest alpha MO coefficient is  0.13125585D+02

 Leave Link  801 at Tue Sep 24 23:08:25 2019, MaxMem=   671088640 cpu:               2.1 elap:               1.0
 (Enter /shared/centos7/gaussian/g16/l1101.exe)
 Using compressed storage, NAtomX=    11.
 Will process     12 centers per pass.
 Leave Link 1101 at Tue Sep 24 23:08:46 2019, MaxMem=   671088640 cpu:              41.9 elap:              21.0
 (Enter /shared/centos7/gaussian/g16/l1102.exe)
 Symmetrizing basis deriv contribution to polar:
 IMax=3 JMax=2 DiffMx= 0.00D+00
 Leave Link 1102 at Tue Sep 24 23:08:49 2019, MaxMem=   671088640 cpu:               4.9 elap:               2.5
 (Enter /shared/centos7/gaussian/g16/l1110.exe)
 Forming Gx(P) for the SCF density, NAtomX=    11.
 Integral derivatives from FoFJK, PRISM(SPDF).
 Do as many integral derivatives as possible in FoFJK.
 G2DrvN: MDV=     671087712.
 G2DrvN: will do    12 centers at a time, making    1 passes.
 Calling FoFCou, ICntrl=  3107 FMM=F I1Cent=   0 AccDes= 0.00D+00.
 FoFJK:  IHMeth= 1 ICntrl=    3107 DoSepK=F KAlg= 0 I1Cent=           0 FoldK=F
 IRaf=         0 NMat=       1 IRICut=       1 DoRegI=T DoRafI=F ISym2E= 0 IDoP0=0 IntGTp=1.
 FoFCou: FMM=F IPFlag=           0 FMFlag=      100000 FMFlg1=           0
         NFxFlg=           0 DoJE=F BraDBF=F KetDBF=F FulRan=T
         wScrn=  0.000000 ICntrl=      3107 IOpCl=  0 I1Cent=           0 NGrid=           0
         NMat0=    1 NMatS0=      1 NMatT0=    0 NMatD0=    1 NMtDS0=    0 NMtDT0=    0
 Symmetry not used in FoFCou.
 End of G2Drv F.D. properties file   721 does not exist.
 End of G2Drv F.D. properties file   722 does not exist.
 End of G2Drv F.D. properties file   788 does not exist.
 Leave Link 1110 at Tue Sep 24 23:13:40 2019, MaxMem=   671088640 cpu:             581.2 elap:             290.6
 (Enter /shared/centos7/gaussian/g16/l1002.exe)
 Minotr:  Closed shell wavefunction.
          IDoAtm=11111111111
          Direct CPHF calculation.
          Differentiating once with respect to nuclear coordinates.
          Requested convergence is 1.0D-08 RMS, and 1.0D-07 maximum.
          Secondary convergence is 1.0D-12 RMS, and 1.0D-12 maximum.
          NewPWx=T KeepS1=F KeepF1=F KeepIn=T MapXYZ=F SortEE=F KeepMc=T.
         3279 words used for storage of precomputed grid.
 Keep R1 ints in memory in canonical form, NReq=399865278.
 FoFCou: FMM=F IPFlag=           0 FMFlag=           0 FMFlg1=           0
         NFxFlg=           0 DoJE=F BraDBF=F KetDBF=F FulRan=T
         wScrn=  0.000000 ICntrl=       600 IOpCl=  0 I1Cent=           0 NGrid=           0
         NMat0=    1 NMatS0=  27495 NMatT0=    0 NMatD0=    1 NMtDS0=    0 NMtDT0=    0
 Symmetry not used in FoFCou.
 Two-electron integral symmetry not used.
          MDV=     671088640 using IRadAn=       1.
          Solving linear equations simultaneously, MaxMat=       0.
          There are    36 degrees of freedom in the 1st order CPHF.  IDoFFX=6 NUNeed=     0.
     30 vectors produced by pass  0 Test12= 1.19D-14 2.78D-09 XBig12= 6.66D-02 1.02D-01.
 AX will form    30 AO Fock derivatives at one time.
     30 vectors produced by pass  1 Test12= 1.19D-14 2.78D-09 XBig12= 1.43D-02 3.36D-02.
     30 vectors produced by pass  2 Test12= 1.19D-14 2.78D-09 XBig12= 5.52D-04 5.31D-03.
     30 vectors produced by pass  3 Test12= 1.19D-14 2.78D-09 XBig12= 7.16D-06 3.60D-04.
     30 vectors produced by pass  4 Test12= 1.19D-14 2.78D-09 XBig12= 5.77D-08 3.78D-05.
     30 vectors produced by pass  5 Test12= 1.19D-14 2.78D-09 XBig12= 2.18D-10 2.05D-06.
     19 vectors produced by pass  6 Test12= 1.19D-14 2.78D-09 XBig12= 8.55D-13 1.72D-07.
      3 vectors produced by pass  7 Test12= 1.19D-14 2.78D-09 XBig12= 3.53D-15 1.07D-08.
 InvSVY:  IOpt=1 It=  1 EMax= 1.11D-15
 Solved reduced A of dimension   202 with    30 vectors.
 End of Minotr F.D. properties file   721 does not exist.
 End of Minotr F.D. properties file   722 does not exist.
 End of Minotr F.D. properties file   788 does not exist.
 Leave Link 1002 at Tue Sep 24 23:20:43 2019, MaxMem=   671088640 cpu:             846.8 elap:             423.4
 (Enter /shared/centos7/gaussian/g16/l601.exe)
 Copying SCF densities to generalized density rwf, IOpCl= 0 IROHF=0.

 **********************************************************************

            Population analysis using the SCF density.

 **********************************************************************

 Orbital symmetries:
       Occupied  (A) (A) (A) (A) (A) (A) (A) (A) (A) (A) (A) (A)
                 (A) (A) (A) (A) (A) (A) (A) (A)
       Virtual   (A) (A) (A) (A) (A) (A) (A) (A) (A) (A) (A) (A)
                 (A) (A) (A) (A) (A) (A) (A) (A) (A) (A) (A) (A)
                 (A) (A) (A) (A) (A) (A) (A) (A) (A) (A) (A) (A)
                 (A) (A) (A) (A) (A) (A) (A) (A) (A) (A) (A) (A)
                 (A) (A) (A) (A) (A) (A) (A) (A) (A) (A) (A) (A)
                 (A) (A) (A) (A) (A) (A) (A) (A) (A) (A) (A) (A)
                 (A) (A) (A) (A) (A) (A) (A) (A) (A) (A) (A) (A)
                 (A) (A) (A) (A) (A) (A) (A) (A) (A) (A) (A) (A)
                 (A) (A) (A) (A) (A) (A) (A) (A) (A) (A) (A) (A)
                 (A) (A) (A) (A) (A) (A) (A) (A) (A) (A) (A) (A)
                 (A) (A) (A) (A) (A) (A) (A) (A) (A) (A) (A) (A)
                 (A) (A) (A) (A) (A) (A) (A) (A) (A) (A) (A) (A)
                 (A) (A) (A) (A) (A) (A) (A) (A) (A) (A) (A) (A)
                 (A) (A) (A) (A) (A) (A) (A) (A) (A) (A) (A) (A)
                 (A) (A) (A) (A) (A) (A) (A) (A) (A) (A) (A) (A)
                 (A) (A) (A) (A) (A) (A) (A) (A) (A) (A) (A) (A)
                 (A) (A) (A) (A) (A) (A) (A) (A) (A) (A) (A) (A)
                 (A) (A) (A) (A) (A) (A) (A) (A) (A) (A)
 The electronic state is 1-A.
 Alpha  occ. eigenvalues --  -19.65506 -19.64431 -10.60128 -10.58177 -10.57829
 Alpha  occ. eigenvalues --   -1.18463  -1.15313  -0.85873  -0.77870  -0.67727
 Alpha  occ. eigenvalues --   -0.60792  -0.58240  -0.54259  -0.50503  -0.49078
 Alpha  occ. eigenvalues --   -0.46576  -0.43530  -0.42156  -0.39961  -0.26873
 Alpha virt. eigenvalues --    0.06748   0.07688   0.08185   0.09798   0.13321
 Alpha virt. eigenvalues --    0.14494   0.15261   0.15411   0.20845   0.29043
 Alpha virt. eigenvalues --    0.30769   0.31798   0.33582   0.35078   0.35287
 Alpha virt. eigenvalues --    0.37897   0.41374   0.42642   0.43144   0.44997
 Alpha virt. eigenvalues --    0.46487   0.46868   0.48842   0.49014   0.53017
 Alpha virt. eigenvalues --    0.54188   0.54919   0.56131   0.60214   0.62915
 Alpha virt. eigenvalues --    0.64221   0.70269   0.71032   0.74299   0.74564
 Alpha virt. eigenvalues --    0.76644   0.81435   0.82342   0.83700   0.85064
 Alpha virt. eigenvalues --    0.88542   0.90820   0.93105   0.99182   1.00342
 Alpha virt. eigenvalues --    1.01591   1.05335   1.07450   1.09619   1.10909
 Alpha virt. eigenvalues --    1.13011   1.17671   1.19467   1.22417   1.24014
 Alpha virt. eigenvalues --    1.28432   1.29573   1.30514   1.32100   1.33623
 Alpha virt. eigenvalues --    1.35127   1.38275   1.39328   1.44617   1.48737
 Alpha virt. eigenvalues --    1.51562   1.53925   1.61279   1.70597   1.79329
 Alpha virt. eigenvalues --    1.86147   1.91422   1.93168   2.00090   2.01807
 Alpha virt. eigenvalues --    2.03094   2.10121   2.12479   2.13580   2.18683
 Alpha virt. eigenvalues --    2.21133   2.22967   2.24863   2.32984   2.34754
 Alpha virt. eigenvalues --    2.39742   2.45406   2.49036   2.54051   2.54577
 Alpha virt. eigenvalues --    2.63906   2.64634   2.72231   2.74852   2.76489
 Alpha virt. eigenvalues --    2.78472   2.79564   2.80740   2.84522   2.86829
 Alpha virt. eigenvalues --    2.89921   2.91376   2.95005   2.97882   3.00074
 Alpha virt. eigenvalues --    3.00606   3.01177   3.02705   3.08377   3.09901
 Alpha virt. eigenvalues --    3.11979   3.12555   3.14145   3.19884   3.20441
 Alpha virt. eigenvalues --    3.22020   3.24094   3.27167   3.28074   3.29558
 Alpha virt. eigenvalues --    3.31554   3.32504   3.34396   3.37158   3.38408
 Alpha virt. eigenvalues --    3.42583   3.43480   3.45520   3.49251   3.54914
 Alpha virt. eigenvalues --    3.58278   3.62407   3.66233   3.68146   3.70460
 Alpha virt. eigenvalues --    3.72252   3.73691   3.77156   3.77809   3.81592
 Alpha virt. eigenvalues --    3.82943   3.83536   3.86746   3.89873   3.93862
 Alpha virt. eigenvalues --    3.97472   3.99561   4.00953   4.02651   4.05446
 Alpha virt. eigenvalues --    4.09784   4.11115   4.17231   4.19967   4.26036
 Alpha virt. eigenvalues --    4.26693   4.29819   4.36133   4.43958   4.47758
 Alpha virt. eigenvalues --    4.51689   4.55456   4.58751   4.61178   4.69679
 Alpha virt. eigenvalues --    4.69786   4.75326   4.85132   4.86230   4.87088
 Alpha virt. eigenvalues --    4.92563   4.96287   4.97233   5.02895   5.03760
 Alpha virt. eigenvalues --    5.04626   5.08688   5.14222   5.20319   5.26679
 Alpha virt. eigenvalues --    5.39180   5.43313   5.47883   5.52259   5.67077
 Alpha virt. eigenvalues --    5.69282   5.71170   5.75602   5.77356   5.88960
 Alpha virt. eigenvalues --    5.89782   5.94170   6.16605   6.27485   6.32889
 Alpha virt. eigenvalues --    6.38825   6.50566   6.58828   6.68069   6.70270
 Alpha virt. eigenvalues --    6.76838   6.79068   6.80895   6.86676   7.02175
 Alpha virt. eigenvalues --    7.12806   7.24297   7.27830   7.38245  10.07379
 Alpha virt. eigenvalues --   10.79083  11.79197  12.87961  14.18600
          Condensed to atoms (all electrons):
               1          2          3          4          5          6
     1  O    7.892522  -0.000823   0.305806   0.324079  -0.074583  -0.047655
     2  O   -0.000823   7.793225  -0.000150  -0.084903   0.362738  -0.000068
     3  C    0.305806  -0.000150   4.713583  -0.072041   0.000292   0.398810
     4  C    0.324079  -0.084903  -0.072041   5.007935   0.557354  -0.007613
     5  C   -0.074583   0.362738   0.000292   0.557354   4.853042   0.000474
     6  H   -0.047655  -0.000068   0.398810  -0.007613   0.000474   0.669397
     7  H   -0.047015  -0.000064   0.392976  -0.008143  -0.000415  -0.074377
     8  H   -0.028651   0.000003   0.396651   0.008757   0.000466  -0.031906
     9  H   -0.056101   0.005310  -0.004009   0.379906  -0.052246   0.002722
    10  H    0.002930  -0.035875  -0.000507  -0.076957   0.436932  -0.000028
    11  H    0.015549   0.325991  -0.000680  -0.022790  -0.040235   0.000001
               7          8          9         10         11
     1  O   -0.047015  -0.028651  -0.056101   0.002930   0.015549
     2  O   -0.000064   0.000003   0.005310  -0.035875   0.325991
     3  C    0.392976   0.396651  -0.004009  -0.000507  -0.000680
     4  C   -0.008143   0.008757   0.379906  -0.076957  -0.022790
     5  C   -0.000415   0.000466  -0.052246   0.436932  -0.040235
     6  H   -0.074377  -0.031906   0.002722  -0.000028   0.000001
     7  H    0.678479  -0.029878   0.003281  -0.000116   0.000175
     8  H   -0.029878   0.565863  -0.000316   0.000028  -0.000091
     9  H    0.003281  -0.000316   0.617641  -0.006339   0.001421
    10  H   -0.000116   0.000028  -0.006339   0.524083   0.006256
    11  H    0.000175  -0.000091   0.001421   0.006256   0.435559
 Mulliken charges:
               1
     1  O   -0.286058
     2  O   -0.365384
     3  C   -0.130731
     4  C   -0.005585
     5  C   -0.043819
     6  H    0.090243
     7  H    0.085096
     8  H    0.119074
     9  H    0.108730
    10  H    0.149592
    11  H    0.278842
 Sum of Mulliken charges =  -0.00000
 Mulliken charges with hydrogens summed into heavy atoms:
               1
     1  O   -0.286058
     2  O   -0.086542
     3  C    0.163682
     4  C    0.103145
     5  C    0.105773
 APT charges:
               1
     1  O   -0.214423
     2  O   -0.301534
     3  C   -0.965243
     4  C   -0.314341
     5  C   -0.433847
     6  H    0.317147
     7  H    0.305098
     8  H    0.460508
     9  H    0.319729
    10  H    0.492192
    11  H    0.334714
 Sum of APT charges =  -0.00000
 APT charges with hydrogens summed into heavy atoms:
               1
     1  O   -0.214423
     2  O    0.033179
     3  C    0.117510
     4  C    0.005388
     5  C    0.058345
 Electronic spatial extent (au):  <R**2>=            501.8029
 Charge=             -0.0000 electrons
 Dipole moment (field-independent basis, Debye):
    X=             -2.3315    Y=              0.7545    Z=              0.1540  Tot=              2.4554
 Quadrupole moment (field-independent basis, Debye-Ang):
   XX=            -30.1682   YY=            -27.0834   ZZ=            -32.3487
   XY=              0.9657   XZ=              0.1193   YZ=             -0.1864
 Traceless Quadrupole moment (field-independent basis, Debye-Ang):
   XX=             -0.3014   YY=              2.7834   ZZ=             -2.4819
   XY=              0.9657   XZ=              0.1193   YZ=             -0.1864
 Octapole moment (field-independent basis, Debye-Ang**2):
  XXX=            -17.3993  YYY=             -6.9855  ZZZ=              0.1788  XYY=              4.7103
  XXY=              2.6265  XXZ=             -0.1226  XZZ=             -0.5535  YZZ=             -2.3219
  YYZ=              0.2197  XYZ=             -0.4484
 Hexadecapole moment (field-independent basis, Debye-Ang**3):
 XXXX=           -505.5940 YYYY=            -92.1060 ZZZZ=            -40.1830 XXXY=             20.1022
 XXXZ=              0.6936 YYYX=             -4.7570 YYYZ=             -0.2895 ZZZX=             -0.3891
 ZZZY=             -0.0227 XXYY=            -89.8496 XXZZ=            -90.8463 YYZZ=            -25.8032
 XXYZ=             -0.2487 YYXZ=              0.9477 ZZXY=             -2.9032
 N-N= 1.749991883197D+02 E-N=-9.782826835886D+02  KE= 2.666650264403D+02
  Exact polarizability:   0.000   0.000   0.000   0.000   0.000   0.000
 Approx polarizability:  67.518  -1.035  49.756  -0.211  -0.184  39.078
 No NMR shielding tensors so no spin-rotation constants.
 Leave Link  601 at Tue Sep 24 23:21:08 2019, MaxMem=   671088640 cpu:              49.7 elap:              24.9
 (Enter /shared/centos7/gaussian/g16/l701.exe)
 SCFChk:  SCF convergence  3.32D-09 required  1.00D-08
 ... and contract with generalized density number  0.
 Compute integral second derivatives.
 Entering OneElI...
 Calculate overlap and kinetic energy integrals
    NBasis = 265  MinDer = 2  MaxDer = 2
 Requested accuracy = 0.1000D-12
 PrmmSu-InSpLW:  IPartL=    0 NPrtUS=   20 NPrtUL=    1 DoSpLW=F IThBeg=    0 IThEnd=   19 NThAct=   20.
 PrsmSu:  NPrtUS=  20 ThrOK=T IAlg=1 NPAlg=1 LenDen=           0 ISkipM=0 DoSpLW=F IThBeg=    0 IThEnd=   19.
 Prism:   IPart=     0 DynPar=F LinDyn=F Incr=           1.
 PRISM was handed    33439743 working-precision words and  3732 shell-pairs
 PRISM was handed    33439743 working-precision words and  3732 shell-pairs
 PRISM was handed    33439743 working-precision words and  3732 shell-pairs
 PRISM was handed    33439743 working-precision words and  3732 shell-pairs
 PRISM was handed    33439743 working-precision words and  3732 shell-pairs
 PRISM was handed    33439743 working-precision words and  3732 shell-pairs
 PRISM was handed    33439743 working-precision words and  3732 shell-pairs
 PRISM was handed    33439743 working-precision words and  3732 shell-pairs
 PRISM was handed    33439743 working-precision words and  3732 shell-pairs
 PRISM was handed    33439743 working-precision words and  3732 shell-pairs
 PRISM was handed    33439743 working-precision words and  3732 shell-pairs
 PRISM was handed    33439743 working-precision words and  3732 shell-pairs
 PRISM was handed    33439743 working-precision words and  3732 shell-pairs
 IPart=  0 NShTot=         229 NBatch=          69 AvBLen=         3.3
 PRISM was handed    33439743 working-precision words and  3732 shell-pairs
 IPart=  9 NShTot=         180 NBatch=          27 AvBLen=         6.7
 IPart=  5 NShTot=         197 NBatch=          41 AvBLen=         4.8
 PRISM was handed    33439743 working-precision words and  3732 shell-pairs
 IPart= 17 NShTot=         167 NBatch=          25 AvBLen=         6.7
 IPart= 14 NShTot=         172 NBatch=          26 AvBLen=         6.6
 PRISM was handed    33439743 working-precision words and  3732 shell-pairs
 PRISM was handed    33439743 working-precision words and  3732 shell-pairs
 IPart= 13 NShTot=         174 NBatch=          26 AvBLen=         6.7
 PRISM was handed    33439743 working-precision words and  3732 shell-pairs
 PRISM was handed    33439743 working-precision words and  3732 shell-pairs
 PRISM was handed    33439743 working-precision words and  3732 shell-pairs
 IPart=  8 NShTot=         180 NBatch=          27 AvBLen=         6.7
 IPart=  7 NShTot=         190 NBatch=          36 AvBLen=         5.3
 IPart= 15 NShTot=         171 NBatch=          25 AvBLen=         6.8
 IPart= 19 NShTot=         162 NBatch=          25 AvBLen=         6.5
 IPart= 11 NShTot=         176 NBatch=          26 AvBLen=         6.8
 IPart= 12 NShTot=         176 NBatch=          26 AvBLen=         6.8
 IPart=  3 NShTot=         212 NBatch=          52 AvBLen=         4.1
 IPart= 18 NShTot=         165 NBatch=          25 AvBLen=         6.6
 IPart=  4 NShTot=         204 NBatch=          48 AvBLen=         4.3
 IPart=  1 NShTot=         225 NBatch=          65 AvBLen=         3.5
 IPart=  6 NShTot=         193 NBatch=          38 AvBLen=         5.1
 IPart= 16 NShTot=         168 NBatch=          25 AvBLen=         6.7
 IPart= 10 NShTot=         178 NBatch=          27 AvBLen=         6.6
 IPart=  2 NShTot=         213 NBatch=          53 AvBLen=         4.0
 PrSmSu:  NxtVal=             21.
 Entering OneElI...
 Calculate potential energy integrals
    NBasis = 265  MinDer = 2  MaxDer = 2
 Requested accuracy = 0.1000D-12
 PrmmSu-InSpLW:  IPartL=    0 NPrtUS=   20 NPrtUL=    1 DoSpLW=F IThBeg=    0 IThEnd=   19 NThAct=   20.
 PrsmSu:  NPrtUS=  20 ThrOK=T IAlg=1 NPAlg=1 LenDen=           0 ISkipM=0 DoSpLW=F IThBeg=    0 IThEnd=   19.
 Prism:   IPart=     0 DynPar=F LinDyn=F Incr=          19.
 PRISM was handed    33456850 working-precision words and  3492 shell-pairs
 PRISM was handed    33456850 working-precision words and  3492 shell-pairs
 PRISM was handed    33456850 working-precision words and  3492 shell-pairs
 PRISM was handed    33456850 working-precision words and  3492 shell-pairs
 PRISM was handed    33456850 working-precision words and  3492 shell-pairs
 PRISM was handed    33456850 working-precision words and  3492 shell-pairs
 PRISM was handed    33456850 working-precision words and  3492 shell-pairs
 PRISM was handed    33456850 working-precision words and  3492 shell-pairs
 PRISM was handed    33456850 working-precision words and  3492 shell-pairs
 PRISM was handed    33456850 working-precision words and  3492 shell-pairs
 PRISM was handed    33456850 working-precision words and  3492 shell-pairs
 PRISM was handed    33456850 working-precision words and  3492 shell-pairs
 PRISM was handed    33456850 working-precision words and  3492 shell-pairs
 PRISM was handed    33456850 working-precision words and  3492 shell-pairs
 PRISM was handed    33456850 working-precision words and  3492 shell-pairs
 PRISM was handed    33456850 working-precision words and  3492 shell-pairs
 PRISM was handed    33456850 working-precision words and  3492 shell-pairs
 PRISM was handed    33456850 working-precision words and  3492 shell-pairs
 PRISM was handed    33456850 working-precision words and  3492 shell-pairs
 PRISM was handed    33456850 working-precision words and  3492 shell-pairs
 IPart= 17 NShTot=        1760 NBatch=         160 AvBLen=        11.0
 IPart=  4 NShTot=        2057 NBatch=         187 AvBLen=        11.0
 IPart= 14 NShTot=        1815 NBatch=         165 AvBLen=        11.0
 IPart=  6 NShTot=        1903 NBatch=         173 AvBLen=        11.0
 IPart=  0 NShTot=        2332 NBatch=         212 AvBLen=        11.0
 IPart= 13 NShTot=        1837 NBatch=         167 AvBLen=        11.0
 IPart=  8 NShTot=        1892 NBatch=         172 AvBLen=        11.0
 IPart= 12 NShTot=        1848 NBatch=         168 AvBLen=        11.0
 IPart= 18 NShTot=        1738 NBatch=         158 AvBLen=        11.0
 IPart= 15 NShTot=        1782 NBatch=         162 AvBLen=        11.0
 IPart=  7 NShTot=        1892 NBatch=         172 AvBLen=        11.0
 IPart= 11 NShTot=        1848 NBatch=         168 AvBLen=        11.0
 IPart= 19 NShTot=        1716 NBatch=         156 AvBLen=        11.0
 IPart= 16 NShTot=        1782 NBatch=         162 AvBLen=        11.0
 IPart= 10 NShTot=        1848 NBatch=         168 AvBLen=        11.0
 IPart=  5 NShTot=        1925 NBatch=         175 AvBLen=        11.0
 IPart=  9 NShTot=        1870 NBatch=         170 AvBLen=        11.0
 IPart=  2 NShTot=        2200 NBatch=         200 AvBLen=        11.0
 IPart=  1 NShTot=        2266 NBatch=         206 AvBLen=        11.0
 IPart=  3 NShTot=        2101 NBatch=         191 AvBLen=        11.0
 PrSmSu:  NxtVal=            381.
 Polarizability after L701:
                1             2             3 
      1  0.000000D+00
      2  0.000000D+00  0.000000D+00
      3  0.000000D+00  0.000000D+00  0.000000D+00
 Dipole Derivatives after L701:
                 1             2             3             4             5 
      1  -0.244586D+00  0.151062D-01 -0.122320D-01  0.426016D+00  0.164142D+00
      2  -0.544088D-01 -0.131897D+00  0.182454D-02 -0.517031D+00 -0.921597D+00
      3  -0.935553D-02  0.934081D-02 -0.266785D+00  0.170796D-01  0.507522D-01
                 6             7             8             9            10 
      1  -0.376941D-01 -0.133670D+01  0.138453D+00  0.361738D-01 -0.319303D+00
      2   0.594207D-01  0.422409D-01 -0.752996D+00 -0.157038D-02 -0.145312D+00
      3  -0.409021D+00  0.183084D-02 -0.984386D-03 -0.806035D+00  0.239684D-01
                11            12            13            14            15 
      1   0.998723D-01  0.293207D-01 -0.732568D+00 -0.297704D+00 -0.142142D-01
      2  -0.693139D+00 -0.143050D-01  0.505247D-01 -0.613648D+00 -0.105085D-01
      3  -0.405946D-01  0.694194D-01 -0.284973D-02 -0.382030D-02  0.446757D-01
                16            17            18            19            20 
      1   0.335448D+00 -0.417203D+00 -0.621389D+00  0.313845D+00 -0.544707D+00
      2  -0.477675D-01  0.157844D+00  0.115243D+00 -0.566519D-01  0.230739D+00
      3  -0.594152D-01  0.168957D+00  0.458151D+00  0.430764D-01 -0.215484D+00
                21            22            23            24            25 
      1   0.493402D+00  0.769055D+00  0.900100D+00  0.105619D+00  0.235725D+00
      2  -0.159740D+00  0.230964D+00  0.506713D+00  0.491448D-01 -0.260476D+00
      3   0.370710D+00  0.227087D-01  0.434490D-01  0.105756D+00 -0.118791D-01
                26            27            28            29            30 
      1  -0.189877D+00 -0.128264D-01  0.684183D+00  0.703054D+00 -0.168391D-01
      2   0.676930D+00  0.261396D-01  0.374029D+00  0.703788D+00 -0.147289D-01
      3   0.202889D-01  0.465323D-01  0.946994D-03 -0.350263D-02  0.886040D-01
                31            32            33 
      1  -0.131116D+00 -0.571237D+00  0.506798D-01
      2   0.383888D+00  0.837264D+00 -0.509197D-01
      3  -0.261113D-01 -0.284019D-01  0.297994D+00
 Hessian after L701:
                1             2             3             4             5 
      1  0.284321D+01
      2 -0.272425D+01  0.945187D+01
      3 -0.306070D-01 -0.122988D+00  0.149328D+02
      4  0.924403D+00 -0.159770D-01  0.110005D-01  0.726910D+01
      5  0.782709D-01 -0.415875D+00  0.307966D-02  0.180282D+01  0.436195D+01
      6  0.270099D-02  0.325073D-02 -0.468766D+00  0.187531D+00  0.377556D+00
      7  0.746897D+00 -0.198102D+01 -0.114575D+00  0.194240D+00 -0.194848D-01
      8 -0.180470D+01 -0.643115D+01  0.695991D-01 -0.429360D-01 -0.102383D+00
      9 -0.105275D+00  0.637678D-01 -0.737500D+01  0.220933D-03  0.904631D-03
     10 -0.462620D+01  0.447350D+01  0.632273D-01  0.593759D+00 -0.164446D+00
     11  0.449887D+01 -0.237124D+01  0.833202D-01 -0.102857D+00 -0.230047D+00
     12  0.685196D-01  0.931849D-01 -0.803968D+01  0.604692D-02  0.100589D-01
     13  0.251998D+00 -0.126167D-01  0.203386D-01 -0.576927D+01 -0.381976D+01
     14 -0.152826D+00 -0.341730D+00 -0.926586D-03 -0.408471D+01 -0.135948D+01
     15  0.109958D-01 -0.508030D-02  0.154736D+00  0.472451D-01 -0.110269D+00
     16 -0.232313D+00  0.148240D+00 -0.106802D+00  0.248902D-01 -0.491869D-02
     17  0.102855D+00  0.739534D-01  0.112240D+00 -0.182308D-01 -0.110437D-01
     18 -0.841924D-01  0.898056D-01  0.400276D+00 -0.265643D-01  0.124892D-02
     19 -0.205608D+00  0.140199D+00  0.135621D+00  0.247681D-01 -0.643220D-02
     20  0.923546D-01  0.104464D+00 -0.165673D+00 -0.235063D-01 -0.972514D-02
     21  0.102793D+00 -0.136063D+00  0.353006D+00  0.222026D-01 -0.206968D-02
     22 -0.103260D+00  0.129811D+00  0.241391D-01  0.379845D-01  0.829231D-02
     23  0.190790D+00  0.147908D+00  0.208105D-01  0.242780D-01 -0.382124D-02
     24  0.269921D-01  0.185298D-01  0.208967D-01  0.337951D-02  0.882422D-03
     25  0.192941D+00 -0.181464D+00 -0.458221D-02  0.762004D-01 -0.104616D+00
     26 -0.195176D+00 -0.168166D+00  0.148821D-02 -0.137410D+00  0.558454D-01
     27 -0.551695D-02 -0.210515D-03  0.186042D+00 -0.473049D-02  0.379579D-02
     28  0.834622D-01  0.873040D-01  0.195998D-02  0.999448D-01  0.124592D+00
     29  0.101918D+00  0.326555D-01  0.109518D-02  0.828234D-01 -0.169771D+00
     30 -0.838523D-03 -0.110337D-02 -0.317581D-01 -0.124946D-02  0.844400D-02
     31  0.124470D+00 -0.637311D-01  0.280156D-03 -0.347601D+01  0.210569D+01
     32 -0.188106D+00 -0.826922D-01 -0.204586D-02  0.251571D+01 -0.211566D+01
     33  0.144290D-01 -0.309380D-02 -0.132570D+00 -0.245082D+00 -0.293631D+00
                6             7             8             9            10 
      6  0.139049D+02
      7 -0.269508D-02  0.742609D+01
      8  0.126137D-02  0.141349D+01  0.140512D+02
      9 -0.104390D+00  0.919655D-01 -0.328313D-01  0.147521D+02
     10  0.859655D-02  0.246393D+00  0.166804D+00  0.109546D-01  0.719119D+01
     11 -0.329163D-03  0.212468D+00 -0.833054D-01 -0.606056D-02 -0.310903D+01
     12  0.273338D+00  0.173635D-01 -0.721729D-02 -0.598362D-01  0.987166D-01
     13  0.268091D-01  0.300101D+00  0.117301D+00  0.597305D-02 -0.500359D-02
     14 -0.974953D-01  0.905971D-01 -0.128625D+00  0.285085D-03 -0.370927D+00
     15 -0.817653D+01  0.432753D-02 -0.130119D-02 -0.119820D+00 -0.126888D+00
     16 -0.720680D-02 -0.311479D+01 -0.392624D+00 -0.749246D+00  0.375155D-01
     17  0.360462D-02 -0.302298D+00 -0.282101D+01  0.935312D+00 -0.127513D-01
     18 -0.436636D-02 -0.580424D+00  0.929253D+00 -0.157928D+01 -0.685106D-02
     19  0.602367D-02 -0.314448D+01 -0.530643D+00  0.620068D+00  0.454821D-01
     20 -0.376678D-02 -0.397568D+00 -0.236702D+01 -0.111497D+01 -0.198767D-01
     21 -0.627582D-02  0.470642D+00 -0.111214D+01 -0.203973D+01 -0.526523D-02
     22  0.334027D-03 -0.264777D+01  0.105756D+01  0.128912D+00  0.919292D-01
     23  0.315561D-03  0.940590D+00 -0.212715D+01  0.156362D+00  0.113352D+00
     24 -0.101462D-01  0.113436D+00  0.154899D+00 -0.340826D+01  0.953909D-02
     25 -0.497351D-02 -0.111567D-01  0.107158D-01 -0.377294D-02 -0.338178D+01
     26  0.478887D-02  0.492250D-01  0.743222D-02 -0.244378D-02 -0.916582D+00
     27 -0.377492D-01 -0.149883D-02 -0.362103D-03 -0.469983D-01 -0.475157D-01
     28 -0.676379D-03  0.129437D-01  0.946726D-02  0.408018D-03 -0.213749D+00
     29  0.139513D-01  0.160380D-01  0.146951D-02  0.331766D-03 -0.199609D+00
     30  0.592057D-01 -0.284907D-03 -0.325059D-03 -0.784306D-02 -0.992206D-02
     31 -0.216443D+00 -0.847311D-02 -0.442752D-02 -0.208038D-03  0.204625D-01
     32 -0.303137D+00 -0.220387D-01  0.554745D-03 -0.652686D-03  0.395646D-01
     33 -0.542925D+01  0.174447D-02 -0.833699D-03 -0.109155D-01  0.540760D-02
               11            12            13            14            15 
     11  0.130065D+02
     12 -0.252323D+00  0.237885D+02
     13 -0.702102D+00 -0.127764D+00  0.822106D+01
     14 -0.866654D+01  0.546471D-01  0.304125D+01  0.126062D+02
     15  0.725749D-01 -0.122997D+02  0.807230D-01  0.898523D-01  0.241603D+02
     16 -0.843828D-02  0.335248D-01  0.441188D-01 -0.160340D-03  0.319514D-02
     17 -0.215001D-01  0.955079D-02 -0.708436D-02 -0.132224D-01  0.144650D-02
     18  0.104315D-01 -0.248275D-01 -0.214697D-01  0.295891D-02 -0.141710D-01
     19 -0.832348D-02 -0.494175D-01  0.340620D-01 -0.128699D-02 -0.104521D-01
     20 -0.184668D-01 -0.885927D-02 -0.126747D-01 -0.107923D-01 -0.115686D-02
     21 -0.117823D-01 -0.343087D-01  0.117257D-01 -0.347679D-02 -0.157232D-01
     22  0.121602D+00  0.708533D-02  0.385255D-01  0.111644D-01  0.363862D-03
     23  0.377787D-01  0.601627D-02  0.318568D-01 -0.103025D-02  0.336941D-03
     24  0.746657D-02 -0.475807D-01  0.259285D-02  0.782082D-03 -0.104162D-01
     25 -0.845899D+00 -0.452584D-01 -0.229877D+00  0.256901D+00  0.195772D-01
     26 -0.167199D+01  0.102697D+00  0.285626D+00  0.337930D-01 -0.115954D-01
     27  0.100986D+00 -0.380074D+01  0.190866D-01 -0.906710D-02  0.141634D+00
     28 -0.177199D+00 -0.110260D-01 -0.297231D+01  0.120428D+01 -0.263170D-01
     29  0.166498D+00 -0.565178D-02  0.124004D+01 -0.222285D+01 -0.333469D-01
     30 -0.350396D-02  0.184849D+00 -0.235067D-01 -0.301245D-01 -0.388210D+01
     31  0.120905D+00  0.220913D-02  0.866030D-01  0.571929D-02 -0.277091D-02
     32 -0.147706D+00 -0.210430D-02 -0.161841D+00  0.104299D+00 -0.146084D-02
     33 -0.780970D-03  0.599646D-01  0.549157D-02 -0.743526D-02  0.617756D-01
               16            17            18            19            20 
     16  0.289677D+01
     17  0.275858D+00  0.264535D+01
     18  0.822514D+00 -0.963938D+00  0.167935D+01
     19  0.236279D+00 -0.639845D-02 -0.388360D-01  0.290221D+01
     20 -0.168012D-01  0.232194D+00  0.877407D-01  0.417326D+00  0.220795D+01
     21  0.530178D-01  0.587970D-01 -0.429461D+00 -0.711642D+00  0.108653D+01
     22  0.911369D-01 -0.431881D-01 -0.474788D-01  0.823760D-01 -0.502041D-01
     23 -0.269054D-01 -0.801130D-01 -0.139911D+00 -0.347439D-01 -0.129351D+00
     24 -0.364041D-01 -0.152793D+00 -0.181154D-01  0.299252D-01  0.116511D+00
     25  0.126593D-01  0.122183D-01 -0.130553D-01  0.199093D-01  0.142267D-01
     26  0.270035D-01 -0.529572D-02 -0.187169D-01  0.333074D-01 -0.105419D-01
     27 -0.112688D-01 -0.415750D-02 -0.781343D-02  0.165774D-01  0.469410D-02
     28  0.413744D-02 -0.119157D-02 -0.455890D-02  0.303310D-02 -0.239362D-02
     29  0.397577D-02 -0.255331D-02 -0.422568D-02  0.359370D-02 -0.339106D-02
     30 -0.127599D-02 -0.791349D-04 -0.558466D-03  0.725514D-03  0.146042D-03
     31 -0.410437D-03  0.212392D-03  0.917164D-03  0.197464D-02 -0.883415D-03
     32 -0.522857D-02  0.324474D-02  0.535196D-02 -0.659804D-02  0.467965D-02
     33 -0.484530D-04  0.161516D-04 -0.103259D-02  0.140675D-02 -0.118835D-02
               21            22            23            24            25 
     21  0.214404D+01
     22  0.351830D-01  0.240981D+01
     23  0.101952D+00 -0.124136D+01  0.214821D+01
     24  0.399005D-01 -0.149634D+00 -0.146982D+00  0.343819D+01
     25  0.177999D-01 -0.328349D-02 -0.174236D-02 -0.170422D-03  0.337772D+01
     26  0.197291D-01  0.711954D-02  0.856735D-02  0.860635D-03  0.853450D+00
     27 -0.100327D-01  0.396642D-03  0.651349D-03 -0.253527D-02  0.327993D-01
     28  0.358051D-02  0.466218D-02  0.538775D-02  0.479733D-03 -0.526112D-01
     29  0.339170D-02  0.572835D-02  0.456954D-02  0.523263D-03  0.592631D-02
     30 -0.914523D-03 -0.587744D-05 -0.885844D-04 -0.993260D-03  0.950244D-03
     31 -0.372172D-04 -0.211349D-02 -0.150336D-02 -0.135702D-03 -0.725479D-03
     32 -0.486325D-02 -0.652677D-02 -0.556465D-02 -0.679256D-03 -0.197153D-01
     33 -0.499911D-03  0.704970D-03  0.536974D-03 -0.936978D-03  0.686083D-03
               26            27            28            29            30 
     26  0.171440D+01
     27 -0.961612D-01  0.357914D+01
     28  0.299400D-02  0.147471D-02  0.304395D+01
     29  0.910399D-02 -0.173469D-03 -0.129336D+01  0.208512D+01
     30  0.565808D-03  0.556366D-02  0.362653D-01  0.296962D-01  0.369452D+01
     31 -0.955754D-02  0.196213D-03 -0.134621D-01  0.329181D-01 -0.857545D-03
     32  0.268547D-01  0.421366D-05  0.401202D-01  0.991485D-01 -0.362748D-02
     33 -0.121270D-02 -0.651066D-02 -0.159001D-02 -0.559167D-02 -0.199776D-01
               31            32            33 
     31  0.326769D+01
     32 -0.218534D+01  0.211284D+01
     33  0.216850D+00  0.313214D+00  0.547995D+01
 Leave Link  701 at Tue Sep 24 23:21:30 2019, MaxMem=   671088640 cpu:              44.9 elap:              22.5
 (Enter /shared/centos7/gaussian/g16/l702.exe)
 L702 exits ... SP integral derivatives will be done elsewhere.
 Leave Link  702 at Tue Sep 24 23:21:31 2019, MaxMem=   671088640 cpu:               1.4 elap:               0.7
 (Enter /shared/centos7/gaussian/g16/l703.exe)
 Integral derivatives from FoFJK, PRISM(SPDF).
 Compute integral second derivatives, UseDBF=F ICtDFT=           0.
 ICntrl=    100147.
 Calling FoFJK, ICntrl=    100147 FMM=F ISym2X=0 I1Cent= 0 IOpClX= 0 NMat=1 NMatS=1 NMatT=0.
 FoFJK:  IHMeth= 1 ICntrl=  100147 DoSepK=F KAlg= 0 I1Cent=           0 FoldK=F
 IRaf=         0 NMat=       1 IRICut=       1 DoRegI=T DoRafI=F ISym2E= 0 IDoP0=0 IntGTp=1.
 FoFCou: FMM=F IPFlag=           0 FMFlag=      100000 FMFlg1=         800
         NFxFlg=           0 DoJE=F BraDBF=F KetDBF=F FulRan=T
         wScrn=  0.000000 ICntrl=    100147 IOpCl=  0 I1Cent=           0 NGrid=           0
         NMat0=    1 NMatS0=      1 NMatT0=    0 NMatD0=    1 NMtDS0=    0 NMtDT0=    0
 Symmetry not used in FoFCou.
 FoFCou:  KetSym=F NOpSet=  1 NOpAb=1 NOp=  1.
 FoFCou:  CnvScl= 1.00D+00 Thresh= 1.00D-08 IAcrcy=      12.
 PrismS was handed   670744435 working-precision words and  3614 shell-pairs
 FoFCou: LinMIO=F DoNuc=F BraDBF=F KetDBF=F HaveP=T PDBF=F HaveZ=T HaveW=F
         NIJTC =      10 NIJTAt=       0 NIJTCD=       0 NIJTT =      10
         IJTBeg=       1 IJTEnd=      10 KLTBeg=       1 KLTEnd=      10
         IPTBeg=       1 IPTEnd=      10 IPTBCv=       1 IPTECv=      10
         IZTBeg=       1 IZTEnd=      10 IZTBCv=       1 IZTECv=      10
         IWTBeg=      11 IWTEnd=      10 IWTBCv=      11 IWTECv=      10
         INTBeg=       1 INTEnd=       0 IFTBCv=       1 IFTECv=      10
 NCel replicated for PrismC:     1
 CoulSu-InSpLW:  IPartL=    0 NPrtUS=   20 NPrtUL=    1 DoSpLW=F IThBeg=    0 IThEnd=   19 NThAct=   20.
 CoulSu:  IncDef=  1024 NBBP=        6532305 NTPThr=   100 NPartT=   20 Incr=        1024 LDynOK=F GPUOK=T.
 CoulSu:  NPrtUS=  20 ThrOK=T IAlg=1 NPAlg=1 LenDen=           0 LWGrdD=           0 DoCopy=F ISkipM=0
          DoSpLW=F IThBeg=    0 IThEnd=   19.
 Enter PrismC:  IPart=  0 JobTyp=22 DoJE=F Cont=F.
 PrismC:  IPart=     0 DynPar=T LinDyn=F Incr=        1024 UseFst=F UseS4=T ISplat=2.
 PrismC was handed    33458244 working-precision words and  3614 shell-pairs
 Enter PrismC:  IPart=  1 JobTyp=22 DoJE=F Cont=F.
 PrismC:  IPart=     1 DynPar=T LinDyn=F Incr=        1024 UseFst=F UseS4=T ISplat=2.
 PrismC was handed    33458244 working-precision words and  3614 shell-pairs
 Enter PrismC:  IPart= 17 JobTyp=22 DoJE=F Cont=F.
 PrismC:  IPart=    17 DynPar=T LinDyn=F Incr=        1024 UseFst=F UseS4=T ISplat=2.
 PrismC was handed    33458244 working-precision words and  3614 shell-pairs
 Enter PrismC:  IPart= 16 JobTyp=22 DoJE=F Cont=F.
 PrismC:  IPart=    16 DynPar=T LinDyn=F Incr=        1024 UseFst=F UseS4=T ISplat=2.
 PrismC was handed    33458244 working-precision words and  3614 shell-pairs
 Enter PrismC:  IPart=  3 JobTyp=22 DoJE=F Cont=F.
 PrismC:  IPart=     3 DynPar=T LinDyn=F Incr=        1024 UseFst=F UseS4=T ISplat=2.
 PrismC was handed    33458244 working-precision words and  3614 shell-pairs
 Enter PrismC:  IPart=  8 JobTyp=22 DoJE=F Cont=F.
 PrismC:  IPart=     8 DynPar=T LinDyn=F Incr=        1024 UseFst=F UseS4=T ISplat=2.
 PrismC was handed    33458244 working-precision words and  3614 shell-pairs
 Enter PrismC:  IPart=  9 JobTyp=22 DoJE=F Cont=F.
 PrismC:  IPart=     9 DynPar=T LinDyn=F Incr=        1024 UseFst=F UseS4=T ISplat=2.
 PrismC was handed    33458244 working-precision words and  3614 shell-pairs
 Enter PrismC:  IPart= 19 JobTyp=22 DoJE=F Cont=F.
 PrismC:  IPart=    19 DynPar=T LinDyn=F Incr=        1024 UseFst=F UseS4=T ISplat=2.
 PrismC was handed    33458244 working-precision words and  3614 shell-pairs
 Enter PrismC:  IPart= 13 JobTyp=22 DoJE=F Cont=F.
 PrismC:  IPart=    13 DynPar=T LinDyn=F Incr=        1024 UseFst=F UseS4=T ISplat=2.
 PrismC was handed    33458244 working-precision words and  3614 shell-pairs
 Enter PrismC:  IPart=  5 JobTyp=22 DoJE=F Cont=F.
 PrismC:  IPart=     5 DynPar=T LinDyn=F Incr=        1024 UseFst=F UseS4=T ISplat=2.
 PrismC was handed    33458244 working-precision words and  3614 shell-pairs
 Enter PrismC:  IPart= 11 JobTyp=22 DoJE=F Cont=F.
 PrismC:  IPart=    11 DynPar=T LinDyn=F Incr=        1024 UseFst=F UseS4=T ISplat=2.
 PrismC was handed    33458244 working-precision words and  3614 shell-pairs
 Enter PrismC:  IPart=  2 JobTyp=22 DoJE=F Cont=F.
 PrismC:  IPart=     2 DynPar=T LinDyn=F Incr=        1024 UseFst=F UseS4=T ISplat=2.
 PrismC was handed    33458244 working-precision words and  3614 shell-pairs
 Enter PrismC:  IPart= 10 JobTyp=22 DoJE=F Cont=F.
 PrismC:  IPart=    10 DynPar=T LinDyn=F Incr=        1024 UseFst=F UseS4=T ISplat=2.
 PrismC was handed    33458244 working-precision words and  3614 shell-pairs
 Enter PrismC:  IPart= 15 JobTyp=22 DoJE=F Cont=F.
 PrismC:  IPart=    15 DynPar=T LinDyn=F Incr=        1024 UseFst=F UseS4=T ISplat=2.
 PrismC was handed    33458244 working-precision words and  3614 shell-pairs
 Enter PrismC:  IPart= 12 JobTyp=22 DoJE=F Cont=F.
 PrismC:  IPart=    12 DynPar=T LinDyn=F Incr=        1024 UseFst=F UseS4=T ISplat=2.
 PrismC was handed    33458244 working-precision words and  3614 shell-pairs
 Enter PrismC:  IPart=  7 JobTyp=22 DoJE=F Cont=F.
 PrismC:  IPart=     7 DynPar=T LinDyn=F Incr=        1024 UseFst=F UseS4=T ISplat=2.
 PrismC was handed    33458244 working-precision words and  3614 shell-pairs
 Enter PrismC:  IPart= 18 JobTyp=22 DoJE=F Cont=F.
 PrismC:  IPart=    18 DynPar=T LinDyn=F Incr=        1024 UseFst=F UseS4=T ISplat=2.
 PrismC was handed    33458244 working-precision words and  3614 shell-pairs
 Enter PrismC:  IPart=  6 JobTyp=22 DoJE=F Cont=F.
 PrismC:  IPart=     6 DynPar=T LinDyn=F Incr=        1024 UseFst=F UseS4=T ISplat=2.
 PrismC was handed    33458244 working-precision words and  3614 shell-pairs
 Enter PrismC:  IPart= 14 JobTyp=22 DoJE=F Cont=F.
 PrismC:  IPart=    14 DynPar=T LinDyn=F Incr=        1024 UseFst=F UseS4=T ISplat=2.
 PrismC was handed    33458244 working-precision words and  3614 shell-pairs
 Enter PrismC:  IPart=  4 JobTyp=22 DoJE=F Cont=F.
 PrismC:  IPart=     4 DynPar=T LinDyn=F Incr=        1024 UseFst=F UseS4=T ISplat=2.
 PrismC was handed    33458244 working-precision words and  3614 shell-pairs
 IPart=  1 NShTot=      171031 NShNF=      171031 NShFF=           0 MinMC=       7
           NShCPU=      171031 NBCPU=        7150 AvBCPU=        23.9
           NShGPU=           0 NBGPU=           0 AvBGPU=         0.0
 IPart= 14 NShTot=      273090 NShNF=      273090 NShFF=           0 MinMC=       7
           NShCPU=      273090 NBCPU=       11741 AvBCPU=        23.3
           NShGPU=           0 NBGPU=           0 AvBGPU=         0.0
 IPart= 17 NShTot=      178153 NShNF=      178153 NShFF=           0 MinMC=       7
           NShCPU=      178153 NBCPU=        7428 AvBCPU=        24.0
           NShGPU=           0 NBGPU=           0 AvBGPU=         0.0
 IPart=  7 NShTot=      181639 NShNF=      181639 NShFF=           0 MinMC=       7
           NShCPU=      181639 NBCPU=        7051 AvBCPU=        25.8
           NShGPU=           0 NBGPU=           0 AvBGPU=         0.0
 IPart= 12 NShTot=      279806 NShNF=      279806 NShFF=           0 MinMC=       7
           NShCPU=      279806 NBCPU=       11472 AvBCPU=        24.4
           NShGPU=           0 NBGPU=           0 AvBGPU=         0.0
 IPart=  0 NShTot=      180505 NShNF=      180505 NShFF=           0 MinMC=       7
           NShCPU=      180505 NBCPU=        7702 AvBCPU=        23.4
           NShGPU=           0 NBGPU=           0 AvBGPU=         0.0
 IPart= 10 NShTot=      271520 NShNF=      271520 NShFF=           0 MinMC=       7
           NShCPU=      271520 NBCPU=       11036 AvBCPU=        24.6
           NShGPU=           0 NBGPU=           0 AvBGPU=         0.0
 IPart=  2 NShTot=      272854 NShNF=      272854 NShFF=           0 MinMC=       7
           NShCPU=      272854 NBCPU=       11440 AvBCPU=        23.9
           NShGPU=           0 NBGPU=           0 AvBGPU=         0.0
 IPart=  9 NShTot=      174154 NShNF=      174154 NShFF=           0 MinMC=       7
           NShCPU=      174154 NBCPU=        7090 AvBCPU=        24.6
           NShGPU=           0 NBGPU=           0 AvBGPU=         0.0
 IPart=  3 NShTot=      171002 NShNF=      171002 NShFF=           0 MinMC=       7
           NShCPU=      171002 NBCPU=        6995 AvBCPU=        24.4
           NShGPU=           0 NBGPU=           0 AvBGPU=         0.0
 IPart=  5 NShTot=      283586 NShNF=      283586 NShFF=           0 MinMC=       7
           NShCPU=      283586 NBCPU=       11426 AvBCPU=        24.8
           NShGPU=           0 NBGPU=           0 AvBGPU=         0.0
 IPart= 16 NShTot=      167021 NShNF=      167021 NShFF=           0 MinMC=       7
           NShCPU=      167021 NBCPU=        7127 AvBCPU=        23.4
           NShGPU=           0 NBGPU=           0 AvBGPU=         0.0
 IPart= 18 NShTot=      176013 NShNF=      176013 NShFF=           0 MinMC=       7
           NShCPU=      176013 NBCPU=        7315 AvBCPU=        24.1
           NShGPU=           0 NBGPU=           0 AvBGPU=         0.0
 IPart=  4 NShTot=      175251 NShNF=      175251 NShFF=           0 MinMC=       7
           NShCPU=      175251 NBCPU=        7147 AvBCPU=        24.5
           NShGPU=           0 NBGPU=           0 AvBGPU=         0.0
 IPart= 15 NShTot=      265961 NShNF=      265961 NShFF=           0 MinMC=       7
           NShCPU=      265961 NBCPU=       11524 AvBCPU=        23.1
           NShGPU=           0 NBGPU=           0 AvBGPU=         0.0
 IPart= 19 NShTot=      263985 NShNF=      263985 NShFF=           0 MinMC=       7
           NShCPU=      263985 NBCPU=       11244 AvBCPU=        23.5
           NShGPU=           0 NBGPU=           0 AvBGPU=         0.0
 IPart=  6 NShTot=      187776 NShNF=      187776 NShFF=           0 MinMC=       7
           NShCPU=      187776 NBCPU=        7944 AvBCPU=        23.6
           NShGPU=           0 NBGPU=           0 AvBGPU=         0.0
 IPart= 11 NShTot=      181521 NShNF=      181521 NShFF=           0 MinMC=       7
           NShCPU=      181521 NBCPU=        8203 AvBCPU=        22.1
           NShGPU=           0 NBGPU=           0 AvBGPU=         0.0
 IPart= 13 NShTot=      177823 NShNF=      177823 NShFF=           0 MinMC=       7
           NShCPU=      177823 NBCPU=        7968 AvBCPU=        22.3
           NShGPU=           0 NBGPU=           0 AvBGPU=         0.0
 IPart=  8 NShTot=      265607 NShNF=      265607 NShFF=           0 MinMC=       7
           NShCPU=      265607 NBCPU=       11291 AvBCPU=        23.5
           NShGPU=           0 NBGPU=           0 AvBGPU=         0.0
 CoulSu:  NxtVal=        6975489 LenVP=       33458245 MinMC=       7.
 ReadGW:  IGet=0 IStart=           1 Next=           1 LGW=           0.
 Remaining memory in FofDFT      639.93 Mw
 CkSvGd:  ISavGI=        -1 IRadAn=       5 IRASav=       5 ISavGd=        -1.
 CalDSu-InSpLW:  IPartL=    0 NPrtUS=   20 NPrtUL=    1 DoSpLW=F IThBeg=    0 IThEnd=   19 NThAct=   20.
 CalDSu:  NPrtUS=  20 ThrOK=T IAlg=1 NPAlg=2 DoDPD=T LenP=       35245 LenD1P=             0 GPUOK=F
          ISkipM=0 DoSpLW=F IThBeg=    0 IThEnd=   19.
 IPart=  0 IRanGd=          0 ScrnBf=T ScrnGd=T RCrit=4.00D+00 DoMicB=T.
 IPart=  5        13011 of        13890 points in      13 batches and       56 microbatches, Max-NSigAt=      11 Max-NSgAt2=      11
 IPart=  4        12866 of        13270 points in      12 batches and       39 microbatches, Max-NSigAt=      11 Max-NSgAt2=      11
 IPart= 19        14707 of        15424 points in      14 batches and       50 microbatches, Max-NSigAt=      11 Max-NSgAt2=      11
 IPart= 12        12937 of        13950 points in      14 batches and       57 microbatches, Max-NSigAt=      11 Max-NSgAt2=      11
 IPart=  8        12173 of        12582 points in      11 batches and       54 microbatches, Max-NSigAt=      11 Max-NSgAt2=      11
 IPart=  2        15362 of        17106 points in      17 batches and       67 microbatches, Max-NSigAt=      11 Max-NSgAt2=      11
 IPart=  0        14605 of        16650 points in      18 batches and       81 microbatches, Max-NSigAt=      11 Max-NSgAt2=      11
 IPart= 11        10323 of        11858 points in      14 batches and       65 microbatches, Max-NSigAt=      11 Max-NSgAt2=      11
 IPart=  3         9289 of        10098 points in      11 batches and       74 microbatches, Max-NSigAt=      11 Max-NSgAt2=      11
 IPart= 18         8501 of         9292 points in      10 batches and       77 microbatches, Max-NSigAt=      11 Max-NSgAt2=      11
 IPart=  9        10726 of        11928 points in      13 batches and       67 microbatches, Max-NSigAt=      11 Max-NSgAt2=      11
 IPart= 14         9660 of        10728 points in      12 batches and       87 microbatches, Max-NSigAt=      11 Max-NSgAt2=      11
 IPart= 15        10053 of        11184 points in      12 batches and       75 microbatches, Max-NSigAt=      11 Max-NSgAt2=      11
 IPart=  6         8786 of         9924 points in      11 batches and       82 microbatches, Max-NSigAt=      11 Max-NSgAt2=      11
 IPart= 10        15117 of        16802 points in      17 batches and       79 microbatches, Max-NSigAt=      11 Max-NSgAt2=      11
 IPart=  1         9333 of         9882 points in      10 batches and       43 microbatches, Max-NSigAt=      11 Max-NSgAt2=      11
 IPart= 16         9616 of        10372 points in      11 batches and       67 microbatches, Max-NSigAt=      11 Max-NSgAt2=      11
 IPart=  7         8729 of         9508 points in      10 batches and       71 microbatches, Max-NSigAt=      11 Max-NSgAt2=      11
 IPart= 17         9767 of        11690 points in      14 batches and       86 microbatches, Max-NSigAt=      11 Max-NSgAt2=      11
 IPart= 13         9614 of        10262 points in      11 batches and       67 microbatches, Max-NSigAt=      11 Max-NSgAt2=      11
 Polarizability after L703:
                1             2             3 
      1  0.000000D+00
      2  0.000000D+00  0.000000D+00
      3  0.000000D+00  0.000000D+00  0.000000D+00
 Dipole Derivatives after L703:
                 1             2             3             4             5 
      1  -0.244586D+00  0.151062D-01 -0.122320D-01  0.426016D+00  0.164142D+00
      2  -0.544088D-01 -0.131897D+00  0.182454D-02 -0.517031D+00 -0.921597D+00
      3  -0.935553D-02  0.934081D-02 -0.266785D+00  0.170796D-01  0.507522D-01
                 6             7             8             9            10 
      1  -0.376941D-01 -0.133670D+01  0.138453D+00  0.361738D-01 -0.319303D+00
      2   0.594207D-01  0.422409D-01 -0.752996D+00 -0.157038D-02 -0.145312D+00
      3  -0.409021D+00  0.183084D-02 -0.984386D-03 -0.806035D+00  0.239684D-01
                11            12            13            14            15 
      1   0.998723D-01  0.293207D-01 -0.732568D+00 -0.297704D+00 -0.142142D-01
      2  -0.693139D+00 -0.143050D-01  0.505247D-01 -0.613648D+00 -0.105085D-01
      3  -0.405946D-01  0.694194D-01 -0.284973D-02 -0.382030D-02  0.446757D-01
                16            17            18            19            20 
      1   0.335448D+00 -0.417203D+00 -0.621389D+00  0.313845D+00 -0.544707D+00
      2  -0.477675D-01  0.157844D+00  0.115243D+00 -0.566519D-01  0.230739D+00
      3  -0.594152D-01  0.168957D+00  0.458151D+00  0.430764D-01 -0.215484D+00
                21            22            23            24            25 
      1   0.493402D+00  0.769055D+00  0.900100D+00  0.105619D+00  0.235725D+00
      2  -0.159740D+00  0.230964D+00  0.506713D+00  0.491448D-01 -0.260476D+00
      3   0.370710D+00  0.227087D-01  0.434490D-01  0.105756D+00 -0.118791D-01
                26            27            28            29            30 
      1  -0.189877D+00 -0.128264D-01  0.684183D+00  0.703054D+00 -0.168391D-01
      2   0.676930D+00  0.261396D-01  0.374029D+00  0.703788D+00 -0.147289D-01
      3   0.202889D-01  0.465323D-01  0.946994D-03 -0.350263D-02  0.886040D-01
                31            32            33 
      1  -0.131116D+00 -0.571237D+00  0.506798D-01
      2   0.383888D+00  0.837264D+00 -0.509197D-01
      3  -0.261113D-01 -0.284019D-01  0.297994D+00
 Hessian after L703:
                1             2             3             4             5 
      1  0.476147D+00
      2  0.523471D-01  0.350130D+00
      3 -0.455352D-02  0.664276D-02  0.715981D-01
      4  0.924813D-03 -0.502297D-02  0.286291D-03  0.381727D+00
      5  0.816900D-02  0.192619D-01  0.115054D-03  0.186336D-01  0.496197D+00
      6  0.411838D-03  0.464786D-03 -0.703821D-02 -0.194463D-01 -0.208967D-01
      7 -0.206540D+00  0.242799D-01  0.359865D-02  0.346252D-02 -0.574329D-02
      8  0.649488D-01 -0.102904D+00 -0.226587D-02 -0.127816D-03  0.257652D-02
      9  0.390604D-02 -0.207875D-02 -0.580788D-01 -0.289290D-03  0.454009D-05
     10 -0.157550D+00 -0.534038D-01 -0.254463D-03 -0.245788D-01  0.173428D-01
     11 -0.963749D-01 -0.222590D+00 -0.367880D-02  0.594039D-01 -0.364972D-01
     12 -0.521013D-03 -0.325510D-02 -0.389156D-01  0.139065D-03  0.366969D-03
     13 -0.299763D-01 -0.743575D-02 -0.385468D-04 -0.168141D+00  0.109929D+00
     14 -0.612648D-01 -0.187910D-01 -0.149064D-03  0.625857D-01 -0.241889D+00
     15 -0.506305D-03 -0.414208D-03  0.103965D-01  0.309768D-02  0.976851D-04
     16 -0.276808D-01  0.181624D-01  0.288220D-01 -0.428491D-04 -0.227363D-03
     17  0.101660D-01 -0.291745D-02 -0.760041D-02  0.384325D-03 -0.827758D-03
     18  0.608337D-02 -0.462256D-03  0.653850D-02 -0.188975D-04 -0.338460D-03
     19 -0.265730D-01  0.230538D-01 -0.244599D-01 -0.566277D-04 -0.481215D-03
     20  0.106909D-01 -0.519747D-02  0.633230D-02  0.299569D-03 -0.711320D-03
     21 -0.425687D-02 -0.127897D-02  0.661828D-02  0.139963D-03  0.214755D-03
     22 -0.284297D-01 -0.289747D-01 -0.251518D-02 -0.113846D-03  0.577839D-03
     23  0.811408D-02  0.115512D-01  0.132695D-02 -0.371521D-03  0.313098D-03
     24  0.416181D-03  0.117690D-02  0.594161D-03  0.464868D-05 -0.295105D-04
     25  0.311515D-02 -0.228505D-01 -0.109019D-02 -0.471489D-02 -0.137938D-02
     26  0.181417D-02 -0.295165D-01 -0.889337D-03 -0.161413D-02  0.235746D-02
     27 -0.408716D-03  0.564343D-04  0.524598D-03  0.537656D-04 -0.393031D-04
     28 -0.407932D-02  0.356931D-02  0.352565D-03  0.138688D-01  0.196503D-01
     29  0.241546D-02  0.153394D-02  0.791642D-04 -0.127004D-01 -0.296119D-01
     30 -0.347045D-03 -0.589218D-03  0.890103D-02 -0.369121D-03  0.450584D-03
     31  0.641806D-03 -0.372461D-02 -0.147622D-03 -0.202335D+00 -0.166471D+00
     32 -0.102568D-02 -0.560032D-03  0.872523D-04 -0.121470D+00 -0.211168D+00
     33 -0.223958D-03 -0.262382D-03 -0.113866D-02  0.164022D-01  0.200544D-01
                6             7             8             9            10 
      6  0.596611D-01
      7 -0.898590D-04  0.486296D+00
      8  0.164344D-03  0.774941D-01  0.583034D+00
      9 -0.543475D-03  0.632871D-02  0.744068D-02  0.493757D+00
     10  0.200852D-03 -0.486267D-01 -0.418959D-01 -0.197133D-02  0.971893D+00
     11 -0.684262D-03 -0.135431D-01  0.361958D-02 -0.259715D-03 -0.776948D-01
     12  0.129237D-01 -0.698933D-03  0.527316D-03 -0.459445D-02 -0.996615D-02
     13  0.813893D-03 -0.317353D-03 -0.913792D-03 -0.104422D-03 -0.609214D+00
     14  0.395285D-02  0.813967D-02 -0.954538D-02 -0.230802D-04  0.377228D-01
     15 -0.460110D-01  0.179472D-04 -0.149815D-04  0.404479D-03  0.451069D-02
     16  0.277774D-03 -0.579542D-01  0.816784D-02  0.237464D-01  0.379954D-02
     17  0.196390D-03  0.116721D-01 -0.955022D-01 -0.724608D-01 -0.894630D-03
     18  0.121661D-03  0.286139D-01 -0.742523D-01 -0.207473D+00 -0.521941D-03
[...]
     Eigenvalues ---    0.13475   0.16484   0.18191   0.18736   0.19826
     Eigenvalues ---    0.22138   0.23301   0.33222   0.33591   0.35088
     Eigenvalues ---    0.36355   0.37354   0.39844   0.45086   0.45698
     Eigenvalues ---    0.53342   0.66236
 Angle between quadratic step and forces=  65.03 degrees.
 Linear search not attempted -- first point.
 Iteration  1 RMS(Cart)=  0.00000794 RMS(Int)=  0.00000000
 Iteration  2 RMS(Cart)=  0.00000000 RMS(Int)=  0.00000000
 ITry= 1 IFail=0 DXMaxC= 1.92D-05 DCOld= 1.00D+10 DXMaxT= 3.00D-01 DXLimC= 3.00D+00 Rises=F
 Variable       Old X    -DE/DX   Delta X   Delta X   Delta X     New X
                                 (Linear)    (Quad)   (Total)
    R1        2.67120  -0.00000   0.00000   0.00000   0.00000   2.67120
    R2        2.59481   0.00000   0.00000   0.00000   0.00000   2.59481
    R3        2.56333   0.00000   0.00000   0.00000   0.00000   2.56333
    R4        1.82347  -0.00000   0.00000  -0.00000  -0.00000   1.82347
    R5        2.06457   0.00000   0.00000   0.00000   0.00000   2.06457
    R6        2.06653   0.00000   0.00000   0.00000   0.00000   2.06653
    R7        2.05345   0.00000   0.00000  -0.00000  -0.00000   2.05345
    R8        2.50502   0.00000   0.00000   0.00000   0.00000   2.50502
    R9        2.04478   0.00000   0.00000   0.00000   0.00000   2.04478
   R10        2.03835  -0.00000   0.00000   0.00000   0.00000   2.03835
    A1        1.98208  -0.00000   0.00000  -0.00000  -0.00000   1.98208
    A2        1.87243  -0.00000   0.00000   0.00000   0.00000   1.87243
    A3        1.93727  -0.00000   0.00000  -0.00000  -0.00000   1.93727
    A4        1.93110  -0.00000   0.00000  -0.00000  -0.00000   1.93110
    A5        1.87229   0.00000   0.00000   0.00000   0.00000   1.87229
    A6        1.90278   0.00000   0.00000  -0.00000  -0.00000   1.90277
    A7        1.91450   0.00000   0.00000   0.00000   0.00000   1.91450
    A8        1.90554   0.00000   0.00000   0.00000   0.00000   1.90554
    A9        2.08154   0.00000   0.00000   0.00000   0.00000   2.08155
   A10        2.05344  -0.00000   0.00000  -0.00000  -0.00000   2.05343
   A11        2.14729  -0.00000   0.00000  -0.00000  -0.00000   2.14729
   A12        2.16215   0.00000   0.00000   0.00000   0.00000   2.16215
   A13        1.98815  -0.00000   0.00000  -0.00000  -0.00000   1.98815
   A14        2.13269  -0.00000   0.00000  -0.00000  -0.00000   2.13269
    D1       -1.08700  -0.00000   0.00000  -0.00001  -0.00001  -1.08701
    D2        1.02789  -0.00000   0.00000  -0.00001  -0.00001   1.02789
    D3        3.10484  -0.00000   0.00000  -0.00001  -0.00001   3.10483
    D4        2.45356   0.00000   0.00000   0.00000   0.00000   2.45357
    D5       -0.73253  -0.00000   0.00000  -0.00000  -0.00000  -0.73253
    D6        0.00097   0.00000   0.00000   0.00000   0.00000   0.00098
    D7       -3.11981  -0.00000   0.00000   0.00000   0.00000  -3.11981
    D8       -0.03797  -0.00000   0.00000  -0.00000  -0.00000  -0.03797
    D9        3.08115  -0.00000   0.00000  -0.00000  -0.00000   3.08114
   D10       -3.13254   0.00000   0.00000   0.00000   0.00000  -3.13254
   D11       -0.01343   0.00000   0.00000   0.00000   0.00000  -0.01342
         Item               Value     Threshold  Converged?
 Maximum Force            0.000001     0.000015     YES
 RMS     Force            0.000000     0.000010     YES
 Maximum Displacement     0.000019     0.000060     YES
 RMS     Displacement     0.000008     0.000040     YES
 Predicted change in Energy=-8.272920D-12
 Optimization completed.
    -- Stationary point found.
                           ----------------------------
                           !   Optimized Parameters   !
                           ! (Angstroms and Degrees)  !
 --------------------------                            --------------------------
 ! Name  Definition              Value          Derivative Info.                !
 --------------------------------------------------------------------------------
 ! R1    R(1,3)                  1.4135         -DE/DX =    0.0                 !
 ! R2    R(1,4)                  1.3731         -DE/DX =    0.0                 !
 ! R3    R(2,5)                  1.3565         -DE/DX =    0.0                 !
 ! R4    R(2,11)                 0.9649         -DE/DX =    0.0                 !
 ! R5    R(3,6)                  1.0925         -DE/DX =    0.0                 !
 ! R6    R(3,7)                  1.0936         -DE/DX =    0.0                 !
 ! R7    R(3,8)                  1.0866         -DE/DX =    0.0                 !
 ! R8    R(4,5)                  1.3256         -DE/DX =    0.0                 !
 ! R9    R(4,9)                  1.0821         -DE/DX =    0.0                 !
 ! R10   R(5,10)                 1.0786         -DE/DX =    0.0                 !
 ! A1    A(3,1,4)              113.5651         -DE/DX =    0.0                 !
 ! A2    A(5,2,11)             107.2822         -DE/DX =    0.0                 !
 ! A3    A(1,3,6)              110.9976         -DE/DX =    0.0                 !
 ! A4    A(1,3,7)              110.6436         -DE/DX =    0.0                 !
 ! A5    A(1,3,8)              107.2744         -DE/DX =    0.0                 !
 ! A6    A(6,3,7)              109.021          -DE/DX =    0.0                 !
 ! A7    A(6,3,8)              109.6929         -DE/DX =    0.0                 !
 ! A8    A(7,3,8)              109.1795         -DE/DX =    0.0                 !
 ! A9    A(1,4,5)              119.2637         -DE/DX =    0.0                 !
 ! A10   A(1,4,9)              117.6533         -DE/DX =    0.0                 !
 ! A11   A(5,4,9)              123.0307         -DE/DX =    0.0                 !
 ! A12   A(2,5,4)              123.8821         -DE/DX =    0.0                 !
 ! A13   A(2,5,10)             113.9126         -DE/DX =    0.0                 !
 ! A14   A(4,5,10)             122.1941         -DE/DX =    0.0                 !
 ! D1    D(4,1,3,6)            -62.2807         -DE/DX =    0.0                 !
 ! D2    D(4,1,3,7)             58.894          -DE/DX =    0.0                 !
 ! D3    D(4,1,3,8)            177.8942         -DE/DX =    0.0                 !
 ! D4    D(3,1,4,5)            140.5789         -DE/DX =    0.0                 !
 ! D5    D(3,1,4,9)            -41.9709         -DE/DX =    0.0                 !
 ! D6    D(11,2,5,4)             0.0557         -DE/DX =    0.0                 !
 ! D7    D(11,2,5,10)         -178.752          -DE/DX =    0.0                 !
 ! D8    D(1,4,5,2)             -2.1754         -DE/DX =    0.0                 !
 ! D9    D(1,4,5,10)           176.5367         -DE/DX =    0.0                 !
 ! D10   D(9,4,5,2)           -179.4814         -DE/DX =    0.0                 !
 ! D11   D(9,4,5,10)            -0.7693         -DE/DX =    0.0                 !
 --------------------------------------------------------------------------------
 GradGradGradGradGradGradGradGradGradGradGradGradGradGradGradGradGradGrad

 Leave Link  103 at Wed Sep 25 00:48:00 2019, MaxMem=   671088640 cpu:              98.9 elap:              49.5
 (Enter /shared/centos7/gaussian/g16/l9999.exe)

 ----------------------------------------------------------------------

 Electric dipole moment (input orientation):
 (Debye = 10**-18 statcoulomb cm , SI units = C m)
                  (au)            (Debye)         (10**-30 SI)
   Tot        0.864544D+00      0.219745D+01      0.732991D+01
   x         -0.860220D+00     -0.218646D+01     -0.729325D+01
   y          0.238072D-01      0.605117D-01      0.201845D+00
   z         -0.830129D-01     -0.210998D+00     -0.703813D+00

 Dipole polarizability, Alpha (input orientation).
 (esu units = cm**3 , SI units = C**2 m**2 J**-1)
 Alpha(0;0):
               (au)            (10**-24 esu)      (10**-40 SI)
   iso        0.445369D+02      0.659968D+01      0.734314D+01
   aniso      0.248252D+02      0.367871D+01      0.409311D+01
   xx         0.556234D+02      0.824253D+01      0.917105D+01
   yx         0.661952D+01      0.980912D+00      0.109141D+01
   yy         0.423683D+02      0.627834D+01      0.698560D+01
   zx         0.744193D+01      0.110278D+01      0.122701D+01
   zy        -0.163011D+01     -0.241558D+00     -0.268770D+00
   zz         0.356189D+02      0.527817D+01      0.587276D+01

 ----------------------------------------------------------------------

 Dipole orientation:
     8          1.20716223         -1.43377968         -0.68295326
     8          3.00591152         -0.05624441         -5.36887612
     6          1.89430353         -1.71530170          1.88295852
     6          1.11369723          1.03808272         -1.46666948
     6          1.95953368          1.63202424         -3.74854044
     1          3.79411594         -0.98293747          2.22469850
     1          0.55905479         -0.72184835          3.10799104
     1          1.83888205         -3.72258534          2.31235795
     1          0.26911913          2.40376524         -0.20067783
     1          1.83427337          3.52482789         -4.49451488
     1          2.99463605         -1.68069222         -4.54057735

 Electric dipole moment (dipole orientation):
 (Debye = 10**-18 statcoulomb cm , SI units = C m)
                  (au)            (Debye)         (10**-30 SI)
   Tot        0.864544D+00      0.219745D+01      0.732991D+01
   x          0.000000D+00      0.000000D+00      0.000000D+00
   y          0.000000D+00      0.000000D+00      0.000000D+00
   z          0.864544D+00      0.219745D+01      0.732991D+01

 Dipole polarizability, Alpha (dipole orientation).
 (esu units = cm**3 , SI units = C**2 m**2 J**-1)
 Alpha(0;0):
               (au)            (10**-24 esu)      (10**-40 SI)
   iso        0.445369D+02      0.659968D+01      0.734314D+01
   aniso      0.248252D+02      0.367871D+01      0.409311D+01
   xx         0.342602D+02      0.507684D+01      0.564875D+01
   yx        -0.185205D+01     -0.274445D+00     -0.305361D+00
   yy         0.428536D+02      0.635025D+01      0.706561D+01
   zx        -0.565641D+01     -0.838194D+00     -0.932617D+00
   zy        -0.665309D+01     -0.985886D+00     -0.109695D+01
   zz         0.564967D+02      0.837195D+01      0.931505D+01

 ----------------------------------------------------------------------

 Test job not archived.
 1\1\GINC-C0272\Freq\RM062X\CC-pVTZ\C3H6O2\HARMS.N\25-Sep-2019\0\\#P Ge
 om=AllCheck Guess=TCheck SCRF=Check Test GenChk RM062X/CC-pVTZ Freq\\G
 aussian input prepared by ASE\\0,1\O,0.2757973644,-0.7486771161,0.6912
 026279\O,2.6745752063,-0.0597613384,1.8563231038\C,-1.1143584095,-0.84
 91152535,0.9267286588\C,0.7328023609,0.545359388,0.6457918733\C,1.9012
 009194,0.839711054,1.198440349\H,-1.3782368725,-0.4264383959,1.8990015
 69\H,-1.6761881869,-0.3274085249,0.1469573141\H,-1.3698542731,-1.90506
 46574,0.9049795404\H,0.1306628525,1.2723429447,0.1168682631\H,2.330647
 477,1.8276199112,1.1428087769\H,2.2129635584,-0.906771826,1.8319709145
 \\Version=EM64L-G16RevA.03\State=1-A\HF=-268.3241864\RMSD=2.693e-09\RM
 SF=9.687e-07\ZeroPoint=0.0911284\Thermal=0.0969967\Dipole=-0.8602196,0
 .0238072,-0.0830129\DipoleDeriv=-1.1664446,-0.3019012,-0.078296,-0.724
 609,-0.8977766,-0.0964225,-0.0295041,0.039448,-0.3435002,-0.7906568,0.
 1587223,-0.2604187,0.6510032,-0.577112,0.3841605,-0.4209628,0.1441486,
 -0.5626174,0.9884531,0.1958796,-0.0215359,0.0367768,0.2834008,-0.01030
 12,-0.072295,-0.0205981,0.3760373,0.0576195,0.2986885,0.1093939,0.6660
 351,0.6649367,0.0200841,0.0951285,-0.0279599,-0.104367,0.6091984,-0.20
 76239,0.4001698,-0.5563395,0.351227,-0.3529916,0.5359027,-0.2371871,0.
 2217363,-0.0405248,-0.0424327,-0.0046168,0.0699889,0.0333101,-0.078004
 ,0.0974667,-0.0390317,-0.1101815,-0.0641969,-0.0141411,-0.0285664,0.08
 58906,0.0091249,0.0843791,-0.089042,0.0749073,-0.0697772,0.0026111,-0.
 0271507,-0.0003804,-0.0845438,-0.1028905,-0.0031764,0.0055854,-0.00633
 2,0.0748823,0.0527901,0.0525565,-0.0805181,-0.0401849,-0.0258441,0.044
 9989,-0.0993735,0.0546844,0.0882695,0.0640305,-0.0454465,-0.0283222,-0
 .0145499,-0.0201654,0.0402194,-0.0341695,0.038212,0.1244738,0.2871204,
 -0.0671508,-0.006909,-0.0894674,0.2817891,-0.0329463,0.0112636,-0.0202
 915,0.305044\Polar=55.6233593,6.6195232,42.3683452,7.441927,-1.6301145
 ,35.618867\Quadrupole=-0.2826227,1.9997953,-1.7171725,0.6623105,-0.301
 4391,-1.4921135\PG=C01 [X(C3H6O2)]\NImag=0\\0.46179953,0.11016369,0.42
 176770,-0.03598517,-0.01359121,0.08763392,-0.00149898,-0.00322849,0.00
 523603,0.34655340,0.00234672,0.01712850,-0.00320666,0.09350745,0.61554
 158,0.00243559,-0.00807899,-0.00332900,0.14374191,-0.10290666,0.138672
 54,-0.24521516,-0.01695330,0.02955782,0.00329174,-0.00419955,0.0031161
 9,0.48459859,0.01980756,-0.08512847,-0.00040951,0.00046168,0.00134894,
 0.00041685,0.00470590,0.62800519,0.03146396,0.00546821,-0.06497850,-0.
 00027462,-0.00245556,-0.00083783,0.01392999,0.00223797,0.57015592,-0.1
 1660299,-0.04292373,-0.00793557,-0.02849181,0.01187636,-0.02812975,-0.
 02688214,-0.04994251,0.00148550,0.77294498,-0.07873679,-0.28640469,0.0
 1520043,0.04501940,-0.01427113,0.02985296,-0.02095380,-0.01509947,0.00
 170269,0.06382986,0.59798065,-0.01093792,0.00565472,-0.04763368,-0.034
 30965,0.01226234,-0.00754894,0.00331890,0.00577567,-0.00403051,0.31688
 695,-0.09304039,0.30502840,-0.01428694,-0.01195693,-0.01089091,-0.1753
 7217,0.10071083,-0.09563343,-0.00025659,0.00086624,-0.00163080,-0.4514
 5841,-0.11302718,-0.18270520,0.74262968,-0.05717143,-0.04412921,-0.016
 12789,0.05630956,-0.20531339,0.07400640,0.00910330,-0.00537102,0.00044
 782,-0.08334483,-0.11679334,-0.02618960,0.15326755,0.69884128,-0.00093
 630,0.00394105,0.00852611,-0.08563345,0.09699350,-0.11496862,-0.001012
 60,0.00281262,0.00033979,-0.18591077,-0.04000593,-0.14551703,0.2883738
 1,-0.07736835,0.29859884,-0.02868832,0.00985157,0.03648697,-0.00036218
 ,0.00051744,-0.00016134,-0.05774574,0.01697820,0.04007329,0.00364639,0
 .00600254,0.00062749,-0.00028164,-0.00127087,-0.00080018,0.07522649,-0
 .00118135,0.00358362,0.00334918,0.00034023,-0.00084980,0.00078150,0.02
 100896,-0.09484057,-0.09170232,0.00111495,0.00180553,0.00215977,-0.000
 71266,0.00114034,-0.00118993,-0.02378677,0.09183605,0.01011989,0.00017
 121,0.00088202,0.00006558,-0.00024458,0.00031946,0.04535831,-0.0901131
 4,-0.26014928,-0.00056930,-0.00134047,0.00127565,0.00019732,0.00121326
 ,-0.00043989,-0.05719143,0.09974926,0.27767032,-0.04059650,0.01260141,
 -0.02109973,-0.00016661,-0.00067797,-0.00009836,-0.10323255,0.05499256
 ,-0.08570975,0.00227472,0.00725290,-0.00140344,-0.00056667,-0.00076549
 ,-0.00002150,0.00562508,-0.00314676,0.00352399,0.13050872,-0.00023534,
 0.00311144,-0.00284777,0.00015733,-0.00034360,-0.00009734,0.05959003,-
 0.11380104,0.09085219,-0.00166605,0.00240673,-0.00215805,-0.00004759,0
 .00027858,-0.00000423,-0.00653221,0.00698953,-0.01025474,-0.06671113,0
 .11383965,0.00319683,-0.00456342,0.01112824,0.00004578,0.00014230,0.00
 039281,-0.09013919,0.09166648,-0.19128433,0.00058639,-0.00038757,0.000
 64446,0.00012926,-0.00048163,-0.00019781,-0.01322485,0.01538957,-0.020
 10199,0.09852368,-0.09971810,0.19819840,-0.01939469,-0.04088357,0.0018
 0529,-0.00034071,0.00072077,-0.00018496,-0.05770473,-0.04463012,-0.001
 48314,-0.00602671,0.00206416,-0.00000767,0.00028493,-0.00263033,0.0009
 4135,0.00282698,0.00602336,-0.00138256,0.00515882,0.01474759,0.0016623
 2,0.07537859,-0.00296134,0.00017828,0.00040224,-0.00041829,0.00051849,
 -0.00047664,-0.05848165,-0.31584610,-0.00618211,-0.00076557,0.00213727
 ,0.00000248,0.00044673,-0.00033952,0.00072019,-0.00116104,-0.00966896,
 0.00062422,-0.00219628,-0.01282042,-0.00144281,0.06533143,0.33574619,0
 .00283846,0.00706804,0.00038137,0.00001425,0.00005815,-0.00005299,-0.0
 0202519,-0.00928273,-0.05193975,0.00094847,0.00028659,0.00068595,0.000
 40488,0.00031919,0.00025275,-0.00627176,-0.02845836,0.00138288,0.00527
 379,0.02371851,0.00160235,-0.00112322,0.00658712,0.04771248,0.00624665
 ,-0.01123714,0.00634546,-0.00094245,-0.00417640,-0.00469868,0.00397862
 ,-0.00187755,0.00205495,-0.14630796,0.10393874,-0.09294742,-0.00788235
 ,0.02208010,-0.01072620,-0.00034678,0.00004218,-0.00008756,0.00043178,
 0.00087472,-0.00090270,0.00008119,0.00016840,-0.00006246,0.14562196,0.
 00983823,-0.03179268,0.01591263,-0.00416102,0.00192784,0.00023656,0.00
 557040,0.00095046,-0.00039504,0.10367612,-0.17351700,0.09636473,-0.003
 48184,0.00840458,-0.00462099,-0.00059424,-0.00003355,0.00021073,-0.001
 27914,0.00036686,-0.00062302,-0.00044127,0.00027419,-0.00025336,-0.109
 22296,0.19421206,0.00227967,0.00051474,0.00290999,-0.00598904,0.001884
 58,0.00778896,-0.00050872,-0.00038680,0.00096353,-0.09466742,0.0973434
 1,-0.10565348,-0.00262100,0.00761033,-0.00492064,0.00007867,0.00025352
 ,-0.00056502,0.00035971,0.00043166,-0.00015954,0.00025084,-0.00028407,
 -0.00010605,0.09885707,-0.10570324,0.10341030,-0.00278556,-0.00215676,
 -0.00503231,0.01005197,0.02369873,-0.00198096,0.00106823,-0.00026853,-
 0.00120850,-0.00171081,-0.02337568,0.00508960,-0.10655366,-0.12014429,
 -0.00445158,-0.00001850,0.00014587,0.00014670,-0.00028619,-0.00008012,
 0.00003778,-0.00026670,0.00003305,0.00006877,-0.00104387,0.00094021,0.
 00164743,0.10325681,-0.00076878,0.00354854,0.00209772,-0.00499820,-0.0
 2368750,0.00435347,-0.00014958,-0.00044886,0.00000606,-0.00020836,-0.0
 0230057,0.00085594,-0.11471777,-0.29721627,0.01354243,0.00001097,-0.00
 008680,-0.00003657,-0.00000006,0.00003388,-0.00003593,-0.00009349,-0.0
 0000451,0.00001418,0.00001233,-0.00006610,-0.00117794,0.11802632,0.320
 36995,-0.00612214,0.00471771,0.00661759,0.00625128,0.01859582,-0.00047
 599,-0.00069789,-0.00185701,0.00053633,-0.00213888,-0.01309836,0.00311
 634,-0.00460299,0.01201390,-0.04149685,-0.00004172,-0.00020986,-0.0000
 9829,0.00008520,0.00010806,-0.00009826,-0.00054138,-0.00005842,0.00004
 175,0.00162023,-0.00077009,-0.00322554,0.00864650,-0.02204740,0.034994
 80,0.00102298,-0.00327676,0.00151214,-0.15272219,-0.22432438,-0.018406
 20,-0.00190026,-0.00109344,0.00129912,-0.00138527,0.00798584,-0.003611
 64,0.01374382,0.02456672,0.00017741,0.00011823,0.00015198,-0.00018094,
 0.00084940,-0.00009721,0.00008471,0.00000303,0.00000455,-0.00006599,0.
 00016322,-0.00084448,0.00031280,-0.00171172,0.00288662,-0.00245820,0.1
 4181877,-0.00110116,-0.00186304,-0.00077917,-0.18298965,-0.39199993,0.
 00191187,0.00075928,0.00023094,0.00002009,-0.00164625,0.00405603,-0.00
 168761,-0.01134738,-0.03950203,0.00517963,-0.00001559,0.00012462,0.000
 02082,-0.00007004,-0.00006161,0.00005412,-0.00020853,-0.00017493,-0.00
 005734,-0.00060242,-0.00072667,-0.00048619,0.00318119,-0.00014176,0.00
 260564,0.19404054,0.43005838,0.00164714,-0.00130207,-0.00213806,-0.029
 14806,-0.02112324,-0.01996040,-0.00089761,-0.00086041,0.00122463,-0.00
 055561,0.00348665,-0.00036717,0.00897905,0.02455655,-0.00017666,0.0004
 2486,-0.00012234,-0.00017586,0.00056639,-0.00003020,-0.00012432,0.0000
 6315,0.00010780,0.00003925,0.00054730,-0.00035892,-0.00044249,-0.00296
 342,0.00242803,0.00008811,0.02133680,-0.00678186,0.02203296\\0.0000001
 6,-0.00000010,0.00000118,-0.00000018,0.00000172,0.00000099,-0.00000040
 ,0.00000053,0.00000055,0.00000063,-0.00000077,-0.00000111,-0.00000008,
 -0.00000008,-0.00000027,-0.00000044,0.00000137,-0.00000108,0.00000061,
 -0.00000104,-0.00000049,-0.00000037,0.00000024,0.00000157,0.00000092,-
 0.00000110,-0.00000190,0.00000037,-0.00000027,-0.00000161,-0.00000123,
 -0.00000050,0.00000217\\\@


 ... THIS SEEMS PLAINLY ABSURD; BUT WHOEVER WISHES TO BECOME A 
 PHILOSOPHER MUST LEARN NOT TO BE FRIGHTENED BY ABSURDITIES.

                          -- BERTRAND RUSSELL
 Job cpu time:       0 days  0 hours 53 minutes 41.0 seconds.
 Elapsed time:       0 days  0 hours 26 minutes 51.2 seconds.
 File lengths (MBytes):  RWF=   1312 Int=      0 D2E=      0 Chk=     32 Scr=     32
 Normal termination of Gaussian 16 at Wed Sep 25 00:48:01 2019.
