 Entering Gaussian System, Link 0=g16
 Input=med/species/COC=CO/conformers/COC=CO_28.com
 Output=med/species/COC=CO/conformers/COC=CO_28.log
 Initial command:
 /shared/centos7/gaussian/g16/l1.exe "/scratch/harms.n/gauss_scrdir/Gau-3889.inp" -scrdir="/scratch/harms.n/gauss_scrdir/"
 Entering Link 1 = /shared/centos7/gaussian/g16/l1.exe PID=      3894.
  
 Copyright (c) 1988,1990,1992,1993,1995,1998,2003,2009,2016,
            Gaussian, Inc.  All Rights Reserved.
  
 This is part of the Gaussian(R) 16 program.  It is based on
 the Gaussian(R) 09 system (copyright 2009, Gaussian, Inc.),
 the Gaussian(R) 03 system (copyright 2003, Gaussian, Inc.),
 the Gaussian(R) 98 system (copyright 1998, Gaussian, Inc.),
 the Gaussian(R) 94 system (copyright 1995, Gaussian, Inc.),
 the Gaussian 92(TM) system (copyright 1992, Gaussian, Inc.),
 the Gaussian 90(TM) system (copyright 1990, Gaussian, Inc.),
 the Gaussian 88(TM) system (copyright 1988, Gaussian, Inc.),
 the Gaussian 86(TM) system (copyright 1986, Carnegie Mellon
 University), and the Gaussian 82(TM) system (copyright 1983,
 Carnegie Mellon University). Gaussian is a federally registered
 trademark of Gaussian, Inc.
  
 This software contains proprietary and confidential information,
 including trade secrets, belonging to Gaussian, Inc.
  
 This software is provided under written license and may be
 used, copied, transmitted, or stored only in accord with that
 written license.
  
 The following legend is applicable only to US Government
 contracts under FAR:
  
                    RESTRICTED RIGHTS LEGEND
  
 Use, reproduction and disclosure by the US Government is
 subject to restrictions as set forth in subparagraphs (a)
 and (c) of the Commercial Computer Software - Restricted
 Rights clause in FAR 52.227-19.
  
 Gaussian, Inc.
 340 Quinnipiac St., Bldg. 40, Wallingford CT 06492
  
  
 ---------------------------------------------------------------
 Warning -- This program may not be used in any manner that
 competes with the business of Gaussian, Inc. or will provide
 assistance to any competitor of Gaussian, Inc.  The licensee
 of this program is prohibited from giving any competitor of
 Gaussian, Inc. access to this program.  By using this program,
 the user acknowledges that Gaussian, Inc. is engaged in the
 business of creating and licensing software in the field of
 computational chemistry and represents and warrants to the
 licensee that it is not a competitor of Gaussian, Inc. and that
 it will not use this program in any manner prohibited above.
 ---------------------------------------------------------------
  

 Cite this work as:
 Gaussian 16, Revision A.03,
 M. J. Frisch, G. W. Trucks, H. B. Schlegel, G. E. Scuseria, 
 M. A. Robb, J. R. Cheeseman, G. Scalmani, V. Barone, 
 G. A. Petersson, H. Nakatsuji, X. Li, M. Caricato, A. V. Marenich, 
 J. Bloino, B. G. Janesko, R. Gomperts, B. Mennucci, H. P. Hratchian, 
 J. V. Ortiz, A. F. Izmaylov, J. L. Sonnenberg, D. Williams-Young, 
 F. Ding, F. Lipparini, F. Egidi, J. Goings, B. Peng, A. Petrone, 
 T. Henderson, D. Ranasinghe, V. G. Zakrzewski, J. Gao, N. Rega, 
 G. Zheng, W. Liang, M. Hada, M. Ehara, K. Toyota, R. Fukuda, 
 J. Hasegawa, M. Ishida, T. Nakajima, Y. Honda, O. Kitao, H. Nakai, 
 T. Vreven, K. Throssell, J. A. Montgomery, Jr., J. E. Peralta, 
 F. Ogliaro, M. J. Bearpark, J. J. Heyd, E. N. Brothers, K. N. Kudin, 
 V. N. Staroverov, T. A. Keith, R. Kobayashi, J. Normand, 
 K. Raghavachari, A. P. Rendell, J. C. Burant, S. S. Iyengar, 
 J. Tomasi, M. Cossi, J. M. Millam, M. Klene, C. Adamo, R. Cammi, 
 J. W. Ochterski, R. L. Martin, K. Morokuma, O. Farkas, 
 J. B. Foresman, and D. J. Fox, Gaussian, Inc., Wallingford CT, 2016.
 
 ******************************************
 Gaussian 16:  EM64L-G16RevA.03 25-Dec-2016
                29-Sep-2019 
 ******************************************
 %nprocshared=20
 Will use up to   20 processors via shared memory.
 %mem=5GB
 ----------------------------------------------------------------------
 #p m062x/cc-pVTZ opt=(calcfc,maxcycles=900,Tight) freq IOP(7/33=1,2/16
 =3) scf=(maxcycle=900)
 ----------------------------------------------------------------------
 1/6=900,7=10,10=4,18=20,19=15,26=3,38=1/1,3;
 2/9=110,12=2,16=3,17=6,18=5,40=1/2;
 3/5=16,6=1,11=2,25=1,30=1,71=2,74=-55,140=1/1,2,3;
 4//1;
 5/5=2,7=900,38=5/2;
 8/6=4,10=90,11=11/1;
 11/6=1,8=1,9=11,15=111,16=1/1,2,10;
 10/6=1,13=1/2;
 6/7=2,8=2,9=2,10=2,28=1/1;
 7/10=1,18=20,25=1,33=1/1,2,3,16;
 1/6=900,7=10,10=4,18=20,19=15,26=3/3(2);
 2/9=110,16=3/2;
 99//99;
 2/9=110,16=3/2;
 3/5=16,6=1,11=2,25=1,30=1,71=1,74=-55/1,2,3;
 4/5=5,16=3,69=1/1;
 5/5=2,7=900,38=5/2;
 7/33=1/1,2,3,16;
 1/6=900,7=10,18=20,19=15,26=3/3(-5);
 2/9=110,16=3/2;
 6/7=2,8=2,9=2,10=2,19=2,28=1/1;
 99/9=1/99;
 Leave Link    1 at Sun Sep 29 07:27:50 2019, MaxMem=   671088640 cpu:               4.4 elap:               2.2
 (Enter /shared/centos7/gaussian/g16/l101.exe)
 ------------------------------
 Gaussian input prepared by ASE
 ------------------------------
 Symbolic Z-matrix:
 Charge =  0 Multiplicity = 1
 O                     0.20927  -0.77037   1.11791 
 O                     0.11757   0.66326  -1.39397 
 C                    -1.18678  -0.91736   0.84806 
 C                     0.67307   0.52402   0.92035 
 C                     0.64087   1.16562  -0.22346 
 H                    -1.34106  -1.71312   0.06359 
 H                    -1.71261  -1.24748   1.78892 
 H                    -1.63082   0.01757   0.50568 
 H                     1.17048   0.95516   1.78702 
 H                     0.98917   2.17094  -0.32779 
 H                    -0.07522  -0.32089  -1.2258 
 
 ITRead=  0  0  0  0  0  0  0  0  0  0  0
 MicOpt= -1 -1 -1 -1 -1 -1 -1 -1 -1 -1 -1
 NAtoms=     11 NQM=       11 NQMF=       0 NMMI=      0 NMMIF=      0
                NMic=       0 NMicF=      0.
                    Isotopes and Nuclear Properties:
 (Nuclear quadrupole moments (NQMom) in fm**2, nuclear magnetic moments (NMagM)
  in nuclear magnetons)

  Atom         1           2           3           4           5           6           7           8           9          10
 IAtWgt=          16          16          12          12          12           1           1           1           1           1
 AtmWgt=  15.9949146  15.9949146  12.0000000  12.0000000  12.0000000   1.0078250   1.0078250   1.0078250   1.0078250   1.0078250
 NucSpn=           0           0           0           0           0           1           1           1           1           1
 AtZEff=  -0.0000000  -0.0000000  -0.0000000  -0.0000000  -0.0000000  -0.0000000  -0.0000000  -0.0000000  -0.0000000  -0.0000000
 NQMom=    0.0000000   0.0000000   0.0000000   0.0000000   0.0000000   0.0000000   0.0000000   0.0000000   0.0000000   0.0000000
 NMagM=    0.0000000   0.0000000   0.0000000   0.0000000   0.0000000   2.7928460   2.7928460   2.7928460   2.7928460   2.7928460
 AtZNuc=   8.0000000   8.0000000   6.0000000   6.0000000   6.0000000   1.0000000   1.0000000   1.0000000   1.0000000   1.0000000

  Atom        11
 IAtWgt=           1
 AtmWgt=   1.0078250
 NucSpn=           1
 AtZEff=  -0.0000000
 NQMom=    0.0000000
 NMagM=    2.7928460
 AtZNuc=   1.0000000
 Leave Link  101 at Sun Sep 29 07:27:52 2019, MaxMem=   671088640 cpu:               3.4 elap:               1.7
 (Enter /shared/centos7/gaussian/g16/l103.exe)

 GradGradGradGradGradGradGradGradGradGradGradGradGradGradGradGradGradGrad
 Berny optimization.
 Initialization pass.
                           ----------------------------
                           !    Initial Parameters    !
                           ! (Angstroms and Degrees)  !
 --------------------------                            --------------------------
 ! Name  Definition              Value          Derivative Info.                !
 --------------------------------------------------------------------------------
 ! R1    R(1,3)                  1.4295         calculate D2E/DX2 analytically  !
 ! R2    R(1,4)                  1.3891         calculate D2E/DX2 analytically  !
 ! R3    R(2,5)                  1.3771         calculate D2E/DX2 analytically  !
 ! R4    R(2,11)                 1.0169         calculate D2E/DX2 analytically  !
 ! R5    R(3,6)                  1.128          calculate D2E/DX2 analytically  !
 ! R6    R(3,7)                  1.1272         calculate D2E/DX2 analytically  !
 ! R7    R(3,8)                  1.0902         calculate D2E/DX2 analytically  !
 ! R8    R(4,5)                  1.3119         calculate D2E/DX2 analytically  !
 ! R9    R(4,9)                  1.0883         calculate D2E/DX2 analytically  !
 ! R10   R(5,10)                 1.0691         calculate D2E/DX2 analytically  !
 ! A1    A(3,1,4)              113.2693         calculate D2E/DX2 analytically  !
 ! A2    A(5,2,11)             106.5319         calculate D2E/DX2 analytically  !
 ! A3    A(1,3,6)              109.7183         calculate D2E/DX2 analytically  !
 ! A4    A(1,3,7)              109.1546         calculate D2E/DX2 analytically  !
 ! A5    A(1,3,8)              111.6473         calculate D2E/DX2 analytically  !
 ! A6    A(6,3,7)              108.0625         calculate D2E/DX2 analytically  !
 ! A7    A(6,3,8)              109.3217         calculate D2E/DX2 analytically  !
 ! A8    A(7,3,8)              108.8612         calculate D2E/DX2 analytically  !
 ! A9    A(1,4,5)              124.8581         calculate D2E/DX2 analytically  !
 ! A10   A(1,4,9)              114.1097         calculate D2E/DX2 analytically  !
 ! A11   A(5,4,9)              120.7837         calculate D2E/DX2 analytically  !
 ! A12   A(2,5,4)              124.8914         calculate D2E/DX2 analytically  !
 ! A13   A(2,5,10)             112.5758         calculate D2E/DX2 analytically  !
 ! A14   A(4,5,10)             122.4813         calculate D2E/DX2 analytically  !
 ! D1    D(4,1,3,6)            122.9857         calculate D2E/DX2 analytically  !
 ! D2    D(4,1,3,7)           -118.7744         calculate D2E/DX2 analytically  !
 ! D3    D(4,1,3,8)              1.6266         calculate D2E/DX2 analytically  !
 ! D4    D(3,1,4,5)            -61.1212         calculate D2E/DX2 analytically  !
 ! D5    D(3,1,4,9)            124.5923         calculate D2E/DX2 analytically  !
 ! D6    D(11,2,5,4)            -9.4525         calculate D2E/DX2 analytically  !
 ! D7    D(11,2,5,10)          173.1107         calculate D2E/DX2 analytically  !
 ! D8    D(1,4,5,2)              1.4121         calculate D2E/DX2 analytically  !
 ! D9    D(1,4,5,10)           178.6062         calculate D2E/DX2 analytically  !
 ! D10   D(9,4,5,2)            175.3404         calculate D2E/DX2 analytically  !
 ! D11   D(9,4,5,10)            -7.4655         calculate D2E/DX2 analytically  !
 --------------------------------------------------------------------------------
 Trust Radius=3.00D-01 FncErr=1.00D-07 GrdErr=1.00D-06 EigMax=2.50D+02 EigMin=1.00D-04
 Number of steps in this run=    100 maximum allowed number of steps=    100.
 GradGradGradGradGradGradGradGradGradGradGradGradGradGradGradGradGradGrad

 Leave Link  103 at Sun Sep 29 07:27:53 2019, MaxMem=   671088640 cpu:               1.7 elap:               0.9
 (Enter /shared/centos7/gaussian/g16/l202.exe)
                          Input orientation:                          
 ---------------------------------------------------------------------
 Center     Atomic      Atomic             Coordinates (Angstroms)
 Number     Number       Type             X           Y           Z
 ---------------------------------------------------------------------
      1          8           0        0.209268   -0.770369    1.117913
      2          8           0        0.117570    0.663264   -1.393966
      3          6           0       -1.186777   -0.917360    0.848062
      4          6           0        0.673072    0.524017    0.920345
      5          6           0        0.640871    1.165621   -0.223455
      6          1           0       -1.341055   -1.713121    0.063592
      7          1           0       -1.712609   -1.247481    1.788919
      8          1           0       -1.630822    0.017569    0.505684
      9          1           0        1.170479    0.955159    1.787023
     10          1           0        0.989174    2.170943   -0.327795
     11          1           0       -0.075224   -0.320894   -1.225802
 ---------------------------------------------------------------------
                    Distance matrix (angstroms):
                    1          2          3          4          5
     1  O    0.000000
     2  O    2.893656   0.000000
     3  C    1.429464   3.037496   0.000000
     4  C    1.389094   2.384115   2.354110   0.000000
     5  C    2.394495   1.377063   2.971070   1.311858   0.000000
     6  H    2.098541   3.146310   1.128020   3.129780   3.506791
     7  H    2.090812   4.138992   1.127250   3.095820   3.925759
     8  H    2.093227   2.661290   1.090179   2.395070   2.647689
     9  H    2.085446   3.363408   3.153511   1.088314   2.089690
    10  H    3.368923   2.041938   3.956642   2.090487   1.069052
    11  H    2.403323   1.016866   2.427392   2.424824   1.930601
                    6          7          8          9         10
     6  H    0.000000
     7  H    1.825274   0.000000
     8  H    1.809612   1.803811   0.000000
     9  H    4.049412   3.628199   3.219968   0.000000
    10  H    4.546328   4.844144   3.492290   2.446111   0.000000
    11  H    2.281044   3.553609   2.352124   3.501029   2.854578
                   11
    11  H    0.000000
 Stoichiometry    C3H6O2
 Framework group  C1[X(C3H6O2)]
 Deg. of freedom    27
 Full point group                 C1      NOp   1
 Largest Abelian subgroup         C1      NOp   1
 Largest concise Abelian subgroup C1      NOp   1
                         Standard orientation:                         
 ---------------------------------------------------------------------
 Center     Atomic      Atomic             Coordinates (Angstroms)
 Number     Number       Type             X           Y           Z
 ---------------------------------------------------------------------
      1          8           0        1.047676    0.474694   -0.472651
      2          8           0       -1.458322   -0.931300   -0.131481
      3          6           0        1.535040   -0.632415    0.289026
      4          6           0       -0.114443    1.029777    0.047875
      5          6           0       -1.252067    0.391943    0.189123
      6          1           0        1.618680   -1.542189   -0.372598
      7          1           0        2.563977   -0.388412    0.679466
      8          1           0        0.882496   -0.858602    1.132540
      9          1           0       -0.044890    2.096519    0.251966
     10          1           0       -2.118517    0.850881    0.615167
     11          1           0       -0.627760   -1.241183   -0.629631
 ---------------------------------------------------------------------
 Rotational constants (GHZ):           9.2890699           4.1378841           3.1467934
 Leave Link  202 at Sun Sep 29 07:27:55 2019, MaxMem=   671088640 cpu:               4.0 elap:               2.0
 (Enter /shared/centos7/gaussian/g16/l301.exe)
 Standard basis: CC-pVTZ (5D, 7F)
 Ernie: Thresh=  0.10000D-02 Tol=  0.10000D-05 Strict=F.
 Ernie:  15 primitive shells out of 178 were deleted.
 There are   265 symmetry adapted cartesian basis functions of A   symmetry.
 There are   234 symmetry adapted basis functions of A   symmetry.
   234 basis functions,   362 primitive gaussians,   265 cartesian basis functions
    20 alpha electrons       20 beta electrons
       nuclear repulsion energy       180.0936788293 Hartrees.
 IExCor= 4336 DFT=T Ex+Corr=M062X ExCW=0 ScaHFX=  0.540000
 ScaDFX=  1.000000  1.000000  1.000000  1.000000 ScalE2=  1.000000  1.000000
 IRadAn=      5 IRanWt=     -1 IRanGd=            0 ICorTp=0 IEmpDi=  4
 NAtoms=   11 NActive=   11 NUniq=   11 SFac= 1.00D+00 NAtFMM=   60 NAOKFM=F Big=F
 Integral buffers will be    131072 words long.
 Raffenetti 2 integral format.
 Two-electron integral symmetry is turned on.
 Leave Link  301 at Sun Sep 29 07:27:56 2019, MaxMem=   671088640 cpu:               1.7 elap:               0.9
 (Enter /shared/centos7/gaussian/g16/l302.exe)
 NPDir=0 NMtPBC=     1 NCelOv=     1 NCel=       1 NClECP=     1 NCelD=      1
         NCelK=      1 NCelE2=     1 NClLst=     1 CellRange=     0.0.
 One-electron integrals computed using PRISM.
 One-electron integral symmetry used in STVInt
 NBasis=   234 RedAO= T EigKep=  3.57D-04  NBF=   234
 NBsUse=   234 1.00D-06 EigRej= -1.00D+00 NBFU=   234
 Precomputing XC quadrature grid using
 IXCGrd= 4 IRadAn=           5 IRanWt=          -1 IRanGd=           0 AccXCQ= 0.00D+00.
 Generated NRdTot=       0 NPtTot=           0 NUsed=           0 NTot=          32
 NSgBfM=   265   265   265   265   265 MxSgAt=    11 MxSgA2=    11.
 Leave Link  302 at Sun Sep 29 07:29:11 2019, MaxMem=   671088640 cpu:             150.7 elap:              75.4
 (Enter /shared/centos7/gaussian/g16/l303.exe)
 DipDrv:  MaxL=1.
 Leave Link  303 at Sun Sep 29 07:29:18 2019, MaxMem=   671088640 cpu:              12.6 elap:               6.3
 (Enter /shared/centos7/gaussian/g16/l401.exe)
 ExpMin= 1.03D-01 ExpMax= 1.53D+04 ExpMxC= 5.22D+02 IAcc=3 IRadAn=         5 AccDes= 0.00D+00
 Harris functional with IExCor= 1009 and IRadAn=       5 diagonalized for initial guess.
 HarFok:  IExCor= 1009 AccDes= 0.00D+00 IRadAn=         5 IDoV= 1 UseB2=F ITyADJ=14
 ICtDFT=  3500011 ScaDFX=  1.000000  1.000000  1.000000  1.000000
 FoFCou: FMM=F IPFlag=           0 FMFlag=      100000 FMFlg1=           0
         NFxFlg=           0 DoJE=T BraDBF=F KetDBF=T FulRan=T
         wScrn=  0.000000 ICntrl=       500 IOpCl=  0 I1Cent=   200000004 NGrid=           0
         NMat0=    1 NMatS0=      1 NMatT0=    0 NMatD0=    1 NMtDS0=    0 NMtDT0=    0
 Petite list used in FoFCou.
 Harris En= -268.194535023780    
 JPrj=0 DoOrth=F DoCkMO=F.
 Leave Link  401 at Sun Sep 29 07:29:48 2019, MaxMem=   671088640 cpu:              60.2 elap:              30.1
 (Enter /shared/centos7/gaussian/g16/l502.exe)
 Keep R1 ints in memory in canonical form, NReq=399924305.
 FoFCou: FMM=F IPFlag=           0 FMFlag=           0 FMFlg1=           0
         NFxFlg=           0 DoJE=F BraDBF=F KetDBF=F FulRan=T
         wScrn=  0.000000 ICntrl=       600 IOpCl=  0 I1Cent=           0 NGrid=           0
         NMat0=    1 NMatS0=  27495 NMatT0=    0 NMatD0=    1 NMtDS0=    0 NMtDT0=    0
 Symmetry not used in FoFCou.
 Two-electron integral symmetry not used.
 Closed shell SCF:
 Using DIIS extrapolation, IDIIS=  1040.
 NGot=   671088640 LenX=   292939207 LenY=   292868541
 Requested convergence on RMS density matrix=1.00D-08 within 900 cycles.
 Requested convergence on MAX density matrix=1.00D-06.
 Requested convergence on             energy=1.00D-06.
 No special actions if energy rises.
 Integral accuracy reduced to 1.0D-05 until final iterations.

 Cycle   1  Pass 0  IDiag  1:
 E= -268.191559903383    
 DIIS: error= 1.78D-02 at cycle   1 NSaved=   1.
 NSaved= 1 IEnMin= 1 EnMin= -268.191559903383     IErMin= 1 ErrMin= 1.78D-02
 ErrMax= 1.78D-02  0.00D+00 EMaxC= 1.00D-01 BMatC= 1.68D-01 BMatP= 1.68D-01
 IDIUse=3 WtCom= 8.22D-01 WtEn= 1.78D-01
 Coeff-Com:  0.100D+01
 Coeff-En:   0.100D+01
 Coeff:      0.100D+01
 Gap=     0.364 Goal=   None    Shift=    0.000
 GapD=    0.364 DampG=1.000 DampE=0.500 DampFc=0.5000 IDamp=-1.
 Damping current iteration by 5.00D-01
 RMSDP=2.08D-03 MaxDP=7.55D-02              OVMax= 1.11D-01

 Cycle   2  Pass 0  IDiag  1:
 E= -268.254742722084     Delta-E=       -0.063182818702 Rises=F Damp=T
 DIIS: error= 5.00D-03 at cycle   2 NSaved=   2.
 NSaved= 2 IEnMin= 2 EnMin= -268.254742722084     IErMin= 2 ErrMin= 5.00D-03
 ErrMax= 5.00D-03  0.00D+00 EMaxC= 1.00D-01 BMatC= 1.65D-02 BMatP= 1.68D-01
 IDIUse=3 WtCom= 9.50D-01 WtEn= 5.00D-02
 Coeff-Com: -0.194D+00 0.119D+01
 Coeff-En:   0.000D+00 0.100D+01
 Coeff:     -0.184D+00 0.118D+01
 Gap=     0.342 Goal=   None    Shift=    0.000
 RMSDP=4.23D-04 MaxDP=1.07D-02 DE=-6.32D-02 OVMax= 4.85D-02

 Cycle   3  Pass 0  IDiag  1:
 E= -268.309066788949     Delta-E=       -0.054324066865 Rises=F Damp=F
 DIIS: error= 3.20D-03 at cycle   3 NSaved=   3.
 NSaved= 3 IEnMin= 3 EnMin= -268.309066788949     IErMin= 3 ErrMin= 3.20D-03
 ErrMax= 3.20D-03  0.00D+00 EMaxC= 1.00D-01 BMatC= 3.68D-03 BMatP= 1.65D-02
 IDIUse=3 WtCom= 9.68D-01 WtEn= 3.20D-02
 Coeff-Com: -0.123D+00 0.402D+00 0.721D+00
 Coeff-En:   0.000D+00 0.000D+00 0.100D+01
 Coeff:     -0.119D+00 0.389D+00 0.730D+00
 Gap=     0.343 Goal=   None    Shift=    0.000
 RMSDP=1.94D-04 MaxDP=6.25D-03 DE=-5.43D-02 OVMax= 1.34D-02

 Cycle   4  Pass 0  IDiag  1:
 E= -268.310896321150     Delta-E=       -0.001829532201 Rises=F Damp=F
 DIIS: error= 1.50D-03 at cycle   4 NSaved=   4.
 NSaved= 4 IEnMin= 4 EnMin= -268.310896321150     IErMin= 4 ErrMin= 1.50D-03
 ErrMax= 1.50D-03  0.00D+00 EMaxC= 1.00D-01 BMatC= 7.91D-04 BMatP= 3.68D-03
 IDIUse=3 WtCom= 9.85D-01 WtEn= 1.50D-02
 Coeff-Com: -0.372D-01 0.932D-01 0.363D+00 0.581D+00
 Coeff-En:   0.000D+00 0.000D+00 0.159D+00 0.841D+00
 Coeff:     -0.366D-01 0.918D-01 0.360D+00 0.585D+00
 Gap=     0.338 Goal=   None    Shift=    0.000
 RMSDP=6.72D-05 MaxDP=1.89D-03 DE=-1.83D-03 OVMax= 6.59D-03

 Cycle   5  Pass 0  IDiag  1:
 E= -268.311474114109     Delta-E=       -0.000577792959 Rises=F Damp=F
 DIIS: error= 2.12D-04 at cycle   5 NSaved=   5.
 NSaved= 5 IEnMin= 5 EnMin= -268.311474114109     IErMin= 5 ErrMin= 2.12D-04
 ErrMax= 2.12D-04  0.00D+00 EMaxC= 1.00D-01 BMatC= 1.98D-05 BMatP= 7.91D-04
 IDIUse=3 WtCom= 9.98D-01 WtEn= 2.12D-03
 Coeff-Com: -0.704D-02 0.136D-01 0.953D-01 0.223D+00 0.675D+00
 Coeff-En:   0.000D+00 0.000D+00 0.000D+00 0.000D+00 0.100D+01
 Coeff:     -0.702D-02 0.136D-01 0.951D-01 0.222D+00 0.676D+00
 Gap=     0.338 Goal=   None    Shift=    0.000
 RMSDP=1.42D-05 MaxDP=4.29D-04 DE=-5.78D-04 OVMax= 1.41D-03

 Cycle   6  Pass 0  IDiag  1:
 E= -268.311489607153     Delta-E=       -0.000015493044 Rises=F Damp=F
 DIIS: error= 5.04D-05 at cycle   6 NSaved=   6.
 NSaved= 6 IEnMin= 6 EnMin= -268.311489607153     IErMin= 6 ErrMin= 5.04D-05
 ErrMax= 5.04D-05  0.00D+00 EMaxC= 1.00D-01 BMatC= 1.13D-06 BMatP= 1.98D-05
 IDIUse=1 WtCom= 1.00D+00 WtEn= 0.00D+00
 Coeff-Com: -0.118D-02 0.148D-02 0.227D-01 0.687D-01 0.258D+00 0.651D+00
 Coeff:     -0.118D-02 0.148D-02 0.227D-01 0.687D-01 0.258D+00 0.651D+00
 Gap=     0.338 Goal=   None    Shift=    0.000
 RMSDP=4.12D-06 MaxDP=1.31D-04 DE=-1.55D-05 OVMax= 5.85D-04

 Initial convergence to 1.0D-05 achieved.  Increase integral accuracy.
 Cycle   7  Pass 1  IDiag  1:
 E= -268.311513438205     Delta-E=       -0.000023831052 Rises=F Damp=F
 DIIS: error= 2.41D-05 at cycle   1 NSaved=   1.
 NSaved= 1 IEnMin= 1 EnMin= -268.311513438205     IErMin= 1 ErrMin= 2.41D-05
 ErrMax= 2.41D-05  0.00D+00 EMaxC= 1.00D-01 BMatC= 4.15D-07 BMatP= 4.15D-07
 IDIUse=1 WtCom= 1.00D+00 WtEn= 0.00D+00
 Coeff-Com:  0.100D+01
 Coeff:      0.100D+01
 Gap=     0.339 Goal=   None    Shift=    0.000
 RMSDP=4.12D-06 MaxDP=1.31D-04 DE=-2.38D-05 OVMax= 4.29D-04

 Cycle   8  Pass 1  IDiag  1:
 E= -268.311513410074     Delta-E=        0.000000028131 Rises=F Damp=F
 DIIS: error= 2.95D-05 at cycle   2 NSaved=   2.
 NSaved= 2 IEnMin= 1 EnMin= -268.311513438205     IErMin= 1 ErrMin= 2.41D-05
 ErrMax= 2.95D-05  0.00D+00 EMaxC= 1.00D-01 BMatC= 4.46D-07 BMatP= 4.15D-07
 IDIUse=1 WtCom= 1.00D+00 WtEn= 0.00D+00
 Coeff-Com:  0.511D+00 0.489D+00
 Coeff:      0.511D+00 0.489D+00
 Gap=     0.339 Goal=   None    Shift=    0.000
 RMSDP=2.16D-06 MaxDP=6.71D-05 DE= 2.81D-08 OVMax= 3.06D-04

 Cycle   9  Pass 1  IDiag  1:
 E= -268.311513769677     Delta-E=       -0.000000359604 Rises=F Damp=F
 DIIS: error= 6.02D-06 at cycle   3 NSaved=   3.
 NSaved= 3 IEnMin= 3 EnMin= -268.311513769677     IErMin= 3 ErrMin= 6.02D-06
 ErrMax= 6.02D-06  0.00D+00 EMaxC= 1.00D-01 BMatC= 1.85D-08 BMatP= 4.15D-07
 IDIUse=1 WtCom= 1.00D+00 WtEn= 0.00D+00
 Coeff-Com: -0.275D-01 0.150D+00 0.877D+00
 Coeff:     -0.275D-01 0.150D+00 0.877D+00
 Gap=     0.339 Goal=   None    Shift=    0.000
 RMSDP=5.20D-07 MaxDP=1.84D-05 DE=-3.60D-07 OVMax= 3.99D-05

 Cycle  10  Pass 1  IDiag  1:
 E= -268.311513785271     Delta-E=       -0.000000015594 Rises=F Damp=F
 DIIS: error= 1.62D-06 at cycle   4 NSaved=   4.
 NSaved= 4 IEnMin= 4 EnMin= -268.311513785271     IErMin= 4 ErrMin= 1.62D-06
 ErrMax= 1.62D-06  0.00D+00 EMaxC= 1.00D-01 BMatC= 9.59D-10 BMatP= 1.85D-08
 IDIUse=1 WtCom= 1.00D+00 WtEn= 0.00D+00
 Coeff-Com: -0.224D-01 0.518D-01 0.361D+00 0.610D+00
 Coeff:     -0.224D-01 0.518D-01 0.361D+00 0.610D+00
 Gap=     0.339 Goal=   None    Shift=    0.000
 RMSDP=9.24D-08 MaxDP=2.80D-06 DE=-1.56D-08 OVMax= 1.02D-05

 Cycle  11  Pass 1  IDiag  1:
 E= -268.311513786020     Delta-E=       -0.000000000749 Rises=F Damp=F
 DIIS: error= 4.29D-07 at cycle   5 NSaved=   5.
 NSaved= 5 IEnMin= 5 EnMin= -268.311513786020     IErMin= 5 ErrMin= 4.29D-07
 ErrMax= 4.29D-07  0.00D+00 EMaxC= 1.00D-01 BMatC= 9.10D-11 BMatP= 9.59D-10
 IDIUse=1 WtCom= 1.00D+00 WtEn= 0.00D+00
 Coeff-Com: -0.261D-02-0.973D-02-0.370D-01 0.182D+00 0.867D+00
 Coeff:     -0.261D-02-0.973D-02-0.370D-01 0.182D+00 0.867D+00
 Gap=     0.339 Goal=   None    Shift=    0.000
 RMSDP=4.73D-08 MaxDP=1.03D-06 DE=-7.49D-10 OVMax= 3.66D-06

 Cycle  12  Pass 1  IDiag  1:
 E= -268.311513786127     Delta-E=       -0.000000000107 Rises=F Damp=F
 DIIS: error= 1.62D-07 at cycle   6 NSaved=   6.
 NSaved= 6 IEnMin= 6 EnMin= -268.311513786127     IErMin= 6 ErrMin= 1.62D-07
 ErrMax= 1.62D-07  0.00D+00 EMaxC= 1.00D-01 BMatC= 9.68D-12 BMatP= 9.10D-11
 IDIUse=1 WtCom= 1.00D+00 WtEn= 0.00D+00
 Coeff-Com:  0.152D-02-0.811D-02-0.500D-01-0.213D-02 0.301D+00 0.758D+00
 Coeff:      0.152D-02-0.811D-02-0.500D-01-0.213D-02 0.301D+00 0.758D+00
 Gap=     0.339 Goal=   None    Shift=    0.000
 RMSDP=1.67D-08 MaxDP=5.10D-07 DE=-1.07D-10 OVMax= 1.30D-06

 Cycle  13  Pass 1  IDiag  1:
 E= -268.311513786135     Delta-E=       -0.000000000007 Rises=F Damp=F
 DIIS: error= 3.96D-08 at cycle   7 NSaved=   7.
 NSaved= 7 IEnMin= 7 EnMin= -268.311513786135     IErMin= 7 ErrMin= 3.96D-08
 ErrMax= 3.96D-08  0.00D+00 EMaxC= 1.00D-01 BMatC= 1.07D-12 BMatP= 9.68D-12
 IDIUse=1 WtCom= 1.00D+00 WtEn= 0.00D+00
 Coeff-Com:  0.832D-03-0.272D-02-0.195D-01-0.143D-01 0.673D-01 0.309D+00
 Coeff-Com:  0.659D+00
 Coeff:      0.832D-03-0.272D-02-0.195D-01-0.143D-01 0.673D-01 0.309D+00
 Coeff:      0.659D+00
 Gap=     0.339 Goal=   None    Shift=    0.000
 RMSDP=3.78D-09 MaxDP=1.35D-07 DE=-7.39D-12 OVMax= 2.47D-07

 SCF Done:  E(RM062X) =  -268.311513786     A.U. after   13 cycles
            NFock= 13  Conv=0.38D-08     -V/T= 2.0061
 KE= 2.666924800517D+02 PE=-9.883730521190D+02 EE= 2.732753794519D+02
 Leave Link  502 at Sun Sep 29 07:35:31 2019, MaxMem=   671088640 cpu:             678.5 elap:             343.4
 (Enter /shared/centos7/gaussian/g16/l801.exe)
 DoSCS=F DFT=T ScalE2(SS,OS)=  1.000000  1.000000
 Range of M.O.s used for correlation:     1   234
 NBasis=   234 NAE=    20 NBE=    20 NFC=     0 NFV=     0
 NROrb=    234 NOA=    20 NOB=    20 NVA=   214 NVB=   214

 **** Warning!!: The largest alpha MO coefficient is  0.11558367D+02

 Leave Link  801 at Sun Sep 29 07:35:32 2019, MaxMem=   671088640 cpu:               1.6 elap:               0.8
 (Enter /shared/centos7/gaussian/g16/l1101.exe)
 Using compressed storage, NAtomX=    11.
 Will process     12 centers per pass.
 Leave Link 1101 at Sun Sep 29 07:35:58 2019, MaxMem=   671088640 cpu:              51.4 elap:              25.7
 (Enter /shared/centos7/gaussian/g16/l1102.exe)
 Symmetrizing basis deriv contribution to polar:
 IMax=3 JMax=2 DiffMx= 0.00D+00
 Leave Link 1102 at Sun Sep 29 07:36:00 2019, MaxMem=   671088640 cpu:               5.2 elap:               2.6
 (Enter /shared/centos7/gaussian/g16/l1110.exe)
 Forming Gx(P) for the SCF density, NAtomX=    11.
 Integral derivatives from FoFJK, PRISM(SPDF).
 Do as many integral derivatives as possible in FoFJK.
 G2DrvN: MDV=     671087712.
 G2DrvN: will do    12 centers at a time, making    1 passes.
 Calling FoFCou, ICntrl=  3107 FMM=F I1Cent=   0 AccDes= 0.00D+00.
 FoFJK:  IHMeth= 1 ICntrl=    3107 DoSepK=F KAlg= 0 I1Cent=           0 FoldK=F
 IRaf=         0 NMat=       1 IRICut=       1 DoRegI=T DoRafI=F ISym2E= 0 IDoP0=0 IntGTp=1.
 FoFCou: FMM=F IPFlag=           0 FMFlag=      100000 FMFlg1=           0
         NFxFlg=           0 DoJE=F BraDBF=F KetDBF=F FulRan=T
         wScrn=  0.000000 ICntrl=      3107 IOpCl=  0 I1Cent=           0 NGrid=           0
         NMat0=    1 NMatS0=      1 NMatT0=    0 NMatD0=    1 NMtDS0=    0 NMtDT0=    0
 Symmetry not used in FoFCou.
 End of G2Drv F.D. properties file   721 does not exist.
 End of G2Drv F.D. properties file   722 does not exist.
 End of G2Drv F.D. properties file   788 does not exist.
 Leave Link 1110 at Sun Sep 29 07:43:40 2019, MaxMem=   671088640 cpu:             919.6 elap:             459.9
 (Enter /shared/centos7/gaussian/g16/l1002.exe)
 Minotr:  Closed shell wavefunction.
          IDoAtm=11111111111
          Direct CPHF calculation.
          Differentiating once with respect to nuclear coordinates.
          Requested convergence is 1.0D-08 RMS, and 1.0D-07 maximum.
          Secondary convergence is 1.0D-12 RMS, and 1.0D-12 maximum.
          NewPWx=T KeepS1=F KeepF1=F KeepIn=T MapXYZ=F SortEE=F KeepMc=T.
         3265 words used for storage of precomputed grid.
 Keep R1 ints in memory in canonical form, NReq=399865264.
 FoFCou: FMM=F IPFlag=           0 FMFlag=           0 FMFlg1=           0
         NFxFlg=           0 DoJE=F BraDBF=F KetDBF=F FulRan=T
         wScrn=  0.000000 ICntrl=       600 IOpCl=  0 I1Cent=           0 NGrid=           0
         NMat0=    1 NMatS0=  27495 NMatT0=    0 NMatD0=    1 NMtDS0=    0 NMtDT0=    0
 Symmetry not used in FoFCou.
 Two-electron integral symmetry not used.
          MDV=     671088640 using IRadAn=       1.
          Solving linear equations simultaneously, MaxMat=       0.
          There are    36 degrees of freedom in the 1st order CPHF.  IDoFFX=6 NUNeed=     0.
     30 vectors produced by pass  0 Test12= 1.19D-14 2.78D-09 XBig12= 5.78D-02 7.05D-02.
 AX will form    30 AO Fock derivatives at one time.
     30 vectors produced by pass  1 Test12= 1.19D-14 2.78D-09 XBig12= 1.11D-02 2.76D-02.
     30 vectors produced by pass  2 Test12= 1.19D-14 2.78D-09 XBig12= 4.33D-04 5.06D-03.
     30 vectors produced by pass  3 Test12= 1.19D-14 2.78D-09 XBig12= 5.20D-06 2.77D-04.
     30 vectors produced by pass  4 Test12= 1.19D-14 2.78D-09 XBig12= 3.93D-08 3.17D-05.
     30 vectors produced by pass  5 Test12= 1.19D-14 2.78D-09 XBig12= 2.12D-10 1.72D-06.
     19 vectors produced by pass  6 Test12= 1.19D-14 2.78D-09 XBig12= 9.46D-13 1.09D-07.
      2 vectors produced by pass  7 Test12= 1.19D-14 2.78D-09 XBig12= 3.48D-15 6.32D-09.
 InvSVY:  IOpt=1 It=  1 EMax= 8.88D-16
 Solved reduced A of dimension   201 with    30 vectors.
 End of Minotr F.D. properties file   721 does not exist.
 End of Minotr F.D. properties file   722 does not exist.
 End of Minotr F.D. properties file   788 does not exist.
 Leave Link 1002 at Sun Sep 29 07:55:15 2019, MaxMem=   671088640 cpu:            1388.9 elap:             694.6
 (Enter /shared/centos7/gaussian/g16/l601.exe)
 Copying SCF densities to generalized density rwf, IOpCl= 0 IROHF=0.

 **********************************************************************

            Population analysis using the SCF density.

 **********************************************************************

 Orbital symmetries:
       Occupied  (A) (A) (A) (A) (A) (A) (A) (A) (A) (A) (A) (A)
                 (A) (A) (A) (A) (A) (A) (A) (A)
       Virtual   (A) (A) (A) (A) (A) (A) (A) (A) (A) (A) (A) (A)
                 (A) (A) (A) (A) (A) (A) (A) (A) (A) (A) (A) (A)
                 (A) (A) (A) (A) (A) (A) (A) (A) (A) (A) (A) (A)
                 (A) (A) (A) (A) (A) (A) (A) (A) (A) (A) (A) (A)
                 (A) (A) (A) (A) (A) (A) (A) (A) (A) (A) (A) (A)
                 (A) (A) (A) (A) (A) (A) (A) (A) (A) (A) (A) (A)
                 (A) (A) (A) (A) (A) (A) (A) (A) (A) (A) (A) (A)
                 (A) (A) (A) (A) (A) (A) (A) (A) (A) (A) (A) (A)
                 (A) (A) (A) (A) (A) (A) (A) (A) (A) (A) (A) (A)
                 (A) (A) (A) (A) (A) (A) (A) (A) (A) (A) (A) (A)
                 (A) (A) (A) (A) (A) (A) (A) (A) (A) (A) (A) (A)
                 (A) (A) (A) (A) (A) (A) (A) (A) (A) (A) (A) (A)
                 (A) (A) (A) (A) (A) (A) (A) (A) (A) (A) (A) (A)
                 (A) (A) (A) (A) (A) (A) (A) (A) (A) (A) (A) (A)
                 (A) (A) (A) (A) (A) (A) (A) (A) (A) (A) (A) (A)
                 (A) (A) (A) (A) (A) (A) (A) (A) (A) (A) (A) (A)
                 (A) (A) (A) (A) (A) (A) (A) (A) (A) (A) (A) (A)
                 (A) (A) (A) (A) (A) (A) (A) (A) (A) (A)
 The electronic state is 1-A.
 Alpha  occ. eigenvalues --  -19.65631 -19.64964 -10.59974 -10.58925 -10.57949
 Alpha  occ. eigenvalues --   -1.18625  -1.15934  -0.85946  -0.78497  -0.68329
 Alpha  occ. eigenvalues --   -0.60484  -0.58819  -0.54043  -0.51707  -0.49089
 Alpha  occ. eigenvalues --   -0.46474  -0.45761  -0.42466  -0.36586  -0.28559
 Alpha virt. eigenvalues --    0.05293   0.07209   0.09445   0.11282   0.12549
 Alpha virt. eigenvalues --    0.13015   0.14336   0.15804   0.21174   0.27101
 Alpha virt. eigenvalues --    0.30087   0.31893   0.32723   0.34479   0.36190
 Alpha virt. eigenvalues --    0.37768   0.39083   0.41523   0.44444   0.44872
 Alpha virt. eigenvalues --    0.47028   0.47349   0.48677   0.49252   0.52196
 Alpha virt. eigenvalues --    0.54932   0.55833   0.57335   0.59084   0.60974
 Alpha virt. eigenvalues --    0.66523   0.68768   0.71753   0.72513   0.76272
 Alpha virt. eigenvalues --    0.76632   0.80113   0.83458   0.84596   0.89167
 Alpha virt. eigenvalues --    0.90964   0.94712   0.97734   1.01564   1.03190
 Alpha virt. eigenvalues --    1.04497   1.05913   1.07476   1.11097   1.12830
 Alpha virt. eigenvalues --    1.14179   1.14964   1.19030   1.22490   1.24118
 Alpha virt. eigenvalues --    1.26437   1.28441   1.31235   1.32645   1.34230
 Alpha virt. eigenvalues --    1.37580   1.39829   1.40810   1.43328   1.50930
 Alpha virt. eigenvalues --    1.51474   1.53408   1.54424   1.58848   1.84531
 Alpha virt. eigenvalues --    1.86772   1.93756   1.96698   2.01102   2.03644
 Alpha virt. eigenvalues --    2.07586   2.09216   2.11452   2.16840   2.17059
 Alpha virt. eigenvalues --    2.18824   2.24789   2.26447   2.29469   2.35547
 Alpha virt. eigenvalues --    2.36761   2.46163   2.50033   2.53165   2.57805
 Alpha virt. eigenvalues --    2.61933   2.66597   2.72075   2.73010   2.74643
 Alpha virt. eigenvalues --    2.78909   2.80879   2.82210   2.85278   2.88863
 Alpha virt. eigenvalues --    2.90281   2.92581   2.94522   2.96244   2.99368
 Alpha virt. eigenvalues --    3.01210   3.02081   3.04270   3.05509   3.07834
 Alpha virt. eigenvalues --    3.10595   3.14687   3.17253   3.18274   3.21507
 Alpha virt. eigenvalues --    3.23178   3.25539   3.26283   3.28668   3.29932
 Alpha virt. eigenvalues --    3.30760   3.32388   3.34835   3.39473   3.42737
 Alpha virt. eigenvalues --    3.45620   3.47182   3.50233   3.54322   3.57568
 Alpha virt. eigenvalues --    3.57749   3.63951   3.64864   3.68983   3.70261
 Alpha virt. eigenvalues --    3.71820   3.74769   3.75433   3.78816   3.80485
 Alpha virt. eigenvalues --    3.83057   3.87160   3.88160   3.90782   3.93204
 Alpha virt. eigenvalues --    3.98210   3.99095   4.04443   4.07577   4.08954
 Alpha virt. eigenvalues --    4.11871   4.13155   4.15147   4.19831   4.23318
 Alpha virt. eigenvalues --    4.29065   4.33420   4.38040   4.40229   4.46724
 Alpha virt. eigenvalues --    4.50266   4.56460   4.58256   4.66996   4.70563
 Alpha virt. eigenvalues --    4.71277   4.78342   4.80275   4.83726   4.91302
 Alpha virt. eigenvalues --    4.91909   4.94281   4.97753   4.98834   5.02078
 Alpha virt. eigenvalues --    5.04403   5.05459   5.16098   5.18649   5.28879
 Alpha virt. eigenvalues --    5.36347   5.40864   5.48286   5.51336   5.56960
 Alpha virt. eigenvalues --    5.68371   5.72295   5.75178   5.80422   5.85088
 Alpha virt. eigenvalues --    5.94866   6.13885   6.19295   6.27135   6.33750
 Alpha virt. eigenvalues --    6.34742   6.50456   6.59642   6.69811   6.72010
 Alpha virt. eigenvalues --    6.74864   6.76400   6.79210   6.99953   7.02114
 Alpha virt. eigenvalues --    7.12727   7.19336   7.25789   7.30679   9.96712
 Alpha virt. eigenvalues --   10.89201  11.81151  13.00201  13.99335
          Condensed to atoms (all electrons):
               1          2          3          4          5          6
     1  O    7.892892  -0.000372   0.283369   0.340530  -0.078306  -0.041173
     2  O   -0.000372   7.797659   0.006562  -0.078519   0.340680  -0.001374
     3  C    0.283369   0.006562   4.796314  -0.103759  -0.006707   0.397408
     4  C    0.340530  -0.078519  -0.103759   5.064633   0.491244  -0.004663
     5  C   -0.078306   0.340680  -0.006707   0.491244   4.983502   0.007269
     6  H   -0.041173  -0.001374   0.397408  -0.004663   0.007269   0.652879
     7  H   -0.035577   0.000521   0.397435   0.005605  -0.002294  -0.041646
     8  H   -0.042647   0.000423   0.392151  -0.004888   0.005774  -0.051711
     9  H   -0.047103   0.005026   0.002763   0.425382  -0.086921  -0.001260
    10  H    0.003869  -0.034517   0.000255  -0.059246   0.407742  -0.000008
    11  H    0.011762   0.329771  -0.001737  -0.006208  -0.053836  -0.002807
               7          8          9         10         11
     1  O   -0.035577  -0.042647  -0.047103   0.003869   0.011762
     2  O    0.000521   0.000423   0.005026  -0.034517   0.329771
     3  C    0.397435   0.392151   0.002763   0.000255  -0.001737
     4  C    0.005605  -0.004888   0.425382  -0.059246  -0.006208
     5  C   -0.002294   0.005774  -0.086921   0.407742  -0.053836
     6  H   -0.041646  -0.051711  -0.001260  -0.000008  -0.002807
     7  H    0.594850  -0.031075   0.001281   0.000070   0.001147
     8  H   -0.031075   0.607892   0.001499  -0.001071  -0.003919
     9  H    0.001281   0.001499   0.573276  -0.004582   0.000989
    10  H    0.000070  -0.001071  -0.004582   0.522062   0.006337
    11  H    0.001147  -0.003919   0.000989   0.006337   0.436171
 Mulliken charges:
               1
     1  O   -0.287243
     2  O   -0.365861
     3  C   -0.164053
     4  C   -0.070110
     5  C   -0.008145
     6  H    0.087087
     7  H    0.109683
     8  H    0.127572
     9  H    0.129651
    10  H    0.159089
    11  H    0.282331
 Sum of Mulliken charges =  -0.00000
 Mulliken charges with hydrogens summed into heavy atoms:
               1
     1  O   -0.287243
     2  O   -0.083530
     3  C    0.160288
     4  C    0.059541
     5  C    0.150943
 APT charges:
               1
     1  O   -0.185165
     2  O   -0.329443
     3  C   -0.886728
     4  C   -0.465486
     5  C   -0.370704
     6  H    0.313176
     7  H    0.452035
     8  H    0.227671
     9  H    0.429922
    10  H    0.489511
    11  H    0.325210
 Sum of APT charges =  -0.00000
 APT charges with hydrogens summed into heavy atoms:
               1
     1  O   -0.185165
     2  O   -0.004233
     3  C    0.106155
     4  C   -0.035564
     5  C    0.118807
 Electronic spatial extent (au):  <R**2>=            418.0021
 Charge=             -0.0000 electrons
 Dipole moment (field-independent basis, Debye):
    X=              0.8138    Y=             -0.3257    Z=              0.7931  Tot=              1.1821
 Quadrupole moment (field-independent basis, Debye-Ang):
   XX=            -31.2451   YY=            -28.7465   ZZ=            -31.5089
   XY=             -4.2873   XZ=              0.5790   YZ=              2.0654
 Traceless Quadrupole moment (field-independent basis, Debye-Ang):
   XX=             -0.7449   YY=              1.7536   ZZ=             -1.0087
   XY=             -4.2873   XZ=              0.5790   YZ=              2.0654
 Octapole moment (field-independent basis, Debye-Ang**2):
  XXX=              2.6527  YYY=             -0.4319  ZZZ=             -2.7703  XYY=              1.7933
  XXY=              2.6843  XXZ=              4.6852  XZZ=             -0.7258  YZZ=             -3.4186
  YYZ=             -1.6869  XYZ=             -0.6992
 Hexadecapole moment (field-independent basis, Debye-Ang**3):
 XXXX=           -307.6812 YYYY=           -145.4472 ZZZZ=            -55.1524 XXXY=             -8.5369
 XXXZ=             -3.1472 YYYX=              4.3352 YYYZ=              6.0794 ZZZX=             -0.4536
 ZZZY=              0.2249 XXYY=            -84.6136 XXZZ=            -62.8808 YYZZ=            -34.9204
 XXYZ=              2.9774 YYXZ=             -1.1664 ZZXY=              1.7842
 N-N= 1.800936788293D+02 E-N=-9.883730423638D+02  KE= 2.666924800517D+02
  Exact polarizability:   0.000   0.000   0.000   0.000   0.000   0.000
 Approx polarizability:  61.363   4.518  52.930  -2.882   1.804  40.932
 No NMR shielding tensors so no spin-rotation constants.
 Leave Link  601 at Sun Sep 29 07:55:38 2019, MaxMem=   671088640 cpu:              46.6 elap:              23.3
 (Enter /shared/centos7/gaussian/g16/l701.exe)
 SCFChk:  SCF convergence  3.78D-09 required  1.00D-08
 ... and contract with generalized density number  0.
 Compute integral second derivatives.
 Entering OneElI...
 Calculate overlap and kinetic energy integrals
    NBasis = 265  MinDer = 2  MaxDer = 2
 Requested accuracy = 0.1000D-12
 PrmmSu-InSpLW:  IPartL=    0 NPrtUS=   20 NPrtUL=    1 DoSpLW=F IThBeg=    0 IThEnd=   19 NThAct=   20.
 PrsmSu:  NPrtUS=  20 ThrOK=T IAlg=1 NPAlg=1 LenDen=           0 ISkipM=0 DoSpLW=F IThBeg=    0 IThEnd=   19.
 Prism:   IPart=     0 DynPar=F LinDyn=F Incr=           1.
 PRISM was handed    33437913 working-precision words and  3740 shell-pairs
 PRISM was handed    33437913 working-precision words and  3740 shell-pairs
 PRISM was handed    33437913 working-precision words and  3740 shell-pairs
 PRISM was handed    33437913 working-precision words and  3740 shell-pairs
 PRISM was handed    33437913 working-precision words and  3740 shell-pairs
 PRISM was handed    33437913 working-precision words and  3740 shell-pairs
 PRISM was handed    33437913 working-precision words and  3740 shell-pairs
 PRISM was handed    33437913 working-precision words and  3740 shell-pairs
 PRISM was handed    33437913 working-precision words and  3740 shell-pairs
 PRISM was handed    33437913 working-precision words and  3740 shell-pairs
 PRISM was handed    33437913 working-precision words and  3740 shell-pairs
 PRISM was handed    33437913 working-precision words and  3740 shell-pairs
 PRISM was handed    33437913 working-precision words and  3740 shell-pairs
 IPart= 14 NShTot=         171 NBatch=          27 AvBLen=         6.3
 PRISM was handed    33437913 working-precision words and  3740 shell-pairs
 PRISM was handed    33437913 working-precision words and  3740 shell-pairs
 IPart=  0 NShTot=         228 NBatch=          68 AvBLen=         3.4
 PRISM was handed    33437913 working-precision words and  3740 shell-pairs
 PRISM was handed    33437913 working-precision words and  3740 shell-pairs
 IPart= 15 NShTot=         170 NBatch=          26 AvBLen=         6.5
 PRISM was handed    33437913 working-precision words and  3740 shell-pairs
 PRISM was handed    33437913 working-precision words and  3740 shell-pairs
 IPart= 16 NShTot=         168 NBatch=          26 AvBLen=         6.5
 IPart=  2 NShTot=         211 NBatch=          52 AvBLen=         4.1
 PRISM was handed    33437913 working-precision words and  3740 shell-pairs
 IPart= 17 NShTot=         168 NBatch=          26 AvBLen=         6.5
 IPart= 10 NShTot=         180 NBatch=          29 AvBLen=         6.2
 IPart= 18 NShTot=         168 NBatch=          26 AvBLen=         6.5
 IPart=  9 NShTot=         182 NBatch=          29 AvBLen=         6.3
 IPart=  6 NShTot=         194 NBatch=          38 AvBLen=         5.1
 IPart=  8 NShTot=         185 NBatch=          30 AvBLen=         6.2
 IPart=  4 NShTot=         205 NBatch=          46 AvBLen=         4.5
 IPart= 12 NShTot=         176 NBatch=          27 AvBLen=         6.5
 IPart= 11 NShTot=         178 NBatch=          28 AvBLen=         6.4
 IPart=  1 NShTot=         220 NBatch=          61 AvBLen=         3.6
 IPart=  7 NShTot=         191 NBatch=          35 AvBLen=         5.5
 IPart= 19 NShTot=         166 NBatch=          26 AvBLen=         6.4
 IPart=  5 NShTot=         197 NBatch=          41 AvBLen=         4.8
 IPart= 13 NShTot=         172 NBatch=          27 AvBLen=         6.4
 IPart=  3 NShTot=         210 NBatch=          51 AvBLen=         4.1
 PrSmSu:  NxtVal=             21.
 Entering OneElI...
 Calculate potential energy integrals
    NBasis = 265  MinDer = 2  MaxDer = 2
 Requested accuracy = 0.1000D-12
 PrmmSu-InSpLW:  IPartL=    0 NPrtUS=   20 NPrtUL=    1 DoSpLW=F IThBeg=    0 IThEnd=   19 NThAct=   20.
 PrsmSu:  NPrtUS=  20 ThrOK=T IAlg=1 NPAlg=1 LenDen=           0 ISkipM=0 DoSpLW=F IThBeg=    0 IThEnd=   19.
 Prism:   IPart=     0 DynPar=F LinDyn=F Incr=          19.
 PRISM was handed    33453977 working-precision words and  3620 shell-pairs
 PRISM was handed    33453977 working-precision words and  3620 shell-pairs
 PRISM was handed    33453977 working-precision words and  3620 shell-pairs
 PRISM was handed    33453977 working-precision words and  3620 shell-pairs
 PRISM was handed    33453977 working-precision words and  3620 shell-pairs
 PRISM was handed    33453977 working-precision words and  3620 shell-pairs
 PRISM was handed    33453977 working-precision words and  3620 shell-pairs
 PRISM was handed    33453977 working-precision words and  3620 shell-pairs
 PRISM was handed    33453977 working-precision words and  3620 shell-pairs
 PRISM was handed    33453977 working-precision words and  3620 shell-pairs
 PRISM was handed    33453977 working-precision words and  3620 shell-pairs
 PRISM was handed    33453977 working-precision words and  3620 shell-pairs
 PRISM was handed    33453977 working-precision words and  3620 shell-pairs
 PRISM was handed    33453977 working-precision words and  3620 shell-pairs
 PRISM was handed    33453977 working-precision words and  3620 shell-pairs
 PRISM was handed    33453977 working-precision words and  3620 shell-pairs
 PRISM was handed    33453977 working-precision words and  3620 shell-pairs
 PRISM was handed    33453977 working-precision words and  3620 shell-pairs
 PRISM was handed    33453977 working-precision words and  3620 shell-pairs
 PRISM was handed    33453977 working-precision words and  3620 shell-pairs
 IPart= 10 NShTot=        1903 NBatch=         173 AvBLen=        11.0
 IPart= 12 NShTot=        1859 NBatch=         169 AvBLen=        11.0
 IPart= 18 NShTot=        1804 NBatch=         164 AvBLen=        11.0
 IPart= 16 NShTot=        1815 NBatch=         165 AvBLen=        11.0
 IPart=  4 NShTot=        2156 NBatch=         196 AvBLen=        11.0
 IPart=  6 NShTot=        2024 NBatch=         184 AvBLen=        11.0
 IPart= 14 NShTot=        1859 NBatch=         169 AvBLen=        11.0
 IPart= 17 NShTot=        1815 NBatch=         165 AvBLen=        11.0
 IPart=  2 NShTot=        2277 NBatch=         207 AvBLen=        11.0
 IPart= 15 NShTot=        1815 NBatch=         165 AvBLen=        11.0
 IPart=  0 NShTot=        2475 NBatch=         225 AvBLen=        11.0
 IPart= 19 NShTot=        1793 NBatch=         163 AvBLen=        11.0
 IPart=  8 NShTot=        1958 NBatch=         178 AvBLen=        11.0
 IPart= 11 NShTot=        1881 NBatch=         171 AvBLen=        11.0
 IPart= 13 NShTot=        1859 NBatch=         169 AvBLen=        11.0
 IPart=  5 NShTot=        2046 NBatch=         186 AvBLen=        11.0
 IPart=  1 NShTot=        2398 NBatch=         218 AvBLen=        11.0
 IPart=  9 NShTot=        1925 NBatch=         175 AvBLen=        11.0
 IPart=  3 NShTot=        2189 NBatch=         199 AvBLen=        11.0
 IPart=  7 NShTot=        1969 NBatch=         179 AvBLen=        11.0
 PrSmSu:  NxtVal=            381.
 Polarizability after L701:
                1             2             3 
      1  0.000000D+00
      2  0.000000D+00  0.000000D+00
      3  0.000000D+00  0.000000D+00  0.000000D+00
 Dipole Derivatives after L701:
                 1             2             3             4             5 
      1  -0.151447D+00  0.124987D-01 -0.102503D+00  0.465300D-01  0.241189D+00
      2   0.134232D+00 -0.236159D+00 -0.554201D-01  0.640674D+00 -0.442811D+00
      3  -0.142273D+00  0.489211D-02 -0.167890D+00  0.292821D+00 -0.163884D+00
                 6             7             8             9            10 
      1  -0.698806D-01 -0.100051D+01  0.428391D+00 -0.283250D+00 -0.470360D+00
      2  -0.294586D+00  0.237944D-01 -0.882706D+00  0.370253D-01  0.693468D-01
      3  -0.592047D+00 -0.632165D-01  0.366684D-01 -0.776969D+00  0.236050D+00
                11            12            13            14            15 
      1  -0.181101D+00  0.268276D+00 -0.664019D+00  0.167225D+00  0.231398D+00
      2  -0.762138D+00 -0.339737D+00 -0.652892D-01 -0.497722D+00  0.177964D-01
      3  -0.293605D+00 -0.163960D+00  0.163025D+00 -0.431431D-01  0.496296D-01
                16            17            18            19            20 
      1   0.122636D+00 -0.495872D+00 -0.270951D+00  0.103360D+01  0.202505D+00
      2  -0.434127D-01  0.562384D+00  0.303332D+00 -0.108815D+00  0.132837D+00
      3   0.124786D-01  0.132589D+00  0.254507D+00  0.245590D+00  0.409514D-01
                21            22            23            24            25 
      1   0.373875D+00  0.595014D-02 -0.128453D+00  0.157644D+00  0.179255D+00
      2  -0.628944D-01  0.134749D+00  0.220540D+00 -0.193647D+00  0.244358D-01
      3   0.189671D+00 -0.260110D+00 -0.110512D+00  0.456524D+00 -0.305496D-02
                26            27            28            29            30 
      1   0.982020D-02 -0.588169D-02  0.914364D+00 -0.380908D+00 -0.434294D+00
      2   0.103089D+01  0.128048D+00 -0.279265D+00  0.330176D+00  0.189320D+00
      3   0.140864D+00  0.796191D-01 -0.217712D+00  0.135059D+00  0.223992D+00
                31            32            33 
      1  -0.159995D-01  0.124705D+00  0.135567D+00
      2  -0.530449D+00  0.544708D+00  0.270763D+00
      3  -0.263598D+00  0.120121D+00  0.446922D+00
 Hessian after L701:
                1             2             3             4             5 
      1  0.613850D+01
      2  0.418945D+01  0.905471D+01
      3  0.136841D+01  0.165828D+01  0.122682D+02
      4  0.590074D+00  0.565570D+00 -0.152511D+00  0.847711D+01
      5  0.484952D+00 -0.124157D+00 -0.612079D-01 -0.666029D+00  0.509667D+01
      6 -0.197499D+00 -0.106120D+00 -0.405979D+00  0.169800D+01 -0.290413D+01
      7 -0.585959D+01 -0.245258D+01  0.151951D+01  0.544177D+00  0.104954D+00
      8 -0.228746D+01 -0.215433D+01 -0.314324D+01  0.199315D+00 -0.304714D+00
      9  0.139644D+01 -0.311587D+01 -0.524391D+01  0.527622D-01 -0.253562D-02
     10 -0.187125D+01 -0.341569D+01 -0.277943D+01  0.332686D+00  0.255293D+00
     11 -0.363262D+01 -0.664302D+01  0.115604D+01  0.173190D+00 -0.147378D+00
     12 -0.261729D+01  0.110035D+01 -0.690310D+01  0.213876D+00 -0.844798D-01
     13  0.596730D+00  0.400273D+00  0.255669D+00 -0.799234D+01  0.106168D+01
     14  0.503633D+00 -0.103971D+00 -0.140686D+00  0.133491D+01  0.306718D+00
     15  0.166891D+00 -0.833878D-01 -0.140893D-02  0.185157D+00  0.218868D+01
     16  0.115216D-01  0.154894D+00 -0.880115D-01  0.574140D-01 -0.209439D-01
     17  0.131926D+00  0.420012D-01  0.283003D+00 -0.600401D-01 -0.174489D-01
     18 -0.669799D-01  0.279647D+00  0.918855D-01 -0.319104D-01  0.660898D-02
     19  0.185441D+00  0.157098D+00  0.537764D-01  0.719745D-01  0.126203D-01
     20  0.162098D+00 -0.126147D+00  0.132318D+00  0.107269D-01 -0.132952D-01
     21  0.389168D-01  0.125737D+00  0.535374D-01  0.264721D-01  0.141430D-02
     22  0.184779D+00  0.113578D+00 -0.169854D+00  0.352619D-01  0.736691D-02
     23  0.668518D-01 -0.623273D-01  0.107282D+00 -0.831564D-02 -0.554652D-01
     24 -0.124961D+00  0.119155D+00  0.154028D+00  0.104655D+00 -0.119409D-02
     25 -0.959492D-01  0.215458D+00  0.633337D-01 -0.161494D-01  0.626289D-01
     26  0.231156D+00  0.784962D-01  0.755938D-02  0.106908D+00  0.147229D+00
     27  0.767743D-01 -0.201133D-01  0.117065D+00  0.212735D-01  0.269237D-01
     28  0.143494D+00 -0.288484D-01 -0.574968D-01  0.143004D+00 -0.620095D-03
     29 -0.467023D-01 -0.356274D-01  0.128534D-01  0.266085D-01 -0.177723D+00
     30 -0.752836D-01  0.891651D-02 -0.103653D-01 -0.952735D-02 -0.920135D-01
     31 -0.237538D-01  0.100796D+00 -0.133982D-01 -0.224321D+01 -0.130190D+01
     32  0.196712D+00  0.743766D-01 -0.122054D-01 -0.168284D+01 -0.471043D+01
     33  0.345757D-01  0.334074D-01 -0.119954D+00 -0.210825D+01  0.921931D+00
                6             7             8             9            10 
      6  0.127018D+02
      7  0.224825D-01  0.129274D+02
      8  0.616513D-02  0.214105D+01  0.109684D+02
      9 -0.334901D+00 -0.140007D+01  0.263788D+01  0.138141D+02
     10  0.273183D+00  0.252848D+00 -0.176412D+00  0.144885D+00  0.784648D+01
     11 -0.184351D-01 -0.138618D+00  0.100180D+00 -0.120828D+00 -0.460640D+00
     12  0.199678D+00  0.141659D+00 -0.140961D+00  0.561704D-01  0.430853D+01
     13  0.597032D-01  0.186642D+00 -0.172350D+00  0.745281D-01 -0.252122D+01
     14  0.208800D+01 -0.162535D+00 -0.116729D+00 -0.323851D-01  0.380341D+01
     15 -0.762996D+01  0.130257D+00 -0.377704D-01 -0.151981D+00 -0.213251D+01
     16 -0.753897D-02 -0.343881D+01 -0.278476D+00 -0.189070D+00 -0.386497D-01
     17  0.788030D-02 -0.154535D+00 -0.165604D+01  0.110808D+01 -0.136792D-01
     18 -0.239846D-01 -0.109682D+00  0.103117D+01 -0.283631D+01 -0.781484D-02
     19  0.993626D-02 -0.149525D+01  0.313200D+00  0.818766D+00  0.129687D+00
     20  0.885416D-03  0.239505D+00 -0.331056D+01  0.112300D+00 -0.470326D-01
     21 -0.158186D-01  0.802369D+00  0.146033D+00 -0.299182D+01  0.499473D-01
     22  0.295601D-01 -0.315850D+01  0.320179D+00 -0.918625D+00 -0.506621D-02
     23 -0.257610D-02  0.467790D+00 -0.358252D+01 -0.611411D+00 -0.443181D-01
     24 -0.209085D-01 -0.116847D+01 -0.529756D+00 -0.223146D+01  0.337642D-01
     25  0.181395D-01 -0.178014D-02 -0.510497D-01  0.445250D-02 -0.382390D+01
     26  0.322688D-01 -0.751617D-01  0.896379D-01  0.148311D-02  0.744553D-01
     27 -0.349146D-01 -0.218801D-02  0.206338D-02 -0.423499D-01  0.535763D-03
     28 -0.571267D-02  0.360488D-01 -0.154615D-01 -0.704262D-02 -0.304263D+00
     29 -0.124568D+00 -0.245328D-01 -0.729278D-02  0.525343D-02 -0.276696D-01
     30  0.148872D-01 -0.914753D-02  0.247203D-02 -0.115950D-01  0.748707D-01
     31 -0.190026D+01  0.681390D-02  0.746441D-02  0.229691D-01  0.264884D-02
     32  0.102063D+01  0.546664D-01 -0.260561D-01  0.180326D-01  0.522827D-01
     33 -0.444992D+01  0.732813D-01  0.259413D-01 -0.259339D-01  0.340432D-01
               11            12            13            14            15 
     11  0.146157D+02
     12 -0.165060D+01  0.218596D+02
     13  0.418196D+01 -0.214454D+01  0.117484D+02
     14 -0.677688D+01  0.287419D+00 -0.421717D+01  0.101981D+02
     15  0.150882D+00 -0.115686D+02  0.255157D+01 -0.252079D+01  0.224668D+02
     16 -0.171587D-02 -0.731209D-02  0.742622D-01 -0.808545D-01 -0.159503D-01
     17  0.473760D-01  0.234599D-01 -0.108539D+00  0.296535D-01  0.171594D-01
     18  0.293885D-01 -0.283503D-02 -0.300850D-01  0.193846D-01 -0.299070D-01
     19 -0.627479D-01  0.402616D-01  0.538247D-02  0.905849D-02 -0.793390D-02
     20 -0.252929D-01 -0.755110D-02  0.765554D-02 -0.106358D-01  0.119452D-02
     21 -0.213406D-01 -0.357564D-01 -0.172823D-02  0.414342D-02 -0.754673D-02
     22 -0.134503D-01 -0.201559D-03  0.318659D-01 -0.655846D-01  0.237410D-01
     23 -0.256852D-01 -0.111462D-01 -0.906479D-01 -0.102040D-01 -0.261816D-01
     24 -0.259684D-01 -0.816185D-02  0.691938D-01 -0.398485D-01 -0.372956D-01
     25  0.390726D-01 -0.643932D-02  0.660183D-01 -0.317825D+00 -0.615099D-01
     26 -0.122039D+01  0.470919D+00 -0.374124D+00 -0.235113D+00 -0.755306D-01
     27  0.481380D+00 -0.376134D+01 -0.741270D-01 -0.646734D-01  0.237140D+00
     28 -0.568300D-01  0.668079D-01 -0.229599D+01 -0.795937D+00 -0.835338D+00
     29  0.195076D+00  0.240320D-01 -0.828587D+00 -0.337439D+01  0.446092D+00
     30  0.210880D-01  0.147811D+00 -0.815735D+00  0.422574D+00 -0.336718D+01
     31 -0.276016D-01  0.465331D-02  0.100290D+00 -0.111017D-01 -0.437391D-02
     32 -0.119738D+00 -0.114443D-01  0.139852D+00  0.934615D-01 -0.603484D-01
     33 -0.161173D-02  0.166002D-01  0.555514D-01 -0.231372D-01  0.899405D-01
               16            17            18            19            20 
     16  0.319642D+01
     17  0.245336D+00  0.146879D+01
     18  0.199786D+00 -0.108810D+01  0.301889D+01
     19  0.376012D-01 -0.137389D+00 -0.112914D+00  0.121123D+01
     20 -0.116625D+00 -0.236480D-01 -0.121611D+00 -0.183414D+00  0.342926D+01
     21 -0.108696D+00 -0.140544D+00 -0.362971D-02 -0.899597D+00 -0.137580D+00
     22  0.991911D-01  0.900889D-01  0.160516D+00 -0.173809D+00 -0.646988D-01
     23  0.897714D-01  0.119723D+00 -0.158799D+00 -0.892805D-01  0.753372D-01
     24  0.210880D+00 -0.207528D+00 -0.212444D+00  0.847084D-01  0.184357D-01
     25 -0.253910D-02  0.753205D-02 -0.174875D-03  0.107014D-01 -0.107574D-01
     26  0.707040D-02 -0.655473D-02  0.200304D-02 -0.261295D-01  0.838435D-02
     27  0.135753D-02 -0.206386D-02  0.191658D-02  0.160996D-02 -0.145422D-02
     28  0.298121D-02 -0.686606D-02 -0.372582D-02  0.102168D-01 -0.642726D-03
     29 -0.272968D-02  0.323250D-02  0.239132D-02 -0.466187D-02 -0.479416D-03
     30 -0.179253D-02  0.345132D-02  0.735117D-03 -0.277994D-02 -0.401266D-03
     31  0.600531D-03  0.616496D-02  0.298389D-02  0.682538D-02  0.318517D-02
     32  0.427266D-02 -0.708823D-02 -0.208014D-02  0.116465D-01 -0.292331D-02
     33  0.634779D-02 -0.479592D-02 -0.432177D-02  0.141654D-01  0.346374D-02
               21            22            23            24            25 
     21  0.291410D+01
     22  0.816212D-01  0.301280D+01
     23  0.252195D-01 -0.381450D+00  0.350673D+01
     24  0.937319D-01  0.812185D+00  0.688200D+00  0.227559D+01
     25  0.334734D-02 -0.516131D-02 -0.966859D-02  0.394451D-02  0.389921D+01
     26 -0.651306D-02 -0.482589D-02  0.290409D-01 -0.186083D-01  0.807344D-01
     27 -0.544223D-02  0.206389D-02 -0.737541D-02 -0.445625D-02 -0.286520D-01
     28  0.220166D-02 -0.944862D-02  0.129649D-02  0.300754D-02 -0.249108D-01
     29 -0.119027D-02  0.529577D-02 -0.589050D-04 -0.207246D-02 -0.196999D-01
     30 -0.178943D-02 -0.432466D-03  0.164486D-02 -0.201865D-02  0.196188D-02
     31  0.514563D-02 -0.119076D-01 -0.202880D-02 -0.289037D-01 -0.554699D-02
     32  0.462083D-02 -0.649909D-02  0.542419D-02 -0.815040D-03  0.357460D-02
     33  0.434107D-03 -0.205744D-01 -0.485686D-02 -0.660134D-02  0.159665D-02
               26            27            28            29            30 
     26  0.109239D+01
     27 -0.426291D+00  0.349291D+01
     28 -0.128797D-01  0.212078D-02  0.227532D+01
     29 -0.702783D-02  0.454028D-02  0.974768D+00  0.336685D+01
     30 -0.794123D-03  0.188214D-02  0.871454D+00 -0.407427D+00  0.322185D+01
     31 -0.720327D-02 -0.768865D-03  0.235527D-01 -0.520893D-01 -0.335883D-01
     32  0.239070D-01  0.706382D-02 -0.579796D-01  0.374500D-01  0.404888D-01
     33  0.135037D-01 -0.240907D-02 -0.362757D-01  0.400957D-01  0.578267D-02
               31            32            33 
     31  0.214369D+01
     32  0.128431D+01  0.463162D+01
     33  0.194554D+01 -0.100394D+01  0.449638D+01
 Leave Link  701 at Sun Sep 29 07:56:03 2019, MaxMem=   671088640 cpu:              48.8 elap:              24.4
 (Enter /shared/centos7/gaussian/g16/l702.exe)
 L702 exits ... SP integral derivatives will be done elsewhere.
 Leave Link  702 at Sun Sep 29 07:56:03 2019, MaxMem=   671088640 cpu:               1.6 elap:               0.8
 (Enter /shared/centos7/gaussian/g16/l703.exe)
 Integral derivatives from FoFJK, PRISM(SPDF).
 Compute integral second derivatives, UseDBF=F ICtDFT=           0.
 ICntrl=    100147.
 Calling FoFJK, ICntrl=    100147 FMM=F ISym2X=0 I1Cent= 0 IOpClX= 0 NMat=1 NMatS=1 NMatT=0.
 FoFJK:  IHMeth= 1 ICntrl=  100147 DoSepK=F KAlg= 0 I1Cent=           0 FoldK=F
 IRaf=         0 NMat=       1 IRICut=       1 DoRegI=T DoRafI=F ISym2E= 0 IDoP0=0 IntGTp=1.
 FoFCou: FMM=F IPFlag=           0 FMFlag=      100000 FMFlg1=         800
         NFxFlg=           0 DoJE=F BraDBF=F KetDBF=F FulRan=T
         wScrn=  0.000000 ICntrl=    100147 IOpCl=  0 I1Cent=           0 NGrid=           0
         NMat0=    1 NMatS0=      1 NMatT0=    0 NMatD0=    1 NMtDS0=    0 NMtDT0=    0
 Symmetry not used in FoFCou.
 FoFCou:  KetSym=F NOpSet=  1 NOpAb=1 NOp=  1.
 FoFCou:  CnvScl= 1.00D+00 Thresh= 1.00D-08 IAcrcy=      12.
 PrismS was handed   670738213 working-precision words and  3692 shell-pairs
 FoFCou: LinMIO=F DoNuc=F BraDBF=F KetDBF=F HaveP=T PDBF=F HaveZ=T HaveW=F
         NIJTC =      10 NIJTAt=       0 NIJTCD=       0 NIJTT =      10
         IJTBeg=       1 IJTEnd=      10 KLTBeg=       1 KLTEnd=      10
         IPTBeg=       1 IPTEnd=      10 IPTBCv=       1 IPTECv=      10
         IZTBeg=       1 IZTEnd=      10 IZTBCv=       1 IZTECv=      10
         IWTBeg=      11 IWTEnd=      10 IWTBCv=      11 IWTECv=      10
         INTBeg=       1 INTEnd=       0 IFTBCv=       1 IFTECv=      10
 NCel replicated for PrismC:     1
 CoulSu-InSpLW:  IPartL=    0 NPrtUS=   20 NPrtUL=    1 DoSpLW=F IThBeg=    0 IThEnd=   19 NThAct=   20.
 CoulSu:  IncDef=  1024 NBBP=        6817278 NTPThr=   100 NPartT=   20 Incr=        1024 LDynOK=F GPUOK=T.
 CoulSu:  NPrtUS=  20 ThrOK=T IAlg=1 NPAlg=1 LenDen=           0 LWGrdD=           0 DoCopy=F ISkipM=0
          DoSpLW=F IThBeg=    0 IThEnd=   19.
 Enter PrismC:  IPart=  0 JobTyp=22 DoJE=F Cont=F.
 PrismC:  IPart=     0 DynPar=T LinDyn=F Incr=        1024 UseFst=F UseS4=T ISplat=2.
 PrismC was handed    33455102 working-precision words and  3692 shell-pairs
 Enter PrismC:  IPart=  5 JobTyp=22 DoJE=F Cont=F.
 PrismC:  IPart=     5 DynPar=T LinDyn=F Incr=        1024 UseFst=F UseS4=T ISplat=2.
 PrismC was handed    33455102 working-precision words and  3692 shell-pairs
 Enter PrismC:  IPart= 16 JobTyp=22 DoJE=F Cont=F.
 PrismC:  IPart=    16 DynPar=T LinDyn=F Incr=        1024 UseFst=F UseS4=T ISplat=2.
 PrismC was handed    33455102 working-precision words and  3692 shell-pairs
 Enter PrismC:  IPart=  4 JobTyp=22 DoJE=F Cont=F.
 Enter PrismC:  IPart=  3 JobTyp=22 DoJE=F Cont=F.
 PrismC:  IPart=     3 DynPar=T LinDyn=F Incr=        1024 UseFst=F UseS4=T ISplat=2.
 PrismC was handed    33455102 working-precision words and  3692 shell-pairs
 Enter PrismC:  IPart=  1 JobTyp=22 DoJE=F Cont=F.
 PrismC:  IPart=     1 DynPar=T LinDyn=F Incr=        1024 UseFst=F UseS4=T ISplat=2.
 PrismC was handed    33455102 working-precision words and  3692 shell-pairs
 PrismC:  IPart=     4 DynPar=T LinDyn=F Incr=        1024 UseFst=F UseS4=T ISplat=2.
 PrismC was handed    33455102 working-precision words and  3692 shell-pairs
 Enter PrismC:  IPart=  9 JobTyp=22 DoJE=F Cont=F.
 PrismC:  IPart=     9 DynPar=T LinDyn=F Incr=        1024 UseFst=F UseS4=T ISplat=2.
 PrismC was handed    33455102 working-precision words and  3692 shell-pairs
 Enter PrismC:  IPart= 10 JobTyp=22 DoJE=F Cont=F.
 PrismC:  IPart=    10 DynPar=T LinDyn=F Incr=        1024 UseFst=F UseS4=T ISplat=2.
 PrismC was handed    33455102 working-precision words and  3692 shell-pairs
 Enter PrismC:  IPart= 11 JobTyp=22 DoJE=F Cont=F.
 PrismC:  IPart=    11 DynPar=T LinDyn=F Incr=        1024 UseFst=F UseS4=T ISplat=2.
 PrismC was handed    33455102 working-precision words and  3692 shell-pairs
 Enter PrismC:  IPart= 14 JobTyp=22 DoJE=F Cont=F.
 PrismC:  IPart=    14 DynPar=T LinDyn=F Incr=        1024 UseFst=F UseS4=T ISplat=2.
 PrismC was handed    33455102 working-precision words and  3692 shell-pairs
 Enter PrismC:  IPart=  6 JobTyp=22 DoJE=F Cont=F.
 PrismC:  IPart=     6 DynPar=T LinDyn=F Incr=        1024 UseFst=F UseS4=T ISplat=2.
 PrismC was handed    33455102 working-precision words and  3692 shell-pairs
 Enter PrismC:  IPart= 19 JobTyp=22 DoJE=F Cont=F.
 PrismC:  IPart=    19 DynPar=T LinDyn=F Incr=        1024 UseFst=F UseS4=T ISplat=2.
 PrismC was handed    33455102 working-precision words and  3692 shell-pairs
 Enter PrismC:  IPart=  7 JobTyp=22 DoJE=F Cont=F.
 PrismC:  IPart=     7 DynPar=T LinDyn=F Incr=        1024 UseFst=F UseS4=T ISplat=2.
 PrismC was handed    33455102 working-precision words and  3692 shell-pairs
 Enter PrismC:  IPart= 12 JobTyp=22 DoJE=F Cont=F.
 PrismC:  IPart=    12 DynPar=T LinDyn=F Incr=        1024 UseFst=F UseS4=T ISplat=2.
 PrismC was handed    33455102 working-precision words and  3692 shell-pairs
 Enter PrismC:  IPart= 17 JobTyp=22 DoJE=F Cont=F.
 PrismC:  IPart=    17 DynPar=T LinDyn=F Incr=        1024 UseFst=F UseS4=T ISplat=2.
 PrismC was handed    33455102 working-precision words and  3692 shell-pairs
 Enter PrismC:  IPart=  2 JobTyp=22 DoJE=F Cont=F.
 PrismC:  IPart=     2 DynPar=T LinDyn=F Incr=        1024 UseFst=F UseS4=T ISplat=2.
 PrismC was handed    33455102 working-precision words and  3692 shell-pairs
 Enter PrismC:  IPart=  8 JobTyp=22 DoJE=F Cont=F.
 PrismC:  IPart=     8 DynPar=T LinDyn=F Incr=        1024 UseFst=F UseS4=T ISplat=2.
 PrismC was handed    33455102 working-precision words and  3692 shell-pairs
 Enter PrismC:  IPart= 13 JobTyp=22 DoJE=F Cont=F.
 PrismC:  IPart=    13 DynPar=T LinDyn=F Incr=        1024 UseFst=F UseS4=T ISplat=2.
 PrismC was handed    33455102 working-precision words and  3692 shell-pairs
 Enter PrismC:  IPart= 18 JobTyp=22 DoJE=F Cont=F.
 PrismC:  IPart=    18 DynPar=T LinDyn=F Incr=        1024 UseFst=F UseS4=T ISplat=2.
 PrismC was handed    33455102 working-precision words and  3692 shell-pairs
 Enter PrismC:  IPart= 15 JobTyp=22 DoJE=F Cont=F.
 PrismC:  IPart=    15 DynPar=T LinDyn=F Incr=        1024 UseFst=F UseS4=T ISplat=2.
 PrismC was handed    33455102 working-precision words and  3692 shell-pairs
 IPart=  9 NShTot=      251954 NShNF=      251954 NShFF=           0 MinMC=       7
           NShCPU=      251954 NBCPU=       10217 AvBCPU=        24.7
           NShGPU=           0 NBGPU=           0 AvBGPU=         0.0
 IPart= 13 NShTot=      241218 NShNF=      241218 NShFF=           0 MinMC=       7
           NShCPU=      241218 NBCPU=       10533 AvBCPU=        22.9
           NShGPU=           0 NBGPU=           0 AvBGPU=         0.0
 IPart=  6 NShTot=      223584 NShNF=      223584 NShFF=           0 MinMC=       7
           NShCPU=      223584 NBCPU=        9333 AvBCPU=        24.0
           NShGPU=           0 NBGPU=           0 AvBGPU=         0.0
 IPart= 12 NShTot=      250578 NShNF=      250578 NShFF=           0 MinMC=       7
           NShCPU=      250578 NBCPU=       10816 AvBCPU=        23.2
           NShGPU=           0 NBGPU=           0 AvBGPU=         0.0
 IPart=  4 NShTot=      255660 NShNF=      255660 NShFF=           0 MinMC=       7
           NShCPU=      255660 NBCPU=       10793 AvBCPU=        23.7
           NShGPU=           0 NBGPU=           0 AvBGPU=         0.0
 IPart= 15 NShTot=      231867 NShNF=      231867 NShFF=           0 MinMC=       7
           NShCPU=      231867 NBCPU=       10153 AvBCPU=        22.8
           NShGPU=           0 NBGPU=           0 AvBGPU=         0.0
 IPart= 10 NShTot=      241704 NShNF=      241704 NShFF=           0 MinMC=       7
           NShCPU=      241704 NBCPU=       10113 AvBCPU=        23.9
           NShGPU=           0 NBGPU=           0 AvBGPU=         0.0
 IPart= 17 NShTot=      226048 NShNF=      226048 NShFF=           0 MinMC=       7
           NShCPU=      226048 NBCPU=        9581 AvBCPU=        23.6
           NShGPU=           0 NBGPU=           0 AvBGPU=         0.0
 IPart= 16 NShTot=      246475 NShNF=      246475 NShFF=           0 MinMC=       7
           NShCPU=      246475 NBCPU=       10556 AvBCPU=        23.3
           NShGPU=           0 NBGPU=           0 AvBGPU=         0.0
 IPart=  7 NShTot=      226793 NShNF=      226793 NShFF=           0 MinMC=       7
           NShCPU=      226793 NBCPU=        9270 AvBCPU=        24.5
           NShGPU=           0 NBGPU=           0 AvBGPU=         0.0
 IPart=  8 NShTot=      234182 NShNF=      234182 NShFF=           0 MinMC=       7
           NShCPU=      234182 NBCPU=        9798 AvBCPU=        23.9
           NShGPU=           0 NBGPU=           0 AvBGPU=         0.0
 IPart=  1 NShTot=      232629 NShNF=      232629 NShFF=           0 MinMC=       7
           NShCPU=      232629 NBCPU=        9951 AvBCPU=        23.4
           NShGPU=           0 NBGPU=           0 AvBGPU=         0.0
 IPart= 19 NShTot=      227768 NShNF=      227768 NShFF=           0 MinMC=       7
           NShCPU=      227768 NBCPU=        9558 AvBCPU=        23.8
           NShGPU=           0 NBGPU=           0 AvBGPU=         0.0
 IPart=  2 NShTot=      246189 NShNF=      246189 NShFF=           0 MinMC=       7
           NShCPU=      246189 NBCPU=       10277 AvBCPU=        24.0
           NShGPU=           0 NBGPU=           0 AvBGPU=         0.0
 IPart=  3 NShTot=      244975 NShNF=      244975 NShFF=           0 MinMC=       7
           NShCPU=      244975 NBCPU=       10289 AvBCPU=        23.8
           NShGPU=           0 NBGPU=           0 AvBGPU=         0.0
 IPart= 18 NShTot=      237179 NShNF=      237179 NShFF=           0 MinMC=       7
           NShCPU=      237179 NBCPU=        9556 AvBCPU=        24.8
           NShGPU=           0 NBGPU=           0 AvBGPU=         0.0
 IPart= 14 NShTot=      234133 NShNF=      234133 NShFF=           0 MinMC=       7
           NShCPU=      234133 NBCPU=       10232 AvBCPU=        22.9
           NShGPU=           0 NBGPU=           0 AvBGPU=         0.0
 IPart=  5 NShTot=      258225 NShNF=      258225 NShFF=           0 MinMC=       7
           NShCPU=      258225 NBCPU=       10281 AvBCPU=        25.1
           NShGPU=           0 NBGPU=           0 AvBGPU=         0.0
 IPart= 11 NShTot=      232711 NShNF=      232711 NShFF=           0 MinMC=       7
           NShCPU=      232711 NBCPU=        9612 AvBCPU=        24.2
           NShGPU=           0 NBGPU=           0 AvBGPU=         0.0
 IPart=  0 NShTot=      245910 NShNF=      245910 NShFF=           0 MinMC=       7
           NShCPU=      245910 NBCPU=       10227 AvBCPU=        24.0
           NShGPU=           0 NBGPU=           0 AvBGPU=         0.0
 CoulSu:  NxtVal=        7265281 LenVP=       33455103 MinMC=       7.
 ReadGW:  IGet=0 IStart=           1 Next=           1 LGW=           0.
 Remaining memory in FofDFT      639.93 Mw
 CkSvGd:  ISavGI=        -1 IRadAn=       5 IRASav=       5 ISavGd=        -1.
 CalDSu-InSpLW:  IPartL=    0 NPrtUS=   20 NPrtUL=    1 DoSpLW=F IThBeg=    0 IThEnd=   19 NThAct=   20.
 CalDSu:  NPrtUS=  20 ThrOK=T IAlg=1 NPAlg=2 DoDPD=T LenP=       35245 LenD1P=             0 GPUOK=F
          ISkipM=0 DoSpLW=F IThBeg=    0 IThEnd=   19.
 IPart=  0 IRanGd=          0 ScrnBf=T ScrnGd=T RCrit=4.00D+00 DoMicB=T.
 IPart= 14        10748 of        12046 points in      13 batches and       59 microbatches, Max-NSigAt=      11 Max-NSgAt2=      11
 IPart= 15        11458 of        13670 points in      16 batches and       90 microbatches, Max-NSigAt=      11 Max-NSgAt2=      11
 IPart=  6        10710 of        11458 points in      11 batches and       72 microbatches, Max-NSigAt=      11 Max-NSgAt2=      11
 IPart= 18        11287 of        11652 points in      11 batches and       49 microbatches, Max-NSigAt=      11 Max-NSgAt2=      11
 IPart=  2         9249 of        10110 points in      11 batches and       73 microbatches, Max-NSigAt=      11 Max-NSgAt2=      11
 IPart= 12        10956 of        12568 points in      14 batches and       70 microbatches, Max-NSigAt=      11 Max-NSgAt2=      11
 IPart= 10        12942 of        13816 points in      14 batches and       51 microbatches, Max-NSigAt=      11 Max-NSgAt2=      11
 IPart= 11        11578 of        13418 points in      15 batches and       98 microbatches, Max-NSigAt=      11 Max-NSgAt2=      11
 IPart=  3        10881 of        12262 points in      14 batches and       65 microbatches, Max-NSigAt=      11 Max-NSgAt2=      11
 IPart= 17        11717 of        12312 points in      12 batches and       61 microbatches, Max-NSigAt=      11 Max-NSgAt2=      11
 IPart=  1        11011 of        11592 points in      12 batches and       60 microbatches, Max-NSigAt=      11 Max-NSgAt2=      11
 IPart=  8        11806 of        12388 points in      11 batches and       50 microbatches, Max-NSigAt=      11 Max-NSgAt2=      11
 IPart= 19        10325 of        10924 points in      11 batches and       66 microbatches, Max-NSigAt=      11 Max-NSgAt2=      11
 IPart=  4        12794 of        14402 points in      15 batches and       58 microbatches, Max-NSigAt=      11 Max-NSgAt2=      11
 IPart=  5        13183 of        15334 points in      17 batches and       81 microbatches, Max-NSigAt=      11 Max-NSgAt2=      11
 IPart= 13        10887 of        11646 points in      12 batches and       54 microbatches, Max-NSigAt=      11 Max-NSgAt2=      11
 IPart= 16        11083 of        11790 points in      11 batches and       58 microbatches, Max-NSigAt=      11 Max-NSgAt2=      11
 IPart=  7         9899 of        10660 points in      11 batches and       69 microbatches, Max-NSigAt=      11 Max-NSgAt2=      11
 IPart=  0        11660 of        12946 points in      13 batches and       71 microbatches, Max-NSigAt=      11 Max-NSgAt2=      11
 IPart=  9        10251 of        11104 points in      11 batches and       73 microbatches, Max-NSigAt=      11 Max-NSgAt2=      11
 Polarizability after L703:
                1             2             3 
      1  0.000000D+00
      2  0.000000D+00  0.000000D+00
      3  0.000000D+00  0.000000D+00  0.000000D+00
 Dipole Derivatives after L703:
                 1             2             3             4             5 
      1  -0.151447D+00  0.124987D-01 -0.102503D+00  0.465300D-01  0.241189D+00
      2   0.134232D+00 -0.236159D+00 -0.554201D-01  0.640674D+00 -0.442811D+00
      3  -0.142273D+00  0.489211D-02 -0.167890D+00  0.292821D+00 -0.163884D+00
                 6             7             8             9            10 
      1  -0.698806D-01 -0.100051D+01  0.428391D+00 -0.283250D+00 -0.470360D+00
      2  -0.294586D+00  0.237944D-01 -0.882706D+00  0.370253D-01  0.693468D-01
      3  -0.592047D+00 -0.632165D-01  0.366684D-01 -0.776969D+00  0.236050D+00
                11            12            13            14            15 
      1  -0.181101D+00  0.268276D+00 -0.664019D+00  0.167225D+00  0.231398D+00
      2  -0.762138D+00 -0.339737D+00 -0.652892D-01 -0.497722D+00  0.177964D-01
      3  -0.293605D+00 -0.163960D+00  0.163025D+00 -0.431431D-01  0.496296D-01
                16            17            18            19            20 
      1   0.122636D+00 -0.495872D+00 -0.270951D+00  0.103360D+01  0.202505D+00
      2  -0.434127D-01  0.562384D+00  0.303332D+00 -0.108815D+00  0.132837D+00
      3   0.124786D-01  0.132589D+00  0.254507D+00  0.245590D+00  0.409514D-01
                21            22            23            24            25 
      1   0.373875D+00  0.595014D-02 -0.128453D+00  0.157644D+00  0.179255D+00
      2  -0.628944D-01  0.134749D+00  0.220540D+00 -0.193647D+00  0.244358D-01
      3   0.189671D+00 -0.260110D+00 -0.110512D+00  0.456524D+00 -0.305496D-02
                26            27            28            29            30 
      1   0.982020D-02 -0.588169D-02  0.914364D+00 -0.380908D+00 -0.434294D+00
      2   0.103089D+01  0.128048D+00 -0.279265D+00  0.330176D+00  0.189320D+00
      3   0.140864D+00  0.796191D-01 -0.217712D+00  0.135059D+00  0.223992D+00
                31            32            33 
      1  -0.159995D-01  0.124705D+00  0.135567D+00
      2  -0.530449D+00  0.544708D+00  0.270763D+00
      3  -0.263598D+00  0.120121D+00  0.446922D+00
 Hessian after L703:
                1             2             3             4             5 
      1  0.351543D+00
      2 -0.173405D+00  0.300604D+00
      3 -0.733671D-01 -0.867253D-01  0.208129D+00
      4  0.439057D-02 -0.251296D-02 -0.308991D-02  0.356387D+00
      5 -0.530414D-02  0.182325D-01  0.102017D-01 -0.495708D-02  0.417353D+00
      6 -0.260620D-02  0.530776D-02 -0.805576D-03 -0.138126D+00  0.122072D+00
      7 -0.853074D-01  0.323017D-01 -0.863909D-03  0.407642D-03  0.257660D-02
      8  0.502344D-01 -0.147851D+00  0.614289D-01  0.160702D-03 -0.778297D-02
      9 -0.254016D-01  0.845061D-01 -0.116285D+00 -0.215219D-02  0.372557D-02
     10 -0.208583D+00  0.803821D-01  0.670156D-01  0.365679D-03 -0.443616D-02
     11  0.523426D-01 -0.108186D+00 -0.813236D-02 -0.397226D-01 -0.582109D-01
     12  0.873267D-01 -0.273569D-01 -0.869684D-01 -0.768999D-02 -0.238819D-01
     13 -0.473391D-01 -0.149080D-02  0.121152D-01 -0.108867D+00 -0.571552D-01
     14  0.309177D-01 -0.711279D-02 -0.104804D-01 -0.169606D-01 -0.274536D+00
     15  0.270600D-01 -0.255354D-02 -0.195530D-02  0.181515D-01 -0.446113D-01
     16 -0.133029D-02  0.139014D-01  0.643078D-02  0.365753D-03 -0.146342D-02
     17  0.139508D-01 -0.275810D-01 -0.325497D-02 -0.558234D-04  0.187396D-02
     18 -0.409789D-02  0.195146D-01  0.123696D-01 -0.491826D-03  0.778442D-03
     19 -0.886763D-02  0.943724D-02 -0.694069D-02  0.222073D-03 -0.266151D-03
     20  0.324649D-01 -0.240388D-02  0.137053D-01 -0.836707D-03  0.144304D-02
     21 -0.187566D-01  0.922694D-02 -0.556149D-02  0.708877D-03 -0.123757D-02
     22  0.544497D-02  0.768256D-02 -0.126969D-01 -0.117968D-02 -0.256265D-03
     23 -0.832613D-02 -0.170987D-01  0.259038D-01  0.188497D-03 -0.784157D-03
     24  0.444044D-02  0.121824D-01 -0.168231D-01  0.559433D-03 -0.252812D-02
     25 -0.708762D-02  0.325967D-01  0.635226D-02 -0.352393D-02 -0.352088D-02
     26  0.935123D-02 -0.969005D-02 -0.334228D-02 -0.233456D-02  0.250034D-02
     27  0.699699D-02 -0.124591D-01  0.179213D-02  0.374938D-02 -0.249821D-02
     28 -0.223107D-02 -0.358598D-02  0.250654D-02  0.880435D-02 -0.270155D-02
     29 -0.436108D-02  0.300356D-03 -0.213724D-02  0.272504D-01 -0.211184D-01
     30  0.393291D-03 -0.215438D-02  0.877240D-02  0.538925D-02 -0.656450D-02
     31 -0.631640D-03  0.469328D-02  0.253815D-02 -0.257372D+00  0.774843D-01
     32  0.213497D-02  0.786665D-03  0.283284D-02  0.397808D-01 -0.789696D-01
     33 -0.198797D-02  0.511385D-03 -0.266430D-02  0.122991D+00 -0.554559D-01
                6             7             8             9            10 
      6  0.164275D+00
      7 -0.145318D-02  0.544711D+00
      8 -0.804866D-03  0.121990D-01  0.466689D+00
      9 -0.357885D-02 -0.601529D-01  0.130027D-01  0.531635D+00
     10 -0.255241D-03 -0.255167D-01  0.240924D-01 -0.265629D-02  0.771079D+00
     11 -0.768058D-02  0.296868D-01 -0.315360D-01 -0.897779D-02  0.182485D+00
     12  0.962512D-02 -0.154662D-01 -0.129483D-03  0.568126D-02 -0.132084D+00
     13  0.834563D-02 -0.216456D-02 -0.690421D-02  0.263438D-02 -0.475905D+00
     14 -0.659058D-01  0.199707D-02  0.892244D-02 -0.621408D-02 -0.230125D+00
     15 -0.703912D-01 -0.696769D-03  0.577396D-02 -0.956975D-05  0.627795D-01
     16 -0.251895D-03 -0.585268D-01  0.514784D-02  0.609913D-02 -0.394681D-03
     17  0.413669D-03  0.565286D-02 -0.166226D+00 -0.935554D-01 -0.510414D-02
     18 -0.138232D-03  0.921208D-02 -0.977743D-01 -0.135176D+00  0.109779D-02
[...]
     Eigenvalues ---    0.00376   0.00514   0.01217   0.02056   0.03747
     Eigenvalues ---    0.04680   0.08686   0.08778   0.10705   0.12082
     Eigenvalues ---    0.13475   0.16484   0.18191   0.18736   0.19826
     Eigenvalues ---    0.22138   0.23302   0.33222   0.33591   0.35088
     Eigenvalues ---    0.36355   0.37354   0.39844   0.45086   0.45698
     Eigenvalues ---    0.53342   0.66236
 Angle between quadratic step and forces=  68.73 degrees.
 Linear search not attempted -- first point.
 Iteration  1 RMS(Cart)=  0.00000863 RMS(Int)=  0.00000000
 Iteration  2 RMS(Cart)=  0.00000000 RMS(Int)=  0.00000000
 ITry= 1 IFail=0 DXMaxC= 2.19D-05 DCOld= 1.00D+10 DXMaxT= 3.00D-01 DXLimC= 3.00D+00 Rises=F
 Variable       Old X    -DE/DX   Delta X   Delta X   Delta X     New X
                                 (Linear)    (Quad)   (Total)
    R1        2.67120   0.00000   0.00000  -0.00000  -0.00000   2.67120
    R2        2.59481   0.00000   0.00000   0.00000   0.00000   2.59481
    R3        2.56333  -0.00000   0.00000  -0.00000  -0.00000   2.56333
    R4        1.82347   0.00000   0.00000   0.00000   0.00000   1.82347
    R5        2.05345  -0.00000   0.00000  -0.00000  -0.00000   2.05345
    R6        2.06653   0.00000   0.00000   0.00000   0.00000   2.06653
    R7        2.06457  -0.00000   0.00000  -0.00000  -0.00000   2.06457
    R8        2.50502   0.00000   0.00000   0.00000   0.00000   2.50502
    R9        2.04478   0.00000   0.00000   0.00000   0.00000   2.04478
   R10        2.03835   0.00000   0.00000   0.00000   0.00000   2.03835
    A1        1.98208   0.00000   0.00000   0.00000   0.00000   1.98208
    A2        1.87243   0.00000   0.00000   0.00000   0.00000   1.87243
    A3        1.87229  -0.00000   0.00000  -0.00000  -0.00000   1.87229
    A4        1.93109   0.00000   0.00000   0.00000   0.00000   1.93110
    A5        1.93727   0.00000   0.00000   0.00000   0.00000   1.93727
    A6        1.90554   0.00000   0.00000   0.00000   0.00000   1.90554
    A7        1.91450  -0.00000   0.00000  -0.00000  -0.00000   1.91450
    A8        1.90277   0.00000   0.00000   0.00000   0.00000   1.90277
    A9        2.08155   0.00000   0.00000   0.00000   0.00000   2.08155
   A10        2.05343   0.00000   0.00000   0.00000   0.00000   2.05343
   A11        2.14729  -0.00000   0.00000  -0.00000  -0.00000   2.14729
   A12        2.16215   0.00000   0.00000   0.00000   0.00000   2.16215
   A13        1.98815  -0.00000   0.00000  -0.00000  -0.00000   1.98815
   A14        2.13269  -0.00000   0.00000  -0.00000  -0.00000   2.13269
    D1       -3.10484  -0.00000   0.00000   0.00001   0.00001  -3.10483
    D2       -1.02790   0.00000   0.00000   0.00001   0.00001  -1.02789
    D3        1.08700   0.00000   0.00000   0.00001   0.00001   1.08701
    D4       -2.45357   0.00000   0.00000   0.00001   0.00001  -2.45356
    D5        0.73253   0.00000   0.00000   0.00001   0.00001   0.73254
    D6       -0.00099   0.00000   0.00000   0.00001   0.00001  -0.00098
    D7        3.11980   0.00000   0.00000   0.00001   0.00001   3.11981
    D8        0.03798  -0.00000   0.00000  -0.00000  -0.00000   0.03797
    D9       -3.08114  -0.00000   0.00000  -0.00000  -0.00000  -3.08114
   D10        3.13254  -0.00000   0.00000  -0.00000  -0.00000   3.13254
   D11        0.01342  -0.00000   0.00000  -0.00000  -0.00000   0.01342
         Item               Value     Threshold  Converged?
 Maximum Force            0.000001     0.000015     YES
 RMS     Force            0.000000     0.000010     YES
 Maximum Displacement     0.000022     0.000060     YES
 RMS     Displacement     0.000009     0.000040     YES
 Predicted change in Energy=-9.247253D-12
 Optimization completed.
    -- Stationary point found.
                           ----------------------------
                           !   Optimized Parameters   !
                           ! (Angstroms and Degrees)  !
 --------------------------                            --------------------------
 ! Name  Definition              Value          Derivative Info.                !
 --------------------------------------------------------------------------------
 ! R1    R(1,3)                  1.4135         -DE/DX =    0.0                 !
 ! R2    R(1,4)                  1.3731         -DE/DX =    0.0                 !
 ! R3    R(2,5)                  1.3565         -DE/DX =    0.0                 !
 ! R4    R(2,11)                 0.9649         -DE/DX =    0.0                 !
 ! R5    R(3,6)                  1.0866         -DE/DX =    0.0                 !
 ! R6    R(3,7)                  1.0936         -DE/DX =    0.0                 !
 ! R7    R(3,8)                  1.0925         -DE/DX =    0.0                 !
 ! R8    R(4,5)                  1.3256         -DE/DX =    0.0                 !
 ! R9    R(4,9)                  1.0821         -DE/DX =    0.0                 !
 ! R10   R(5,10)                 1.0786         -DE/DX =    0.0                 !
 ! A1    A(3,1,4)              113.5646         -DE/DX =    0.0                 !
 ! A2    A(5,2,11)             107.2821         -DE/DX =    0.0                 !
 ! A3    A(1,3,6)              107.2745         -DE/DX =    0.0                 !
 ! A4    A(1,3,7)              110.6436         -DE/DX =    0.0                 !
 ! A5    A(1,3,8)              110.9976         -DE/DX =    0.0                 !
 ! A6    A(6,3,7)              109.1795         -DE/DX =    0.0                 !
 ! A7    A(6,3,8)              109.693          -DE/DX =    0.0                 !
 ! A8    A(7,3,8)              109.021          -DE/DX =    0.0                 !
 ! A9    A(1,4,5)              119.2639         -DE/DX =    0.0                 !
 ! A10   A(1,4,9)              117.6531         -DE/DX =    0.0                 !
 ! A11   A(5,4,9)              123.0307         -DE/DX =    0.0                 !
 ! A12   A(2,5,4)              123.8822         -DE/DX =    0.0                 !
 ! A13   A(2,5,10)             113.9126         -DE/DX =    0.0                 !
 ! A14   A(4,5,10)             122.1941         -DE/DX =    0.0                 !
 ! D1    D(4,1,3,6)           -177.8943         -DE/DX =    0.0                 !
 ! D2    D(4,1,3,7)            -58.8941         -DE/DX =    0.0                 !
 ! D3    D(4,1,3,8)             62.2805         -DE/DX =    0.0                 !
 ! D4    D(3,1,4,5)           -140.5794         -DE/DX =    0.0                 !
 ! D5    D(3,1,4,9)             41.9708         -DE/DX =    0.0                 !
 ! D6    D(11,2,5,4)            -0.0567         -DE/DX =    0.0                 !
 ! D7    D(11,2,5,10)          178.7513         -DE/DX =    0.0                 !
 ! D8    D(1,4,5,2)              2.1759         -DE/DX =    0.0                 !
 ! D9    D(1,4,5,10)          -176.5364         -DE/DX =    0.0                 !
 ! D10   D(9,4,5,2)            179.4814         -DE/DX =    0.0                 !
 ! D11   D(9,4,5,10)             0.7691         -DE/DX =    0.0                 !
 --------------------------------------------------------------------------------
 GradGradGradGradGradGradGradGradGradGradGradGradGradGradGradGradGradGrad

 Leave Link  103 at Sun Sep 29 10:41:54 2019, MaxMem=   671088640 cpu:             106.3 elap:              54.5
 (Enter /shared/centos7/gaussian/g16/l9999.exe)

 ----------------------------------------------------------------------

 Electric dipole moment (input orientation):
 (Debye = 10**-18 statcoulomb cm , SI units = C m)
                  (au)            (Debye)         (10**-30 SI)
   Tot        0.864542D+00      0.219745D+01      0.732989D+01
   x         -0.550495D+00     -0.139922D+01     -0.466729D+01
   y         -0.226197D+00     -0.574934D+00     -0.191777D+01
   z          0.627075D+00      0.159386D+01      0.531656D+01

 Dipole polarizability, Alpha (input orientation).
 (esu units = cm**3 , SI units = C**2 m**2 J**-1)
 Alpha(0;0):
               (au)            (10**-24 esu)      (10**-40 SI)
   iso        0.445369D+02      0.659968D+01      0.734314D+01
   aniso      0.248252D+02      0.367872D+01      0.409313D+01
   xx         0.396808D+02      0.588009D+01      0.654249D+01
   yx         0.102403D+02      0.151745D+01      0.168840D+01
   yy         0.454132D+02      0.672954D+01      0.748762D+01
   zx        -0.652414D+01     -0.966778D+00     -0.107569D+01
   zy        -0.615702D+01     -0.912377D+00     -0.101516D+01
   zz         0.485166D+02      0.718942D+01      0.799931D+01

 ----------------------------------------------------------------------

 Dipole orientation:
     8          0.35214719         -1.12226822          1.00685822
     8         -0.92456727          0.74935126         -3.67909051
     6         -0.38860918         -1.17437777          3.57276691
     6          1.21514644          1.19593648          0.22314614
     6          0.59794103          2.02491944         -2.05873588
     1         -0.96470343         -3.09801217          4.00218159
     1          1.19061699         -0.64913335          4.79780207
     1         -1.96343245          0.11620344          3.91448886
     1          2.44497230          2.22835928          1.48915068
     1          1.30977513          3.78324197         -2.80470297
     1         -1.42266177         -0.79689307         -2.85080566

 Electric dipole moment (dipole orientation):
 (Debye = 10**-18 statcoulomb cm , SI units = C m)
                  (au)            (Debye)         (10**-30 SI)
   Tot        0.864542D+00      0.219745D+01      0.732989D+01
   x          0.000000D+00      0.000000D+00      0.000000D+00
   y          0.000000D+00      0.000000D+00      0.000000D+00
   z          0.864542D+00      0.219745D+01      0.732989D+01

 Dipole polarizability, Alpha (dipole orientation).
 (esu units = cm**3 , SI units = C**2 m**2 J**-1)
 Alpha(0;0):
               (au)            (10**-24 esu)      (10**-40 SI)
   iso        0.445369D+02      0.659968D+01      0.734314D+01
   aniso      0.248252D+02      0.367872D+01      0.409313D+01
   xx         0.362050D+02      0.536502D+01      0.596939D+01
   yx         0.404490D+01      0.599392D+00      0.666914D+00
   yy         0.409087D+02      0.606204D+01      0.674493D+01
   zx         0.328767D+01      0.487182D+00      0.542063D+00
   zy        -0.808992D+01     -0.119880D+01     -0.133385D+01
   zz         0.564969D+02      0.837198D+01      0.931509D+01

 ----------------------------------------------------------------------

 Test job not archived.
 1\1\GINC-C0293\Freq\RM062X\CC-pVTZ\C3H6O2\HARMS.N\29-Sep-2019\0\\#P Ge
 om=AllCheck Guess=TCheck SCRF=Check Test GenChk RM062X/CC-pVTZ Freq\\G
 aussian input prepared by ASE\\0,1\O,-0.1393615901,-0.7277118884,0.349
 734338\O,0.8271034399,0.9374290426,-1.6199165488\C,-1.3011622528,-1.07
 159921,1.0777828382\C,0.3556191369,0.5147670398,0.6606763254\C,0.83228
 77101,1.2835109187,-0.3083635716\H,-1.5807776798,-2.0791714443,0.78215
 48557\H,-1.101474061,-1.0549831122,2.1528287933\H,-2.1197742104,-0.382
 592877,0.8569886018\H,0.3741423189,0.801302889,1.7039363247\H,1.281963
 6437,2.2439663019,-0.1113866806\H,0.4253801875,0.0624292745,-1.6839148
 872\\Version=EM64L-G16RevA.03\State=1-A\HF=-268.3241864\RMSD=1.938e-09
 \RMSF=9.515e-07\ZeroPoint=0.0911284\Thermal=0.0969967\Dipole=-0.550494
 8,-0.2261965,0.6270747\DipoleDeriv=-0.7855237,-0.4528788,0.3260137,-0.
 5959168,-1.0869297,0.3797989,0.1512874,-0.0056044,-0.5352681,-0.318818
 ,0.0035225,-0.0408373,0.0694108,-0.292582,-0.3617936,0.2340998,0.13397
 91,-1.318986,0.7501599,0.2427955,-0.2473384,0.117288,0.373119,-0.11336
 6,-0.2672217,-0.2222228,0.52461,-0.0407909,0.3394905,0.0146037,0.52261
 17,0.7398483,-0.1301781,0.15901,0.158045,-0.0808651,-0.0581009,0.08497
 64,-0.0303553,0.0125525,0.0654149,0.237181,-0.2581395,-0.0731524,1.174
 846,0.026021,-0.0463603,0.0273513,-0.0803014,-0.0965719,-0.0138063,-0.
 0011823,-0.0508644,0.0451541,-0.0143681,-0.033195,-0.0669665,-0.006513
 8,0.0520578,-0.0255538,0.023382,0.0442936,-0.1625388,-0.1084458,0.0037
 412,0.0197742,0.1431987,-0.0186738,0.0106354,-0.0169112,0.072151,0.009
 7256,0.1514565,-0.0220838,-0.0004483,-0.0800663,0.0162488,0.0129217,-0
 .0176248,-0.0605188,-0.0524904,0.1127818,-0.0772343,-0.0104557,-0.0625
 925,0.0150519,-0.0461999,0.0063135,-0.0239011,0.0405054,0.2856283,-0.0
 427739,0.0086586,-0.0396709,0.2330166,0.0503607,-0.0130131,0.0277954,0
 .3553074\Polar=39.6808441,10.2402934,45.413172,-6.5241431,-6.1570235,4
 8.5165953\Quadrupole=-0.3293189,0.4877082,-0.1583893,1.8675384,0.23131
 43,1.5946234\PG=C01 [X(C3H6O2)]\NImag=0\\0.33452384,0.17439430,0.40535
 463,-0.12712491,0.03987513,0.23132319,-0.00518588,0.00617827,0.0005584
 4,0.13654122,0.00506256,0.00947617,0.00501764,0.21757378,0.52384597,0.
 00400424,0.01205693,0.00801023,-0.00729344,0.09065791,0.44038258,-0.18
 640144,-0.04464298,0.07653057,-0.00026718,0.00075592,-0.00391734,0.514
 29825,-0.01777754,-0.08367464,-0.00326055,0.00014002,-0.00012054,-0.00
 160097,-0.00641757,0.61655767,0.09069728,0.01835230,-0.12524580,0.0001
 9302,0.00331843,0.00419061,0.04355561,0.02851145,0.55189955,-0.0866611
 4,-0.06718143,0.00808740,0.01385808,-0.00383628,0.00061825,-0.02401564
 ,-0.04072807,-0.00543034,0.25478621,-0.09638594,-0.26076704,-0.0462052
 5,0.00174764,0.00695195,-0.02484228,-0.01976355,-0.02675615,0.00494911
 ,0.23910602,0.58968209,-0.00565338,-0.06467172,-0.10321440,0.01467093,
 0.01004958,-0.07112174,0.00530810,0.02242674,0.00475906,-0.14363713,-0
 .08586872,0.83148791,-0.00209649,-0.02407200,0.01234804,-0.05769886,-0
 .02282045,0.01856852,0.00179573,-0.00185186,-0.00104304,-0.12732031,-0
 .11974754,0.12126550,0.27701743,-0.03358846,-0.05487126,0.02585130,-0.
 02990500,-0.11332029,-0.03356785,0.00494398,-0.00110078,-0.00663272,-0
 .11241877,-0.24445638,0.17990325,0.29174382,0.71077988,-0.00915343,-0.
 01879579,0.00707822,-0.00192605,-0.07971630,-0.32463326,0.00222373,-0.
 00251340,-0.00598289,0.13227144,0.21002589,-0.34199244,-0.11171515,-0.
 07504025,0.75227087,-0.01578596,-0.03364847,-0.00538658,-0.00005282,0.
 00033566,0.00052105,-0.06285581,-0.05034244,-0.01725529,-0.00306949,-0
 .00011799,0.00427215,-0.00064709,-0.00166814,-0.00128275,0.07506338,-0
 .00595940,-0.00766390,0.00031791,0.00009187,0.00028253,0.00088973,-0.0
 6096898,-0.28783421,-0.07315586,-0.00120300,0.00188528,0.00216937,-0.0
 0032165,-0.00020091,-0.00137288,0.07122327,0.30863630,0.01020445,0.022
 08541,0.00461509,0.00003235,-0.00026131,-0.00010492,-0.02297050,-0.080
 65152,-0.07479907,0.00238875,0.00010102,-0.00201938,0.00029655,0.00099
 562,0.00104621,0.01483464,0.07805854,0.07513573,-0.00470188,-0.0057400
 1,0.03995459,0.00008521,-0.00071844,0.00002186,-0.06400056,-0.00168076
 ,-0.06331551,0.00250630,0.00462977,0.00289719,-0.00045724,-0.00023457,
 0.00017346,-0.00090514,0.00133579,-0.00668066,0.07045512,-0.00362488,0
 .00003065,0.00991463,0.00000739,-0.00032446,-0.00029078,-0.00037708,-0
 .05358576,-0.00816090,0.00132373,0.00240182,0.00336882,-0.00004853,-0.
 00018478,0.00007968,-0.00665834,0.00168494,-0.02932710,0.00377108,0.04
 841649,0.01298267,0.00480755,-0.02168571,0.00028095,0.00013580,0.00012
 185,-0.05738958,-0.00601508,-0.29073045,-0.00191387,-0.00388160,0.0004
 1765,0.00020169,0.00093445,0.00015616,-0.00313303,-0.00005716,-0.00683
 903,0.05167419,0.00411209,0.32367420,-0.03662908,0.00959490,0.00596378
 ,0.00003488,0.00022988,0.00052927,-0.18193069,0.11778491,-0.04475024,0
 .00292954,0.00546599,0.00051642,-0.00019690,-0.00169455,-0.00022651,0.
 00821539,-0.00444615,0.00168216,-0.00314561,0.00562349,-0.00308903,0.2
 1144979,-0.01104949,0.00885002,-0.00210743,-0.00044985,-0.00027387,-0.
 00094842,0.12364537,-0.16412412,0.03778598,-0.00032205,0.00370286,-0.0
 0148736,0.00067424,0.00032015,0.00179691,0.02123484,-0.01651814,0.0082
 8466,-0.00165650,0.00144619,-0.00123297,-0.13240212,0.16672119,0.02420
 585,-0.01035835,0.00355632,0.00000276,-0.00031875,-0.00065354,-0.04745
 694,0.04002970,-0.06667863,-0.00121045,-0.00253163,0.00009512,-0.00029
 151,0.00058596,0.00029555,0.00742510,-0.00684183,0.00284377,-0.0230016
 6,0.02112987,-0.00578797,0.04013563,-0.04210403,0.06655972,-0.00140267
 ,-0.00779223,-0.01039961,0.00780638,-0.00626020,0.00140965,0.00205932,
 0.00038297,-0.00337052,-0.03287089,-0.01084303,0.00127212,0.00152886,0
 .00712462,0.01065021,-0.00008100,0.00026694,0.00026337,0.00039645,0.00
 006511,0.00057532,-0.00052121,-0.00008559,-0.00004058,0.02718299,-0.00
 707600,-0.01787779,-0.03137222,-0.00574874,0.00049365,0.00350256,0.003
 71517,0.00183798,-0.00399648,-0.01113377,-0.06669692,-0.06501559,0.003
 44655,0.00919302,0.01643569,0.00002113,-0.00002431,0.00042730,0.000032
 79,0.00008143,0.00140952,-0.00036555,-0.00009651,0.00045334,0.01550240
 ,0.07500229,-0.00239503,-0.00620857,-0.00335591,0.00297019,0.00220450,
 0.00047429,0.00181726,0.00090570,0.00199520,0.00293731,-0.06607816,-0.
 32591050,-0.00347919,-0.00916795,-0.01512035,-0.00026040,0.00005847,0.
 00035468,-0.00112240,-0.00070276,0.00016122,-0.00042620,-0.00000209,-0
 .00032764,0.00043248,0.07810924,0.34105938,0.00662098,-0.00649037,0.00
 133816,0.00216613,0.00151566,-0.00050814,0.00184158,0.00075802,0.00040
 828,-0.00172105,-0.00618273,-0.00458263,-0.09257656,-0.12175072,-0.017
 26664,0.00011792,0.00010898,-0.00010083,-0.00026376,-0.00014357,0.0000
 5980,-0.00007944,0.00028311,-0.00000425,-0.00348573,0.00188026,-0.0002
 1001,0.08543647,-0.00442202,0.00424923,0.00257232,-0.00266876,-0.00552
 021,-0.00577652,-0.00016632,-0.00112376,-0.00039459,-0.00468461,-0.010
 60525,-0.00687431,-0.11955802,-0.29012631,-0.04150515,-0.00029060,-0.0
 0008866,0.00020171,0.00002086,0.00001298,0.00008538,0.00000269,-0.0001
 2478,-0.00002737,0.00157779,-0.00075630,0.00083104,0.13018463,0.301730
 49,0.00350079,0.00156081,-0.00348960,-0.01547443,-0.03497633,-0.010757
 39,-0.00046258,0.00106590,0.00043788,0.00740241,0.01838069,0.01143115,
 -0.01539030,-0.03665981,-0.06256403,0.00037193,0.00009972,-0.00025873,
 0.00008509,0.00004394,-0.00009978,0.00006657,-0.00001841,0.00000063,-0
 .00044723,-0.00010717,-0.00009348,0.02005470,0.05176341,0.07145479,-0.
 00228029,-0.00059998,-0.00186987,-0.09728716,-0.19183810,-0.01395392,-
 0.00052355,-0.00026767,0.00031076,0.00157839,0.00209136,0.00367073,0.0
 0065142,-0.00255221,-0.00374832,0.00000062,-0.00012767,0.00004971,0.00
 003111,0.00006160,-0.00024913,-0.00012667,0.00012805,0.00023604,-0.000
 61249,-0.00027424,-0.00026401,0.00194347,0.00000436,0.00029303,0.09662
 516,0.00042686,-0.00310608,-0.00060348,-0.18696662,-0.42149090,-0.0400
 8032,-0.00072395,-0.00007569,-0.00057673,0.00107823,0.00465772,0.00599
 993,-0.00744456,-0.01603236,-0.00939440,-0.00008892,-0.00015891,0.0000
 8566,0.00024000,0.00002051,-0.00029797,0.00020651,0.00009701,-0.000016
 91,0.00006122,-0.00115654,0.00005059,-0.00016327,0.00235257,-0.0011527
 3,0.19337450,0.43489267,-0.00126853,0.00129631,0.00240838,0.00598528,0
 .00388883,-0.04590871,0.00276168,0.00110202,0.00015454,-0.00151377,-0.
 00404908,-0.00393242,-0.02076113,-0.04720199,-0.01055405,-0.00010683,-
 0.00016602,0.00002566,-0.00068616,-0.00016750,0.00061185,-0.00040185,0
 .00003316,0.00009666,-0.00034521,0.00015382,0.00076311,0.00081155,-0.0
 0087591,-0.00606144,0.01552497,0.04598636,0.06239642\\-0.00000006,0.00
 000009,-0.00000095,-0.00000156,0.00000065,-0.00000062,0.00000018,0.000
 00095,0.00000026,-0.00000010,-0.00000101,-0.00000020,0.00000062,-0.000
 00010,0.00000074,-0.00000147,0.00000007,-0.00000066,0.00000081,-0.0000
 0092,-0.00000025,-0.00000002,0.00000144,0.00000141,0.00000179,-0.00000
 174,0.00000007,0.00000145,-0.00000090,0.00000062,-0.00000164,0.0000014
 4,-0.00000041\\\@


 KNOWLEDGE IS EXPERIMENT'S DAUGHTER.
 -- LEONARDO DA VINCI, IN "PENSIERI" CA. 1492
 Job cpu time:       0 days  1 hours 11 minutes  7.1 seconds.
 Elapsed time:       0 days  0 hours 35 minutes 36.2 seconds.
 File lengths (MBytes):  RWF=   1312 Int=      0 D2E=      0 Chk=     32 Scr=     32
 Normal termination of Gaussian 16 at Sun Sep 29 10:41:56 2019.
