 Entering Gaussian System, Link 0=g16
 Input=med/species/COC=CO/conformers/COC=CO_9.com
 Output=med/species/COC=CO/conformers/COC=CO_9.log
 Initial command:
 /shared/centos7/gaussian/g16/l1.exe "/scratch/harms.n/gauss_scrdir/Gau-28484.inp" -scrdir="/scratch/harms.n/gauss_scrdir/"
 Entering Link 1 = /shared/centos7/gaussian/g16/l1.exe PID=     28485.
  
 Copyright (c) 1988,1990,1992,1993,1995,1998,2003,2009,2016,
            Gaussian, Inc.  All Rights Reserved.
  
 This is part of the Gaussian(R) 16 program.  It is based on
 the Gaussian(R) 09 system (copyright 2009, Gaussian, Inc.),
 the Gaussian(R) 03 system (copyright 2003, Gaussian, Inc.),
 the Gaussian(R) 98 system (copyright 1998, Gaussian, Inc.),
 the Gaussian(R) 94 system (copyright 1995, Gaussian, Inc.),
 the Gaussian 92(TM) system (copyright 1992, Gaussian, Inc.),
 the Gaussian 90(TM) system (copyright 1990, Gaussian, Inc.),
 the Gaussian 88(TM) system (copyright 1988, Gaussian, Inc.),
 the Gaussian 86(TM) system (copyright 1986, Carnegie Mellon
 University), and the Gaussian 82(TM) system (copyright 1983,
 Carnegie Mellon University). Gaussian is a federally registered
 trademark of Gaussian, Inc.
  
 This software contains proprietary and confidential information,
 including trade secrets, belonging to Gaussian, Inc.
  
 This software is provided under written license and may be
 used, copied, transmitted, or stored only in accord with that
 written license.
  
 The following legend is applicable only to US Government
 contracts under FAR:
  
                    RESTRICTED RIGHTS LEGEND
  
 Use, reproduction and disclosure by the US Government is
 subject to restrictions as set forth in subparagraphs (a)
 and (c) of the Commercial Computer Software - Restricted
 Rights clause in FAR 52.227-19.
  
 Gaussian, Inc.
 340 Quinnipiac St., Bldg. 40, Wallingford CT 06492
  
  
 ---------------------------------------------------------------
 Warning -- This program may not be used in any manner that
 competes with the business of Gaussian, Inc. or will provide
 assistance to any competitor of Gaussian, Inc.  The licensee
 of this program is prohibited from giving any competitor of
 Gaussian, Inc. access to this program.  By using this program,
 the user acknowledges that Gaussian, Inc. is engaged in the
 business of creating and licensing software in the field of
 computational chemistry and represents and warrants to the
 licensee that it is not a competitor of Gaussian, Inc. and that
 it will not use this program in any manner prohibited above.
 ---------------------------------------------------------------
  

 Cite this work as:
 Gaussian 16, Revision A.03,
 M. J. Frisch, G. W. Trucks, H. B. Schlegel, G. E. Scuseria, 
 M. A. Robb, J. R. Cheeseman, G. Scalmani, V. Barone, 
 G. A. Petersson, H. Nakatsuji, X. Li, M. Caricato, A. V. Marenich, 
 J. Bloino, B. G. Janesko, R. Gomperts, B. Mennucci, H. P. Hratchian, 
 J. V. Ortiz, A. F. Izmaylov, J. L. Sonnenberg, D. Williams-Young, 
 F. Ding, F. Lipparini, F. Egidi, J. Goings, B. Peng, A. Petrone, 
 T. Henderson, D. Ranasinghe, V. G. Zakrzewski, J. Gao, N. Rega, 
 G. Zheng, W. Liang, M. Hada, M. Ehara, K. Toyota, R. Fukuda, 
 J. Hasegawa, M. Ishida, T. Nakajima, Y. Honda, O. Kitao, H. Nakai, 
 T. Vreven, K. Throssell, J. A. Montgomery, Jr., J. E. Peralta, 
 F. Ogliaro, M. J. Bearpark, J. J. Heyd, E. N. Brothers, K. N. Kudin, 
 V. N. Staroverov, T. A. Keith, R. Kobayashi, J. Normand, 
 K. Raghavachari, A. P. Rendell, J. C. Burant, S. S. Iyengar, 
 J. Tomasi, M. Cossi, J. M. Millam, M. Klene, C. Adamo, R. Cammi, 
 J. W. Ochterski, R. L. Martin, K. Morokuma, O. Farkas, 
 J. B. Foresman, and D. J. Fox, Gaussian, Inc., Wallingford CT, 2016.
 
 ******************************************
 Gaussian 16:  EM64L-G16RevA.03 25-Dec-2016
                 5-Sep-2019 
 ******************************************
 %nprocshared=20
 Will use up to   20 processors via shared memory.
 %mem=5GB
 ----------------------------------------------------------------------
 #p m062x/cc-pVTZ opt=(calcfc,maxcycles=900,Tight) freq IOP(7/33=1,2/16
 =3) scf=(maxcycle=900)
 ----------------------------------------------------------------------
 1/6=900,7=10,10=4,18=20,19=15,26=3,38=1/1,3;
 2/9=110,12=2,16=3,17=6,18=5,40=1/2;
 3/5=16,6=1,11=2,25=1,30=1,71=2,74=-55,140=1/1,2,3;
 4//1;
 5/5=2,7=900,38=5/2;
 8/6=4,10=90,11=11/1;
 11/6=1,8=1,9=11,15=111,16=1/1,2,10;
 10/6=1,13=1/2;
 6/7=2,8=2,9=2,10=2,28=1/1;
 7/10=1,18=20,25=1,33=1/1,2,3,16;
 1/6=900,7=10,10=4,18=20,19=15,26=3/3(2);
 2/9=110,16=3/2;
 99//99;
 2/9=110,16=3/2;
 3/5=16,6=1,11=2,25=1,30=1,71=1,74=-55/1,2,3;
 4/5=5,16=3,69=1/1;
 5/5=2,7=900,38=5/2;
 7/33=1/1,2,3,16;
 1/6=900,7=10,18=20,19=15,26=3/3(-5);
 2/9=110,16=3/2;
 6/7=2,8=2,9=2,10=2,19=2,28=1/1;
 99/9=1/99;
 Leave Link    1 at Thu Sep  5 15:48:48 2019, MaxMem=   671088640 cpu:               5.0 elap:               2.5
 (Enter /shared/centos7/gaussian/g16/l101.exe)
 ------------------------------
 Gaussian input prepared by ASE
 ------------------------------
 Symbolic Z-matrix:
 Charge =  0 Multiplicity = 1
 O                     0.19747  -0.76111   1.05196 
 O                    -1.34652   1.75795   0.20847 
 C                    -1.19971  -0.96558   0.82965 
 C                     0.63163   0.55061   0.90882 
 C                    -0.01812   1.63186   0.5487 
 H                    -1.82136  -0.33781   1.531 
 H                    -1.48786  -0.71641  -0.23128 
 H                    -1.40213  -2.01984   1.01951 
 H                     1.69258   0.61892   1.14155 
 H                     0.49329   2.56875   0.48881 
 H                    -1.7483    0.8251    0.25711 
 
 ITRead=  0  0  0  0  0  0  0  0  0  0  0
 MicOpt= -1 -1 -1 -1 -1 -1 -1 -1 -1 -1 -1
 NAtoms=     11 NQM=       11 NQMF=       0 NMMI=      0 NMMIF=      0
                NMic=       0 NMicF=      0.
                    Isotopes and Nuclear Properties:
 (Nuclear quadrupole moments (NQMom) in fm**2, nuclear magnetic moments (NMagM)
  in nuclear magnetons)

  Atom         1           2           3           4           5           6           7           8           9          10
 IAtWgt=          16          16          12          12          12           1           1           1           1           1
 AtmWgt=  15.9949146  15.9949146  12.0000000  12.0000000  12.0000000   1.0078250   1.0078250   1.0078250   1.0078250   1.0078250
 NucSpn=           0           0           0           0           0           1           1           1           1           1
 AtZEff=  -0.0000000  -0.0000000  -0.0000000  -0.0000000  -0.0000000  -0.0000000  -0.0000000  -0.0000000  -0.0000000  -0.0000000
 NQMom=    0.0000000   0.0000000   0.0000000   0.0000000   0.0000000   0.0000000   0.0000000   0.0000000   0.0000000   0.0000000
 NMagM=    0.0000000   0.0000000   0.0000000   0.0000000   0.0000000   2.7928460   2.7928460   2.7928460   2.7928460   2.7928460
 AtZNuc=   8.0000000   8.0000000   6.0000000   6.0000000   6.0000000   1.0000000   1.0000000   1.0000000   1.0000000   1.0000000

  Atom        11
 IAtWgt=           1
 AtmWgt=   1.0078250
 NucSpn=           1
 AtZEff=  -0.0000000
 NQMom=    0.0000000
 NMagM=    2.7928460
 AtZNuc=   1.0000000
 Leave Link  101 at Thu Sep  5 15:48:49 2019, MaxMem=   671088640 cpu:               1.9 elap:               1.0
 (Enter /shared/centos7/gaussian/g16/l103.exe)

 GradGradGradGradGradGradGradGradGradGradGradGradGradGradGradGradGradGrad
 Berny optimization.
 Initialization pass.
                           ----------------------------
                           !    Initial Parameters    !
                           ! (Angstroms and Degrees)  !
 --------------------------                            --------------------------
 ! Name  Definition              Value          Derivative Info.                !
 --------------------------------------------------------------------------------
 ! R1    R(1,3)                  1.4295         calculate D2E/DX2 analytically  !
 ! R2    R(1,4)                  1.3891         calculate D2E/DX2 analytically  !
 ! R3    R(2,5)                  1.3771         calculate D2E/DX2 analytically  !
 ! R4    R(2,11)                 1.0169         calculate D2E/DX2 analytically  !
 ! R5    R(3,6)                  1.128          calculate D2E/DX2 analytically  !
 ! R6    R(3,7)                  1.1272         calculate D2E/DX2 analytically  !
 ! R7    R(3,8)                  1.0902         calculate D2E/DX2 analytically  !
 ! R8    R(4,5)                  1.3119         calculate D2E/DX2 analytically  !
 ! R9    R(4,9)                  1.0883         calculate D2E/DX2 analytically  !
 ! R10   R(5,10)                 1.0691         calculate D2E/DX2 analytically  !
 ! A1    A(3,1,4)              115.1214         calculate D2E/DX2 analytically  !
 ! A2    A(5,2,11)             106.5793         calculate D2E/DX2 analytically  !
 ! A3    A(1,3,6)              111.2448         calculate D2E/DX2 analytically  !
 ! A4    A(1,3,7)              111.383          calculate D2E/DX2 analytically  !
 ! A5    A(1,3,8)              107.0212         calculate D2E/DX2 analytically  !
 ! A6    A(6,3,7)              108.7408         calculate D2E/DX2 analytically  !
 ! A7    A(6,3,8)              109.1221         calculate D2E/DX2 analytically  !
 ! A8    A(7,3,8)              109.2814         calculate D2E/DX2 analytically  !
 ! A9    A(1,4,5)              130.6767         calculate D2E/DX2 analytically  !
 ! A10   A(1,4,9)              109.9943         calculate D2E/DX2 analytically  !
 ! A11   A(5,4,9)              119.3272         calculate D2E/DX2 analytically  !
 ! A12   A(2,5,4)              128.395          calculate D2E/DX2 analytically  !
 ! A13   A(2,5,10)             111.5543         calculate D2E/DX2 analytically  !
 ! A14   A(4,5,10)             120.0504         calculate D2E/DX2 analytically  !
 ! D1    D(4,1,3,6)            -58.3312         calculate D2E/DX2 analytically  !
 ! D2    D(4,1,3,7)             63.1636         calculate D2E/DX2 analytically  !
 ! D3    D(4,1,3,8)           -177.4476         calculate D2E/DX2 analytically  !
 ! D4    D(3,1,4,5)             -3.1707         calculate D2E/DX2 analytically  !
 ! D5    D(3,1,4,9)            177.329          calculate D2E/DX2 analytically  !
 ! D6    D(11,2,5,4)            -1.8521         calculate D2E/DX2 analytically  !
 ! D7    D(11,2,5,10)          177.9464         calculate D2E/DX2 analytically  !
 ! D8    D(1,4,5,2)              0.1405         calculate D2E/DX2 analytically  !
 ! D9    D(1,4,5,10)          -179.643          calculate D2E/DX2 analytically  !
 ! D10   D(9,4,5,2)            179.6018         calculate D2E/DX2 analytically  !
 ! D11   D(9,4,5,10)            -0.1817         calculate D2E/DX2 analytically  !
 --------------------------------------------------------------------------------
 Trust Radius=3.00D-01 FncErr=1.00D-07 GrdErr=1.00D-06 EigMax=2.50D+02 EigMin=1.00D-04
 Number of steps in this run=    100 maximum allowed number of steps=    100.
 GradGradGradGradGradGradGradGradGradGradGradGradGradGradGradGradGradGrad

 Leave Link  103 at Thu Sep  5 15:48:50 2019, MaxMem=   671088640 cpu:               1.4 elap:               0.7
 (Enter /shared/centos7/gaussian/g16/l202.exe)
                          Input orientation:                          
 ---------------------------------------------------------------------
 Center     Atomic      Atomic             Coordinates (Angstroms)
 Number     Number       Type             X           Y           Z
 ---------------------------------------------------------------------
      1          8           0        0.197475   -0.761109    1.051960
      2          8           0       -1.346515    1.757954    0.208471
      3          6           0       -1.199714   -0.965580    0.829650
      4          6           0        0.631633    0.550608    0.908821
      5          6           0       -0.018115    1.631863    0.548701
      6          1           0       -1.821361   -0.337810    1.530998
      7          1           0       -1.487861   -0.716410   -0.231282
      8          1           0       -1.402134   -2.019842    1.019511
      9          1           0        1.692577    0.618922    1.141545
     10          1           0        0.493292    2.568745    0.488811
     11          1           0       -1.748303    0.825101    0.257112
 ---------------------------------------------------------------------
                    Distance matrix (angstroms):
                    1          2          3          4          5
     1  O    0.000000
     2  O    3.072631   0.000000
     3  C    1.429464   2.797330   0.000000
     4  C    1.389094   2.421002   2.378850   0.000000
     5  C    2.454804   1.377063   2.867371   1.311858   0.000000
     6  H    2.117630   2.523249   1.128020   2.682084   2.845385
     7  H    2.118742   2.517110   1.127250   2.719821   2.878005
     8  H    2.035733   3.864276   1.090179   3.279584   3.933461
     9  H    2.036625   3.376996   3.312593   1.088314   2.074604
    10  H    3.390070   2.029991   3.933687   2.066017   1.069052
    11  H    2.633229   1.016866   1.958389   2.482774   1.931176
                    6          7          8          9         10
     6  H    0.000000
     7  H    1.833083   0.000000
     8  H    1.807375   1.808527   0.000000
     9  H    3.662618   3.712540   4.068808   0.000000
    10  H    3.858994   3.903300   4.992937   2.380369   0.000000
    11  H    1.726408   1.637869   2.965601   3.558706   2.849338
                   11
    11  H    0.000000
 Stoichiometry    C3H6O2
 Framework group  C1[X(C3H6O2)]
 Deg. of freedom    27
 Full point group                 C1      NOp   1
 Largest Abelian subgroup         C1      NOp   1
 Largest concise Abelian subgroup C1      NOp   1
                         Standard orientation:                         
 ---------------------------------------------------------------------
 Center     Atomic      Atomic             Coordinates (Angstroms)
 Number     Number       Type             X           Y           Z
 ---------------------------------------------------------------------
      1          8           0        1.221801    0.614680   -0.025378
      2          8           0       -1.436576   -0.926037   -0.008575
      3          6           0        1.358123   -0.807619    0.017620
      4          6           0       -0.085645    1.082959    0.004357
      5          6           0       -1.226132    0.434714    0.010666
      6          1           0        0.879051   -1.236315    0.944517
      7          1           0        0.893384   -1.292596   -0.887646
      8          1           0        2.426183   -1.025476    0.034278
      9          1           0       -0.090980    2.171201    0.015732
     10          1           0       -2.148660    0.974575    0.029769
     11          1           0       -0.518855   -1.360858   -0.060884
 ---------------------------------------------------------------------
 Rotational constants (GHZ):           8.9075577           4.5118724           3.0570597
 Leave Link  202 at Thu Sep  5 15:48:52 2019, MaxMem=   671088640 cpu:               3.7 elap:               1.8
 (Enter /shared/centos7/gaussian/g16/l301.exe)
 Standard basis: CC-pVTZ (5D, 7F)
 Ernie: Thresh=  0.10000D-02 Tol=  0.10000D-05 Strict=F.
 Ernie:  15 primitive shells out of 178 were deleted.
 There are   265 symmetry adapted cartesian basis functions of A   symmetry.
 There are   234 symmetry adapted basis functions of A   symmetry.
   234 basis functions,   362 primitive gaussians,   265 cartesian basis functions
    20 alpha electrons       20 beta electrons
       nuclear repulsion energy       180.7733499192 Hartrees.
 IExCor= 4336 DFT=T Ex+Corr=M062X ExCW=0 ScaHFX=  0.540000
 ScaDFX=  1.000000  1.000000  1.000000  1.000000 ScalE2=  1.000000  1.000000
 IRadAn=      5 IRanWt=     -1 IRanGd=            0 ICorTp=0 IEmpDi=  4
 NAtoms=   11 NActive=   11 NUniq=   11 SFac= 1.00D+00 NAtFMM=   60 NAOKFM=F Big=F
 Integral buffers will be    131072 words long.
 Raffenetti 2 integral format.
 Two-electron integral symmetry is turned on.
 Leave Link  301 at Thu Sep  5 15:48:53 2019, MaxMem=   671088640 cpu:               1.6 elap:               0.8
 (Enter /shared/centos7/gaussian/g16/l302.exe)
 NPDir=0 NMtPBC=     1 NCelOv=     1 NCel=       1 NClECP=     1 NCelD=      1
         NCelK=      1 NCelE2=     1 NClLst=     1 CellRange=     0.0.
 One-electron integrals computed using PRISM.
 One-electron integral symmetry used in STVInt
 NBasis=   234 RedAO= T EigKep=  3.60D-04  NBF=   234
 NBsUse=   234 1.00D-06 EigRej= -1.00D+00 NBFU=   234
 Precomputing XC quadrature grid using
 IXCGrd= 4 IRadAn=           5 IRanWt=          -1 IRanGd=           0 AccXCQ= 0.00D+00.
 Generated NRdTot=       0 NPtTot=           0 NUsed=           0 NTot=          32
 NSgBfM=   265   265   265   265   265 MxSgAt=    11 MxSgA2=    11.
 Leave Link  302 at Thu Sep  5 15:49:42 2019, MaxMem=   671088640 cpu:              99.3 elap:              49.7
 (Enter /shared/centos7/gaussian/g16/l303.exe)
 DipDrv:  MaxL=1.
 Leave Link  303 at Thu Sep  5 15:49:47 2019, MaxMem=   671088640 cpu:               8.7 elap:               4.4
 (Enter /shared/centos7/gaussian/g16/l401.exe)
 ExpMin= 1.03D-01 ExpMax= 1.53D+04 ExpMxC= 5.22D+02 IAcc=3 IRadAn=         5 AccDes= 0.00D+00
 Harris functional with IExCor= 1009 and IRadAn=       5 diagonalized for initial guess.
 HarFok:  IExCor= 1009 AccDes= 0.00D+00 IRadAn=         5 IDoV= 1 UseB2=F ITyADJ=14
 ICtDFT=  3500011 ScaDFX=  1.000000  1.000000  1.000000  1.000000
 FoFCou: FMM=F IPFlag=           0 FMFlag=      100000 FMFlg1=           0
         NFxFlg=           0 DoJE=T BraDBF=F KetDBF=T FulRan=T
         wScrn=  0.000000 ICntrl=       500 IOpCl=  0 I1Cent=   200000004 NGrid=           0
         NMat0=    1 NMatS0=      1 NMatT0=    0 NMatD0=    1 NMtDS0=    0 NMtDT0=    0
 Petite list used in FoFCou.
 Harris En= -268.187811919742    
 JPrj=0 DoOrth=F DoCkMO=F.
 Leave Link  401 at Thu Sep  5 15:50:10 2019, MaxMem=   671088640 cpu:              46.7 elap:              23.4
 (Enter /shared/centos7/gaussian/g16/l502.exe)
 Keep R1 ints in memory in canonical form, NReq=399924305.
 FoFCou: FMM=F IPFlag=           0 FMFlag=           0 FMFlg1=           0
         NFxFlg=           0 DoJE=F BraDBF=F KetDBF=F FulRan=T
         wScrn=  0.000000 ICntrl=       600 IOpCl=  0 I1Cent=           0 NGrid=           0
         NMat0=    1 NMatS0=  27495 NMatT0=    0 NMatD0=    1 NMtDS0=    0 NMtDT0=    0
 Symmetry not used in FoFCou.
 Two-electron integral symmetry not used.
 Closed shell SCF:
 Using DIIS extrapolation, IDIIS=  1040.
 NGot=   671088640 LenX=   292939207 LenY=   292868541
 Requested convergence on RMS density matrix=1.00D-08 within 900 cycles.
 Requested convergence on MAX density matrix=1.00D-06.
 Requested convergence on             energy=1.00D-06.
 No special actions if energy rises.
 Integral accuracy reduced to 1.0D-05 until final iterations.

 Cycle   1  Pass 0  IDiag  1:
 E= -268.185808046267    
 DIIS: error= 2.36D-02 at cycle   1 NSaved=   1.
 NSaved= 1 IEnMin= 1 EnMin= -268.185808046267     IErMin= 1 ErrMin= 2.36D-02
 ErrMax= 2.36D-02  0.00D+00 EMaxC= 1.00D-01 BMatC= 1.69D-01 BMatP= 1.69D-01
 IDIUse=3 WtCom= 7.64D-01 WtEn= 2.36D-01
 Coeff-Com:  0.100D+01
 Coeff-En:   0.100D+01
 Coeff:      0.100D+01
 Gap=     0.363 Goal=   None    Shift=    0.000
 GapD=    0.363 DampG=1.000 DampE=0.500 DampFc=0.5000 IDamp=-1.
 Damping current iteration by 5.00D-01
 RMSDP=1.82D-03 MaxDP=6.53D-02              OVMax= 1.12D-01

 Cycle   2  Pass 0  IDiag  1:
 E= -268.248485961023     Delta-E=       -0.062677914757 Rises=F Damp=T
 DIIS: error= 4.79D-03 at cycle   2 NSaved=   2.
 NSaved= 2 IEnMin= 2 EnMin= -268.248485961023     IErMin= 2 ErrMin= 4.79D-03
 ErrMax= 4.79D-03  0.00D+00 EMaxC= 1.00D-01 BMatC= 1.66D-02 BMatP= 1.69D-01
 IDIUse=3 WtCom= 9.52D-01 WtEn= 4.79D-02
 Coeff-Com: -0.193D+00 0.119D+01
 Coeff-En:   0.000D+00 0.100D+01
 Coeff:     -0.184D+00 0.118D+01
 Gap=     0.339 Goal=   None    Shift=    0.000
 RMSDP=4.00D-04 MaxDP=9.00D-03 DE=-6.27D-02 OVMax= 5.04D-02

 Cycle   3  Pass 0  IDiag  1:
 E= -268.302163605725     Delta-E=       -0.053677644701 Rises=F Damp=F
 DIIS: error= 5.22D-03 at cycle   3 NSaved=   3.
 NSaved= 3 IEnMin= 3 EnMin= -268.302163605725     IErMin= 2 ErrMin= 4.79D-03
 ErrMax= 5.22D-03  0.00D+00 EMaxC= 1.00D-01 BMatC= 3.96D-03 BMatP= 1.66D-02
 IDIUse=3 WtCom= 9.48D-01 WtEn= 5.22D-02
 Coeff-Com: -0.125D+00 0.414D+00 0.710D+00
 Coeff-En:   0.000D+00 0.000D+00 0.100D+01
 Coeff:     -0.118D+00 0.393D+00 0.725D+00
 Gap=     0.335 Goal=   None    Shift=    0.000
 RMSDP=1.97D-04 MaxDP=6.45D-03 DE=-5.37D-02 OVMax= 2.06D-02

 Cycle   4  Pass 0  IDiag  1:
 E= -268.304104028865     Delta-E=       -0.001940423140 Rises=F Damp=F
 DIIS: error= 1.94D-03 at cycle   4 NSaved=   4.
 NSaved= 4 IEnMin= 4 EnMin= -268.304104028865     IErMin= 4 ErrMin= 1.94D-03
 ErrMax= 1.94D-03  0.00D+00 EMaxC= 1.00D-01 BMatC= 9.19D-04 BMatP= 3.96D-03
 IDIUse=3 WtCom= 9.81D-01 WtEn= 1.94D-02
 Coeff-Com: -0.365D-01 0.914D-01 0.368D+00 0.577D+00
 Coeff-En:   0.000D+00 0.000D+00 0.190D+00 0.810D+00
 Coeff:     -0.358D-01 0.896D-01 0.364D+00 0.582D+00
 Gap=     0.332 Goal=   None    Shift=    0.000
 RMSDP=8.15D-05 MaxDP=2.81D-03 DE=-1.94D-03 OVMax= 9.03D-03

 Cycle   5  Pass 0  IDiag  1:
 E= -268.304800363383     Delta-E=       -0.000696334518 Rises=F Damp=F
 DIIS: error= 2.59D-04 at cycle   5 NSaved=   5.
 NSaved= 5 IEnMin= 5 EnMin= -268.304800363383     IErMin= 5 ErrMin= 2.59D-04
 ErrMax= 2.59D-04  0.00D+00 EMaxC= 1.00D-01 BMatC= 2.23D-05 BMatP= 9.19D-04
 IDIUse=3 WtCom= 9.97D-01 WtEn= 2.59D-03
 Coeff-Com: -0.697D-02 0.133D-01 0.993D-01 0.225D+00 0.669D+00
 Coeff-En:   0.000D+00 0.000D+00 0.000D+00 0.000D+00 0.100D+01
 Coeff:     -0.695D-02 0.133D-01 0.991D-01 0.224D+00 0.670D+00
 Gap=     0.332 Goal=   None    Shift=    0.000
 RMSDP=1.39D-05 MaxDP=4.94D-04 DE=-6.96D-04 OVMax= 1.84D-03

 Cycle   6  Pass 0  IDiag  1:
 E= -268.304818475966     Delta-E=       -0.000018112583 Rises=F Damp=F
 DIIS: error= 7.73D-05 at cycle   6 NSaved=   6.
 NSaved= 6 IEnMin= 6 EnMin= -268.304818475966     IErMin= 6 ErrMin= 7.73D-05
 ErrMax= 7.73D-05  0.00D+00 EMaxC= 1.00D-01 BMatC= 1.78D-06 BMatP= 2.23D-05
 IDIUse=1 WtCom= 1.00D+00 WtEn= 0.00D+00
 Coeff-Com: -0.139D-02 0.162D-02 0.270D-01 0.766D-01 0.295D+00 0.601D+00
 Coeff:     -0.139D-02 0.162D-02 0.270D-01 0.766D-01 0.295D+00 0.601D+00
 Gap=     0.332 Goal=   None    Shift=    0.000
 RMSDP=4.04D-06 MaxDP=1.21D-04 DE=-1.81D-05 OVMax= 4.25D-04

 Initial convergence to 1.0D-05 achieved.  Increase integral accuracy.
 Cycle   7  Pass 1  IDiag  1:
 E= -268.304841584767     Delta-E=       -0.000023108801 Rises=F Damp=F
 DIIS: error= 3.22D-05 at cycle   1 NSaved=   1.
 NSaved= 1 IEnMin= 1 EnMin= -268.304841584767     IErMin= 1 ErrMin= 3.22D-05
 ErrMax= 3.22D-05  0.00D+00 EMaxC= 1.00D-01 BMatC= 4.23D-07 BMatP= 4.23D-07
 IDIUse=1 WtCom= 1.00D+00 WtEn= 0.00D+00
 Coeff-Com:  0.100D+01
 Coeff:      0.100D+01
 Gap=     0.332 Goal=   None    Shift=    0.000
 RMSDP=4.04D-06 MaxDP=1.21D-04 DE=-2.31D-05 OVMax= 4.11D-04

 Cycle   8  Pass 1  IDiag  1:
 E= -268.304841605170     Delta-E=       -0.000000020403 Rises=F Damp=F
 DIIS: error= 3.49D-05 at cycle   2 NSaved=   2.
 NSaved= 2 IEnMin= 2 EnMin= -268.304841605170     IErMin= 1 ErrMin= 3.22D-05
 ErrMax= 3.49D-05  0.00D+00 EMaxC= 1.00D-01 BMatC= 4.55D-07 BMatP= 4.23D-07
 IDIUse=1 WtCom= 1.00D+00 WtEn= 0.00D+00
 Coeff-Com:  0.511D+00 0.489D+00
 Coeff:      0.511D+00 0.489D+00
 Gap=     0.332 Goal=   None    Shift=    0.000
 RMSDP=1.88D-06 MaxDP=5.70D-05 DE=-2.04D-08 OVMax= 2.28D-04

 Cycle   9  Pass 1  IDiag  1:
 E= -268.304841927465     Delta-E=       -0.000000322295 Rises=F Damp=F
 DIIS: error= 8.43D-06 at cycle   3 NSaved=   3.
 NSaved= 3 IEnMin= 3 EnMin= -268.304841927465     IErMin= 3 ErrMin= 8.43D-06
 ErrMax= 8.43D-06  0.00D+00 EMaxC= 1.00D-01 BMatC= 1.76D-08 BMatP= 4.23D-07
 IDIUse=1 WtCom= 1.00D+00 WtEn= 0.00D+00
 Coeff-Com: -0.261D-01 0.145D+00 0.881D+00
 Coeff:     -0.261D-01 0.145D+00 0.881D+00
 Gap=     0.332 Goal=   None    Shift=    0.000
 RMSDP=4.28D-07 MaxDP=1.40D-05 DE=-3.22D-07 OVMax= 6.26D-05

 Cycle  10  Pass 1  IDiag  1:
 E= -268.304841942409     Delta-E=       -0.000000014944 Rises=F Damp=F
 DIIS: error= 2.21D-06 at cycle   4 NSaved=   4.
 NSaved= 4 IEnMin= 4 EnMin= -268.304841942409     IErMin= 4 ErrMin= 2.21D-06
 ErrMax= 2.21D-06  0.00D+00 EMaxC= 1.00D-01 BMatC= 1.01D-09 BMatP= 1.76D-08
 IDIUse=1 WtCom= 1.00D+00 WtEn= 0.00D+00
 Coeff-Com: -0.210D-01 0.390D-01 0.335D+00 0.647D+00
 Coeff:     -0.210D-01 0.390D-01 0.335D+00 0.647D+00
 Gap=     0.332 Goal=   None    Shift=    0.000
 RMSDP=1.08D-07 MaxDP=2.59D-06 DE=-1.49D-08 OVMax= 8.24D-06

 Cycle  11  Pass 1  IDiag  1:
 E= -268.304841943200     Delta-E=       -0.000000000791 Rises=F Damp=F
 DIIS: error= 6.88D-07 at cycle   5 NSaved=   5.
 NSaved= 5 IEnMin= 5 EnMin= -268.304841943200     IErMin= 5 ErrMin= 6.88D-07
 ErrMax= 6.88D-07  0.00D+00 EMaxC= 1.00D-01 BMatC= 1.53D-10 BMatP= 1.01D-09
 IDIUse=1 WtCom= 1.00D+00 WtEn= 0.00D+00
 Coeff-Com: -0.452D-02-0.990D-02 0.720D-03 0.256D+00 0.758D+00
 Coeff:     -0.452D-02-0.990D-02 0.720D-03 0.256D+00 0.758D+00
 Gap=     0.332 Goal=   None    Shift=    0.000
 RMSDP=4.59D-08 MaxDP=1.20D-06 DE=-7.91D-10 OVMax= 4.92D-06

 Cycle  12  Pass 1  IDiag  1:
 E= -268.304841943318     Delta-E=       -0.000000000118 Rises=F Damp=F
 DIIS: error= 3.82D-07 at cycle   6 NSaved=   6.
 NSaved= 6 IEnMin= 6 EnMin= -268.304841943318     IErMin= 6 ErrMin= 3.82D-07
 ErrMax= 3.82D-07  0.00D+00 EMaxC= 1.00D-01 BMatC= 2.19D-11 BMatP= 1.53D-10
 IDIUse=1 WtCom= 1.00D+00 WtEn= 0.00D+00
 Coeff-Com:  0.149D-02-0.113D-01-0.509D-01 0.106D-01 0.332D+00 0.719D+00
 Coeff:      0.149D-02-0.113D-01-0.509D-01 0.106D-01 0.332D+00 0.719D+00
 Gap=     0.332 Goal=   None    Shift=    0.000
 RMSDP=1.74D-08 MaxDP=5.53D-07 DE=-1.18D-10 OVMax= 1.57D-06

 Cycle  13  Pass 1  IDiag  1:
 E= -268.304841943342     Delta-E=       -0.000000000024 Rises=F Damp=F
 DIIS: error= 3.67D-08 at cycle   7 NSaved=   7.
 NSaved= 7 IEnMin= 7 EnMin= -268.304841943342     IErMin= 7 ErrMin= 3.67D-08
 ErrMax= 3.67D-08  0.00D+00 EMaxC= 1.00D-01 BMatC= 5.81D-13 BMatP= 2.19D-11
 IDIUse=1 WtCom= 1.00D+00 WtEn= 0.00D+00
 Coeff-Com:  0.574D-03-0.263D-02-0.125D-01-0.973D-02 0.548D-01 0.191D+00
 Coeff-Com:  0.778D+00
 Coeff:      0.574D-03-0.263D-02-0.125D-01-0.973D-02 0.548D-01 0.191D+00
 Coeff:      0.778D+00
 Gap=     0.332 Goal=   None    Shift=    0.000
 RMSDP=3.47D-09 MaxDP=1.14D-07 DE=-2.36D-11 OVMax= 3.82D-07

 SCF Done:  E(RM062X) =  -268.304841943     A.U. after   13 cycles
            NFock= 13  Conv=0.35D-08     -V/T= 2.0059
 KE= 2.667180168318D+02 PE=-9.896304136380D+02 EE= 2.738342049436D+02
 Leave Link  502 at Thu Sep  5 15:54:43 2019, MaxMem=   671088640 cpu:             538.6 elap:             273.2
 (Enter /shared/centos7/gaussian/g16/l801.exe)
 DoSCS=F DFT=T ScalE2(SS,OS)=  1.000000  1.000000
 Range of M.O.s used for correlation:     1   234
 NBasis=   234 NAE=    20 NBE=    20 NFC=     0 NFV=     0
 NROrb=    234 NOA=    20 NOB=    20 NVA=   214 NVB=   214

 **** Warning!!: The largest alpha MO coefficient is  0.11466884D+02

 Leave Link  801 at Thu Sep  5 15:54:44 2019, MaxMem=   671088640 cpu:               1.4 elap:               0.7
 (Enter /shared/centos7/gaussian/g16/l1101.exe)
 Using compressed storage, NAtomX=    11.
 Will process     12 centers per pass.
 Leave Link 1101 at Thu Sep  5 15:55:06 2019, MaxMem=   671088640 cpu:              44.0 elap:              22.0
 (Enter /shared/centos7/gaussian/g16/l1102.exe)
 Symmetrizing basis deriv contribution to polar:
 IMax=3 JMax=2 DiffMx= 0.00D+00
 Leave Link 1102 at Thu Sep  5 15:55:09 2019, MaxMem=   671088640 cpu:               5.9 elap:               3.0
 (Enter /shared/centos7/gaussian/g16/l1110.exe)
 Forming Gx(P) for the SCF density, NAtomX=    11.
 Integral derivatives from FoFJK, PRISM(SPDF).
 Do as many integral derivatives as possible in FoFJK.
 G2DrvN: MDV=     671087712.
 G2DrvN: will do    12 centers at a time, making    1 passes.
 Calling FoFCou, ICntrl=  3107 FMM=F I1Cent=   0 AccDes= 0.00D+00.
 FoFJK:  IHMeth= 1 ICntrl=    3107 DoSepK=F KAlg= 0 I1Cent=           0 FoldK=F
 IRaf=         0 NMat=       1 IRICut=       1 DoRegI=T DoRafI=F ISym2E= 0 IDoP0=0 IntGTp=1.
 FoFCou: FMM=F IPFlag=           0 FMFlag=      100000 FMFlg1=           0
         NFxFlg=           0 DoJE=F BraDBF=F KetDBF=F FulRan=T
         wScrn=  0.000000 ICntrl=      3107 IOpCl=  0 I1Cent=           0 NGrid=           0
         NMat0=    1 NMatS0=      1 NMatT0=    0 NMatD0=    1 NMtDS0=    0 NMtDT0=    0
 Symmetry not used in FoFCou.
 End of G2Drv F.D. properties file   721 does not exist.
 End of G2Drv F.D. properties file   722 does not exist.
 End of G2Drv F.D. properties file   788 does not exist.
 Leave Link 1110 at Thu Sep  5 16:00:53 2019, MaxMem=   671088640 cpu:             688.1 elap:             344.1
 (Enter /shared/centos7/gaussian/g16/l1002.exe)
 Minotr:  Closed shell wavefunction.
          IDoAtm=11111111111
          Direct CPHF calculation.
          Differentiating once with respect to nuclear coordinates.
          Requested convergence is 1.0D-08 RMS, and 1.0D-07 maximum.
          Secondary convergence is 1.0D-12 RMS, and 1.0D-12 maximum.
          NewPWx=T KeepS1=F KeepF1=F KeepIn=T MapXYZ=F SortEE=F KeepMc=T.
         3265 words used for storage of precomputed grid.
 Keep R1 ints in memory in canonical form, NReq=399865264.
 FoFCou: FMM=F IPFlag=           0 FMFlag=           0 FMFlg1=           0
         NFxFlg=           0 DoJE=F BraDBF=F KetDBF=F FulRan=T
         wScrn=  0.000000 ICntrl=       600 IOpCl=  0 I1Cent=           0 NGrid=           0
         NMat0=    1 NMatS0=  27495 NMatT0=    0 NMatD0=    1 NMtDS0=    0 NMtDT0=    0
 Symmetry not used in FoFCou.
 Two-electron integral symmetry not used.
          MDV=     671088640 using IRadAn=       1.
          Solving linear equations simultaneously, MaxMat=       0.
          There are    36 degrees of freedom in the 1st order CPHF.  IDoFFX=6 NUNeed=     0.
     30 vectors produced by pass  0 Test12= 1.19D-14 2.78D-09 XBig12= 5.85D-02 9.46D-02.
 AX will form    30 AO Fock derivatives at one time.
     30 vectors produced by pass  1 Test12= 1.19D-14 2.78D-09 XBig12= 1.16D-02 3.32D-02.
     30 vectors produced by pass  2 Test12= 1.19D-14 2.78D-09 XBig12= 3.88D-04 3.51D-03.
     30 vectors produced by pass  3 Test12= 1.19D-14 2.78D-09 XBig12= 5.07D-06 3.45D-04.
     30 vectors produced by pass  4 Test12= 1.19D-14 2.78D-09 XBig12= 3.65D-08 3.40D-05.
     30 vectors produced by pass  5 Test12= 1.19D-14 2.78D-09 XBig12= 2.11D-10 2.46D-06.
     19 vectors produced by pass  6 Test12= 1.19D-14 2.78D-09 XBig12= 1.01D-12 1.34D-07.
      5 vectors produced by pass  7 Test12= 1.19D-14 2.78D-09 XBig12= 3.75D-15 8.10D-09.
 InvSVY:  IOpt=1 It=  1 EMax= 1.44D-15
 Solved reduced A of dimension   204 with    30 vectors.
 End of Minotr F.D. properties file   721 does not exist.
 End of Minotr F.D. properties file   722 does not exist.
 End of Minotr F.D. properties file   788 does not exist.
 Leave Link 1002 at Thu Sep  5 16:09:00 2019, MaxMem=   671088640 cpu:             973.8 elap:             487.0
 (Enter /shared/centos7/gaussian/g16/l601.exe)
 Copying SCF densities to generalized density rwf, IOpCl= 0 IROHF=0.

 **********************************************************************

            Population analysis using the SCF density.

 **********************************************************************

 Orbital symmetries:
       Occupied  (A) (A) (A) (A) (A) (A) (A) (A) (A) (A) (A) (A)
                 (A) (A) (A) (A) (A) (A) (A) (A)
       Virtual   (A) (A) (A) (A) (A) (A) (A) (A) (A) (A) (A) (A)
                 (A) (A) (A) (A) (A) (A) (A) (A) (A) (A) (A) (A)
                 (A) (A) (A) (A) (A) (A) (A) (A) (A) (A) (A) (A)
                 (A) (A) (A) (A) (A) (A) (A) (A) (A) (A) (A) (A)
                 (A) (A) (A) (A) (A) (A) (A) (A) (A) (A) (A) (A)
                 (A) (A) (A) (A) (A) (A) (A) (A) (A) (A) (A) (A)
                 (A) (A) (A) (A) (A) (A) (A) (A) (A) (A) (A) (A)
                 (A) (A) (A) (A) (A) (A) (A) (A) (A) (A) (A) (A)
                 (A) (A) (A) (A) (A) (A) (A) (A) (A) (A) (A) (A)
                 (A) (A) (A) (A) (A) (A) (A) (A) (A) (A) (A) (A)
                 (A) (A) (A) (A) (A) (A) (A) (A) (A) (A) (A) (A)
                 (A) (A) (A) (A) (A) (A) (A) (A) (A) (A) (A) (A)
                 (A) (A) (A) (A) (A) (A) (A) (A) (A) (A) (A) (A)
                 (A) (A) (A) (A) (A) (A) (A) (A) (A) (A) (A) (A)
                 (A) (A) (A) (A) (A) (A) (A) (A) (A) (A) (A) (A)
                 (A) (A) (A) (A) (A) (A) (A) (A) (A) (A) (A) (A)
                 (A) (A) (A) (A) (A) (A) (A) (A) (A) (A) (A) (A)
                 (A) (A) (A) (A) (A) (A) (A) (A) (A) (A)
 The electronic state is 1-A.
 Alpha  occ. eigenvalues --  -19.65946 -19.64290 -10.61538 -10.58401 -10.58196
 Alpha  occ. eigenvalues --   -1.18767  -1.15639  -0.86471  -0.79700  -0.69462
 Alpha  occ. eigenvalues --   -0.60179  -0.58291  -0.55497  -0.52086  -0.48425
 Alpha  occ. eigenvalues --   -0.46283  -0.45967  -0.41754  -0.40178  -0.27097
 Alpha virt. eigenvalues --    0.06128   0.08352   0.09082   0.11602   0.11838
 Alpha virt. eigenvalues --    0.13676   0.14025   0.14553   0.22730   0.28020
 Alpha virt. eigenvalues --    0.29466   0.32073   0.33404   0.33732   0.34743
 Alpha virt. eigenvalues --    0.36875   0.39511   0.41526   0.42161   0.45639
 Alpha virt. eigenvalues --    0.45992   0.47661   0.49036   0.49255   0.50485
 Alpha virt. eigenvalues --    0.54242   0.55487   0.61091   0.62890   0.66796
 Alpha virt. eigenvalues --    0.67688   0.68185   0.68949   0.74189   0.75942
 Alpha virt. eigenvalues --    0.79158   0.80797   0.82825   0.84153   0.86239
 Alpha virt. eigenvalues --    0.87091   0.94140   0.99312   0.99937   1.00905
 Alpha virt. eigenvalues --    1.03813   1.06064   1.07514   1.09565   1.09982
 Alpha virt. eigenvalues --    1.13850   1.19734   1.20171   1.22044   1.27789
 Alpha virt. eigenvalues --    1.28693   1.29331   1.30888   1.33077   1.35491
 Alpha virt. eigenvalues --    1.36344   1.41277   1.43531   1.50236   1.51191
 Alpha virt. eigenvalues --    1.52961   1.58618   1.62619   1.66418   1.78507
 Alpha virt. eigenvalues --    1.91568   1.93928   1.94542   2.00901   2.02730
 Alpha virt. eigenvalues --    2.05522   2.06284   2.11752   2.12119   2.23205
 Alpha virt. eigenvalues --    2.26124   2.30066   2.31730   2.33490   2.36664
 Alpha virt. eigenvalues --    2.38365   2.50070   2.52723   2.55462   2.58660
 Alpha virt. eigenvalues --    2.61431   2.67713   2.72309   2.73662   2.73844
 Alpha virt. eigenvalues --    2.77151   2.78902   2.79536   2.86332   2.87989
 Alpha virt. eigenvalues --    2.90422   2.92325   2.94607   2.96241   3.00334
 Alpha virt. eigenvalues --    3.00857   3.01657   3.05233   3.09243   3.11301
 Alpha virt. eigenvalues --    3.11686   3.12881   3.15503   3.15583   3.22131
 Alpha virt. eigenvalues --    3.23040   3.24336   3.25332   3.27170   3.28281
 Alpha virt. eigenvalues --    3.32234   3.32987   3.35930   3.37991   3.43689
 Alpha virt. eigenvalues --    3.46838   3.47639   3.48110   3.52736   3.57527
 Alpha virt. eigenvalues --    3.64728   3.67387   3.68083   3.69697   3.70525
 Alpha virt. eigenvalues --    3.75189   3.76175   3.77491   3.80630   3.82843
 Alpha virt. eigenvalues --    3.84578   3.85099   3.87675   3.92304   3.97665
 Alpha virt. eigenvalues --    3.98055   4.04655   4.06730   4.08453   4.10655
 Alpha virt. eigenvalues --    4.14649   4.20167   4.21879   4.28081   4.30418
 Alpha virt. eigenvalues --    4.33066   4.36314   4.40559   4.46289   4.47100
 Alpha virt. eigenvalues --    4.55792   4.60086   4.65843   4.67045   4.70574
 Alpha virt. eigenvalues --    4.74133   4.75315   4.83913   4.86197   4.90468
 Alpha virt. eigenvalues --    4.95439   4.96645   4.99337   5.01280   5.03598
 Alpha virt. eigenvalues --    5.06629   5.07524   5.14363   5.19825   5.33932
 Alpha virt. eigenvalues --    5.38958   5.42911   5.50313   5.51776   5.59811
 Alpha virt. eigenvalues --    5.69605   5.71632   5.75976   5.79764   5.88146
 Alpha virt. eigenvalues --    6.01747   6.04292   6.17571   6.33095   6.37929
 Alpha virt. eigenvalues --    6.39767   6.59732   6.62849   6.67403   6.69464
 Alpha virt. eigenvalues --    6.77885   6.80395   6.85566   6.89591   7.02768
 Alpha virt. eigenvalues --    7.16384   7.21456   7.33728   7.36717   9.97174
 Alpha virt. eigenvalues --   11.00029  11.92176  13.09507  14.06699
          Condensed to atoms (all electrons):
               1          2          3          4          5          6
     1  O    7.822689   0.002687   0.291110   0.344149  -0.067972  -0.039988
     2  O    0.002687   7.806390  -0.012443  -0.079972   0.342034  -0.003099
     3  C    0.291110  -0.012443   4.721596  -0.054754  -0.007645   0.398643
     4  C    0.344149  -0.079972  -0.054754   4.986932   0.543695  -0.004684
     5  C   -0.067972   0.342034  -0.007645   0.543695   4.918026   0.003276
     6  H   -0.039988  -0.003099   0.398643  -0.004684   0.003276   0.653653
     7  H   -0.039251  -0.006032   0.391576  -0.004204   0.003857  -0.067017
     8  H   -0.029928   0.001192   0.392845   0.003654   0.000148  -0.030474
     9  H   -0.033995   0.003475   0.006966   0.405859  -0.056985   0.000149
    10  H    0.003942  -0.038461  -0.000738  -0.060080   0.404861  -0.000487
    11  H   -0.000500   0.346009   0.009727  -0.015148  -0.033339  -0.001405
               7          8          9         10         11
     1  O   -0.039251  -0.029928  -0.033995   0.003942  -0.000500
     2  O   -0.006032   0.001192   0.003475  -0.038461   0.346009
     3  C    0.391576   0.392845   0.006966  -0.000738   0.009727
     4  C   -0.004204   0.003654   0.405859  -0.060080  -0.015148
     5  C    0.003857   0.000148  -0.056985   0.404861  -0.033339
     6  H   -0.067017  -0.030474   0.000149  -0.000487  -0.001405
     7  H    0.667287  -0.031702  -0.000031  -0.000494   0.002731
     8  H   -0.031702   0.572138  -0.000203   0.000105   0.001333
     9  H   -0.000031  -0.000203   0.530200  -0.005487  -0.000866
    10  H   -0.000494   0.000105  -0.005487   0.533807   0.005959
    11  H    0.002731   0.001333  -0.000866   0.005959   0.422081
 Mulliken charges:
               1
     1  O   -0.252942
     2  O   -0.361781
     3  C   -0.136883
     4  C   -0.065449
     5  C   -0.049957
     6  H    0.091433
     7  H    0.083279
     8  H    0.120891
     9  H    0.150918
    10  H    0.157072
    11  H    0.263418
 Sum of Mulliken charges =  -0.00000
 Mulliken charges with hydrogens summed into heavy atoms:
               1
     1  O   -0.252942
     2  O   -0.098363
     3  C    0.158721
     4  C    0.085470
     5  C    0.107115
 APT charges:
               1
     1  O   -0.158448
     2  O   -0.328053
     3  C   -0.802785
     4  C   -0.481605
     5  C   -0.408346
     6  H    0.230652
     7  H    0.228072
     8  H    0.482312
     9  H    0.464558
    10  H    0.491382
    11  H    0.282261
 Sum of APT charges =  -0.00000
 APT charges with hydrogens summed into heavy atoms:
               1
     1  O   -0.158448
     2  O   -0.045793
     3  C    0.138251
     4  C   -0.017046
     5  C    0.083036
 Electronic spatial extent (au):  <R**2>=            412.4606
 Charge=             -0.0000 electrons
 Dipole moment (field-independent basis, Debye):
    X=              1.1262    Y=             -0.7928    Z=              0.0154  Tot=              1.3773
 Quadrupole moment (field-independent basis, Debye-Ang):
   XX=            -31.9904   YY=            -27.7788   ZZ=            -32.1506
   XY=             -5.8341   XZ=              0.0692   YZ=              0.1685
 Traceless Quadrupole moment (field-independent basis, Debye-Ang):
   XX=             -1.3505   YY=              2.8611   ZZ=             -1.5107
   XY=             -5.8341   XZ=              0.0692   YZ=              0.1685
 Octapole moment (field-independent basis, Debye-Ang**2):
  XXX=              3.8660  YYY=              0.1415  ZZZ=             -0.1492  XYY=              1.8270
  XXY=              1.2297  XXZ=              0.3281  XZZ=              1.5162  YZZ=             -2.9083
  YYZ=             -0.1868  XYZ=             -0.0841
 Hexadecapole moment (field-independent basis, Debye-Ang**3):
 XXXX=           -283.2286 YYYY=           -163.9565 ZZZZ=            -39.4384 XXXY=            -17.2124
 XXXZ=             -0.0645 YYYX=              3.6988 YYYZ=              0.5683 ZZZX=              0.0218
 ZZZY=             -0.0667 XXYY=            -84.0525 XXZZ=            -59.6490 YYZZ=            -38.3783
 XXYZ=              0.0444 YYXZ=              0.0366 ZZXY=              2.4807
 N-N= 1.807733499192D+02 E-N=-9.896304029278D+02  KE= 2.667180168318D+02
  Exact polarizability:   0.000   0.000   0.000   0.000   0.000   0.000
 Approx polarizability:  62.569   5.217  54.192  -0.262   0.132  38.944
 No NMR shielding tensors so no spin-rotation constants.
 Leave Link  601 at Thu Sep  5 16:09:25 2019, MaxMem=   671088640 cpu:              48.6 elap:              24.3
 (Enter /shared/centos7/gaussian/g16/l701.exe)
 SCFChk:  SCF convergence  3.47D-09 required  1.00D-08
 ... and contract with generalized density number  0.
 Compute integral second derivatives.
 Entering OneElI...
 Calculate overlap and kinetic energy integrals
    NBasis = 265  MinDer = 2  MaxDer = 2
 Requested accuracy = 0.1000D-12
 PrmmSu-InSpLW:  IPartL=    0 NPrtUS=   20 NPrtUL=    1 DoSpLW=F IThBeg=    0 IThEnd=   19 NThAct=   20.
 PrsmSu:  NPrtUS=  20 ThrOK=T IAlg=1 NPAlg=1 LenDen=           0 ISkipM=0 DoSpLW=F IThBeg=    0 IThEnd=   19.
 Prism:   IPart=     0 DynPar=F LinDyn=F Incr=           1.
 PRISM was handed    33437705 working-precision words and  3740 shell-pairs
 PRISM was handed    33437705 working-precision words and  3740 shell-pairs
 PRISM was handed    33437705 working-precision words and  3740 shell-pairs
 PRISM was handed    33437705 working-precision words and  3740 shell-pairs
 PRISM was handed    33437705 working-precision words and  3740 shell-pairs
 PRISM was handed    33437705 working-precision words and  3740 shell-pairs
 PRISM was handed    33437705 working-precision words and  3740 shell-pairs
 PRISM was handed    33437705 working-precision words and  3740 shell-pairs
 PRISM was handed    33437705 working-precision words and  3740 shell-pairs
 PRISM was handed    33437705 working-precision words and  3740 shell-pairs
 PRISM was handed    33437705 working-precision words and  3740 shell-pairs
 PRISM was handed    33437705 working-precision words and  3740 shell-pairs
 PRISM was handed    33437705 working-precision words and  3740 shell-pairs
 PRISM was handed    33437705 working-precision words and  3740 shell-pairs
 PRISM was handed    33437705 working-precision words and  3740 shell-pairs
 PRISM was handed    33437705 working-precision words and  3740 shell-pairs
 IPart=  0 NShTot=         226 NBatch=          67 AvBLen=         3.4
 IPart= 12 NShTot=         176 NBatch=          28 AvBLen=         6.3
 IPart=  5 NShTot=         195 NBatch=          39 AvBLen=         5.0
 PRISM was handed    33437705 working-precision words and  3740 shell-pairs
 PRISM was handed    33437705 working-precision words and  3740 shell-pairs
 IPart= 13 NShTot=         173 NBatch=          27 AvBLen=         6.4
 PRISM was handed    33437705 working-precision words and  3740 shell-pairs
 IPart= 17 NShTot=         168 NBatch=          26 AvBLen=         6.5
 IPart=  3 NShTot=         207 NBatch=          48 AvBLen=         4.3
 IPart= 10 NShTot=         181 NBatch=          30 AvBLen=         6.0
 PRISM was handed    33437705 working-precision words and  3740 shell-pairs
 IPart=  8 NShTot=         186 NBatch=          31 AvBLen=         6.0
 IPart= 14 NShTot=         172 NBatch=          27 AvBLen=         6.4
 IPart=  7 NShTot=         190 NBatch=          35 AvBLen=         5.4
 IPart= 16 NShTot=         169 NBatch=          26 AvBLen=         6.5
 IPart=  9 NShTot=         186 NBatch=          31 AvBLen=         6.0
 IPart= 15 NShTot=         170 NBatch=          26 AvBLen=         6.5
 IPart=  2 NShTot=         210 NBatch=          51 AvBLen=         4.1
 IPart= 11 NShTot=         180 NBatch=          30 AvBLen=         6.0
 IPart=  1 NShTot=         221 NBatch=          62 AvBLen=         3.6
 IPart= 18 NShTot=         167 NBatch=          26 AvBLen=         6.4
 IPart= 19 NShTot=         166 NBatch=          26 AvBLen=         6.4
 IPart=  6 NShTot=         193 NBatch=          38 AvBLen=         5.1
 IPart=  4 NShTot=         204 NBatch=          45 AvBLen=         4.5
 PrSmSu:  NxtVal=             21.
 Entering OneElI...
 Calculate potential energy integrals
    NBasis = 265  MinDer = 2  MaxDer = 2
 Requested accuracy = 0.1000D-12
 PrmmSu-InSpLW:  IPartL=    0 NPrtUS=   20 NPrtUL=    1 DoSpLW=F IThBeg=    0 IThEnd=   19 NThAct=   20.
 PrsmSu:  NPrtUS=  20 ThrOK=T IAlg=1 NPAlg=1 LenDen=           0 ISkipM=0 DoSpLW=F IThBeg=    0 IThEnd=   19.
 Prism:   IPart=     0 DynPar=F LinDyn=F Incr=          19.
 PRISM was handed    33453359 working-precision words and  3612 shell-pairs
 PRISM was handed    33453359 working-precision words and  3612 shell-pairs
 PRISM was handed    33453359 working-precision words and  3612 shell-pairs
 PRISM was handed    33453359 working-precision words and  3612 shell-pairs
 PRISM was handed    33453359 working-precision words and  3612 shell-pairs
 PRISM was handed    33453359 working-precision words and  3612 shell-pairs
 PRISM was handed    33453359 working-precision words and  3612 shell-pairs
 PRISM was handed    33453359 working-precision words and  3612 shell-pairs
 PRISM was handed    33453359 working-precision words and  3612 shell-pairs
 PRISM was handed    33453359 working-precision words and  3612 shell-pairs
 PRISM was handed    33453359 working-precision words and  3612 shell-pairs
 PRISM was handed    33453359 working-precision words and  3612 shell-pairs
 PRISM was handed    33453359 working-precision words and  3612 shell-pairs
 PRISM was handed    33453359 working-precision words and  3612 shell-pairs
 PRISM was handed    33453359 working-precision words and  3612 shell-pairs
 PRISM was handed    33453359 working-precision words and  3612 shell-pairs
 PRISM was handed    33453359 working-precision words and  3612 shell-pairs
 PRISM was handed    33453359 working-precision words and  3612 shell-pairs
 PRISM was handed    33453359 working-precision words and  3612 shell-pairs
 PRISM was handed    33453359 working-precision words and  3612 shell-pairs
 IPart= 10 NShTot=        1892 NBatch=         172 AvBLen=        11.0
 IPart= 17 NShTot=        1793 NBatch=         163 AvBLen=        11.0
 IPart=  0 NShTot=        2475 NBatch=         225 AvBLen=        11.0
 IPart= 14 NShTot=        1826 NBatch=         166 AvBLen=        11.0
 IPart=  8 NShTot=        1947 NBatch=         177 AvBLen=        11.0
 IPart=  9 NShTot=        1925 NBatch=         175 AvBLen=        11.0
 IPart=  3 NShTot=        2200 NBatch=         200 AvBLen=        11.0
 IPart= 12 NShTot=        1848 NBatch=         168 AvBLen=        11.0
 IPart=  4 NShTot=        2145 NBatch=         195 AvBLen=        11.0
 IPart= 16 NShTot=        1815 NBatch=         165 AvBLen=        11.0
 IPart=  1 NShTot=        2398 NBatch=         218 AvBLen=        11.0
 IPart=  2 NShTot=        2299 NBatch=         209 AvBLen=        11.0
 IPart=  7 NShTot=        2002 NBatch=         182 AvBLen=        11.0
 IPart= 18 NShTot=        1793 NBatch=         163 AvBLen=        11.0
 IPart=  6 NShTot=        2024 NBatch=         184 AvBLen=        11.0
 IPart= 11 NShTot=        1870 NBatch=         170 AvBLen=        11.0
 IPart= 13 NShTot=        1837 NBatch=         167 AvBLen=        11.0
 IPart=  5 NShTot=        2035 NBatch=         185 AvBLen=        11.0
 IPart= 19 NShTot=        1793 NBatch=         163 AvBLen=        11.0
 IPart= 15 NShTot=        1815 NBatch=         165 AvBLen=        11.0
 PrSmSu:  NxtVal=            381.
 Polarizability after L701:
                1             2             3 
      1  0.000000D+00
      2  0.000000D+00  0.000000D+00
      3  0.000000D+00  0.000000D+00  0.000000D+00
 Dipole Derivatives after L701:
                 1             2             3             4             5 
      1  -0.495260D-01  0.920092D-01 -0.945367D-02  0.999792D-02  0.157286D+00
      2   0.210342D+00 -0.173328D+00 -0.797194D-02  0.660795D+00 -0.596781D+00
      3  -0.954858D-02 -0.617859D-02 -0.252492D+00  0.300409D-01 -0.187358D-01
                 6             7             8             9            10 
      1  -0.354798D-02 -0.733577D+00  0.431442D+00 -0.322871D-01 -0.630842D+00
      2  -0.320391D-01  0.263639D-01 -0.878811D+00  0.198894D-01  0.813619D-01
      3  -0.397377D+00 -0.486095D-02  0.667938D-02 -0.795966D+00  0.136249D-01
                11            12            13            14            15 
      1  -0.110153D+00  0.197365D-01 -0.717913D+00  0.293037D+00  0.150192D-02
      2  -0.829837D+00 -0.198932D-01  0.184826D-02 -0.540780D+00  0.431621D-02
      3  -0.168128D-01  0.158644D-01  0.365909D-02 -0.353950D-02  0.336538D-01
                16            17            18            19            20 
      1  -0.568689D-01 -0.152999D+00  0.203502D+00 -0.582977D-01 -0.167461D+00
      2   0.195389D+00  0.315123D+00 -0.280574D+00  0.200781D+00  0.334381D+00
      3  -0.162493D+00 -0.126806D+00  0.433703D+00  0.150296D+00  0.134714D+00
                21            22            23            24            25 
      1  -0.196058D+00  0.111191D+01 -0.201572D+00  0.244477D-01  0.187416D+00
      2   0.283528D+00 -0.384534D+00  0.233504D+00 -0.107307D-01 -0.235691D-01
      3   0.408133D+00  0.119582D-01 -0.290119D-02  0.101521D+00  0.121014D-02
                26            27            28            29            30 
      1  -0.204028D-01  0.127903D-02  0.979004D+00 -0.454845D+00 -0.216308D-01
      2   0.111525D+01  0.423608D-02 -0.344737D+00  0.398780D+00  0.108471D-01
      3   0.103074D-01  0.910063D-01 -0.969142D-02  0.730246D-02  0.963636D-01
                31            32            33 
      1  -0.413050D-01  0.133658D+00  0.125107D-01
      2  -0.624041D+00  0.622497D+00  0.283927D-01
      3  -0.241958D-01  0.159709D-01  0.265589D+00
 Hessian after L701:
                1             2             3             4             5 
      1  0.583017D+01
      2  0.318949D+01  0.683482D+01
      3  0.139725D+00  0.149988D+00  0.152271D+02
      4  0.552128D+00  0.551871D+00 -0.636799D-02  0.804987D+01
      5  0.463373D+00 -0.498366D-01 -0.329952D-02  0.784953D-01  0.451869D+01
      6 -0.105074D-01 -0.719430D-02 -0.383544D+00  0.214344D+00 -0.261725D+00
      7 -0.693244D+01 -0.125439D+01  0.224174D-01  0.489386D+00 -0.576315D-01
      8 -0.983405D+00  0.910606D+00 -0.243275D+00  0.136476D+00 -0.348518D+00
      9  0.128713D-01 -0.232672D+00 -0.749917D+01  0.231426D-02 -0.387026D-02
     10 -0.282226D+00 -0.287698D+01 -0.175253D+00  0.295544D+00  0.378218D+00
     11 -0.311368D+01 -0.696184D+01  0.461088D-01  0.256863D+00 -0.148346D-01
     12 -0.162145D+00  0.436546D-01 -0.816811D+01  0.152174D-01 -0.335438D-02
     13  0.302316D+00  0.141001D+00  0.204231D-01 -0.792624D+01  0.101493D+01
     14  0.265713D+00 -0.132666D+00 -0.514925D-02  0.131706D+01  0.502406D+00
     15  0.135364D-01 -0.158985D-02  0.174372D+00 -0.351783D-02  0.150187D+00
     16  0.126736D+00  0.662939D-01 -0.898244D-01  0.264599D-01 -0.927509D-02
     17 -0.131300D-02 -0.248649D+00 -0.105414D+00 -0.422652D-01 -0.410839D-01
     18 -0.743797D-01 -0.846069D-01  0.327979D+00  0.799990D-01 -0.179700D-01
     19  0.122067D+00  0.739230D-01  0.863134D-01  0.340322D-02 -0.129952D-01
     20  0.870830D-02 -0.243372D+00  0.145323D+00 -0.468652D-01 -0.275399D-01
     21  0.768603D-01  0.122041D+00  0.317212D+00 -0.617791D-01  0.200142D-01
     22  0.248242D+00 -0.700416D-01  0.497077D-02  0.101155D+00 -0.401795D-02
     23 -0.134026D-01 -0.186878D+00  0.411983D-02 -0.169566D-01 -0.200146D-01
     24  0.382742D-02  0.247645D-02  0.205114D-01  0.205692D-02 -0.660096D-04
     25 -0.934468D-01  0.173910D+00 -0.234618D-02 -0.211108D-01  0.507033D-01
     26  0.128373D+00  0.459721D-01  0.745303D-02  0.877639D-01  0.139881D+00
     27 -0.630702D-03  0.239673D-02  0.619044D-01  0.950277D-03  0.127314D-02
     28  0.161537D+00 -0.304067D-01 -0.328737D-02  0.170045D+00  0.212856D-02
     29 -0.546497D-01 -0.350811D-01  0.719691D-03  0.279976D-01 -0.243701D+00
     30 -0.442576D-02  0.712194D-03 -0.307939D-01 -0.571840D-04 -0.512812D-02
     31 -0.350804D-01  0.353386D-01  0.322865D-02 -0.174063D+01 -0.190392D+01
     32  0.110801D+00  0.669265D-01  0.342666D-02 -0.235044D+01 -0.441545D+01
     33  0.526838D-02  0.479497D-02 -0.474352D-01 -0.243160D+00  0.123938D+00
                6             7             8             9            10 
      6  0.143977D+02
      7 -0.366750D-02  0.142562D+02
      8 -0.145665D-02  0.108157D+01  0.874061D+01
      9 -0.308570D+00 -0.449667D-01  0.193392D+00  0.160317D+02
     10  0.198580D-01  0.105864D+00 -0.371877D+00  0.156292D-02  0.607070D+01
     11  0.365483D-02 -0.271422D+00  0.244474D+00 -0.603604D-02 -0.496845D+00
     12  0.262787D+00  0.870246D-03 -0.788518D-02 -0.147048D+00  0.268045D+00
     13 -0.140270D-01  0.224696D+00 -0.189771D+00  0.413311D-02 -0.215682D+01
     14  0.135920D+00 -0.187692D+00 -0.130944D+00 -0.229014D-02  0.353266D+01
     15 -0.809568D+01  0.654453D-02 -0.307576D-02 -0.185330D+00 -0.114865D+00
     16  0.131482D-02 -0.328715D+01  0.418116D+00 -0.711368D+00 -0.204427D-01
     17 -0.845396D-02  0.594057D+00 -0.311050D+01 -0.105721D+01 -0.260632D-01
     18 -0.276365D-01 -0.913592D+00 -0.952066D+00 -0.200272D+01  0.218841D-01
     19  0.121301D-01 -0.328253D+01  0.452504D+00  0.672092D+00 -0.249877D-01
     20  0.897051D-02  0.638206D+00 -0.296114D+01  0.111592D+01 -0.237396D-01
     21 -0.228718D-01  0.864504D+00  0.101805D+01 -0.211274D+01 -0.210028D-01
     22  0.323777D-03 -0.159312D+01 -0.545335D+00  0.564139D-01  0.825259D-01
     23  0.478880D-04 -0.619865D+00 -0.337907D+01 -0.144722D-01 -0.835177D-01
     24 -0.207148D-01  0.529468D-01 -0.109278D-01 -0.354767D+01  0.275543D-02
     25  0.129419D-02 -0.163476D-01 -0.703482D-01  0.626235D-03 -0.376718D+01
     26  0.248116D-02 -0.862804D-01  0.145039D+00  0.146942D-03 -0.391087D-01
     27 -0.309688D-01  0.178587D-03  0.443456D-03 -0.456965D-01 -0.173659D-02
     28 -0.217989D-03  0.251450D-01 -0.101540D-01 -0.455105D-03 -0.331620D+00
     29 -0.718768D-02 -0.182792D-01 -0.756048D-02  0.305458D-03 -0.140392D-01
     30  0.754107D-01 -0.416737D-03 -0.117520D-03 -0.135801D-01 -0.219926D-02
     31 -0.220845D+00  0.102648D-01  0.822284D-01  0.677563D-02  0.286385D-01
     32  0.134943D+00  0.181735D+00 -0.102999D+00  0.678315D-02  0.212896D-01
     33 -0.584588D+01  0.151807D-01  0.691625D-02 -0.169148D+00  0.951234D-03
               11            12            13            14            15 
     11  0.146034D+02
     12 -0.720001D-01  0.240960D+02
     13  0.390101D+01 -0.116267D+00  0.114499D+02
     14 -0.668866D+01  0.235915D-01 -0.349006D+01  0.958991D+01
     15  0.132002D-01 -0.124240D+02  0.146209D+00 -0.167140D+00  0.243042D+02
     16 -0.508928D-03  0.450266D-02  0.319512D-01 -0.651010D-01 -0.558166D-02
     17  0.192047D-01 -0.307510D-01 -0.906901D-01  0.204251D-01 -0.205622D-02
     18 -0.473039D-01  0.101739D-01  0.327103D-01 -0.168229D-01 -0.480137D-01
     19  0.196854D-02 -0.555779D-02  0.330526D-01 -0.688509D-01  0.402601D-02
     20  0.252123D-01  0.353313D-01 -0.953683D-01  0.254127D-01  0.384075D-02
     21  0.502503D-01  0.980703D-02 -0.320169D-01  0.173461D-01 -0.467933D-01
     22 -0.868458D-01  0.185167D-02  0.414289D-01 -0.143202D-01 -0.490346D-03
     23  0.237143D-01 -0.748330D-03 -0.197396D-01 -0.119123D-01  0.777992D-04
     24 -0.188195D-02 -0.345449D-01  0.599980D-03 -0.222986D-03 -0.134263D-01
     25 -0.900340D-01 -0.208856D-02  0.270989D-01 -0.222125D+00 -0.581233D-02
     26 -0.130310D+01  0.156337D-01 -0.239429D+00 -0.135269D+00 -0.885339D-02
     27  0.186723D-01 -0.379018D+01 -0.668345D-02 -0.680652D-02  0.133504D+00
     28 -0.395672D-01 -0.347704D-02 -0.204289D+01 -0.104463D+01 -0.424497D-01
     29  0.205476D+00  0.133031D-02 -0.106844D+01 -0.317572D+01  0.246609D-01
     30 -0.652890D-05  0.147893D+00 -0.425321D-01  0.245975D-01 -0.382811D+01
     31 -0.609367D-01 -0.951060D-03  0.154692D-01 -0.226646D-01  0.240151D-02
     32 -0.153056D+00 -0.480244D-02  0.136556D+00  0.137025D+00 -0.925185D-02
     33 -0.465789D-02  0.372295D-01  0.745125D-02 -0.302354D-02  0.292145D-01
               16            17            18            19            20 
     16  0.302075D+01
     17 -0.396529D+00  0.302203D+01
     18  0.667878D+00  0.116746D+01  0.222851D+01
     19  0.250152D+00  0.764486D-02  0.302936D-01  0.302627D+01
     20  0.650595D-02  0.251879D+00 -0.627012D-01 -0.433900D+00  0.287547D+01
     21 -0.215320D-01  0.169588D-01 -0.490136D+00 -0.620328D+00 -0.122231D+01
     22 -0.120200D+00 -0.485952D-01  0.149008D+00 -0.117801D+00 -0.572078D-01
     23 -0.350286D-01  0.949484D-01  0.111533D-01 -0.431589D-01  0.954247D-01
     24  0.150648D+00  0.206054D-01  0.172253D-01 -0.151442D+00 -0.256565D-01
     25 -0.254265D-02 -0.309047D-02  0.161131D-02 -0.220544D-02 -0.198451D-02
     26  0.768121D-03  0.139913D-01 -0.100629D-01  0.173226D-02  0.111971D-01
     27  0.383323D-03 -0.274069D-02 -0.142700D-02 -0.139330D-03  0.187304D-02
     28 -0.377296D-02 -0.268450D-02  0.423089D-02 -0.383587D-02 -0.273838D-02
     29  0.232567D-02  0.143285D-02 -0.305504D-02  0.257847D-02  0.156234D-02
     30 -0.319166D-03 -0.168719D-03 -0.652993D-03  0.508915D-03  0.427283D-03
     31 -0.219446D-01  0.952914D-02  0.356252D-03 -0.358512D-02  0.838376D-02
     32  0.124324D-01 -0.236855D-01  0.159766D-01  0.185541D-01 -0.541011D-01
     33  0.389784D-02  0.177212D-02 -0.133024D-01 -0.278967D-01 -0.101983D-02
               21            22            23            24            25 
     21  0.235905D+01
     22 -0.150728D+00  0.133553D+01
     23 -0.157492D-01  0.830272D+00  0.338593D+01
     24  0.170075D-01 -0.627729D-01  0.156367D-01  0.357416D+01
     25 -0.122384D-02  0.136019D-02  0.826977D-03  0.395001D-04  0.390567D+01
     26  0.843132D-02 -0.104920D-01  0.344692D-02 -0.264038D-03  0.187013D+00
     27 -0.122128D-02  0.105304D-05 -0.316324D-04 -0.120632D-02  0.788326D-02
     28 -0.387663D-02  0.109444D-01 -0.412660D-02  0.180084D-03 -0.300887D-01
     29  0.290757D-02 -0.600714D-02  0.156071D-02 -0.733783D-04 -0.245312D-01
     30 -0.342495D-03 -0.159842D-03  0.926971D-05 -0.147685D-02 -0.152956D-04
     31 -0.288772D-01  0.993479D-02  0.469623D-02  0.116107D-02 -0.120633D-02
     32 -0.179405D-01  0.125908D-01 -0.715442D-02  0.374150D-03 -0.340127D-03
     33 -0.289668D-01  0.158232D-02 -0.433950D-04 -0.986690D-02  0.317030D-04
               26            27            28            29            30 
     26  0.108294D+01
     27 -0.153143D-01  0.367280D+01
     28 -0.166634D-01 -0.751531D-04  0.201330D+01
     29 -0.637177D-02  0.224684D-03  0.121849D+01  0.320268D+01
     30 -0.122700D-03  0.294923D-02  0.523925D-01 -0.235073D-01  0.366849D+01
     31 -0.136771D-01 -0.131265D-03  0.312427D-01 -0.654439D-01 -0.277603D-02
     32  0.227235D-02  0.977030D-05 -0.696450D-01  0.557208D-01  0.330465D-02
     33  0.471128D-03 -0.452606D-03 -0.296441D-02  0.367480D-02 -0.197888D-01
               31            32            33 
     31  0.170690D+01
     32  0.192647D+01  0.449450D+01
     33  0.239658D+00 -0.132823D+00  0.606840D+01
 Leave Link  701 at Thu Sep  5 16:09:42 2019, MaxMem=   671088640 cpu:              34.1 elap:              17.1
 (Enter /shared/centos7/gaussian/g16/l702.exe)
 L702 exits ... SP integral derivatives will be done elsewhere.
 Leave Link  702 at Thu Sep  5 16:09:42 2019, MaxMem=   671088640 cpu:               1.3 elap:               0.7
 (Enter /shared/centos7/gaussian/g16/l703.exe)
 Integral derivatives from FoFJK, PRISM(SPDF).
 Compute integral second derivatives, UseDBF=F ICtDFT=           0.
 ICntrl=    100147.
 Calling FoFJK, ICntrl=    100147 FMM=F ISym2X=0 I1Cent= 0 IOpClX= 0 NMat=1 NMatS=1 NMatT=0.
 FoFJK:  IHMeth= 1 ICntrl=  100147 DoSepK=F KAlg= 0 I1Cent=           0 FoldK=F
 IRaf=         0 NMat=       1 IRICut=       1 DoRegI=T DoRafI=F ISym2E= 0 IDoP0=0 IntGTp=1.
 FoFCou: FMM=F IPFlag=           0 FMFlag=      100000 FMFlg1=         800
         NFxFlg=           0 DoJE=F BraDBF=F KetDBF=F FulRan=T
         wScrn=  0.000000 ICntrl=    100147 IOpCl=  0 I1Cent=           0 NGrid=           0
         NMat0=    1 NMatS0=      1 NMatT0=    0 NMatD0=    1 NMtDS0=    0 NMtDT0=    0
 Symmetry not used in FoFCou.
 FoFCou:  KetSym=F NOpSet=  1 NOpAb=1 NOp=  1.
 FoFCou:  CnvScl= 1.00D+00 Thresh= 1.00D-08 IAcrcy=      12.
 PrismS was handed   670737330 working-precision words and  3705 shell-pairs
 FoFCou: LinMIO=F DoNuc=F BraDBF=F KetDBF=F HaveP=T PDBF=F HaveZ=T HaveW=F
         NIJTC =      10 NIJTAt=       0 NIJTCD=       0 NIJTT =      10
         IJTBeg=       1 IJTEnd=      10 KLTBeg=       1 KLTEnd=      10
         IPTBeg=       1 IPTEnd=      10 IPTBCv=       1 IPTECv=      10
         IZTBeg=       1 IZTEnd=      10 IZTBCv=       1 IZTECv=      10
         IWTBeg=      11 IWTEnd=      10 IWTBCv=      11 IWTECv=      10
         INTBeg=       1 INTEnd=       0 IFTBCv=       1 IFTECv=      10
 NCel replicated for PrismC:     1
 CoulSu-InSpLW:  IPartL=    0 NPrtUS=   20 NPrtUL=    1 DoSpLW=F IThBeg=    0 IThEnd=   19 NThAct=   20.
 CoulSu:  IncDef=  1024 NBBP=        6865365 NTPThr=   100 NPartT=   20 Incr=        1024 LDynOK=F GPUOK=T.
 CoulSu:  NPrtUS=  20 ThrOK=T IAlg=1 NPAlg=1 LenDen=           0 LWGrdD=           0 DoCopy=F ISkipM=0
          DoSpLW=F IThBeg=    0 IThEnd=   19.
 Enter PrismC:  IPart=  0 JobTyp=22 DoJE=F Cont=F.
 Enter PrismC:  IPart=  1 JobTyp=22 DoJE=F Cont=F.
 PrismC:  IPart=     1 DynPar=T LinDyn=F Incr=        1024 UseFst=F UseS4=T ISplat=2.
 PrismC was handed    33454669 working-precision words and  3705 shell-pairs
 PrismC:  IPart=     0 DynPar=T LinDyn=F Incr=        1024 UseFst=F UseS4=T ISplat=2.
 PrismC was handed    33454669 working-precision words and  3705 shell-pairs
 Enter PrismC:  IPart=  8 JobTyp=22 DoJE=F Cont=F.
 PrismC:  IPart=     8 DynPar=T LinDyn=F Incr=        1024 UseFst=F UseS4=T ISplat=2.
 PrismC was handed    33454669 working-precision words and  3705 shell-pairs
 Enter PrismC:  IPart= 16 JobTyp=22 DoJE=F Cont=F.
 Enter PrismC:  IPart=  5 JobTyp=22 DoJE=F Cont=F.
 PrismC:  IPart=    16 DynPar=T LinDyn=F Incr=        1024 UseFst=F UseS4=T ISplat=2.
 PrismC was handed    33454669 working-precision words and  3705 shell-pairs
 PrismC:  IPart=     5 DynPar=T LinDyn=F Incr=        1024 UseFst=F UseS4=T ISplat=2.
 PrismC was handed    33454669 working-precision words and  3705 shell-pairs
 Enter PrismC:  IPart= 14 JobTyp=22 DoJE=F Cont=F.
 Enter PrismC:  IPart= 13 JobTyp=22 DoJE=F Cont=F.
 PrismC:  IPart=    13 DynPar=T LinDyn=F Incr=        1024 UseFst=F UseS4=T ISplat=2.
 PrismC was handed    33454669 working-precision words and  3705 shell-pairs
 PrismC:  IPart=    14 DynPar=T LinDyn=F Incr=        1024 UseFst=F UseS4=T ISplat=2.
 PrismC was handed    33454669 working-precision words and  3705 shell-pairs
 Enter PrismC:  IPart=  4 JobTyp=22 DoJE=F Cont=F.
 PrismC:  IPart=     4 DynPar=T LinDyn=F Incr=        1024 UseFst=F UseS4=T ISplat=2.
 PrismC was handed    33454669 working-precision words and  3705 shell-pairs
 Enter PrismC:  IPart= 11 JobTyp=22 DoJE=F Cont=F.
 PrismC:  IPart=    11 DynPar=T LinDyn=F Incr=        1024 UseFst=F UseS4=T ISplat=2.
 PrismC was handed    33454669 working-precision words and  3705 shell-pairs
 Enter PrismC:  IPart= 18 JobTyp=22 DoJE=F Cont=F.
 PrismC:  IPart=    18 DynPar=T LinDyn=F Incr=        1024 UseFst=F UseS4=T ISplat=2.
 PrismC was handed    33454669 working-precision words and  3705 shell-pairs
 Enter PrismC:  IPart=  7 JobTyp=22 DoJE=F Cont=F.
 PrismC:  IPart=     7 DynPar=T LinDyn=F Incr=        1024 UseFst=F UseS4=T ISplat=2.
 PrismC was handed    33454669 working-precision words and  3705 shell-pairs
 Enter PrismC:  IPart= 15 JobTyp=22 DoJE=F Cont=F.
 PrismC:  IPart=    15 DynPar=T LinDyn=F Incr=        1024 UseFst=F UseS4=T ISplat=2.
 PrismC was handed    33454669 working-precision words and  3705 shell-pairs
 Enter PrismC:  IPart=  3 JobTyp=22 DoJE=F Cont=F.
 PrismC:  IPart=     3 DynPar=T LinDyn=F Incr=        1024 UseFst=F UseS4=T ISplat=2.
 PrismC was handed    33454669 working-precision words and  3705 shell-pairs
 Enter PrismC:  IPart=  9 JobTyp=22 DoJE=F Cont=F.
 PrismC:  IPart=     9 DynPar=T LinDyn=F Incr=        1024 UseFst=F UseS4=T ISplat=2.
 PrismC was handed    33454669 working-precision words and  3705 shell-pairs
 Enter PrismC:  IPart= 10 JobTyp=22 DoJE=F Cont=F.
 PrismC:  IPart=    10 DynPar=T LinDyn=F Incr=        1024 UseFst=F UseS4=T ISplat=2.
 PrismC was handed    33454669 working-precision words and  3705 shell-pairs
 Enter PrismC:  IPart= 12 JobTyp=22 DoJE=F Cont=F.
 PrismC:  IPart=    12 DynPar=T LinDyn=F Incr=        1024 UseFst=F UseS4=T ISplat=2.
 PrismC was handed    33454669 working-precision words and  3705 shell-pairs
 Enter PrismC:  IPart=  6 JobTyp=22 DoJE=F Cont=F.
 PrismC:  IPart=     6 DynPar=T LinDyn=F Incr=        1024 UseFst=F UseS4=T ISplat=2.
 PrismC was handed    33454669 working-precision words and  3705 shell-pairs
 Enter PrismC:  IPart= 19 JobTyp=22 DoJE=F Cont=F.
 PrismC:  IPart=    19 DynPar=T LinDyn=F Incr=        1024 UseFst=F UseS4=T ISplat=2.
 PrismC was handed    33454669 working-precision words and  3705 shell-pairs
 Enter PrismC:  IPart= 17 JobTyp=22 DoJE=F Cont=F.
 PrismC:  IPart=    17 DynPar=T LinDyn=F Incr=        1024 UseFst=F UseS4=T ISplat=2.
 PrismC was handed    33454669 working-precision words and  3705 shell-pairs
 Enter PrismC:  IPart=  2 JobTyp=22 DoJE=F Cont=F.
 PrismC:  IPart=     2 DynPar=T LinDyn=F Incr=        1024 UseFst=F UseS4=T ISplat=2.
 PrismC was handed    33454669 working-precision words and  3705 shell-pairs
 IPart= 16 NShTot=      197767 NShNF=      197767 NShFF=           0 MinMC=       7
           NShCPU=      197767 NBCPU=        8504 AvBCPU=        23.3
           NShGPU=           0 NBGPU=           0 AvBGPU=         0.0
 IPart=  0 NShTot=      198724 NShNF=      198724 NShFF=           0 MinMC=       7
           NShCPU=      198724 NBCPU=        8141 AvBCPU=        24.4
           NShGPU=           0 NBGPU=           0 AvBGPU=         0.0
 IPart=  8 NShTot=      309511 NShNF=      309511 NShFF=           0 MinMC=       7
           NShCPU=      309511 NBCPU=       13160 AvBCPU=        23.5
           NShGPU=           0 NBGPU=           0 AvBGPU=         0.0
 IPart= 15 NShTot=      201631 NShNF=      201631 NShFF=           0 MinMC=       7
           NShCPU=      201631 NBCPU=        9083 AvBCPU=        22.2
           NShGPU=           0 NBGPU=           0 AvBGPU=         0.0
 IPart= 12 NShTot=      318962 NShNF=      318962 NShFF=           0 MinMC=       7
           NShCPU=      318962 NBCPU=       13293 AvBCPU=        24.0
           NShGPU=           0 NBGPU=           0 AvBGPU=         0.0
 IPart=  1 NShTot=      200301 NShNF=      200301 NShFF=           0 MinMC=       7
           NShCPU=      200301 NBCPU=        8579 AvBCPU=        23.3
           NShGPU=           0 NBGPU=           0 AvBGPU=         0.0
 IPart=  9 NShTot=      307363 NShNF=      307363 NShFF=           0 MinMC=       7
           NShCPU=      307363 NBCPU=       12878 AvBCPU=        23.9
           NShGPU=           0 NBGPU=           0 AvBGPU=         0.0
 IPart= 14 NShTot=      203156 NShNF=      203156 NShFF=           0 MinMC=       7
           NShCPU=      203156 NBCPU=        8549 AvBCPU=        23.8
           NShGPU=           0 NBGPU=           0 AvBGPU=         0.0
 IPart= 17 NShTot=      188531 NShNF=      188531 NShFF=           0 MinMC=       7
           NShCPU=      188531 NBCPU=        8102 AvBCPU=        23.3
           NShGPU=           0 NBGPU=           0 AvBGPU=         0.0
 IPart=  7 NShTot=      210247 NShNF=      210247 NShFF=           0 MinMC=       7
           NShCPU=      210247 NBCPU=        8227 AvBCPU=        25.6
           NShGPU=           0 NBGPU=           0 AvBGPU=         0.0
 IPart=  4 NShTot=      314738 NShNF=      314738 NShFF=           0 MinMC=       7
           NShCPU=      314738 NBCPU=       13087 AvBCPU=        24.0
           NShGPU=           0 NBGPU=           0 AvBGPU=         0.0
 IPart= 19 NShTot=      208627 NShNF=      208627 NShFF=           0 MinMC=       7
           NShCPU=      208627 NBCPU=        8584 AvBCPU=        24.3
           NShGPU=           0 NBGPU=           0 AvBGPU=         0.0
 IPart= 18 NShTot=      305560 NShNF=      305560 NShFF=           0 MinMC=       7
           NShCPU=      305560 NBCPU=       12320 AvBCPU=        24.8
           NShGPU=           0 NBGPU=           0 AvBGPU=         0.0
 IPart=  6 NShTot=      203141 NShNF=      203141 NShFF=           0 MinMC=       7
           NShCPU=      203141 NBCPU=        8751 AvBCPU=        23.2
           NShGPU=           0 NBGPU=           0 AvBGPU=         0.0
 IPart= 11 NShTot=      200892 NShNF=      200892 NShFF=           0 MinMC=       7
           NShCPU=      200892 NBCPU=        8637 AvBCPU=        23.3
           NShGPU=           0 NBGPU=           0 AvBGPU=         0.0
 IPart=  3 NShTot=      313334 NShNF=      313334 NShFF=           0 MinMC=       7
           NShCPU=      313334 NBCPU=       13093 AvBCPU=        23.9
           NShGPU=           0 NBGPU=           0 AvBGPU=         0.0
 IPart= 10 NShTot=      312215 NShNF=      312215 NShFF=           0 MinMC=       7
           NShCPU=      312215 NBCPU=       13059 AvBCPU=        23.9
           NShGPU=           0 NBGPU=           0 AvBGPU=         0.0
 IPart= 13 NShTot=      204846 NShNF=      204846 NShFF=           0 MinMC=       7
           NShCPU=      204846 NBCPU=        7932 AvBCPU=        25.8
           NShGPU=           0 NBGPU=           0 AvBGPU=         0.0
 IPart=  5 NShTot=      304296 NShNF=      304296 NShFF=           0 MinMC=       7
           NShCPU=      304296 NBCPU=       13383 AvBCPU=        22.7
           NShGPU=           0 NBGPU=           0 AvBGPU=         0.0
 IPart=  2 NShTot=      195071 NShNF=      195071 NShFF=           0 MinMC=       7
           NShCPU=      195071 NBCPU=        8474 AvBCPU=        23.0
           NShGPU=           0 NBGPU=           0 AvBGPU=         0.0
 CoulSu:  NxtVal=        7315457 LenVP=       33454670 MinMC=       7.
 ReadGW:  IGet=0 IStart=           1 Next=           1 LGW=           0.
 Remaining memory in FofDFT      639.93 Mw
 CkSvGd:  ISavGI=        -1 IRadAn=       5 IRASav=       5 ISavGd=        -1.
 CalDSu-InSpLW:  IPartL=    0 NPrtUS=   20 NPrtUL=    1 DoSpLW=F IThBeg=    0 IThEnd=   19 NThAct=   20.
 CalDSu:  NPrtUS=  20 ThrOK=T IAlg=1 NPAlg=2 DoDPD=T LenP=       35245 LenD1P=             0 GPUOK=F
          ISkipM=0 DoSpLW=F IThBeg=    0 IThEnd=   19.
 IPart=  0 IRanGd=          0 ScrnBf=T ScrnGd=T RCrit=4.00D+00 DoMicB=T.
 IPart=  0        10376 of        11908 points in      13 batches and       71 microbatches, Max-NSigAt=      11 Max-NSgAt2=      11
 IPart= 12        10138 of        10826 points in      11 batches and       62 microbatches, Max-NSigAt=      11 Max-NSgAt2=      11
 IPart=  3         9908 of        10414 points in      11 batches and       54 microbatches, Max-NSigAt=      11 Max-NSgAt2=      11
 IPart= 13        11141 of        13072 points in      15 batches and       94 microbatches, Max-NSigAt=      11 Max-NSgAt2=      11
 IPart=  1        10273 of        11072 points in      11 batches and       66 microbatches, Max-NSigAt=      11 Max-NSgAt2=      11
 IPart= 19        10191 of        10838 points in      11 batches and       60 microbatches, Max-NSigAt=      11 Max-NSgAt2=      11
 IPart= 11        12533 of        13546 points in      13 batches and       58 microbatches, Max-NSigAt=      11 Max-NSgAt2=      11
 IPart= 14        12642 of        14782 points in      17 batches and       67 microbatches, Max-NSigAt=      11 Max-NSgAt2=      11
 IPart=  7        11293 of        12020 points in      12 batches and       67 microbatches, Max-NSigAt=      11 Max-NSgAt2=      11
 IPart=  9        12443 of        14076 points in      14 batches and       69 microbatches, Max-NSigAt=      11 Max-NSgAt2=      11
 IPart= 10         9981 of        10662 points in      11 batches and       63 microbatches, Max-NSigAt=      11 Max-NSgAt2=      11
 IPart=  8        12133 of        13152 points in      13 batches and       44 microbatches, Max-NSigAt=      11 Max-NSgAt2=      11
 IPart=  5        11032 of        11924 points in      12 batches and       69 microbatches, Max-NSigAt=      11 Max-NSgAt2=      11
 IPart=  6        10833 of        11652 points in      11 batches and       61 microbatches, Max-NSigAt=      11 Max-NSgAt2=      11
 IPart=  2        10264 of        11076 points in      11 batches and       72 microbatches, Max-NSigAt=      11 Max-NSgAt2=      11
 IPart= 18        15012 of        17300 points in      20 batches and       66 microbatches, Max-NSigAt=      11 Max-NSgAt2=      11
 IPart= 15        11167 of        12090 points in      12 batches and       71 microbatches, Max-NSigAt=      11 Max-NSgAt2=      11
 IPart= 16        10068 of        10882 points in      11 batches and       69 microbatches, Max-NSigAt=      11 Max-NSgAt2=      11
 IPart= 17        11240 of        12576 points in      14 batches and       63 microbatches, Max-NSigAt=      11 Max-NSgAt2=      11
 IPart=  4        11036 of        12230 points in      12 batches and       74 microbatches, Max-NSigAt=      11 Max-NSgAt2=      11
 Polarizability after L703:
                1             2             3 
      1  0.000000D+00
      2  0.000000D+00  0.000000D+00
      3  0.000000D+00  0.000000D+00  0.000000D+00
 Dipole Derivatives after L703:
                 1             2             3             4             5 
      1  -0.495260D-01  0.920092D-01 -0.945367D-02  0.999792D-02  0.157286D+00
      2   0.210342D+00 -0.173328D+00 -0.797194D-02  0.660795D+00 -0.596781D+00
      3  -0.954858D-02 -0.617859D-02 -0.252492D+00  0.300409D-01 -0.187358D-01
                 6             7             8             9            10 
      1  -0.354798D-02 -0.733577D+00  0.431442D+00 -0.322871D-01 -0.630842D+00
      2  -0.320391D-01  0.263639D-01 -0.878811D+00  0.198894D-01  0.813619D-01
      3  -0.397377D+00 -0.486095D-02  0.667938D-02 -0.795966D+00  0.136249D-01
                11            12            13            14            15 
      1  -0.110153D+00  0.197365D-01 -0.717913D+00  0.293037D+00  0.150192D-02
      2  -0.829837D+00 -0.198932D-01  0.184826D-02 -0.540780D+00  0.431621D-02
      3  -0.168128D-01  0.158644D-01  0.365909D-02 -0.353950D-02  0.336538D-01
                16            17            18            19            20 
      1  -0.568689D-01 -0.152999D+00  0.203502D+00 -0.582977D-01 -0.167461D+00
      2   0.195389D+00  0.315123D+00 -0.280574D+00  0.200781D+00  0.334381D+00
      3  -0.162493D+00 -0.126806D+00  0.433703D+00  0.150296D+00  0.134714D+00
                21            22            23            24            25 
      1  -0.196058D+00  0.111191D+01 -0.201572D+00  0.244477D-01  0.187416D+00
      2   0.283528D+00 -0.384534D+00  0.233504D+00 -0.107307D-01 -0.235691D-01
      3   0.408133D+00  0.119582D-01 -0.290119D-02  0.101521D+00  0.121014D-02
                26            27            28            29            30 
      1  -0.204028D-01  0.127903D-02  0.979004D+00 -0.454845D+00 -0.216308D-01
      2   0.111525D+01  0.423608D-02 -0.344737D+00  0.398780D+00  0.108471D-01
      3   0.103074D-01  0.910063D-01 -0.969142D-02  0.730246D-02  0.963636D-01
                31            32            33 
      1  -0.413050D-01  0.133658D+00  0.125107D-01
      2  -0.624041D+00  0.622497D+00  0.283927D-01
      3  -0.241958D-01  0.159709D-01  0.265589D+00
 Hessian after L703:
                1             2             3             4             5 
      1  0.398039D+00
      2 -0.882384D-01  0.414997D+00
      3 -0.701466D-02 -0.768899D-02  0.749944D-01
      4  0.858696D-02 -0.271183D-02  0.261250D-03  0.412110D+00
      5 -0.222666D-01  0.210473D-01  0.140534D-02 -0.523570D-01  0.463723D+00
      6 -0.656066D-03 -0.203110D-03 -0.583232D-02 -0.158434D-01  0.123855D-01
      7 -0.915763D-01 -0.150973D-01  0.124460D-02 -0.120060D-01  0.272278D-02
      8  0.139104D-01 -0.212672D+00  0.453959D-02  0.117565D-01 -0.130726D-01
      9 -0.541103D-03  0.717999D-02 -0.611035D-01  0.591006D-03 -0.780859D-03
     10 -0.262034D+00  0.670993D-01  0.430407D-02  0.606831D-02  0.130652D-01
     11  0.234861D-01 -0.117611D+00  0.545145D-03 -0.393365D-01 -0.534425D-01
     12  0.575918D-02 -0.108438D-02 -0.410404D-01 -0.733842D-03 -0.169444D-02
     13 -0.463975D-01 -0.978030D-02  0.421211D-03 -0.114697D+00 -0.542670D-01
     14  0.477887D-01 -0.408567D-02 -0.908406D-03 -0.182949D-01 -0.294243D+00
     15  0.187187D-02  0.262500D-03  0.788946D-02  0.177846D-02 -0.279648D-02
     16  0.449291D-02  0.460328D-03 -0.370136D-02 -0.496431D-02 -0.384787D-03
     17 -0.983622D-02 -0.322288D-01  0.287859D-01 -0.826026D-03  0.270506D-02
     18 -0.295450D-02  0.625130D-02  0.583715D-02  0.304551D-02 -0.324839D-02
     19  0.516182D-02 -0.474469D-03  0.356296D-02 -0.656592D-02  0.523904D-03
     20 -0.908719D-02 -0.343010D-01 -0.266943D-01 -0.152203D-02  0.355877D-02
     21  0.415860D-02 -0.439961D-02  0.795854D-02 -0.351379D-02  0.336760D-02
     22  0.129718D-03  0.396781D-02  0.100596D-03 -0.535407D-03  0.159912D-03
     23  0.424313D-01 -0.189538D-01  0.329100D-03 -0.290219D-02  0.277131D-02
     24 -0.108799D-02  0.526078D-03  0.970584D-03 -0.217067D-03  0.711226D-04
     25 -0.849395D-02  0.389155D-01  0.841097D-04 -0.377349D-02 -0.197335D-02
     26  0.666152D-02 -0.127897D-01  0.687419D-04 -0.187518D-02  0.220219D-02
     27  0.224376D-03 -0.788407D-03  0.134684D-02  0.129742D-03 -0.254593D-03
     28 -0.786162D-03 -0.347644D-02  0.710867D-04  0.928972D-02 -0.230714D-02
     29 -0.369699D-02 -0.202190D-03 -0.157083D-03  0.309880D-01 -0.287273D-01
     30  0.101779D-03  0.165828D-03  0.117305D-01  0.515593D-03 -0.945480D-03
     31 -0.712204D-02  0.933569D-02  0.666144D-03 -0.293512D+00  0.117084D+00
     32 -0.115263D-02 -0.320016D-02 -0.225096D-03  0.770812D-01 -0.106522D+00
     33  0.138519D-03 -0.221192D-03 -0.275117D-02  0.139866D-01 -0.750936D-02
                6             7             8             9            10 
      6  0.532439D-01
      7 -0.147242D-03  0.630274D+00
      8 -0.217153D-03 -0.119638D-01  0.436213D+00
      9 -0.765536D-02  0.168488D-02  0.131284D-02  0.485006D+00
     10  0.245602D-03 -0.964127D-02  0.162202D-01  0.270734D-03  0.811434D+00
     11 -0.258524D-03  0.457803D-01 -0.317467D-01 -0.974289D-03  0.174756D+00
     12  0.106730D-01 -0.116270D-02  0.559740D-04 -0.256023D-02 -0.788530D-02
     13  0.108767D-02 -0.459438D-03 -0.681081D-02  0.324146D-03 -0.489510D+00
     14 -0.535838D-02 -0.366530D-02  0.237754D-01 -0.526225D-04 -0.233318D+00
     15 -0.407928D-01 -0.169875D-03  0.284557D-03  0.256027D-02  0.297242D-02
     16 -0.259852D-02 -0.952792D-01 -0.286349D-01  0.692523D-01  0.148798D-02
     17 -0.205672D-04 -0.250239D-01 -0.731877D-01  0.472714D-01 -0.637586D-02
     18  0.277030D-02  0.677767D-01  0.513463D-01 -0.192079D+00  0.637048D-03
[...]
    R9        2.04479  -0.00000   0.00000  -0.00000  -0.00000   2.04478
   R10        2.03835   0.00000   0.00000   0.00000   0.00000   2.03835
    A1        1.98208   0.00000   0.00000   0.00000   0.00000   1.98208
    A2        1.87242   0.00000   0.00000   0.00001   0.00001   1.87243
    A3        1.87229  -0.00000   0.00000  -0.00000  -0.00000   1.87229
    A4        1.93109   0.00000   0.00000   0.00000   0.00000   1.93110
    A5        1.93727   0.00000   0.00000   0.00000   0.00000   1.93727
    A6        1.90554   0.00000   0.00000   0.00000   0.00000   1.90554
    A7        1.91450  -0.00000   0.00000  -0.00000  -0.00000   1.91450
    A8        1.90278  -0.00000   0.00000  -0.00000  -0.00000   1.90277
    A9        2.08155  -0.00000   0.00000  -0.00000  -0.00000   2.08155
   A10        2.05343   0.00000   0.00000   0.00000   0.00000   2.05343
   A11        2.14729   0.00000   0.00000   0.00000   0.00000   2.14729
   A12        2.16216  -0.00000   0.00000  -0.00001  -0.00001   2.16215
   A13        1.98814   0.00000   0.00000   0.00001   0.00001   1.98815
   A14        2.13268   0.00000   0.00000   0.00000   0.00000   2.13269
    D1       -3.10486   0.00000   0.00000   0.00002   0.00002  -3.10483
    D2       -1.02791   0.00000   0.00000   0.00003   0.00003  -1.02789
    D3        1.08699   0.00000   0.00000   0.00003   0.00003   1.08701
    D4       -2.45356   0.00000   0.00000  -0.00001  -0.00001  -2.45357
    D5        0.73256  -0.00000   0.00000  -0.00003  -0.00003   0.73253
    D6       -0.00098  -0.00000   0.00000   0.00000   0.00000  -0.00098
    D7        3.11980   0.00000   0.00000   0.00001   0.00001   3.11981
    D8        0.03797   0.00000   0.00000   0.00000   0.00000   0.03797
    D9       -3.08114  -0.00000   0.00000  -0.00001  -0.00001  -3.08114
   D10        3.13251   0.00000   0.00000   0.00003   0.00003   3.13254
   D11        0.01340   0.00000   0.00000   0.00002   0.00002   0.01342
         Item               Value     Threshold  Converged?
 Maximum Force            0.000002     0.000015     YES
 RMS     Force            0.000001     0.000010     YES
 Maximum Displacement     0.000025     0.000060     YES
 RMS     Displacement     0.000012     0.000040     YES
 Predicted change in Energy=-5.657287D-11
 Optimization completed.
    -- Stationary point found.
                           ----------------------------
                           !   Optimized Parameters   !
                           ! (Angstroms and Degrees)  !
 --------------------------                            --------------------------
 ! Name  Definition              Value          Derivative Info.                !
 --------------------------------------------------------------------------------
 ! R1    R(1,3)                  1.4135         -DE/DX =    0.0                 !
 ! R2    R(1,4)                  1.3731         -DE/DX =    0.0                 !
 ! R3    R(2,5)                  1.3565         -DE/DX =    0.0                 !
 ! R4    R(2,11)                 0.9649         -DE/DX =    0.0                 !
 ! R5    R(3,6)                  1.0866         -DE/DX =    0.0                 !
 ! R6    R(3,7)                  1.0936         -DE/DX =    0.0                 !
 ! R7    R(3,8)                  1.0925         -DE/DX =    0.0                 !
 ! R8    R(4,5)                  1.3256         -DE/DX =    0.0                 !
 ! R9    R(4,9)                  1.0821         -DE/DX =    0.0                 !
 ! R10   R(5,10)                 1.0786         -DE/DX =    0.0                 !
 ! A1    A(3,1,4)              113.5647         -DE/DX =    0.0                 !
 ! A2    A(5,2,11)             107.2818         -DE/DX =    0.0                 !
 ! A3    A(1,3,6)              107.2745         -DE/DX =    0.0                 !
 ! A4    A(1,3,7)              110.6434         -DE/DX =    0.0                 !
 ! A5    A(1,3,8)              110.9975         -DE/DX =    0.0                 !
 ! A6    A(6,3,7)              109.1794         -DE/DX =    0.0                 !
 ! A7    A(6,3,8)              109.693          -DE/DX =    0.0                 !
 ! A8    A(7,3,8)              109.0211         -DE/DX =    0.0                 !
 ! A9    A(1,4,5)              119.2641         -DE/DX =    0.0                 !
 ! A10   A(1,4,9)              117.6529         -DE/DX =    0.0                 !
 ! A11   A(5,4,9)              123.0305         -DE/DX =    0.0                 !
 ! A12   A(2,5,4)              123.8828         -DE/DX =    0.0                 !
 ! A13   A(2,5,10)             113.9123         -DE/DX =    0.0                 !
 ! A14   A(4,5,10)             122.1938         -DE/DX =    0.0                 !
 ! D1    D(4,1,3,6)           -177.8951         -DE/DX =    0.0                 !
 ! D2    D(4,1,3,7)            -58.8951         -DE/DX =    0.0                 !
 ! D3    D(4,1,3,8)             62.2797         -DE/DX =    0.0                 !
 ! D4    D(3,1,4,5)           -140.5788         -DE/DX =    0.0                 !
 ! D5    D(3,1,4,9)             41.9728         -DE/DX =    0.0                 !
 ! D6    D(11,2,5,4)            -0.0559         -DE/DX =    0.0                 !
 ! D7    D(11,2,5,10)          178.7516         -DE/DX =    0.0                 !
 ! D8    D(1,4,5,2)              2.1756         -DE/DX =    0.0                 !
 ! D9    D(1,4,5,10)          -176.5363         -DE/DX =    0.0                 !
 ! D10   D(9,4,5,2)            179.4797         -DE/DX =    0.0                 !
 ! D11   D(9,4,5,10)             0.7678         -DE/DX =    0.0                 !
 --------------------------------------------------------------------------------
 GradGradGradGradGradGradGradGradGradGradGradGradGradGradGradGradGradGrad

 Leave Link  103 at Thu Sep  5 21:15:03 2019, MaxMem=   671088640 cpu:             104.5 elap:              52.4
 (Enter /shared/centos7/gaussian/g16/l9999.exe)

 ----------------------------------------------------------------------

 Electric dipole moment (input orientation):
 (Debye = 10**-18 statcoulomb cm , SI units = C m)
                  (au)            (Debye)         (10**-30 SI)
   Tot        0.864529D+00      0.219741D+01      0.732978D+01
   x          0.150506D+00      0.382548D+00      0.127604D+01
   y         -0.851194D+00     -0.216352D+01     -0.721673D+01
   z          0.150616D-01      0.382826D-01      0.127697D+00

 Dipole polarizability, Alpha (input orientation).
 (esu units = cm**3 , SI units = C**2 m**2 J**-1)
 Alpha(0;0):
               (au)            (10**-24 esu)      (10**-40 SI)
   iso        0.445369D+02      0.659968D+01      0.734314D+01
   aniso      0.248253D+02      0.367872D+01      0.409313D+01
   xx         0.409328D+02      0.606562D+01      0.674891D+01
   yx         0.390329D+01      0.578408D+00      0.643565D+00
   yy         0.585571D+02      0.867727D+01      0.965476D+01
   zx        -0.294694D+01     -0.436691D+00     -0.485885D+00
   zy         0.474175D+01      0.702654D+00      0.781808D+00
   zz         0.341207D+02      0.505616D+01      0.562574D+01

 ----------------------------------------------------------------------

 Dipole orientation:
     8         -2.29758107          0.31136054         -0.37494900
     8         -1.22908048          2.30921836         -5.06091392
     6         -2.68650048          0.94394382          2.19096459
     6          0.15684989          0.61891361         -1.15868360
     6          0.60617254          1.54966246         -3.44055708
     1         -4.65839419          0.56463721          2.62038529
     1         -1.49017605         -0.21306719          3.41598943
     1         -2.27100761          2.93718749          2.53268764
     1          1.64115220          0.00628779          0.10728762
     1          2.49431726          1.73216319         -4.18652667
     1         -2.83032037          2.03536817         -4.23262373

 Electric dipole moment (dipole orientation):
 (Debye = 10**-18 statcoulomb cm , SI units = C m)
                  (au)            (Debye)         (10**-30 SI)
   Tot        0.864529D+00      0.219741D+01      0.732978D+01
   x          0.000000D+00      0.000000D+00      0.000000D+00
   y          0.000000D+00      0.000000D+00      0.000000D+00
   z          0.864529D+00      0.219741D+01      0.732978D+01

 Dipole polarizability, Alpha (dipole orientation).
 (esu units = cm**3 , SI units = C**2 m**2 J**-1)
 Alpha(0;0):
               (au)            (10**-24 esu)      (10**-40 SI)
   iso        0.445369D+02      0.659968D+01      0.734314D+01
   aniso      0.248253D+02      0.367872D+01      0.409313D+01
   xx         0.432199D+02      0.640453D+01      0.712600D+01
   yx        -0.383700D+00     -0.568585D-01     -0.632637D-01
   yy         0.338938D+02      0.502254D+01      0.558833D+01
   zx        -0.565065D+01     -0.837340D+00     -0.931666D+00
   zy        -0.665789D+01     -0.986597D+00     -0.109774D+01
   zz         0.564969D+02      0.837198D+01      0.931508D+01

 ----------------------------------------------------------------------

 Test job not archived.
 1\1\GINC-C0191\Freq\RM062X\CC-pVTZ\C3H6O2\HARMS.N\05-Sep-2019\0\\#P Ge
 om=AllCheck Guess=TCheck SCRF=Check Test GenChk RM062X/CC-pVTZ Freq\\G
 aussian input prepared by ASE\\0,1\O,-1.1863941025,-0.0016975479,0.370
 4302058\O,-0.8913933249,2.5849290234,1.2697083841\C,-1.093292303,-1.35
 74457734,0.7595001232\C,0.0289621732,0.6331367342,0.2973314703\C,0.132
 4108835,1.8853366895,0.7198350075\H,-2.0999450889,-1.766451423,0.74749
 42361\H,-0.4693759111,-1.9179543341,0.0577630017\H,-0.6707930749,-1.44
 86511005,1.7628832815\H,0.8530347028,0.0905679191,-0.1469251247\H,1.04
 93585647,2.446886101,0.6340991034\H,-1.661600177,2.0037848718,1.282177
 8278\\Version=EM64L-G16RevA.03\State=1-A\HF=-268.3241864\RMSD=3.103e-0
 9\RMSF=1.252e-06\ZeroPoint=0.0911284\Thermal=0.0969967\Dipole=0.150505
 9,-0.8511944,0.0150616\DipoleDeriv=-0.7548443,-0.6703891,-0.0253599,-0
 .2342334,-1.3118706,0.006333,0.054948,0.0595824,-0.341004,-0.7184953,0
 .718835,0.3359435,0.1997673,-0.7306749,-0.1753938,0.1772879,-0.351785,
 -0.481216,0.2655789,-0.0669694,-0.003621,0.0890063,0.9890131,-0.086995
 ,-0.0236128,-0.1441753,0.3932905,0.5150281,0.7275681,-0.0541871,0.3569
 451,0.2302582,0.0869263,-0.0592799,0.0785934,-0.1270979,0.490257,-0.63
 39023,-0.3306143,-0.2719248,0.5792907,0.2950057,-0.2747602,0.4338967,0
 .1126285,-0.0841953,-0.0977434,0.0020885,-0.0409746,-0.0145785,0.00754
 37,-0.0081475,0.0110061,0.0733765,-0.0087581,0.1066864,0.0785603,0.005
 1395,-0.0623355,-0.0164019,0.0890557,-0.0741205,-0.0537561,0.0321301,0
 .0685109,-0.079549,-0.0369137,-0.0276899,-0.0264631,-0.0440116,0.08399
 47,-0.1218311,-0.0301381,-0.0425571,0.0570394,0.0503278,0.0356253,-0.0
 654843,0.0592336,-0.0859449,0.1097246,-0.0126733,-0.0199187,0.0415678,
 -0.0509471,0.0488006,-0.0155355,0.0438227,-0.0205388,0.1322065,0.30611
 02,-0.0901203,-0.0218681,-0.0661924,0.2641615,-0.0095352,-0.0145359,0.
 009491,0.3036786\Polar=40.9328173,3.9032885,58.5571197,-2.9469398,4.74
 17464,34.1206784\Quadrupole=1.8577633,-0.1709741,-1.6867893,0.8292023,
 -1.4082896,-0.6602277\PG=C01 [X(C3H6O2)]\NImag=0\\0.39133598,0.1007314
 7,0.48022199,-0.00879492,-0.07719503,0.09963825,0.01726564,0.00459961,
 -0.00374066,0.59116123,-0.00154086,-0.00060349,0.00435356,0.11115616,0
 .40448189,-0.00751098,0.00107395,-0.00436187,-0.11977711,0.10169531,0.
 10512981,-0.08871245,0.04064153,-0.00998485,0.00200390,0.00028836,0.00
 002950,0.62359446,0.00482007,-0.23256884,0.04774361,-0.00472817,0.0029
 3142,0.00256752,0.02457254,0.49314030,-0.00048034,0.05174679,-0.074038
 98,-0.00178692,-0.00103906,-0.00113229,-0.00063179,0.02342031,0.566022
 55,-0.26603271,-0.09851132,0.01949748,-0.02442508,0.05027028,0.0276997
 3,-0.00544789,-0.01766325,0.00336803,0.59256611,-0.06406562,-0.1387589
 0,0.00216969,0.01524607,-0.02571513,-0.02088897,-0.04596852,-0.0359818
 0,0.00362961,0.01169547,0.84699436,0.00665248,-0.00341360,-0.04584832,
 0.01492816,-0.02839322,-0.00017016,0.01026192,0.00703177,-0.00458256,-
 0.12992271,0.24074115,0.23639180,-0.03322460,-0.06131424,-0.00919791,-
 0.23372822,0.05991657,0.07685593,-0.00680472,0.00817893,-0.00046328,-0
 .09535264,-0.02449122,0.00489318,0.66370336,-0.01394875,-0.02612957,-0
 .00984939,0.10680322,-0.16926049,-0.07400054,0.00027416,0.00085150,-0.
 00159406,-0.05559676,-0.50955406,-0.14667529,0.11877433,0.84009052,0.0
 0413774,0.00132810,0.00946568,0.09314278,-0.06232888,-0.09266846,0.002
 66844,-0.00035695,0.00066524,-0.00498281,-0.15081169,-0.10886557,-0.11
 923460,0.21862203,0.23628303,0.00579483,0.00064742,0.00025531,0.000470
 21,-0.00034722,-0.00039134,-0.29493645,-0.09404153,-0.00406661,0.00177
 512,0.00034193,0.00000398,-0.00004304,0.00044687,0.00052092,0.31088002
 ,-0.03625481,-0.02446358,0.00331163,0.00084839,-0.00029992,-0.00019708
 ,-0.08064074,-0.07877951,-0.00224182,0.00320262,-0.00547665,0.00078041
 ,-0.00266510,0.00011595,0.00096062,0.10087294,0.09957536,0.01078971,0.
 00660473,-0.00016599,-0.00001906,0.00003774,-0.00004553,-0.00854468,-0
 .00370350,-0.05177526,-0.00016602,0.00166900,0.00049793,0.00054106,0.0
 0047852,0.00012534,0.00479975,-0.00231947,0.04838215,0.00061081,0.0056
 1217,-0.00075198,-0.00026656,0.00012827,-0.00011960,-0.13712963,0.0692
 9197,0.09716597,0.00168760,-0.00197689,-0.00169129,0.00039356,0.000089
 60,0.00000963,-0.01494587,0.01420460,0.02071132,0.14111463,0.01861359,
 -0.03928229,-0.01512368,-0.00067186,-0.00024403,-0.00006523,0.06473598
 ,-0.10383704,-0.07869540,0.00711966,0.00293834,-0.00171278,-0.00067476
 ,-0.00065788,0.00000515,-0.00553403,0.00764416,0.00787850,-0.08125621,
 0.12955446,-0.00741474,0.00821321,0.01231460,0.00018580,0.00014072,0.0
 0039321,0.09911966,-0.08279954,-0.16734931,-0.00121587,0.00020244,0.00
 069983,-0.00040362,0.00011014,-0.00022156,-0.00164560,0.00126194,0.001
 24244,-0.10664168,0.08742441,0.17187580,0.00178353,0.00267233,-0.00222
 685,-0.00097944,0.00033205,0.00071980,-0.09305157,0.00382852,-0.091718
 53,0.00080004,0.00094636,0.00193854,0.00138805,-0.00058680,-0.00094037
 ,-0.00917703,0.00114145,-0.02791061,0.00808613,-0.00082568,0.01831062,
 0.09111761,0.01279380,-0.02133199,0.03948459,0.00039632,-0.00024215,0.
 00003158,0.00009977,-0.04921963,0.00292537,0.00538510,0.00462784,0.000
 76052,-0.00085181,-0.00060401,-0.00097980,-0.00262403,0.00197583,-0.01
 058002,-0.00677845,0.00299100,-0.01357548,-0.00787776,0.06205093,-0.00
 267167,0.01256979,-0.00467442,-0.00034162,0.00010180,0.00032906,-0.090
 49498,0.00852057,-0.27046493,-0.00185911,-0.00109696,0.00129973,0.0013
 3610,0.00037268,-0.00036520,0.00074308,-0.00130102,0.00174223,-0.00899
 650,-0.00059491,-0.01856437,0.10198303,-0.01842830,0.29156474,-0.03127
 855,0.00581286,0.01309298,0.00293894,-0.00327855,0.00110909,0.00052101
 ,0.00497025,-0.00125237,-0.21003716,0.10903680,0.09383465,0.00522750,-
 0.00177300,-0.00249497,0.00032794,-0.00043718,-0.00018009,0.00042912,-
 0.00133675,-0.00032198,0.00002216,-0.00051206,0.00029908,0.23246056,-0
 .01693603,0.00636773,0.00766938,-0.00313142,-0.00309423,-0.00352941,-0
 .00247466,0.00456475,0.00149384,0.10937653,-0.13335847,-0.07085595,0.0
 2514960,-0.00618513,-0.01028650,0.00017075,0.00005522,-0.00011111,0.00
 094503,0.00030356,-0.00100358,0.00012804,-0.00041600,-0.00006731,-0.11
 239741,0.13234849,0.00085072,0.00215502,0.00227451,0.00292081,-0.00456
 722,0.00892973,-0.00005506,-0.00078303,0.00080679,0.09502224,-0.072425
 81,-0.08207992,0.00554971,-0.00138815,-0.00344136,-0.00032287,0.000173
 24,-0.00013382,0.00029427,0.00032268,-0.00009359,0.00024730,0.00008125
 ,-0.00055154,-0.10276323,0.07508000,0.07843324,0.00354940,0.00067425,0
 .00263837,-0.02638865,-0.01004111,0.00482247,-0.00030275,-0.00030580,0
 .00018590,0.00151556,0.00034138,0.00001991,-0.26035552,-0.13535569,0.0
 2137038,-0.00000213,-0.00003547,0.00000649,0.00003665,0.00003963,-0.00
 004091,-0.00009884,-0.00000584,-0.00005708,-0.00014329,-0.00006134,-0.
 00129795,0.28342838,-0.00042870,-0.00404585,-0.00351395,0.02022557,0.0
 1272787,-0.00206097,-0.00062493,0.00073457,-0.00123847,-0.02438120,-0.
 00496006,0.00520176,-0.14092197,-0.14446272,0.00400055,0.00007094,-0.0
 0031745,0.00011203,-0.00002279,-0.00027429,0.00005059,0.00010518,0.000
 00906,0.00013163,0.00090595,-0.00059188,0.00119822,0.14141083,0.142459
 05,0.00552578,-0.00416578,0.00787714,0.01448408,0.00714383,-0.00045123
 ,-0.00170785,-0.00099824,0.00072387,-0.01010893,-0.00315942,0.00254901
 ,0.02048155,0.00381735,-0.04044958,0.00001116,-0.00050623,0.00009013,0
 .00010239,0.00012101,-0.00011293,-0.00021441,-0.00008437,-0.00011383,-
 0.00099424,0.00119819,-0.00360037,-0.03008252,-0.00158586,0.03273602,-
 0.00109187,-0.00156609,-0.00078697,-0.32805197,-0.20688394,0.01656251,
 0.00026611,0.00107648,-0.00032005,0.00295106,-0.00110576,-0.00091883,-
 0.04120374,-0.01912720,0.00580286,-0.00014360,-0.00023670,-0.00002788,
 -0.00001643,-0.00020955,0.00006831,0.00010935,-0.00002505,0.00005966,-
 0.00046823,-0.00076910,-0.00044594,-0.00123880,0.00366111,0.00250299,0
 .36888813,-0.00378416,0.00059480,0.00094958,-0.25074388,-0.22068173,-0
 .00462615,-0.00090348,-0.00183570,0.00159291,0.00910286,-0.00075547,-0
 .00346477,0.01889966,0.01579590,-0.00015262,-0.00000403,-0.00002941,-0
 .00006641,-0.00023730,0.00086402,-0.00002485,0.00013629,0.00015912,-0.
 00020798,-0.00099092,0.00000597,0.00015379,0.00333916,-0.00127831,-0.0
 0178048,0.22518580,0.20716083,-0.00108379,0.00108282,-0.00248058,0.000
 00374,-0.01714457,-0.01595227,-0.00066030,-0.00064253,0.00112489,0.002
 66794,-0.00002905,0.00010821,0.01964189,0.01010673,-0.00052757,0.00009
 223,0.00007777,0.00004037,-0.00008253,0.00044027,-0.00018412,-0.000188
 52,0.00036466,-0.00020148,-0.00032893,0.00041246,-0.00054365,0.0024349
 4,-0.00229554,0.00075177,-0.02249667,0.00762696,0.01786442\\-0.0000008
 8,-0.00000023,0.00000007,0.00000197,0.00000136,0.00000086,0.00000019,-
 0.00000063,0.00000156,0.00000012,0.00000192,0.00000127,-0.00000180,-0.
 00000180,-0.00000008,0.00000050,-0.00000018,0.00000158,-0.00000082,0.0
 0000027,-0.00000131,0.00000147,-0.00000011,-0.00000098,-0.00000101,0.0
 0000015,-0.00000332,-0.00000112,0.00000011,-0.00000146,0.00000138,-0.0
 0000086,0.00000180\\\@


 THOUGH I SPEAK WITH THE TONGUES OF MEN AND OF ANGELS, 
 AND HAVE NOT LOVE,
 I AM BECOME AS SOUNDING BRASS, A TINKLING CYMBAL.
 AND THOUGH I HAVE THE GIFT OF PROPHECY,
 AND UNDERSTAND ALL MYSTERIES, AND ALL KNOWLEDGE.
 AND THOUGH I HAVE ALL FAITH, SO THAT I COULD REMOVE MOUNTAINS,
 AND HAVE NOT LOVE, I AM NOTHING.
 AND THOUGH I BESTOW ALL MY GOODS TO FEED THE POOR,
 AND THOUGH I GIVE MY BODY TO BE BURNED,
 AND HAVE NOT LOVE IT PROFITETH ME NOTHING.
 LOVE SUFFERETH LONG, AND IS KIND,
 LOVE ENVIETH NOT,
 LOVE VAUNTETH NOT ITSELF, IS NOT PUFFED UP,
 DOTH NOT BEHAVE ITSELF UNSEEMLY, SEEKETH NOT HER OWN,
 IS NOT EASILY PROVOKED, THINKETH NO EVIL,
 REJOICETH NOT IN INIQUITY, BUT REJOICETH IN THE TRUTH,
 BEARETH ALL THINGS, BELIEVETH ALL THINGS,
 HOPETH ALL THINGS, ENDURETH ALL THINGS.
 LOVE NEVER FAILETH, BUT WHETHER THERE BE PROPHECIES, THEY SHALL FAIL, 
 WHETHER THERE BE TONGUES, THEY SHALL CEASE,
 WHETHER THERE BE KNOWLEDGE, IT SHALL VANISH AWAY.
 FOR WE KNOW IN PART, AND WE PROPHESY IN PART.
 BUT WHEN THAT WHICH IS PERFECT IS COME, THEN THAT WHICH IS IN PART 
 SHALL BE DONE AWAY. 
 WHEN I WAS A CHILD, I SPAKE AS A CHILD, I UNDERSTOOD AS A CHILD, 
 I THOUGHT AS A CHILD.
 BUT WHEN I BECAME A MAN, I PUT AWAY CHILDISH THINGS.
 FOR NOW WE SEE THROUGH A GLASS, DARKLY, BUT THEN FACE TO FACE.
 NOW I KNOW IN PART. BUT THEN SHALL I KNOW EVEN AS ALSO I AM KNOWN.
 AND NOW ABIDETH FAITH, HOPE AND LOVE, THESE THREE.
 BUT THE GREATEST OF THESE IS LOVE.

                     I CORINTHIANS 13
 Job cpu time:       0 days  0 hours 53 minutes 21.9 seconds.
 Elapsed time:       0 days  0 hours 26 minutes 42.1 seconds.
 File lengths (MBytes):  RWF=   1312 Int=      0 D2E=      0 Chk=     32 Scr=     32
 Normal termination of Gaussian 16 at Thu Sep  5 21:15:04 2019.
