 Entering Gaussian System, Link 0=g16
 Input=tight/ts/CCC+[O]O_[CH2]CC+OO/conformers/CCC+[O]O_[CH2]CC+OO_forward_shell_4.com
 Output=tight/ts/CCC+[O]O_[CH2]CC+OO/conformers/CCC+[O]O_[CH2]CC+OO_forward_shell_4.log
 Initial command:
 /shared/centos7/gaussian/g16/l1.exe "/scratch/harms.n/gauss_scrdir/Gau-40157.inp" -scrdir="/scratch/harms.n/gauss_scrdir/"
 Entering Link 1 = /shared/centos7/gaussian/g16/l1.exe PID=     40159.
  
 Copyright (c) 1988,1990,1992,1993,1995,1998,2003,2009,2016,
            Gaussian, Inc.  All Rights Reserved.
  
 This is part of the Gaussian(R) 16 program.  It is based on
 the Gaussian(R) 09 system (copyright 2009, Gaussian, Inc.),
 the Gaussian(R) 03 system (copyright 2003, Gaussian, Inc.),
 the Gaussian(R) 98 system (copyright 1998, Gaussian, Inc.),
 the Gaussian(R) 94 system (copyright 1995, Gaussian, Inc.),
 the Gaussian 92(TM) system (copyright 1992, Gaussian, Inc.),
 the Gaussian 90(TM) system (copyright 1990, Gaussian, Inc.),
 the Gaussian 88(TM) system (copyright 1988, Gaussian, Inc.),
 the Gaussian 86(TM) system (copyright 1986, Carnegie Mellon
 University), and the Gaussian 82(TM) system (copyright 1983,
 Carnegie Mellon University). Gaussian is a federally registered
 trademark of Gaussian, Inc.
  
 This software contains proprietary and confidential information,
 including trade secrets, belonging to Gaussian, Inc.
  
 This software is provided under written license and may be
 used, copied, transmitted, or stored only in accord with that
 written license.
  
 The following legend is applicable only to US Government
 contracts under FAR:
  
                    RESTRICTED RIGHTS LEGEND
  
 Use, reproduction and disclosure by the US Government is
 subject to restrictions as set forth in subparagraphs (a)
 and (c) of the Commercial Computer Software - Restricted
 Rights clause in FAR 52.227-19.
  
 Gaussian, Inc.
 340 Quinnipiac St., Bldg. 40, Wallingford CT 06492
  
  
 ---------------------------------------------------------------
 Warning -- This program may not be used in any manner that
 competes with the business of Gaussian, Inc. or will provide
 assistance to any competitor of Gaussian, Inc.  The licensee
 of this program is prohibited from giving any competitor of
 Gaussian, Inc. access to this program.  By using this program,
 the user acknowledges that Gaussian, Inc. is engaged in the
 business of creating and licensing software in the field of
 computational chemistry and represents and warrants to the
 licensee that it is not a competitor of Gaussian, Inc. and that
 it will not use this program in any manner prohibited above.
 ---------------------------------------------------------------
  

 Cite this work as:
 Gaussian 16, Revision A.03,
 M. J. Frisch, G. W. Trucks, H. B. Schlegel, G. E. Scuseria, 
 M. A. Robb, J. R. Cheeseman, G. Scalmani, V. Barone, 
 G. A. Petersson, H. Nakatsuji, X. Li, M. Caricato, A. V. Marenich, 
 J. Bloino, B. G. Janesko, R. Gomperts, B. Mennucci, H. P. Hratchian, 
 J. V. Ortiz, A. F. Izmaylov, J. L. Sonnenberg, D. Williams-Young, 
 F. Ding, F. Lipparini, F. Egidi, J. Goings, B. Peng, A. Petrone, 
 T. Henderson, D. Ranasinghe, V. G. Zakrzewski, J. Gao, N. Rega, 
 G. Zheng, W. Liang, M. Hada, M. Ehara, K. Toyota, R. Fukuda, 
 J. Hasegawa, M. Ishida, T. Nakajima, Y. Honda, O. Kitao, H. Nakai, 
 T. Vreven, K. Throssell, J. A. Montgomery, Jr., J. E. Peralta, 
 F. Ogliaro, M. J. Bearpark, J. J. Heyd, E. N. Brothers, K. N. Kudin, 
 V. N. Staroverov, T. A. Keith, R. Kobayashi, J. Normand, 
 K. Raghavachari, A. P. Rendell, J. C. Burant, S. S. Iyengar, 
 J. Tomasi, M. Cossi, J. M. Millam, M. Klene, C. Adamo, R. Cammi, 
 J. W. Ochterski, R. L. Martin, K. Morokuma, O. Farkas, 
 J. B. Foresman, and D. J. Fox, Gaussian, Inc., Wallingford CT, 2016.
 
 ******************************************
 Gaussian 16:  EM64L-G16RevA.03 25-Dec-2016
                 5-Sep-2019 
 ******************************************
 %nprocshared=20
 Will use up to   20 processors via shared memory.
 %mem=5GB
 ----------------------------------------------------------------------
 #p m062x/cc-pVTZ Opt=(ModRedun,Loose,maxcycles=900) Int(Grid=SG1) scf=
 (maxcycle=900)
 ----------------------------------------------------------------------
 1/6=900,7=-1,18=120,19=15,26=2,38=1/1,3;
 2/9=110,12=2,17=6,18=5,40=1/2;
 3/5=16,6=1,11=2,25=1,30=1,71=1,74=-55,75=1/1,2,3;
 4//1;
 5/5=2,7=900,38=5/2;
 6/7=2,8=2,9=2,10=2,28=1/1;
 7//1,2,3,16;
 1/6=900,7=-1,18=20,19=15,26=2/3(2);
 2/9=110/2;
 99//99;
 2/9=110/2;
 3/5=16,6=1,11=2,25=1,30=1,71=1,74=-55,75=1/1,2,3;
 4/5=5,16=3,69=1/1;
 5/5=2,7=900,38=5/2;
 7//1,2,3,16;
 1/6=900,7=-1,18=20,19=15,26=2/3(-5);
 2/9=110/2;
 6/7=2,8=2,9=2,10=2,19=2,28=1/1;
 99/9=1/99;
 Leave Link    1 at Thu Sep  5 11:20:36 2019, MaxMem=   671088640 cpu:               5.7 elap:               2.9
 (Enter /shared/centos7/gaussian/g16/l101.exe)
 ------------------------------
 Gaussian input prepared by ASE
 ------------------------------
 Symbolic Z-matrix:
 Charge =  0 Multiplicity = 2
 O                     2.03584  -0.61555  -1.36922 
 O                     1.10067  -1.50093  -1.09811 
 C                    -0.29817  -0.17747   1.87583 
 C                     0.78575  -1.0553    1.26071 
 C                    -1.27962  -0.94142   2.75925 
 H                    -0.8715    0.33817   1.0759 
 H                     0.18092   0.62948   2.47045 
 H                     0.62977  -1.13768  -0.09658 
 H                     1.80538  -0.62749   1.36798 
 H                     0.76712  -2.10902   1.6121 
 H                    -1.78891  -1.74509   2.18566 
 H                    -2.05483  -0.25253   3.15604 
 H                    -0.75673  -1.40812   3.62116 
 H                     1.54635   0.11002  -1.83237 
 
 Add virtual bond connecting atoms H8         and O2         Dist= 2.20D+00.
 Add virtual bond connecting atoms H8         and C4         Dist= 2.59D+00.
 The following ModRedundant input section has been read:
 B       4       8 F                                                           
 B       2       8 F                                                           
 A       2       8       4 F                                                   
 
 ITRead=  0  0  0  0  0  0  0  0  0  0  0  0  0  0
 MicOpt= -1 -1 -1 -1 -1 -1 -1 -1 -1 -1 -1 -1 -1 -1
 NAtoms=     14 NQM=       14 NQMF=       0 NMMI=      0 NMMIF=      0
                NMic=       0 NMicF=      0.
                    Isotopes and Nuclear Properties:
 (Nuclear quadrupole moments (NQMom) in fm**2, nuclear magnetic moments (NMagM)
  in nuclear magnetons)

  Atom         1           2           3           4           5           6           7           8           9          10
 IAtWgt=          16          16          12          12          12           1           1           1           1           1
 AtmWgt=  15.9949146  15.9949146  12.0000000  12.0000000  12.0000000   1.0078250   1.0078250   1.0078250   1.0078250   1.0078250
 NucSpn=           0           0           0           0           0           1           1           1           1           1
 AtZEff=  -0.0000000  -0.0000000  -0.0000000  -0.0000000  -0.0000000  -0.0000000  -0.0000000  -0.0000000  -0.0000000  -0.0000000
 NQMom=    0.0000000   0.0000000   0.0000000   0.0000000   0.0000000   0.0000000   0.0000000   0.0000000   0.0000000   0.0000000
 NMagM=    0.0000000   0.0000000   0.0000000   0.0000000   0.0000000   2.7928460   2.7928460   2.7928460   2.7928460   2.7928460
 AtZNuc=   8.0000000   8.0000000   6.0000000   6.0000000   6.0000000   1.0000000   1.0000000   1.0000000   1.0000000   1.0000000

  Atom        11          12          13          14
 IAtWgt=           1           1           1           1
 AtmWgt=   1.0078250   1.0078250   1.0078250   1.0078250
 NucSpn=           1           1           1           1
 AtZEff=  -0.0000000  -0.0000000  -0.0000000  -0.0000000
 NQMom=    0.0000000   0.0000000   0.0000000   0.0000000
 NMagM=    2.7928460   2.7928460   2.7928460   2.7928460
 AtZNuc=   1.0000000   1.0000000   1.0000000   1.0000000
 Leave Link  101 at Thu Sep  5 11:20:38 2019, MaxMem=   671088640 cpu:               4.3 elap:               2.3
 (Enter /shared/centos7/gaussian/g16/l103.exe)

 GradGradGradGradGradGradGradGradGradGradGradGradGradGradGradGradGradGrad
 Berny optimization.
 Initialization pass.
                           ----------------------------
                           !    Initial Parameters    !
                           ! (Angstroms and Degrees)  !
 --------------------------                            --------------------------
 ! Name  Definition              Value          Derivative Info.                !
 --------------------------------------------------------------------------------
 ! R1    R(1,2)                  1.316          estimate D2E/DX2                !
 ! R2    R(1,14)                 0.9902         estimate D2E/DX2                !
 ! R3    R(2,8)                  1.1648         Frozen                          !
 ! R4    R(3,4)                  1.5244         estimate D2E/DX2                !
 ! R5    R(3,5)                  1.5255         estimate D2E/DX2                !
 ! R6    R(3,6)                  1.1111         estimate D2E/DX2                !
 ! R7    R(3,7)                  1.111          estimate D2E/DX2                !
 ! R8    R(4,8)                  1.3687         Frozen                          !
 ! R9    R(4,9)                  1.1109         estimate D2E/DX2                !
 ! R10   R(4,10)                 1.1109         estimate D2E/DX2                !
 ! R11   R(5,11)                 1.111          estimate D2E/DX2                !
 ! R12   R(5,12)                 1.1104         estimate D2E/DX2                !
 ! R13   R(5,13)                 1.1109         estimate D2E/DX2                !
 ! A1    A(2,1,14)             103.7711         estimate D2E/DX2                !
 ! A2    A(1,2,8)              104.7497         estimate D2E/DX2                !
 ! A3    A(4,3,5)              113.7499         estimate D2E/DX2                !
 ! A4    A(4,3,6)              110.0992         estimate D2E/DX2                !
 ! A5    A(4,3,7)              109.1239         estimate D2E/DX2                !
 ! A6    A(5,3,6)              108.5023         estimate D2E/DX2                !
 ! A7    A(5,3,7)              109.3427         estimate D2E/DX2                !
 ! A8    A(6,3,7)              105.7101         estimate D2E/DX2                !
 ! A9    A(3,4,8)              110.7186         estimate D2E/DX2                !
 ! A10   A(3,4,9)              113.072          estimate D2E/DX2                !
 ! A11   A(3,4,10)             113.9941         estimate D2E/DX2                !
 ! A12   A(8,4,9)              102.9159         estimate D2E/DX2                !
 ! A13   A(8,4,10)             104.7537         estimate D2E/DX2                !
 ! A14   A(9,4,10)             110.4941         estimate D2E/DX2                !
 ! A15   A(3,5,11)             110.9893         estimate D2E/DX2                !
 ! A16   A(3,5,12)             110.2066         estimate D2E/DX2                !
 ! A17   A(3,5,13)             110.9071         estimate D2E/DX2                !
 ! A18   A(11,5,12)            108.2551         estimate D2E/DX2                !
 ! A19   A(11,5,13)            108.2062         estimate D2E/DX2                !
 ! A20   A(12,5,13)            108.1793         estimate D2E/DX2                !
 ! A21   A(2,8,4)              145.6251         Frozen                          !
 ! D1    D(14,1,2,8)           -84.6977         estimate D2E/DX2                !
 ! D2    D(1,2,8,4)            -76.5157         estimate D2E/DX2                !
 ! D3    D(5,3,4,8)            112.5505         estimate D2E/DX2                !
 ! D4    D(5,3,4,9)           -132.5602         estimate D2E/DX2                !
 ! D5    D(5,3,4,10)            -5.2492         estimate D2E/DX2                !
 ! D6    D(6,3,4,8)             -9.4686         estimate D2E/DX2                !
 ! D7    D(6,3,4,9)            105.4206         estimate D2E/DX2                !
 ! D8    D(6,3,4,10)          -127.2683         estimate D2E/DX2                !
 ! D9    D(7,3,4,8)           -125.0668         estimate D2E/DX2                !
 ! D10   D(7,3,4,9)            -10.1775         estimate D2E/DX2                !
 ! D11   D(7,3,4,10)           117.1335         estimate D2E/DX2                !
 ! D12   D(4,3,5,11)           -58.7603         estimate D2E/DX2                !
 ! D13   D(4,3,5,12)          -178.6756         estimate D2E/DX2                !
 ! D14   D(4,3,5,13)            61.5567         estimate D2E/DX2                !
 ! D15   D(6,3,5,11)            64.1381         estimate D2E/DX2                !
 ! D16   D(6,3,5,12)           -55.7772         estimate D2E/DX2                !
 ! D17   D(6,3,5,13)          -175.5449         estimate D2E/DX2                !
 ! D18   D(7,3,5,11)           178.9777         estimate D2E/DX2                !
 ! D19   D(7,3,5,12)            59.0624         estimate D2E/DX2                !
 ! D20   D(7,3,5,13)           -60.7053         estimate D2E/DX2                !
 ! D21   D(3,4,8,2)            171.2842         estimate D2E/DX2                !
 ! D22   D(9,4,8,2)             50.1798         estimate D2E/DX2                !
 ! D23   D(10,4,8,2)           -65.4043         estimate D2E/DX2                !
 --------------------------------------------------------------------------------
 Trust Radius=3.00D-01 FncErr=1.00D-05 GrdErr=1.00D-04 EigMax=2.50D+02 EigMin=1.00D-04
 Number of steps in this run=    100 maximum allowed number of steps=    100.
 GradGradGradGradGradGradGradGradGradGradGradGradGradGradGradGradGradGrad

 Leave Link  103 at Thu Sep  5 11:20:39 2019, MaxMem=   671088640 cpu:               1.4 elap:               0.7
 (Enter /shared/centos7/gaussian/g16/l202.exe)
                          Input orientation:                          
 ---------------------------------------------------------------------
 Center     Atomic      Atomic             Coordinates (Angstroms)
 Number     Number       Type             X           Y           Z
 ---------------------------------------------------------------------
      1          8           0        2.035839   -0.615552   -1.369224
      2          8           0        1.100666   -1.500932   -1.098113
      3          6           0       -0.298166   -0.177473    1.875827
      4          6           0        0.785746   -1.055297    1.260712
      5          6           0       -1.279621   -0.941418    2.759248
      6          1           0       -0.871504    0.338175    1.075895
      7          1           0        0.180922    0.629482    2.470453
      8          1           0        0.629772   -1.137678   -0.096584
      9          1           0        1.805384   -0.627486    1.367980
     10          1           0        0.767118   -2.109019    1.612099
     11          1           0       -1.788911   -1.745089    2.185657
     12          1           0       -2.054829   -0.252534    3.156043
     13          1           0       -0.756730   -1.408125    3.621160
     14          1           0        1.546347    0.110023   -1.832374
 ---------------------------------------------------------------------
                    Distance matrix (angstroms):
                    1          2          3          4          5
     1  O    0.000000
     2  O    1.316034   0.000000
     3  C    4.021175   3.542964   0.000000
     4  C    2.944940   2.421119   1.524404   0.000000
     5  C    5.304973   4.567062   1.525549   2.554275   0.000000
     6  H    3.916739   3.463825   1.111080   2.173109   2.153508
     7  H    4.442291   4.256672   1.110983   2.160502   2.164328
     8  H    1.967041   1.164798   2.381904   1.368709   3.440941
     9  H    2.746914   2.709456   2.210281   1.110941   3.398739
    10  H    3.567686   2.797548   2.221544   1.110923   2.620760
    11  H    5.342447   4.380915   2.185346   2.821382   1.110977
    12  H    6.110924   5.441828   2.174961   3.507931   1.110386
    13  H    5.773261   5.072481   2.184256   2.841731   1.110910
    14  H    0.990238   1.825636   4.151582   3.391706   5.493143
                    6          7          8          9         10
     6  H    0.000000
     7  H    1.771229   0.000000
     8  H    2.409705   3.148651   0.000000
     9  H    2.860689   2.331157   1.946100   0.000000
    10  H    2.993553   2.929128   1.970270   1.825522   0.000000
    11  H    2.532429   3.098377   3.380473   3.851829   2.644750
    12  H    2.464997   2.499314   4.309309   4.270714   3.713985
    13  H    3.088868   2.520944   3.977078   3.500091   2.617191
    14  H    3.788943   4.544067   2.325905   3.294433   4.170821
                   11         12         13         14
    11  H    0.000000
    12  H    1.800022   0.000000
    13  H    1.799892   1.799107   0.000000
    14  H    5.541657   6.163134   6.111462   0.000000
 Stoichiometry    C3H9O2(2)
 Framework group  C1[X(C3H9O2)]
 Deg. of freedom    36
 Full point group                 C1      NOp   1
 Largest Abelian subgroup         C1      NOp   1
 Largest concise Abelian subgroup C1      NOp   1
                         Standard orientation:                         
 ---------------------------------------------------------------------
 Center     Atomic      Atomic             Coordinates (Angstroms)
 Number     Number       Type             X           Y           Z
 ---------------------------------------------------------------------
      1          8           0        2.566956    0.372285    0.017198
      2          8           0        1.857333   -0.709805   -0.222518
      3          6           0       -1.444284    0.574754   -0.179806
      4          6           0       -0.288825    0.008553    0.637591
      5          6           0       -2.691367   -0.303888   -0.171414
      6          1           0       -1.127600    0.727401   -1.233803
      7          1           0       -1.702689    1.584101    0.205846
      8          1           0        0.749207   -0.353716   -0.177649
      9          1           0        0.175684    0.758770    1.312569
     10          1           0       -0.543087   -0.915476    1.199437
     11          1           0       -2.467441   -1.316452   -0.569963
     12          1           0       -3.484797    0.150319   -0.801590
     13          1           0       -3.089754   -0.416909    0.859428
     14          1           0        2.643020    0.805612   -0.869939
 ---------------------------------------------------------------------
 Rotational constants (GHZ):          13.9563405           1.5489801           1.5071013
 Leave Link  202 at Thu Sep  5 11:20:41 2019, MaxMem=   671088640 cpu:               3.1 elap:               1.6
 (Enter /shared/centos7/gaussian/g16/l301.exe)
 Standard basis: CC-pVTZ (5D, 7F)
 Ernie: Thresh=  0.10000D-02 Tol=  0.10000D-05 Strict=F.
 Ernie:  15 primitive shells out of 202 were deleted.
 There are   310 symmetry adapted cartesian basis functions of A   symmetry.
 There are   276 symmetry adapted basis functions of A   symmetry.
   276 basis functions,   413 primitive gaussians,   310 cartesian basis functions
    22 alpha electrons       21 beta electrons
       nuclear repulsion energy       180.3845060958 Hartrees.
 IExCor= 4336 DFT=T Ex+Corr=M062X ExCW=0 ScaHFX=  0.540000
 ScaDFX=  1.000000  1.000000  1.000000  1.000000 ScalE2=  1.000000  1.000000
 IRadAn=      1 IRanWt=     -1 IRanGd=            0 ICorTp=0 IEmpDi=  4
 NAtoms=   14 NActive=   14 NUniq=   14 SFac= 1.00D+00 NAtFMM=   60 NAOKFM=F Big=F
 Integral buffers will be    131072 words long.
 Raffenetti 2 integral format.
 Two-electron integral symmetry is turned on.
 Leave Link  301 at Thu Sep  5 11:20:42 2019, MaxMem=   671088640 cpu:               2.3 elap:               1.2
 (Enter /shared/centos7/gaussian/g16/l302.exe)
 NPDir=0 NMtPBC=     1 NCelOv=     1 NCel=       1 NClECP=     1 NCelD=      1
         NCelK=      1 NCelE2=     1 NClLst=     1 CellRange=     0.0.
 One-electron integrals computed using PRISM.
 One-electron integral symmetry used in STVInt
 NBasis=   276 RedAO= T EigKep=  7.15D-04  NBF=   276
 NBsUse=   276 1.00D-06 EigRej= -1.00D+00 NBFU=   276
 Precomputing XC quadrature grid using
 IXCGrd= 4 IRadAn=           1 IRanWt=          -1 IRanGd=           0 AccXCQ= 0.00D+00.
 Generated NRdTot=       0 NPtTot=           0 NUsed=           0 NTot=          32
 NSgBfM=   310   310   310   310   310 MxSgAt=    14 MxSgA2=    14.
 Leave Link  302 at Thu Sep  5 11:21:50 2019, MaxMem=   671088640 cpu:             135.9 elap:              68.0
 (Enter /shared/centos7/gaussian/g16/l303.exe)
 DipDrv:  MaxL=1.
 Leave Link  303 at Thu Sep  5 11:21:55 2019, MaxMem=   671088640 cpu:               9.8 elap:               4.9
 (Enter /shared/centos7/gaussian/g16/l401.exe)
 ExpMin= 1.03D-01 ExpMax= 1.53D+04 ExpMxC= 5.22D+02 IAcc=1 IRadAn=         1 AccDes= 0.00D+00
 Harris functional with IExCor= 1009 and IRadAn=       1 diagonalized for initial guess.
 HarFok:  IExCor= 1009 AccDes= 0.00D+00 IRadAn=         1 IDoV= 1 UseB2=F ITyADJ=14
 ICtDFT=  3500011 ScaDFX=  1.000000  1.000000  1.000000  1.000000
 FoFCou: FMM=F IPFlag=           0 FMFlag=      100000 FMFlg1=           0
         NFxFlg=           0 DoJE=T BraDBF=F KetDBF=T FulRan=T
         wScrn=  0.000000 ICntrl=       500 IOpCl=  0 I1Cent=   200000004 NGrid=           0
         NMat0=    1 NMatS0=      1 NMatT0=    0 NMatD0=    1 NMtDS0=    0 NMtDT0=    0
 Petite list used in FoFCou.
 Harris En= -269.898978394731    
 JPrj=0 DoOrth=F DoCkMO=F.
 Initial guess <Sx>= 0.0000 <Sy>= 0.0000 <Sz>= 0.5000 <S**2>= 0.7500 S= 0.5000
 Leave Link  401 at Thu Sep  5 11:22:25 2019, MaxMem=   671088640 cpu:              60.7 elap:              30.4
 (Enter /shared/centos7/gaussian/g16/l502.exe)
 Integral symmetry usage will be decided dynamically.
 UHF open shell SCF:
 Using DIIS extrapolation, IDIIS=  1040.
 NGot=   671088640 LenX=   670887394 LenY=   670790853
 Requested convergence on RMS density matrix=1.00D-08 within 900 cycles.
 Requested convergence on MAX density matrix=1.00D-06.
 Requested convergence on             energy=1.00D-06.
 No special actions if energy rises.
 Fock matrices will be formed incrementally for  20 cycles.

 Cycle   1  Pass 1  IDiag  1:
 FoFJK:  IHMeth= 1 ICntrl=       0 DoSepK=F KAlg= 0 I1Cent=           0 FoldK=F
 IRaf= 940000000 NMat=       1 IRICut=       1 DoRegI=T DoRafI=F ISym2E= 0 IDoP0=0 IntGTp=1.
 FoFCou: FMM=F IPFlag=           0 FMFlag=      100000 FMFlg1=           0
         NFxFlg=           0 DoJE=F BraDBF=F KetDBF=F FulRan=T
         wScrn=  0.000000 ICntrl=         0 IOpCl=  1 I1Cent=           0 NGrid=           0
         NMat0=    1 NMatS0=      1 NMatT0=    0 NMatD0=    1 NMtDS0=    0 NMtDT0=    0
 Symmetry not used in FoFCou.
 E= -269.767364087684    
 DIIS: error= 2.91D-02 at cycle   1 NSaved=   1.
 NSaved= 1 IEnMin= 1 EnMin= -269.767364087684     IErMin= 1 ErrMin= 2.91D-02
 ErrMax= 2.91D-02  0.00D+00 EMaxC= 1.00D-01 BMatC= 8.81D-01 BMatP= 8.81D-01
 IDIUse=3 WtCom= 7.09D-01 WtEn= 2.91D-01
 Coeff-Com:  0.100D+01
 Coeff-En:   0.100D+01
 Coeff:      0.100D+01
 Gap=     0.343 Goal=   None    Shift=    0.000
 Gap=     0.340 Goal=   None    Shift=    0.000
 GapD=    0.340 DampG=1.000 DampE=0.500 DampFc=0.5000 IDamp=-1.
 Damping current iteration by 5.00D-01
 RMSDP=2.13D-03 MaxDP=1.04D-01              OVMax= 2.26D-01

 Cycle   2  Pass 1  IDiag  1:
 RMSU=  1.07D-03    CP:  9.98D-01
 E= -269.864951772310     Delta-E=       -0.097587684626 Rises=F Damp=T
 DIIS: error= 4.74D-03 at cycle   2 NSaved=   2.
 NSaved= 2 IEnMin= 2 EnMin= -269.864951772310     IErMin= 2 ErrMin= 4.74D-03
 ErrMax= 4.74D-03  0.00D+00 EMaxC= 1.00D-01 BMatC= 7.22D-02 BMatP= 8.81D-01
 IDIUse=3 WtCom= 9.53D-01 WtEn= 4.74D-02
 Coeff-Com: -0.921D-01 0.109D+01
 Coeff-En:   0.000D+00 0.100D+01
 Coeff:     -0.877D-01 0.109D+01
 Gap=     0.351 Goal=   None    Shift=    0.000
 Gap=     0.335 Goal=   None    Shift=    0.000
 RMSDP=5.37D-04 MaxDP=2.29D-02 DE=-9.76D-02 OVMax= 1.25D-01

 Cycle   3  Pass 1  IDiag  1:
 RMSU=  5.32D-04    CP:  1.00D+00  9.65D-01
 E= -269.960625022335     Delta-E=       -0.095673250025 Rises=F Damp=F
 DIIS: error= 4.45D-03 at cycle   3 NSaved=   3.
 NSaved= 3 IEnMin= 3 EnMin= -269.960625022335     IErMin= 3 ErrMin= 4.45D-03
 ErrMax= 4.45D-03  0.00D+00 EMaxC= 1.00D-01 BMatC= 2.01D-02 BMatP= 7.22D-02
 IDIUse=3 WtCom= 9.55D-01 WtEn= 4.45D-02
 Coeff-Com: -0.803D-01 0.362D+00 0.719D+00
 Coeff-En:   0.000D+00 0.000D+00 0.100D+01
 Coeff:     -0.768D-01 0.346D+00 0.731D+00
 Gap=     0.338 Goal=   None    Shift=    0.000
 Gap=     0.265 Goal=   None    Shift=    0.000
 RMSDP=2.35D-04 MaxDP=7.75D-03 DE=-9.57D-02 OVMax= 6.75D-02

 Cycle   4  Pass 1  IDiag  1:
 RMSU=  2.05D-04    CP:  1.00D+00  1.04D+00  8.42D-01
 E= -269.964756649564     Delta-E=       -0.004131627229 Rises=F Damp=F
 DIIS: error= 2.10D-03 at cycle   4 NSaved=   4.
 NSaved= 4 IEnMin= 4 EnMin= -269.964756649564     IErMin= 4 ErrMin= 2.10D-03
 ErrMax= 2.10D-03  0.00D+00 EMaxC= 1.00D-01 BMatC= 6.49D-03 BMatP= 2.01D-02
 IDIUse=3 WtCom= 9.79D-01 WtEn= 2.10D-02
 Coeff-Com: -0.285D-01 0.679D-01 0.385D+00 0.576D+00
 Coeff-En:   0.000D+00 0.000D+00 0.727D-01 0.927D+00
 Coeff:     -0.279D-01 0.665D-01 0.378D+00 0.583D+00
 Gap=     0.338 Goal=   None    Shift=    0.000
 Gap=     0.269 Goal=   None    Shift=    0.000
 RMSDP=9.96D-05 MaxDP=4.18D-03 DE=-4.13D-03 OVMax= 1.07D-02

 Cycle   5  Pass 1  IDiag  1:
 RMSU=  6.60D-05    CP:  1.00D+00  1.03D+00  9.58D-01  7.99D-01
 E= -269.966099300698     Delta-E=       -0.001342651134 Rises=F Damp=F
 DIIS: error= 4.05D-04 at cycle   5 NSaved=   5.
 NSaved= 5 IEnMin= 5 EnMin= -269.966099300698     IErMin= 5 ErrMin= 4.05D-04
 ErrMax= 4.05D-04  0.00D+00 EMaxC= 1.00D-01 BMatC= 2.56D-04 BMatP= 6.49D-03
 IDIUse=3 WtCom= 9.96D-01 WtEn= 4.05D-03
 Coeff-Com:  0.529D-02-0.257D-01 0.573D-02 0.711D-01 0.944D+00
 Coeff-En:   0.000D+00 0.000D+00 0.000D+00 0.000D+00 0.100D+01
 Coeff:      0.527D-02-0.256D-01 0.570D-02 0.708D-01 0.944D+00
 Gap=     0.340 Goal=   None    Shift=    0.000
 Gap=     0.272 Goal=   None    Shift=    0.000
 RMSDP=4.99D-05 MaxDP=1.79D-03 DE=-1.34D-03 OVMax= 1.47D-02

 Cycle   6  Pass 1  IDiag  1:
 RMSU=  2.44D-05    CP:  1.00D+00  1.02D+00  9.87D-01  9.49D-01  1.39D+00
 E= -269.966293870105     Delta-E=       -0.000194569407 Rises=F Damp=F
 DIIS: error= 3.13D-04 at cycle   6 NSaved=   6.
 NSaved= 6 IEnMin= 6 EnMin= -269.966293870105     IErMin= 6 ErrMin= 3.13D-04
 ErrMax= 3.13D-04  0.00D+00 EMaxC= 1.00D-01 BMatC= 1.05D-04 BMatP= 2.56D-04
 IDIUse=3 WtCom= 9.97D-01 WtEn= 3.13D-03
 Coeff-Com:  0.765D-02-0.200D-01-0.708D-01-0.136D+00 0.267D+00 0.952D+00
 Coeff-En:   0.000D+00 0.000D+00 0.000D+00 0.000D+00 0.000D+00 0.100D+01
 Coeff:      0.763D-02-0.199D-01-0.706D-01-0.135D+00 0.266D+00 0.952D+00
 Gap=     0.341 Goal=   None    Shift=    0.000
 Gap=     0.274 Goal=   None    Shift=    0.000
 RMSDP=3.62D-05 MaxDP=1.18D-03 DE=-1.95D-04 OVMax= 9.52D-03

 Cycle   7  Pass 1  IDiag  1:
 RMSU=  1.38D-05    CP:  1.00D+00  1.02D+00  1.01D+00  1.01D+00  1.80D+00
                    CP:  1.31D+00
 E= -269.966365364534     Delta-E=       -0.000071494429 Rises=F Damp=F
 DIIS: error= 1.40D-04 at cycle   7 NSaved=   7.
 NSaved= 7 IEnMin= 7 EnMin= -269.966365364534     IErMin= 7 ErrMin= 1.40D-04
 ErrMax= 1.40D-04  0.00D+00 EMaxC= 1.00D-01 BMatC= 3.85D-05 BMatP= 1.05D-04
 IDIUse=3 WtCom= 9.99D-01 WtEn= 1.40D-03
 Coeff-Com:  0.271D-02-0.430D-02-0.370D-01-0.102D+00-0.927D-01 0.514D+00
 Coeff-Com:  0.719D+00
 Coeff-En:   0.000D+00 0.000D+00 0.000D+00 0.000D+00 0.000D+00 0.000D+00
 Coeff-En:   0.100D+01
 Coeff:      0.271D-02-0.430D-02-0.370D-01-0.101D+00-0.926D-01 0.513D+00
 Coeff:      0.720D+00
 Gap=     0.342 Goal=   None    Shift=    0.000
 Gap=     0.274 Goal=   None    Shift=    0.000
 RMSDP=1.80D-05 MaxDP=6.23D-04 DE=-7.15D-05 OVMax= 5.11D-03

 Cycle   8  Pass 1  IDiag  1:
 RMSU=  5.99D-06    CP:  1.00D+00  1.02D+00  1.02D+00  1.05D+00  1.99D+00
                    CP:  1.62D+00  1.11D+00
 E= -269.966383731446     Delta-E=       -0.000018366912 Rises=F Damp=F
 DIIS: error= 6.09D-05 at cycle   8 NSaved=   8.
 NSaved= 8 IEnMin= 8 EnMin= -269.966383731446     IErMin= 8 ErrMin= 6.09D-05
 ErrMax= 6.09D-05  0.00D+00 EMaxC= 1.00D-01 BMatC= 4.35D-06 BMatP= 3.85D-05
 IDIUse=1 WtCom= 1.00D+00 WtEn= 0.00D+00
 Coeff-Com: -0.896D-03 0.312D-02 0.939D-02 0.322D-02-0.417D-01-0.728D-01
 Coeff-Com:  0.142D+00 0.957D+00
 Coeff:     -0.896D-03 0.312D-02 0.939D-02 0.322D-02-0.417D-01-0.728D-01
 Coeff:      0.142D+00 0.957D+00
 Gap=     0.342 Goal=   None    Shift=    0.000
 Gap=     0.274 Goal=   None    Shift=    0.000
 RMSDP=7.35D-06 MaxDP=3.10D-04 DE=-1.84D-05 OVMax= 2.32D-03

 Cycle   9  Pass 1  IDiag  1:
 RMSU=  3.29D-06    CP:  1.00D+00  1.02D+00  1.02D+00  1.05D+00  2.04D+00
                    CP:  1.74D+00  1.37D+00  1.39D+00
 E= -269.966387241393     Delta-E=       -0.000003509948 Rises=F Damp=F
 DIIS: error= 3.27D-05 at cycle   9 NSaved=   9.
 NSaved= 9 IEnMin= 9 EnMin= -269.966387241393     IErMin= 9 ErrMin= 3.27D-05
 ErrMax= 3.27D-05  0.00D+00 EMaxC= 1.00D-01 BMatC= 1.69D-06 BMatP= 4.35D-06
 IDIUse=1 WtCom= 1.00D+00 WtEn= 0.00D+00
 Coeff-Com: -0.106D-02 0.215D-02 0.154D-01 0.294D-01 0.140D-01-0.205D+00
 Coeff-Com: -0.164D+00 0.413D+00 0.896D+00
 Coeff:     -0.106D-02 0.215D-02 0.154D-01 0.294D-01 0.140D-01-0.205D+00
 Coeff:     -0.164D+00 0.413D+00 0.896D+00
 Gap=     0.342 Goal=   None    Shift=    0.000
 Gap=     0.274 Goal=   None    Shift=    0.000
 RMSDP=5.91D-06 MaxDP=2.63D-04 DE=-3.51D-06 OVMax= 1.77D-03

 Cycle  10  Pass 1  IDiag  1:
 RMSU=  1.57D-06    CP:  1.00D+00  1.01D+00  1.02D+00  1.06D+00  2.09D+00
                    CP:  1.82D+00  1.55D+00  1.86D+00  1.32D+00
 E= -269.966388919916     Delta-E=       -0.000001678523 Rises=F Damp=F
 DIIS: error= 1.67D-05 at cycle  10 NSaved=  10.
 NSaved=10 IEnMin=10 EnMin= -269.966388919916     IErMin=10 ErrMin= 1.67D-05
 ErrMax= 1.67D-05  0.00D+00 EMaxC= 1.00D-01 BMatC= 2.01D-07 BMatP= 1.69D-06
 IDIUse=1 WtCom= 1.00D+00 WtEn= 0.00D+00
 Coeff-Com:  0.348D-03-0.883D-03-0.289D-02-0.437D-02 0.972D-02 0.266D-01
 Coeff-Com: -0.103D-01-0.230D+00-0.104D+00 0.132D+01
 Coeff:      0.348D-03-0.883D-03-0.289D-02-0.437D-02 0.972D-02 0.266D-01
 Coeff:     -0.103D-01-0.230D+00-0.104D+00 0.132D+01
 Gap=     0.342 Goal=   None    Shift=    0.000
 Gap=     0.274 Goal=   None    Shift=    0.000
 RMSDP=3.39D-06 MaxDP=1.77D-04 DE=-1.68D-06 OVMax= 9.70D-04

 Cycle  11  Pass 1  IDiag  1:
 RMSU=  7.96D-07    CP:  1.00D+00  1.01D+00  1.02D+00  1.06D+00  2.11D+00
                    CP:  1.85D+00  1.64D+00  2.12D+00  1.78D+00  1.70D+00
 E= -269.966389344457     Delta-E=       -0.000000424541 Rises=F Damp=F
 DIIS: error= 8.03D-06 at cycle  11 NSaved=  11.
 NSaved=11 IEnMin=11 EnMin= -269.966389344457     IErMin=11 ErrMin= 8.03D-06
 ErrMax= 8.03D-06  0.00D+00 EMaxC= 1.00D-01 BMatC= 3.66D-08 BMatP= 2.01D-07
 IDIUse=1 WtCom= 1.00D+00 WtEn= 0.00D+00
 Coeff-Com:  0.191D-03-0.396D-03-0.295D-02-0.533D-02-0.180D-02 0.377D-01
 Coeff-Com:  0.312D-01-0.912D-01-0.166D+00 0.645D-01 0.113D+01
 Coeff:      0.191D-03-0.396D-03-0.295D-02-0.533D-02-0.180D-02 0.377D-01
 Coeff:      0.312D-01-0.912D-01-0.166D+00 0.645D-01 0.113D+01
 Gap=     0.342 Goal=   None    Shift=    0.000
 Gap=     0.274 Goal=   None    Shift=    0.000
 RMSDP=1.35D-06 MaxDP=7.39D-05 DE=-4.25D-07 OVMax= 4.49D-04

 Cycle  12  Pass 1  IDiag  1:
 RMSU=  3.41D-07    CP:  1.00D+00  1.01D+00  1.02D+00  1.06D+00  2.12D+00
                    CP:  1.86D+00  1.67D+00  2.22D+00  1.96D+00  2.16D+00
                    CP:  1.54D+00
 E= -269.966389421597     Delta-E=       -0.000000077140 Rises=F Damp=F
 DIIS: error= 3.42D-06 at cycle  12 NSaved=  12.
 NSaved=12 IEnMin=12 EnMin= -269.966389421597     IErMin=12 ErrMin= 3.42D-06
 ErrMax= 3.42D-06  0.00D+00 EMaxC= 1.00D-01 BMatC= 8.19D-09 BMatP= 3.66D-08
 IDIUse=1 WtCom= 1.00D+00 WtEn= 0.00D+00
 Coeff-Com: -0.119D-03 0.275D-03 0.909D-03 0.178D-02-0.214D-02-0.101D-01
 Coeff-Com: -0.114D-02 0.570D-01 0.574D-01-0.302D+00-0.250D+00 0.145D+01
 Coeff:     -0.119D-03 0.275D-03 0.909D-03 0.178D-02-0.214D-02-0.101D-01
 Coeff:     -0.114D-02 0.570D-01 0.574D-01-0.302D+00-0.250D+00 0.145D+01
 Gap=     0.342 Goal=   None    Shift=    0.000
 Gap=     0.274 Goal=   None    Shift=    0.000
 RMSDP=7.88D-07 MaxDP=3.95D-05 DE=-7.71D-08 OVMax= 2.86D-04

 Cycle  13  Pass 1  IDiag  1:
 RMSU=  1.30D-07    CP:  1.00D+00  1.01D+00  1.02D+00  1.06D+00  2.12D+00
                    CP:  1.87D+00  1.68D+00  2.26D+00  2.05D+00  2.41D+00
                    CP:  2.06D+00  1.76D+00
 E= -269.966389439660     Delta-E=       -0.000000018063 Rises=F Damp=F
 DIIS: error= 8.64D-07 at cycle  13 NSaved=  13.
 NSaved=13 IEnMin=13 EnMin= -269.966389439660     IErMin=13 ErrMin= 8.64D-07
 ErrMax= 8.64D-07  0.00D+00 EMaxC= 1.00D-01 BMatC= 7.71D-10 BMatP= 8.19D-09
 IDIUse=1 WtCom= 1.00D+00 WtEn= 0.00D+00
 Coeff-Com: -0.177D-04 0.410D-04 0.328D-03 0.636D-03 0.833D-04-0.440D-02
 Coeff-Com: -0.451D-02 0.986D-02 0.215D-01 0.115D-01-0.167D+00-0.547D-01
 Coeff-Com:  0.119D+01
 Coeff:     -0.177D-04 0.410D-04 0.328D-03 0.636D-03 0.833D-04-0.440D-02
 Coeff:     -0.451D-02 0.986D-02 0.215D-01 0.115D-01-0.167D+00-0.547D-01
 Coeff:      0.119D+01
 Gap=     0.342 Goal=   None    Shift=    0.000
 Gap=     0.274 Goal=   None    Shift=    0.000
 RMSDP=2.16D-07 MaxDP=9.14D-06 DE=-1.81D-08 OVMax= 7.70D-05

 Cycle  14  Pass 1  IDiag  1:
 RMSU=  4.10D-08    CP:  1.00D+00  1.01D+00  1.02D+00  1.06D+00  2.12D+00
                    CP:  1.87D+00  1.68D+00  2.27D+00  2.06D+00  2.47D+00
                    CP:  2.20D+00  2.08D+00  1.46D+00
 E= -269.966389440964     Delta-E=       -0.000000001304 Rises=F Damp=F
 DIIS: error= 2.70D-07 at cycle  14 NSaved=  14.
 NSaved=14 IEnMin=14 EnMin= -269.966389440964     IErMin=14 ErrMin= 2.70D-07
 ErrMax= 2.70D-07  0.00D+00 EMaxC= 1.00D-01 BMatC= 7.33D-11 BMatP= 7.71D-10
 IDIUse=1 WtCom= 1.00D+00 WtEn= 0.00D+00
 Coeff-Com:  0.138D-04-0.309D-04-0.120D-03-0.186D-03 0.100D-03 0.135D-02
 Coeff-Com:  0.429D-03-0.631D-02-0.647D-02 0.308D-01 0.274D-01-0.141D+00
 Coeff-Com: -0.400D-01 0.113D+01
 Coeff:      0.138D-04-0.309D-04-0.120D-03-0.186D-03 0.100D-03 0.135D-02
 Coeff:      0.429D-03-0.631D-02-0.647D-02 0.308D-01 0.274D-01-0.141D+00
 Coeff:     -0.400D-01 0.113D+01
 Gap=     0.342 Goal=   None    Shift=    0.000
 Gap=     0.274 Goal=   None    Shift=    0.000
 RMSDP=4.93D-08 MaxDP=1.43D-06 DE=-1.30D-09 OVMax= 1.49D-05

 Cycle  15  Pass 1  IDiag  1:
 RMSU=  1.23D-08    CP:  1.00D+00  1.01D+00  1.02D+00  1.06D+00  2.12D+00
                    CP:  1.87D+00  1.68D+00  2.28D+00  2.06D+00  2.48D+00
                    CP:  2.23D+00  2.15D+00  1.63D+00  1.42D+00
 E= -269.966389441039     Delta-E=       -0.000000000075 Rises=F Damp=F
 DIIS: error= 8.39D-08 at cycle  15 NSaved=  15.
 NSaved=15 IEnMin=15 EnMin= -269.966389441039     IErMin=15 ErrMin= 8.39D-08
 ErrMax= 8.39D-08  0.00D+00 EMaxC= 1.00D-01 BMatC= 8.23D-12 BMatP= 7.33D-11
 IDIUse=1 WtCom= 1.00D+00 WtEn= 0.00D+00
 Coeff-Com: -0.902D-06 0.153D-05-0.962D-05-0.289D-05-0.662D-05 0.153D-03
 Coeff-Com:  0.198D-03-0.402D-03-0.383D-03-0.219D-02 0.799D-02 0.104D-01
 Coeff-Com: -0.759D-01-0.978D-01 0.116D+01
 Coeff:     -0.902D-06 0.153D-05-0.962D-05-0.289D-05-0.662D-05 0.153D-03
 Coeff:      0.198D-03-0.402D-03-0.383D-03-0.219D-02 0.799D-02 0.104D-01
 Coeff:     -0.759D-01-0.978D-01 0.116D+01
 Gap=     0.342 Goal=   None    Shift=    0.000
 Gap=     0.274 Goal=   None    Shift=    0.000
 RMSDP=1.39D-08 MaxDP=3.88D-07 DE=-7.49D-11 OVMax= 2.91D-06

 Cycle  16  Pass 1  IDiag  1:
 RMSU=  3.99D-09    CP:  1.00D+00  1.01D+00  1.02D+00  1.06D+00  2.12D+00
                    CP:  1.87D+00  1.68D+00  2.28D+00  2.06D+00  2.48D+00
                    CP:  2.23D+00  2.16D+00  1.67D+00  1.57D+00  1.33D+00
 E= -269.966389441048     Delta-E=       -0.000000000010 Rises=F Damp=F
 DIIS: error= 2.49D-08 at cycle  16 NSaved=  16.
 NSaved=16 IEnMin=16 EnMin= -269.966389441048     IErMin=16 ErrMin= 2.49D-08
 ErrMax= 2.49D-08  0.00D+00 EMaxC= 1.00D-01 BMatC= 9.87D-13 BMatP= 8.23D-12
 IDIUse=1 WtCom= 1.00D+00 WtEn= 0.00D+00
 Coeff-Com: -0.126D-05 0.272D-05 0.561D-05 0.109D-04-0.969D-05-0.562D-04
 Coeff-Com:  0.697D-05 0.377D-03 0.385D-03-0.288D-02-0.518D-03 0.138D-01
 Coeff-Com: -0.116D-01-0.125D+00 0.252D+00 0.873D+00
 Coeff:     -0.126D-05 0.272D-05 0.561D-05 0.109D-04-0.969D-05-0.562D-04
 Coeff:      0.697D-05 0.377D-03 0.385D-03-0.288D-02-0.518D-03 0.138D-01
 Coeff:     -0.116D-01-0.125D+00 0.252D+00 0.873D+00
 Gap=     0.342 Goal=   None    Shift=    0.000
 Gap=     0.274 Goal=   None    Shift=    0.000
 RMSDP=2.94D-09 MaxDP=1.28D-07 DE=-9.61D-12 OVMax= 5.82D-07

 SCF Done:  E(UM062X) =  -269.966389441     A.U. after   16 cycles
            NFock= 16  Conv=0.29D-08     -V/T= 2.0058
 <Sx>= 0.0000 <Sy>= 0.0000 <Sz>= 0.5000 <S**2>= 0.7600 S= 0.5050
 <L.S>= 0.000000000000E+00
 KE= 2.683993913175D+02 PE=-9.926604009227D+02 EE= 2.739101140684D+02
 Annihilation of the first spin contaminant:
 S**2 before annihilation     0.7600,   after     0.7500
 Leave Link  502 at Thu Sep  5 11:39:23 2019, MaxMem=   671088640 cpu:            2034.2 elap:            1017.2
 (Enter /shared/centos7/gaussian/g16/l601.exe)
 Copying SCF densities to generalized density rwf, IOpCl= 1 IROHF=0.

 **********************************************************************

            Population analysis using the SCF density.

 **********************************************************************

 Orbital symmetries:
 Alpha Orbitals:
       Occupied  (A) (A) (A) (A) (A) (A) (A) (A) (A) (A) (A) (A)
                 (A) (A) (A) (A) (A) (A) (A) (A) (A) (A)
       Virtual   (A) (A) (A) (A) (A) (A) (A) (A) (A) (A) (A) (A)
                 (A) (A) (A) (A) (A) (A) (A) (A) (A) (A) (A) (A)
                 (A) (A) (A) (A) (A) (A) (A) (A) (A) (A) (A) (A)
                 (A) (A) (A) (A) (A) (A) (A) (A) (A) (A) (A) (A)
                 (A) (A) (A) (A) (A) (A) (A) (A) (A) (A) (A) (A)
                 (A) (A) (A) (A) (A) (A) (A) (A) (A) (A) (A) (A)
                 (A) (A) (A) (A) (A) (A) (A) (A) (A) (A) (A) (A)
                 (A) (A) (A) (A) (A) (A) (A) (A) (A) (A) (A) (A)
                 (A) (A) (A) (A) (A) (A) (A) (A) (A) (A) (A) (A)
                 (A) (A) (A) (A) (A) (A) (A) (A) (A) (A) (A) (A)
                 (A) (A) (A) (A) (A) (A) (A) (A) (A) (A) (A) (A)
                 (A) (A) (A) (A) (A) (A) (A) (A) (A) (A) (A) (A)
                 (A) (A) (A) (A) (A) (A) (A) (A) (A) (A) (A) (A)
                 (A) (A) (A) (A) (A) (A) (A) (A) (A) (A) (A) (A)
                 (A) (A) (A) (A) (A) (A) (A) (A) (A) (A) (A) (A)
                 (A) (A) (A) (A) (A) (A) (A) (A) (A) (A) (A) (A)
                 (A) (A) (A) (A) (A) (A) (A) (A) (A) (A) (A) (A)
                 (A) (A) (A) (A) (A) (A) (A) (A) (A) (A) (A) (A)
                 (A) (A) (A) (A) (A) (A) (A) (A) (A) (A) (A) (A)
                 (A) (A) (A) (A) (A) (A) (A) (A) (A) (A) (A) (A)
                 (A) (A) (A) (A) (A) (A) (A) (A) (A) (A) (A) (A)
                 (A) (A)
 Beta  Orbitals:
       Occupied  (A) (A) (A) (A) (A) (A) (A) (A) (A) (A) (A) (A)
                 (A) (A) (A) (A) (A) (A) (A) (A) (A)
       Virtual   (A) (A) (A) (A) (A) (A) (A) (A) (A) (A) (A) (A)
                 (A) (A) (A) (A) (A) (A) (A) (A) (A) (A) (A) (A)
                 (A) (A) (A) (A) (A) (A) (A) (A) (A) (A) (A) (A)
                 (A) (A) (A) (A) (A) (A) (A) (A) (A) (A) (A) (A)
                 (A) (A) (A) (A) (A) (A) (A) (A) (A) (A) (A) (A)
                 (A) (A) (A) (A) (A) (A) (A) (A) (A) (A) (A) (A)
                 (A) (A) (A) (A) (A) (A) (A) (A) (A) (A) (A) (A)
                 (A) (A) (A) (A) (A) (A) (A) (A) (A) (A) (A) (A)
                 (A) (A) (A) (A) (A) (A) (A) (A) (A) (A) (A) (A)
                 (A) (A) (A) (A) (A) (A) (A) (A) (A) (A) (A) (A)
                 (A) (A) (A) (A) (A) (A) (A) (A) (A) (A) (A) (A)
                 (A) (A) (A) (A) (A) (A) (A) (A) (A) (A) (A) (A)
                 (A) (A) (A) (A) (A) (A) (A) (A) (A) (A) (A) (A)
                 (A) (A) (A) (A) (A) (A) (A) (A) (A) (A) (A) (A)
                 (A) (A) (A) (A) (A) (A) (A) (A) (A) (A) (A) (A)
                 (A) (A) (A) (A) (A) (A) (A) (A) (A) (A) (A) (A)
                 (A) (A) (A) (A) (A) (A) (A) (A) (A) (A) (A) (A)
                 (A) (A) (A) (A) (A) (A) (A) (A) (A) (A) (A) (A)
                 (A) (A) (A) (A) (A) (A) (A) (A) (A) (A) (A) (A)
                 (A) (A) (A) (A) (A) (A) (A) (A) (A) (A) (A) (A)
                 (A) (A) (A) (A) (A) (A) (A) (A) (A) (A) (A) (A)
                 (A) (A) (A)
 The electronic state is 2-A.
 Alpha  occ. eigenvalues --  -19.69358 -19.68425 -10.55147 -10.54807 -10.53692
 Alpha  occ. eigenvalues --   -1.31186  -0.97627  -0.88783  -0.77576  -0.67784
 Alpha  occ. eigenvalues --   -0.64160  -0.59353  -0.54189  -0.52932  -0.50410
 Alpha  occ. eigenvalues --   -0.47418  -0.43549  -0.41020  -0.40177  -0.38925
 Alpha  occ. eigenvalues --   -0.36844  -0.28767
 Alpha virt. eigenvalues --    0.05411   0.07282   0.10592   0.10833   0.11965
 Alpha virt. eigenvalues --    0.14190   0.14334   0.16747   0.18882   0.21772
 Alpha virt. eigenvalues --    0.25066   0.25416   0.27990   0.29786   0.31646
 Alpha virt. eigenvalues --    0.33519   0.34639   0.37620   0.40434   0.42043
 Alpha virt. eigenvalues --    0.44467   0.45131   0.47888   0.48294   0.48382
 Alpha virt. eigenvalues --    0.49290   0.50943   0.51799   0.52709   0.53553
 Alpha virt. eigenvalues --    0.55420   0.56593   0.58916   0.59727   0.64321
 Alpha virt. eigenvalues --    0.65788   0.68598   0.69111   0.73224   0.75684
 Alpha virt. eigenvalues --    0.78475   0.81682   0.83186   0.86035   0.87201
 Alpha virt. eigenvalues --    0.90014   0.92827   0.93603   0.94779   0.98268
 Alpha virt. eigenvalues --    1.01246   1.02819   1.04421   1.06349   1.08575
 Alpha virt. eigenvalues --    1.10474   1.11973   1.13163   1.15154   1.17036
 Alpha virt. eigenvalues --    1.18023   1.20574   1.22122   1.22968   1.25258
 Alpha virt. eigenvalues --    1.27027   1.29246   1.31178   1.32772   1.34753
 Alpha virt. eigenvalues --    1.37140   1.39741   1.40672   1.42387   1.45757
 Alpha virt. eigenvalues --    1.48560   1.49634   1.51485   1.54429   1.55231
 Alpha virt. eigenvalues --    1.56531   1.58938   1.66258   1.68069   1.68905
 Alpha virt. eigenvalues --    1.77310   1.96079   1.97032   2.01964   2.09536
 Alpha virt. eigenvalues --    2.18452   2.21828   2.23398   2.24426   2.26189
 Alpha virt. eigenvalues --    2.29272   2.32176   2.37771   2.40306   2.42231
 Alpha virt. eigenvalues --    2.50502   2.51032   2.52290   2.56902   2.59063
 Alpha virt. eigenvalues --    2.63502   2.64640   2.67850   2.68614   2.73656
 Alpha virt. eigenvalues --    2.75743   2.80670   2.82186   2.83163   2.84212
 Alpha virt. eigenvalues --    2.87866   2.89337   2.93495   2.94188   2.95632
 Alpha virt. eigenvalues --    2.99802   3.00774   3.03846   3.06222   3.07873
 Alpha virt. eigenvalues --    3.09087   3.10772   3.12213   3.14268   3.17759
 Alpha virt. eigenvalues --    3.19963   3.21878   3.22769   3.25121   3.26692
 Alpha virt. eigenvalues --    3.27533   3.28558   3.31595   3.34492   3.37330
 Alpha virt. eigenvalues --    3.39679   3.40753   3.42895   3.44345   3.45506
 Alpha virt. eigenvalues --    3.48630   3.50028   3.51569   3.52037   3.55966
 Alpha virt. eigenvalues --    3.59880   3.61820   3.66142   3.67674   3.69666
 Alpha virt. eigenvalues --    3.70792   3.73455   3.74855   3.76171   3.78119
 Alpha virt. eigenvalues --    3.78908   3.81136   3.82744   3.84227   3.85071
 Alpha virt. eigenvalues --    3.86471   3.88518   3.90287   3.93162   3.95162
 Alpha virt. eigenvalues --    3.96633   3.97473   4.01567   4.02742   4.03737
 Alpha virt. eigenvalues --    4.04705   4.05868   4.07733   4.11197   4.11614
 Alpha virt. eigenvalues --    4.15137   4.17630   4.21743   4.24234   4.25047
 Alpha virt. eigenvalues --    4.25410   4.30795   4.32748   4.35426   4.38623
 Alpha virt. eigenvalues --    4.39789   4.44948   4.46611   4.51728   4.59905
 Alpha virt. eigenvalues --    4.67965   4.68347   4.73451   4.73959   4.76725
 Alpha virt. eigenvalues --    4.76867   4.82034   4.84765   4.87096   4.88102
 Alpha virt. eigenvalues --    4.92612   4.94873   4.96653   4.98895   5.03187
 Alpha virt. eigenvalues --    5.08215   5.11742   5.12271   5.13801   5.15015
 Alpha virt. eigenvalues --    5.17636   5.22109   5.24188   5.25213   5.29115
 Alpha virt. eigenvalues --    5.33134   5.34843   5.38412   5.43504   5.54823
 Alpha virt. eigenvalues --    5.67519   5.72110   5.75290   5.78051   5.79333
 Alpha virt. eigenvalues --    5.85625   6.05922   6.15975   6.27560   6.30171
 Alpha virt. eigenvalues --    6.34730   6.43036   6.45201   6.53189   6.53671
 Alpha virt. eigenvalues --    6.58734   6.63484   6.75087   6.85293   6.88962
 Alpha virt. eigenvalues --    7.22243   7.26758   7.50891   7.66508   9.93689
 Alpha virt. eigenvalues --   11.22982  11.65062  12.56749  13.21265
  Beta  occ. eigenvalues --  -19.69149 -19.67462 -10.54821 -10.54606 -10.53681
  Beta  occ. eigenvalues --   -1.29425  -0.95176  -0.88079  -0.76270  -0.66713
  Beta  occ. eigenvalues --   -0.62827  -0.55883  -0.52493  -0.52286  -0.49442
  Beta  occ. eigenvalues --   -0.46822  -0.42507  -0.40543  -0.39688  -0.35834
  Beta  occ. eigenvalues --   -0.34387
  Beta virt. eigenvalues --   -0.06951   0.05372   0.07172   0.10669   0.10856
  Beta virt. eigenvalues --    0.12066   0.14218   0.14458   0.16993   0.19431
  Beta virt. eigenvalues --    0.22118   0.25501   0.25867   0.28000   0.29900
  Beta virt. eigenvalues --    0.31824   0.33944   0.34725   0.38213   0.40655
  Beta virt. eigenvalues --    0.42270   0.44881   0.45304   0.48251   0.48594
  Beta virt. eigenvalues --    0.48665   0.50166   0.51482   0.52213   0.53564
  Beta virt. eigenvalues --    0.53837   0.55650   0.57003   0.59201   0.60125
  Beta virt. eigenvalues --    0.64817   0.66006   0.68751   0.69425   0.73484
  Beta virt. eigenvalues --    0.76247   0.78440   0.81728   0.83374   0.86190
  Beta virt. eigenvalues --    0.87382   0.90205   0.93038   0.93699   0.95036
  Beta virt. eigenvalues --    0.98551   1.01298   1.02867   1.04633   1.06475
  Beta virt. eigenvalues --    1.08467   1.10456   1.12222   1.13184   1.15236
  Beta virt. eigenvalues --    1.17249   1.18224   1.20886   1.22454   1.23430
  Beta virt. eigenvalues --    1.25493   1.27416   1.29601   1.31175   1.33484
  Beta virt. eigenvalues --    1.34888   1.37383   1.40080   1.40913   1.42625
  Beta virt. eigenvalues --    1.46208   1.48755   1.49973   1.51771   1.54978
  Beta virt. eigenvalues --    1.55720   1.57071   1.59028   1.66644   1.68315
  Beta virt. eigenvalues --    1.70039   1.78203   1.96700   1.97811   2.02403
  Beta virt. eigenvalues --    2.10575   2.19088   2.22234   2.23430   2.25001
  Beta virt. eigenvalues --    2.26539   2.29496   2.32453   2.38299   2.40657
  Beta virt. eigenvalues --    2.42916   2.50708   2.51512   2.52801   2.57136
  Beta virt. eigenvalues --    2.60255   2.64043   2.65068   2.68414   2.68995
  Beta virt. eigenvalues --    2.73039   2.76708   2.81555   2.82448   2.83861
  Beta virt. eigenvalues --    2.85212   2.88759   2.90319   2.94667   2.94912
  Beta virt. eigenvalues --    2.96945   3.00804   3.02254   3.04829   3.07077
  Beta virt. eigenvalues --    3.08608   3.09483   3.12360   3.12808   3.14315
  Beta virt. eigenvalues --    3.18231   3.20208   3.22129   3.23454   3.25319
  Beta virt. eigenvalues --    3.27341   3.28384   3.29199   3.32526   3.35103
  Beta virt. eigenvalues --    3.37832   3.39845   3.41102   3.43702   3.44804
  Beta virt. eigenvalues --    3.46013   3.49597   3.50792   3.52021   3.52790
  Beta virt. eigenvalues --    3.56189   3.60077   3.62220   3.66363   3.67926
  Beta virt. eigenvalues --    3.69977   3.71060   3.73984   3.74986   3.76752
  Beta virt. eigenvalues --    3.78457   3.79026   3.81260   3.83220   3.84866
  Beta virt. eigenvalues --    3.85470   3.86856   3.88844   3.90329   3.93244
  Beta virt. eigenvalues --    3.95434   3.96752   3.97851   4.01635   4.03136
  Beta virt. eigenvalues --    4.04035   4.04878   4.06126   4.07965   4.11773
  Beta virt. eigenvalues --    4.11896   4.15334   4.17866   4.21827   4.24869
  Beta virt. eigenvalues --    4.25642   4.26415   4.31374   4.33177   4.36075
  Beta virt. eigenvalues --    4.39271   4.40270   4.45522   4.47542   4.52572
  Beta virt. eigenvalues --    4.60556   4.68306   4.68853   4.73723   4.74503
  Beta virt. eigenvalues --    4.77003   4.77154   4.82378   4.85537   4.87572
  Beta virt. eigenvalues --    4.88594   4.93666   4.95734   4.97671   4.99433
  Beta virt. eigenvalues --    5.04139   5.09222   5.12450   5.12826   5.14120
  Beta virt. eigenvalues --    5.15476   5.18538   5.22243   5.24427   5.26015
  Beta virt. eigenvalues --    5.29631   5.34032   5.35903   5.40106   5.44092
  Beta virt. eigenvalues --    5.56840   5.68162   5.74355   5.75683   5.78491
  Beta virt. eigenvalues --    5.80393   5.86706   6.06450   6.17882   6.27991
  Beta virt. eigenvalues --    6.30812   6.34757   6.43897   6.45757   6.54097
  Beta virt. eigenvalues --    6.55321   6.60649   6.66314   6.76205   6.85654
  Beta virt. eigenvalues --    6.90195   7.22140   7.27824   7.51081   7.66779
  Beta virt. eigenvalues --    9.94383  11.23633  11.65384  12.57425  13.21380
          Condensed to atoms (all electrons):
               1          2          3          4          5          6
     1  O    7.903720   0.028017  -0.000206  -0.001112   0.000063   0.000222
     2  O    0.028017   8.113188   0.004271  -0.087269  -0.000263   0.001365
     3  C   -0.000206   0.004271   5.046587   0.263515   0.304177   0.404512
     4  C   -0.001112  -0.087269   0.263515   5.320137  -0.044393  -0.052240
     5  C    0.000063  -0.000263   0.304177  -0.044393   4.940670  -0.037881
     6  H    0.000222   0.001365   0.404512  -0.052240  -0.037881   0.615118
     7  H   -0.000219  -0.000130   0.393322  -0.033540  -0.034454  -0.044179
     8  H   -0.030773   0.194953  -0.022946   0.231659   0.000574  -0.005282
     9  H    0.005328  -0.003985  -0.039735   0.386304   0.004775   0.003813
    10  H    0.001611  -0.000356  -0.049251   0.383423  -0.002066   0.005284
    11  H   -0.000003  -0.000081  -0.040626  -0.002035   0.402111  -0.006989
    12  H    0.000001   0.000005  -0.037335   0.007482   0.403600  -0.005309
    13  H   -0.000002   0.000018  -0.038269  -0.004959   0.401989   0.007952
    14  H    0.314083  -0.046509   0.000694   0.001167   0.000002   0.000047
               7          8          9         10         11         12
     1  O   -0.000219  -0.030773   0.005328   0.001611  -0.000003   0.000001
     2  O   -0.000130   0.194953  -0.003985  -0.000356  -0.000081   0.000005
     3  C    0.393322  -0.022946  -0.039735  -0.049251  -0.040626  -0.037335
     4  C   -0.033540   0.231659   0.386304   0.383423  -0.002035   0.007482
     5  C   -0.034454   0.000574   0.004775  -0.002066   0.402111   0.403600
     6  H   -0.044179  -0.005282   0.003813   0.005284  -0.006989  -0.005309
     7  H    0.612686   0.002958  -0.012512   0.002916   0.008136  -0.005445
     8  H    0.002958   0.439280  -0.008140  -0.009733   0.000418  -0.000118
     9  H   -0.012512  -0.008140   0.554692  -0.030076  -0.000178  -0.000353
    10  H    0.002916  -0.009733  -0.030076   0.563172  -0.000012   0.000397
    11  H    0.008136   0.000418  -0.000178  -0.000012   0.594318  -0.031034
    12  H   -0.005445  -0.000118  -0.000353   0.000397  -0.031034   0.590053
    13  H   -0.007473  -0.000082   0.000418   0.001556  -0.038394  -0.030692
    14  H   -0.000045  -0.009213  -0.000615   0.000006  -0.000002  -0.000000
              13         14
     1  O   -0.000002   0.314083
     2  O    0.000018  -0.046509
     3  C   -0.038269   0.000694
     4  C   -0.004959   0.001167
     5  C    0.401989   0.000002
     6  H    0.007952   0.000047
     7  H   -0.007473  -0.000045
     8  H   -0.000082  -0.009213
     9  H    0.000418  -0.000615
    10  H    0.001556   0.000006
    11  H   -0.038394  -0.000002
    12  H   -0.030692  -0.000000
    13  H    0.596394   0.000001
    14  H    0.000001   0.476732
          Atomic-Atomic Spin Densities.
               1          2          3          4          5          6
     1  O    0.105485  -0.061955  -0.001389   0.021883   0.000033  -0.000537
     2  O   -0.061955   0.575779   0.006879  -0.112051  -0.000391   0.002483
     3  C   -0.001389   0.006879  -0.030577  -0.039261   0.000863   0.016021
     4  C    0.021883  -0.112051  -0.039261   0.732910  -0.004545  -0.019943
     5  C    0.000033  -0.000391   0.000863  -0.004545   0.015065  -0.005685
     6  H   -0.000537   0.002483   0.016021  -0.019943  -0.005685   0.042068
     7  H    0.000215  -0.000581   0.001108  -0.005238   0.007384  -0.009586
     8  H    0.011015  -0.031195  -0.002783   0.056614   0.000889  -0.002447
     9  H   -0.002254   0.003927   0.005465  -0.008693  -0.000948   0.000901
    10  H   -0.000357   0.001952   0.005453  -0.005711  -0.000801   0.000352
    11  H    0.000008  -0.000137  -0.000856   0.000553   0.001462  -0.001456
    12  H   -0.000001   0.000014   0.000089   0.000360  -0.001856   0.001513
    13  H   -0.000003   0.000031   0.000874   0.001497  -0.002373   0.000538
    14  H    0.001092  -0.000388  -0.000106   0.000027   0.000002  -0.000033
               7          8          9         10         11         12
     1  O    0.000215   0.011015  -0.002254  -0.000357   0.000008  -0.000001
     2  O   -0.000581  -0.031195   0.003927   0.001952  -0.000137   0.000014
     3  C    0.001108  -0.002783   0.005465   0.005453  -0.000856   0.000089
     4  C   -0.005238   0.056614  -0.008693  -0.005711   0.000553   0.000360
     5  C    0.007384   0.000889  -0.000948  -0.000801   0.001462  -0.001856
     6  H   -0.009586  -0.002447   0.000901   0.000352  -0.001456   0.001513
     7  H    0.030965   0.000343  -0.001040  -0.000587   0.000508  -0.001157
     8  H    0.000343  -0.068417   0.000965   0.002005   0.000096  -0.000009
     9  H   -0.001040   0.000965  -0.030698   0.002949  -0.000053   0.000046
    10  H   -0.000587   0.002005   0.002949  -0.035140  -0.000242   0.000028
    11  H    0.000508   0.000096  -0.000053  -0.000242   0.002267  -0.000785
    12  H   -0.001157  -0.000009   0.000046   0.000028  -0.000785   0.003195
    13  H   -0.001101  -0.000097   0.000088   0.000289  -0.001042   0.001318
    14  H    0.000017   0.000933  -0.000101  -0.000004   0.000001  -0.000000
              13         14
     1  O   -0.000003   0.001092
     2  O    0.000031  -0.000388
     3  C    0.000874  -0.000106
     4  C    0.001497   0.000027
     5  C   -0.002373   0.000002
     6  H    0.000538  -0.000033
     7  H   -0.001101   0.000017
     8  H   -0.000097   0.000933
     9  H    0.000088  -0.000101
    10  H    0.000289  -0.000004
    11  H   -0.001042   0.000001
    12  H    0.001318  -0.000000
    13  H   -0.000478  -0.000000
    14  H   -0.000000  -0.005031
 Mulliken charges and spin densities:
               1          2
     1  O   -0.220730   0.073234
     2  O   -0.203222   0.384368
     3  C   -0.188710  -0.038220
     4  C   -0.368139   0.618402
     5  C   -0.338905   0.009098
     6  H    0.113569   0.024191
     7  H    0.117980   0.021250
     8  H    0.216445  -0.032088
     9  H    0.140263  -0.029446
    10  H    0.133129  -0.029814
    11  H    0.114374   0.000323
    12  H    0.108750   0.002754
    13  H    0.111542  -0.000458
    14  H    0.263653  -0.003593
 Sum of Mulliken charges =  -0.00000   1.00000
 Mulliken charges and spin densities with hydrogens summed into heavy atoms:
               1          2
     1  O    0.042923   0.069641
     2  O    0.013223   0.352280
     3  C    0.042839   0.007221
     4  C   -0.094748   0.559141
     5  C   -0.004238   0.011717
 Electronic spatial extent (au):  <R**2>=            794.5836
 Charge=             -0.0000 electrons
 Dipole moment (field-independent basis, Debye):
    X=             -1.3136    Y=              1.4825    Z=             -1.1769  Tot=              2.3040
 Quadrupole moment (field-independent basis, Debye-Ang):
   XX=            -34.8915   YY=            -32.7947   ZZ=            -31.4295
   XY=              3.2287   XZ=             -3.8104   YZ=             -1.5447
 Traceless Quadrupole moment (field-independent basis, Debye-Ang):
   XX=             -1.8529   YY=              0.2438   ZZ=              1.6091
   XY=              3.2287   XZ=             -3.8104   YZ=             -1.5447
 Octapole moment (field-independent basis, Debye-Ang**2):
  XXX=             17.2318  YYY=              1.0051  ZZZ=             -2.8371  XYY=              7.0436
  XXY=              9.2637  XXZ=            -11.3844  XZZ=              9.5911  YZZ=              1.5801
  YYZ=             -0.8781  XYZ=             -3.9175
 Hexadecapole moment (field-independent basis, Debye-Ang**3):
 XXXX=           -840.1959 YYYY=            -96.7834 ZZZZ=            -79.6178 XXXY=             13.6583
 XXXZ=            -31.6947 YYYX=              4.3196 YYYZ=              0.6135 ZZZX=             -7.6999
 ZZZY=             -2.1916 XXYY=           -151.8444 XXZZ=           -140.4028 YYZZ=            -28.1647
 XXYZ=            -12.2546 YYXZ=             -4.2409 ZZXY=              4.2254
 N-N= 1.803845060958D+02 E-N=-9.926603984975D+02  KE= 2.683993913175D+02
                          Isotropic Fermi Contact Couplings
        Atom                 a.u.       MegaHertz       Gauss      10(-4) cm-1
     1  O(17)              0.00349      -2.11585      -0.75499      -0.70577
     2  O(17)              0.10761     -65.23173     -23.27630     -21.75896
     3  C(13)             -0.00602      -6.76727      -2.41473      -2.25732
     4  C(13)              0.20305     228.27038      81.45255      76.14280
     5  C(13)              0.00659       7.40629       2.64275       2.47047
     6  H(1)               0.01265      56.54159      20.17544      18.86024
     7  H(1)               0.00879      39.30979      14.02671      13.11233
     8  H(1)              -0.03448    -154.13315     -54.99854     -51.41328
     9  H(1)              -0.00607     -27.13497      -9.68243      -9.05125
    10  H(1)              -0.00666     -29.75781     -10.61833      -9.92614
    11  H(1)               0.00006       0.28750       0.10259       0.09590
    12  H(1)               0.00080       3.59313       1.28212       1.19854
    13  H(1)              -0.00028      -1.25842      -0.44903      -0.41976
    14  H(1)              -0.00177      -7.91930      -2.82580      -2.64160
 --------------------------------------------------------
       Center         ----  Spin Dipole Couplings  ----
                      3XX-RR        3YY-RR        3ZZ-RR
 --------------------------------------------------------
     1   Atom        0.348552     -0.163838     -0.184714
     2   Atom        1.197041     -0.378116     -0.818925
     3   Atom        0.028253     -0.012448     -0.015805
     4   Atom        0.178861     -0.247440      0.068579
     5   Atom        0.011331     -0.004786     -0.006545
     6   Atom       -0.002800     -0.005995      0.008795
     7   Atom        0.001709      0.004956     -0.006665
     8   Atom        0.165174     -0.090783     -0.074390
     9   Atom       -0.000884     -0.000736      0.001619
    10   Atom       -0.018125      0.024229     -0.006104
    11   Atom        0.003759     -0.000944     -0.002814
    12   Atom        0.003677     -0.002100     -0.001577
    13   Atom        0.006461     -0.003479     -0.002982
    14   Atom       -0.004275      0.000710      0.003565
 --------------------------------------------------------
                        XY            XZ            YZ
 --------------------------------------------------------
     1   Atom       -0.220840     -0.116553      0.018419
     2   Atom       -1.163985     -0.606200      0.316670
     3   Atom       -0.024198     -0.001056     -0.000617
     4   Atom       -0.198038     -0.452067      0.178903
     5   Atom        0.007316      0.006261      0.002364
     6   Atom       -0.003664      0.007455     -0.007414
     7   Atom       -0.006657      0.002434     -0.000061
     8   Atom       -0.085274     -0.077256      0.026616
     9   Atom        0.020088      0.005350      0.038262
    10   Atom        0.007975     -0.024711     -0.028685
    11   Atom        0.003848      0.002897      0.002104
    12   Atom       -0.000185      0.002328     -0.000259
    13   Atom        0.002050     -0.001359     -0.000581
    14   Atom        0.006415     -0.006906     -0.017701
 --------------------------------------------------------


 ---------------------------------------------------------------------------------
              Anisotropic Spin Dipole Couplings in Principal Axis System
 ---------------------------------------------------------------------------------

       Atom             a.u.   MegaHertz   Gauss  10(-4) cm-1        Axes

              Baa    -0.2563    18.547     6.618     6.187  0.3815  0.8297  0.4075
     1 O(17)  Bbb    -0.1953    14.134     5.043     4.715  0.0112 -0.4449  0.8955
              Bcc     0.4516   -32.681   -11.661   -10.901  0.9243 -0.3370 -0.1790
 
              Baa    -0.9976    72.184    25.757    24.078  0.5123  0.7882  0.3411
     2 O(17)  Bbb    -0.9843    71.223    25.414    23.757  0.0317 -0.4143  0.9096
              Bcc     1.9819  -143.406   -51.171   -47.835  0.8582 -0.4551 -0.2372
 
              Baa    -0.0238    -3.199    -1.142    -1.067  0.4201  0.8989  0.1243
     3 C(13)  Bbb    -0.0157    -2.105    -0.751    -0.702 -0.0411 -0.1179  0.9922
              Bcc     0.0395     5.304     1.893     1.769  0.9066 -0.4219 -0.0126
 
              Baa    -0.3327   -44.644   -15.930   -14.892  0.5419 -0.3472  0.7653
     4 C(13)  Bbb    -0.3251   -43.628   -15.568   -14.553  0.4374  0.8941  0.0959
              Bcc     0.6578    88.272    31.498    29.444  0.7176 -0.2828 -0.6364
 
              Baa    -0.0085    -1.144    -0.408    -0.381 -0.2826 -0.0528  0.9578
     5 C(13)  Bbb    -0.0076    -1.021    -0.364    -0.341 -0.3454  0.9371 -0.0502
              Bcc     0.0161     2.165     0.772     0.722  0.8949  0.3450  0.2830
 
              Baa    -0.0092    -4.888    -1.744    -1.631  0.1676  0.9338  0.3160
     6 H(1)   Bbb    -0.0064    -3.439    -1.227    -1.147  0.8962 -0.0107 -0.4436
              Bcc     0.0156     8.327     2.971     2.778  0.4108 -0.3575  0.8387
 
              Baa    -0.0077    -4.083    -1.457    -1.362 -0.3729 -0.1925  0.9077
     7 H(1)   Bbb    -0.0027    -1.428    -0.509    -0.476  0.6860  0.6016  0.4094
              Bcc     0.0103     5.510     1.966     1.838 -0.6248  0.7753 -0.0923
 
              Baa    -0.1170   -62.451   -22.284   -20.831  0.2494  0.9574 -0.1457
     8 H(1)   Bbb    -0.0970   -51.780   -18.476   -17.272  0.3017  0.0661  0.9511
              Bcc     0.2141   114.231    40.760    38.103  0.9202 -0.2812 -0.2724
 
              Baa    -0.0410   -21.878    -7.807    -7.298 -0.2833  0.7311 -0.6207
     9 H(1)   Bbb    -0.0047    -2.528    -0.902    -0.843  0.8864 -0.0475 -0.4604
              Bcc     0.0457    24.406     8.709     8.141  0.3661  0.6806  0.6346
 
              Baa    -0.0402   -21.426    -7.645    -7.147  0.6915  0.2208  0.6878
    10 H(1)   Bbb    -0.0076    -4.035    -1.440    -1.346  0.6564 -0.5894 -0.4708
              Bcc     0.0477    25.461     9.085     8.493  0.3015  0.7771 -0.5525
 
              Baa    -0.0042    -2.251    -0.803    -0.751 -0.1093 -0.4432  0.8897
    11 H(1)   Bbb    -0.0030    -1.582    -0.565    -0.528 -0.5693  0.7617  0.3095
              Bcc     0.0072     3.833     1.368     1.279  0.8149  0.4726  0.3356
 
              Baa    -0.0025    -1.352    -0.482    -0.451 -0.3139  0.3848  0.8680
    12 H(1)   Bbb    -0.0020    -1.087    -0.388    -0.363  0.1712  0.9221 -0.3469
              Bcc     0.0046     2.439     0.870     0.814  0.9339 -0.0397  0.3554
 
              Baa    -0.0040    -2.134    -0.761    -0.712 -0.1367  0.9277  0.3474
    13 H(1)   Bbb    -0.0031    -1.641    -0.586    -0.548  0.2003 -0.3175  0.9268
              Bcc     0.0071     3.775     1.347     1.259  0.9701  0.1963 -0.1425
 
              Baa    -0.0156    -8.335    -2.974    -2.780 -0.0036  0.7356  0.6774
    14 H(1)   Bbb    -0.0075    -4.010    -1.431    -1.338  0.9457 -0.2178  0.2415
              Bcc     0.0231    12.345     4.405     4.118 -0.3252 -0.6414  0.6949
 

 ---------------------------------------------------------------------------------

 No NMR shielding tensors so no spin-rotation constants.
 Leave Link  601 at Thu Sep  5 11:40:10 2019, MaxMem=   671088640 cpu:              95.0 elap:              47.5
 (Enter /shared/centos7/gaussian/g16/l701.exe)
 ... and contract with generalized density number  0.
 Compute integral first derivatives.
 Leave Link  701 at Thu Sep  5 11:40:32 2019, MaxMem=   671088640 cpu:              43.8 elap:              21.9
 (Enter /shared/centos7/gaussian/g16/l702.exe)
 L702 exits ... SP integral derivatives will be done elsewhere.
 Leave Link  702 at Thu Sep  5 11:40:33 2019, MaxMem=   671088640 cpu:               1.7 elap:               0.9
 (Enter /shared/centos7/gaussian/g16/l703.exe)
 Integral derivatives from FoFJK, PRISM(SPDF).
 Compute integral first derivatives, UseDBF=F ICtDFT=           0.
 Calling FoFJK, ICntrl=      2127 FMM=F ISym2X=0 I1Cent= 0 IOpClX= 1 NMat=1 NMatS=1 NMatT=0.
 FoFJK:  IHMeth= 1 ICntrl=    2127 DoSepK=F KAlg= 0 I1Cent=           0 FoldK=F
 IRaf=         0 NMat=       1 IRICut=       1 DoRegI=T DoRafI=F ISym2E= 0 IDoP0=0 IntGTp=1.
 FoFCou: FMM=F IPFlag=           0 FMFlag=      100000 FMFlg1=         800
         NFxFlg=           0 DoJE=F BraDBF=F KetDBF=F FulRan=T
         wScrn=  0.000000 ICntrl=      2127 IOpCl=  1 I1Cent=           0 NGrid=           0
         NMat0=    1 NMatS0=      1 NMatT0=    0 NMatD0=    1 NMtDS0=    0 NMtDT0=    0
 Symmetry not used in FoFCou.
 Leave Link  703 at Thu Sep  5 11:42:27 2019, MaxMem=   671088640 cpu:             228.5 elap:             114.3
 (Enter /shared/centos7/gaussian/g16/l716.exe)
 Dipole        =-5.16795972D-01 5.83261576D-01-4.63040252D-01
 ***** Axes restored to original set *****
 -------------------------------------------------------------------
 Center     Atomic                   Forces (Hartrees/Bohr)
 Number     Number              X              Y              Z
 -------------------------------------------------------------------
      1        8           0.026449994    0.055271250   -0.025985003
      2        8          -0.042520280   -0.037507033    0.005367304
      3        6          -0.001076370    0.008951109   -0.004030003
      4        6           0.004554968    0.001503538    0.017580483
      5        6          -0.007109872   -0.003907709    0.005929777
      6        1           0.005795846   -0.003564755    0.007753488
      7        1          -0.004838289   -0.007586300   -0.006605486
      8        1           0.008792709   -0.008867055    0.014981730
      9        1          -0.012331209   -0.007344766   -0.008358624
     10        1          -0.000575764    0.012001307   -0.008184256
     11        1           0.005671526    0.008980898    0.007013766
     12        1           0.008141755   -0.009494506   -0.003749056
     13        1          -0.006392667    0.004940223   -0.010232452
     14        1           0.015437652   -0.013376201    0.008518332
 -------------------------------------------------------------------
 Cartesian Forces:  Max     0.055271250 RMS     0.015656110
 Leave Link  716 at Thu Sep  5 11:42:28 2019, MaxMem=   671088640 cpu:               1.6 elap:               0.8
 (Enter /shared/centos7/gaussian/g16/l103.exe)

 GradGradGradGradGradGradGradGradGradGradGradGradGradGradGradGradGradGrad
 Berny optimization.
 FormGI is forming the generalized inverse of G from B-inverse, IUseBI=4.
 Internal  Forces:  Max     0.061605017 RMS     0.010387404
 Search for a local minimum.
 Step number   1 out of a maximum of  100
 All quantities printed in internal units (Hartrees-Bohrs-Radians)
 RMS Force = .10305D-01 SwitMx=.10000D-02 MixMth= 1
 Mixed Optimization -- RFO/linear search
 Second derivative matrix not updated -- first step.
 ITU=  0
     Eigenvalues ---    0.00230   0.00230   0.00428   0.00443   0.02406
     Eigenvalues ---    0.03459   0.04733   0.04840   0.04998   0.05577
     Eigenvalues ---    0.05661   0.08581   0.11639   0.12374   0.13677
     Eigenvalues ---    0.16000   0.16000   0.16000   0.16000   0.16000
     Eigenvalues ---    0.16000   0.21898   0.29838   0.29946   0.32486
     Eigenvalues ---    0.32496   0.32497   0.32501   0.32502   0.32504
     Eigenvalues ---    0.32559   0.49447   0.629301000.000001000.00000
     Eigenvalues --- 1000.000001000.000001000.000001000.000001000.00000
     Eigenvalues --- 1000.000001000.000001000.000001000.000001000.00000
     Eigenvalues --- 1000.000001000.000001000.000001000.000001000.00000
     Eigenvalues --- 1000.000001000.000001000.000001000.000001000.00000
     Eigenvalues --- 1000.000001000.00000
 RFO step:  Lambda=-1.27469296D-02 EMin= 2.30000000D-03
 Linear search not attempted -- first point.
 Iteration  1 RMS(Cart)=  0.04428801 RMS(Int)=  0.00133052
 Iteration  2 RMS(Cart)=  0.00192871 RMS(Int)=  0.00033618
 Iteration  3 RMS(Cart)=  0.00000428 RMS(Int)=  0.00033617
 Iteration  4 RMS(Cart)=  0.00000000 RMS(Int)=  0.00033617
 Iteration  1 RMS(Cart)=  0.00000000 RMS(Int)=  0.00000000
 ITry= 1 IFail=0 DXMaxC= 2.06D-01 DCOld= 1.00D+10 DXMaxT= 3.00D-01 DXLimC= 3.00D+00 Rises=F
 Variable       Old X    -DE/DX   Delta X   Delta X   Delta X     New X
                                 (Linear)    (Quad)   (Total)
    R1        2.48694   0.06161   0.00000   0.09595   0.09595   2.58290
    R2        1.87128  -0.02140   0.00000  -0.04219  -0.04219   1.82908
    R3        2.20115   0.00874   0.00000   0.00000  -0.00000   2.20115
    R4        2.88071  -0.00273   0.00000  -0.00875  -0.00875   2.87196
    R5        2.88287  -0.00102   0.00000  -0.00328  -0.00328   2.87959
    R6        2.09964  -0.01023   0.00000  -0.03030  -0.03030   2.06933
    R7        2.09945  -0.01114   0.00000  -0.03298  -0.03298   2.06647
    R8        2.58649  -0.00355   0.00000   0.00000  -0.00000   2.58649
    R9        2.09937  -0.01495   0.00000  -0.04427  -0.04427   2.05511
   R10        2.09934  -0.01396   0.00000  -0.04134  -0.04134   2.05800
   R11        2.09944  -0.01270   0.00000  -0.03759  -0.03759   2.06185
   R12        2.09832  -0.01293   0.00000  -0.03821  -0.03821   2.06012
   R13        2.09932  -0.01302   0.00000  -0.03855  -0.03855   2.06076
    A1        1.81115   0.01029   0.00000   0.05954   0.05954   1.87069
    A2        1.82823   0.00957   0.00000   0.05541   0.05541   1.88364
    A3        1.98531  -0.00245   0.00000  -0.00956  -0.00954   1.97577
    A4        1.92159   0.00102   0.00000   0.00492   0.00492   1.92652
    A5        1.90457   0.00043   0.00000   0.00085   0.00087   1.90544
    A6        1.89372   0.00071   0.00000   0.00324   0.00324   1.89696
    A7        1.90839   0.00133   0.00000   0.00818   0.00818   1.91657
    A8        1.84499  -0.00093   0.00000  -0.00746  -0.00747   1.83752
    A9        1.93240   0.00059   0.00000  -0.00954  -0.00921   1.92319
   A10        1.97348   0.00534   0.00000   0.04599   0.04518   2.01866
   A11        1.98957   0.00110   0.00000   0.01424   0.01326   2.00283
   A12        1.79622  -0.00483   0.00000  -0.04309  -0.04273   1.75349
   A13        1.82830  -0.00263   0.00000  -0.03225  -0.03219   1.79611
   A14        1.92849  -0.00077   0.00000   0.01220   0.01037   1.93886
   A15        1.93713   0.00005   0.00000  -0.00104  -0.00106   1.93607
   A16        1.92347   0.00284   0.00000   0.01860   0.01856   1.94203
   A17        1.93569  -0.00004   0.00000  -0.00102  -0.00105   1.93465
   A18        1.88941  -0.00130   0.00000  -0.00599  -0.00602   1.88339
   A19        1.88855  -0.00060   0.00000  -0.00747  -0.00749   1.88107
   A20        1.88809  -0.00109   0.00000  -0.00372  -0.00376   1.88432
   A21        2.54164   0.01808   0.00000   0.00000   0.00000   2.54164
    D1       -1.47825  -0.00195   0.00000  -0.05291  -0.05291  -1.53116
    D2       -1.33545  -0.00014   0.00000  -0.00919  -0.00919  -1.34464
    D3        1.96438  -0.00038   0.00000  -0.02059  -0.02052   1.94386
    D4       -2.31361  -0.00275   0.00000  -0.05228  -0.05274  -2.36635
    D5       -0.09162   0.00185   0.00000   0.01794   0.01831  -0.07330
    D6       -0.16526  -0.00033   0.00000  -0.02172  -0.02164  -0.18690
    D7        1.83994  -0.00270   0.00000  -0.05341  -0.05386   1.78607
    D8       -2.22125   0.00190   0.00000   0.01681   0.01719  -2.20406
    D9       -2.18283  -0.00003   0.00000  -0.01599  -0.01591  -2.19873
   D10       -0.17763  -0.00240   0.00000  -0.04768  -0.04813  -0.22576
   D11        2.04436   0.00220   0.00000   0.02255   0.02293   2.06729
   D12       -1.02556   0.00018   0.00000   0.00122   0.00122  -1.02434
   D13       -3.11848  -0.00009   0.00000  -0.00279  -0.00279  -3.12127
   D14        1.07437  -0.00056   0.00000  -0.00958  -0.00960   1.06477
   D15        1.11942   0.00034   0.00000   0.00342   0.00342   1.12284
   D16       -0.97350   0.00007   0.00000  -0.00058  -0.00058  -0.97408
   D17       -3.06384  -0.00040   0.00000  -0.00738  -0.00739  -3.07123
   D18        3.12375   0.00033   0.00000   0.00067   0.00069   3.12444
   D19        1.03083   0.00006   0.00000  -0.00333  -0.00332   1.02751
   D20       -1.05951  -0.00041   0.00000  -0.01013  -0.01013  -1.06964
   D21        2.98947   0.00100   0.00000  -0.00623  -0.00625   2.98322
   D22        0.87580  -0.00278   0.00000  -0.03071  -0.03042   0.84538
   D23       -1.14152   0.00101   0.00000  -0.01457  -0.01484  -1.15636
         Item               Value     Threshold  Converged?
 Maximum Force            0.061605     0.002500     NO 
 RMS     Force            0.010305     0.001667     NO 
 Maximum Displacement     0.206209     0.010000     NO 
 RMS     Displacement     0.044924     0.006667     NO 
 Predicted change in Energy=-6.695009D-03
 Lowest energy point so far.  Saving SCF results.
 GradGradGradGradGradGradGradGradGradGradGradGradGradGradGradGradGradGrad

 Leave Link  103 at Thu Sep  5 11:44:22 2019, MaxMem=   671088640 cpu:             228.0 elap:             114.2
 (Enter /shared/centos7/gaussian/g16/l202.exe)
                          Input orientation:                          
 ---------------------------------------------------------------------
 Center     Atomic      Atomic             Coordinates (Angstroms)
 Number     Number       Type             X           Y           Z
 ---------------------------------------------------------------------
      1          8           0        2.050339   -0.601714   -1.426318
      2          8           0        1.084454   -1.498031   -1.063205
      3          6           0       -0.302792   -0.168573    1.899357
      4          6           0        0.783461   -1.043451    1.295731
      5          6           0       -1.287111   -0.945259    2.765313
      6          1           0       -0.860354    0.346292    1.109954
      7          1           0        0.162489    0.626235    2.488933
      8          1           0        0.617458   -1.134949   -0.059790
      9          1           0        1.792920   -0.641824    1.344498
     10          1           0        0.760121   -2.084526    1.614535
     11          1           0       -1.775360   -1.733043    2.189576
     12          1           0       -2.063075   -0.292119    3.165007
     13          1           0       -0.776833   -1.415277    3.606685
     14          1           0        1.616316    0.093316   -1.941495
 ---------------------------------------------------------------------
                    Distance matrix (angstroms):
                    1          2          3          4          5
     1  O    0.000000
     2  O    1.366809   0.000000
     3  C    4.096944   3.531102   0.000000
     4  C    3.034743   2.421119   1.519776   0.000000
     5  C    5.369018   4.537336   1.523812   2.540980   0.000000
     6  H    3.975365   3.450569   1.095043   2.160561   2.142531
     7  H    4.516749   4.240307   1.093529   2.144105   2.155764
     8  H    2.050582   1.164798   2.370443   1.368709   3.412414
     9  H    2.783037   2.651800   2.218974   1.087516   3.405492
    10  H    3.620799   2.760337   2.209475   1.089045   2.610244
    11  H    5.384288   4.337551   2.168006   2.796794   1.091084
    12  H    6.172218   5.407304   2.171573   3.487328   1.090168
    13  H    5.829743   5.027833   2.166553   2.813055   1.090508
    14  H    0.967910   1.893847   4.301593   3.530654   5.626949
                    6          7          8          9         10
     6  H    0.000000
     7  H    1.739586   0.000000
     8  H    2.397145   3.131254   0.000000
     9  H    2.840994   2.361358   1.896551   0.000000
    10  H    2.964695   2.910319   1.930133   1.794710   0.000000
    11  H    2.515244   3.067746   3.338104   3.825904   2.623523
    12  H    2.465228   2.500717   4.277257   4.278463   3.686070
    13  H    3.056758   2.509874   3.932641   3.509893   2.603609
    14  H    3.938176   4.693219   2.459099   3.371849   4.256926
                   11         12         13         14
    11  H    0.000000
    12  H    1.763663   0.000000
    13  H    1.762450   1.763797   0.000000
    14  H    5.648433   6.305778   6.227785   0.000000
 Stoichiometry    C3H9O2(2)
 Framework group  C1[X(C3H9O2)]
 Deg. of freedom    36
 Full point group                 C1      NOp   1
 RotChk:  IX=0 Diff= 1.11D-02
 Largest Abelian subgroup         C1      NOp   1
 Largest concise Abelian subgroup C1      NOp   1
                         Standard orientation:                         
 ---------------------------------------------------------------------
 Center     Atomic      Atomic             Coordinates (Angstroms)
 Number     Number       Type             X           Y           Z
 ---------------------------------------------------------------------
      1          8           0        2.627652    0.365358    0.004937
      2          8           0        1.821736   -0.716656   -0.213950
      3          6           0       -1.459305    0.587912   -0.174512
      4          6           0       -0.317229    0.017895    0.650390
      5          6           0       -2.696474   -0.301669   -0.182468
      6          1           0       -1.138219    0.751636   -1.208542
      7          1           0       -1.718178    1.579374    0.207317
      8          1           0        0.715486   -0.355074   -0.166775
      9          1           0        0.191612    0.724558    1.301849
     10          1           0       -0.553212   -0.903773    1.180350
     11          1           0       -2.462189   -1.291576   -0.577003
     12          1           0       -3.487345    0.126303   -0.798772
     13          1           0       -3.088808   -0.429838    0.826915
     14          1           0        2.783805    0.783944   -0.853696
 ---------------------------------------------------------------------
 Rotational constants (GHZ):          13.9419413           1.5266380           1.4852918
 Leave Link  202 at Thu Sep  5 11:44:24 2019, MaxMem=   671088640 cpu:               3.1 elap:               1.6
 (Enter /shared/centos7/gaussian/g16/l301.exe)
 Standard basis: CC-pVTZ (5D, 7F)
 Ernie: Thresh=  0.10000D-02 Tol=  0.10000D-05 Strict=F.
 Ernie:  15 primitive shells out of 202 were deleted.
 There are   310 symmetry adapted cartesian basis functions of A   symmetry.
 There are   276 symmetry adapted basis functions of A   symmetry.
[...]
  Beta virt. eigenvalues --    1.73340   1.79887   1.92296   1.95366   1.99864
  Beta virt. eigenvalues --    2.10882   2.18757   2.19734   2.22776   2.26496
  Beta virt. eigenvalues --    2.28639   2.32860   2.36767   2.37579   2.40787
  Beta virt. eigenvalues --    2.45495   2.48422   2.50240   2.53802   2.55360
  Beta virt. eigenvalues --    2.58844   2.62224   2.64721   2.65976   2.69423
  Beta virt. eigenvalues --    2.75911   2.78480   2.81614   2.83401   2.84266
  Beta virt. eigenvalues --    2.85255   2.89734   2.90206   2.94591   2.98583
  Beta virt. eigenvalues --    3.01832   3.02758   3.04129   3.05033   3.06776
  Beta virt. eigenvalues --    3.09383   3.10657   3.12841   3.14854   3.16986
  Beta virt. eigenvalues --    3.19281   3.21035   3.24093   3.24454   3.26008
  Beta virt. eigenvalues --    3.26278   3.28818   3.32089   3.34370   3.35849
  Beta virt. eigenvalues --    3.37246   3.40297   3.42058   3.43909   3.45594
  Beta virt. eigenvalues --    3.47352   3.48802   3.51787   3.53254   3.56470
  Beta virt. eigenvalues --    3.57380   3.64174   3.64400   3.68640   3.70836
  Beta virt. eigenvalues --    3.71304   3.73552   3.75093   3.76295   3.77811
  Beta virt. eigenvalues --    3.79700   3.81080   3.82099   3.84271   3.85328
  Beta virt. eigenvalues --    3.88206   3.91022   3.92586   3.95657   3.96445
  Beta virt. eigenvalues --    3.96918   3.99081   4.00414   4.02709   4.06198
  Beta virt. eigenvalues --    4.07609   4.08722   4.11209   4.12116   4.13652
  Beta virt. eigenvalues --    4.14791   4.17954   4.21123   4.23659   4.24696
  Beta virt. eigenvalues --    4.26786   4.27295   4.32130   4.37466   4.38200
  Beta virt. eigenvalues --    4.43011   4.44927   4.50399   4.54972   4.56088
  Beta virt. eigenvalues --    4.61841   4.71586   4.73073   4.76890   4.78462
  Beta virt. eigenvalues --    4.81562   4.83386   4.86059   4.87040   4.90845
  Beta virt. eigenvalues --    4.94307   4.98337   4.99760   5.03608   5.05776
  Beta virt. eigenvalues --    5.08689   5.12109   5.13640   5.14480   5.20875
  Beta virt. eigenvalues --    5.23653   5.29004   5.29968   5.31419   5.33994
  Beta virt. eigenvalues --    5.38492   5.41184   5.44244   5.45772   5.47272
  Beta virt. eigenvalues --    5.55830   5.59510   5.75298   5.79990   5.81406
  Beta virt. eigenvalues --    5.84533   5.88147   5.95559   6.14908   6.19049
  Beta virt. eigenvalues --    6.33765   6.36259   6.38617   6.49025   6.56280
  Beta virt. eigenvalues --    6.59528   6.64049   6.69457   6.70922   6.84889
  Beta virt. eigenvalues --    6.89221   7.14266   7.22153   7.44144   7.58714
  Beta virt. eigenvalues --    9.95803  11.15956  12.25305  12.78689  13.43549
          Condensed to atoms (all electrons):
               1          2          3          4          5          6
     1  O    7.901712   0.055545  -0.001398  -0.003414  -0.000138   0.000881
     2  O    0.055545   8.096486   0.006058  -0.083900  -0.000062   0.000254
     3  C   -0.001398   0.006058   5.021209   0.288199   0.314448   0.405895
     4  C   -0.003414  -0.083900   0.288199   5.318955  -0.062179  -0.042611
     5  C   -0.000138  -0.000062   0.314448  -0.062179   4.950767  -0.038359
     6  H    0.000881   0.000254   0.405895  -0.042611  -0.038359   0.596606
     7  H   -0.000087  -0.000182   0.384915  -0.035118  -0.037992  -0.043530
     8  H   -0.027037   0.194393  -0.018607   0.216607  -0.003453  -0.004752
     9  H    0.011716  -0.007031  -0.034356   0.387571   0.006091  -0.002468
    10  H    0.001790   0.000418  -0.037323   0.384538  -0.005489   0.007265
    11  H   -0.000060   0.000047  -0.038651  -0.001680   0.402277  -0.006689
    12  H   -0.000001  -0.000014  -0.035448   0.007781   0.404468  -0.005133
    13  H   -0.000001   0.000057  -0.038738  -0.004924   0.403269   0.007772
    14  H    0.310834  -0.032763   0.000090   0.000804   0.000048   0.000066
               7          8          9         10         11         12
     1  O   -0.000087  -0.027037   0.011716   0.001790  -0.000060  -0.000001
     2  O   -0.000182   0.194393  -0.007031   0.000418   0.000047  -0.000014
     3  C    0.384915  -0.018607  -0.034356  -0.037323  -0.038651  -0.035448
     4  C   -0.035118   0.216607   0.387571   0.384538  -0.001680   0.007781
     5  C   -0.037992  -0.003453   0.006091  -0.005489   0.402277   0.404468
     6  H   -0.043530  -0.004752  -0.002468   0.007265  -0.006689  -0.005133
     7  H    0.614328   0.003998  -0.005464  -0.005302   0.007988  -0.004283
     8  H    0.003998   0.430560  -0.009892  -0.013315   0.003913   0.000139
     9  H   -0.005464  -0.009892   0.522670  -0.024352  -0.000093  -0.000342
    10  H   -0.005302  -0.013315  -0.024352   0.539904  -0.000780  -0.000178
    11  H    0.007988   0.003913  -0.000093  -0.000780   0.587646  -0.031440
    12  H   -0.004283   0.000139  -0.000342  -0.000178  -0.031440   0.582881
    13  H   -0.006846  -0.000670   0.000045   0.004102  -0.038940  -0.032601
    14  H   -0.000021  -0.004948  -0.000824   0.000077  -0.000044  -0.000001
              13         14
     1  O   -0.000001   0.310834
     2  O    0.000057  -0.032763
     3  C   -0.038738   0.000090
     4  C   -0.004924   0.000804
     5  C    0.403269   0.000048
     6  H    0.007772   0.000066
     7  H   -0.006846  -0.000021
     8  H   -0.000670  -0.004948
     9  H    0.000045  -0.000824
    10  H    0.004102   0.000077
    11  H   -0.038940  -0.000044
    12  H   -0.032601  -0.000001
    13  H    0.594574   0.000001
    14  H    0.000001   0.460826
          Atomic-Atomic Spin Densities.
               1          2          3          4          5          6
     1  O    0.051319  -0.039162  -0.001118   0.015605  -0.000028  -0.000192
     2  O   -0.039162   0.541514   0.007895  -0.110487   0.000495   0.000813
     3  C   -0.001118   0.007895  -0.027225  -0.047259   0.009216   0.005773
     4  C    0.015605  -0.110487  -0.047259   0.783524  -0.006047  -0.008170
     5  C   -0.000028   0.000495   0.009216  -0.006047   0.005250   0.003368
     6  H   -0.000192   0.000813   0.005773  -0.008170   0.003368   0.013180
     7  H    0.000098  -0.000618   0.008316  -0.017424  -0.005452  -0.006880
     8  H    0.009095  -0.040471  -0.005767   0.073154  -0.000809  -0.000571
     9  H   -0.001812   0.003543   0.004940  -0.006759  -0.000227   0.000671
    10  H   -0.000474   0.003432   0.006518  -0.009456   0.000833  -0.000007
    11  H    0.000031  -0.000545  -0.000989   0.003347  -0.001942  -0.000641
    12  H    0.000001  -0.000012   0.000258   0.000275  -0.000604  -0.000185
    13  H   -0.000002   0.000075   0.000747  -0.000673   0.000565   0.000189
    14  H    0.000787  -0.000943  -0.000028  -0.000202  -0.000002  -0.000006
               7          8          9         10         11         12
     1  O    0.000098   0.009095  -0.001812  -0.000474   0.000031   0.000001
     2  O   -0.000618  -0.040471   0.003543   0.003432  -0.000545  -0.000012
     3  C    0.008316  -0.005767   0.004940   0.006518  -0.000989   0.000258
     4  C   -0.017424   0.073154  -0.006759  -0.009456   0.003347   0.000275
     5  C   -0.005452  -0.000809  -0.000227   0.000833  -0.001942  -0.000604
     6  H   -0.006880  -0.000571   0.000671  -0.000007  -0.000641  -0.000185
     7  H    0.069131   0.000755  -0.001134  -0.001475   0.000715   0.000702
     8  H    0.000755  -0.058122   0.002480   0.000511   0.000169   0.000060
     9  H   -0.001134   0.002480  -0.038503   0.003447  -0.000029   0.000009
    10  H   -0.001475   0.000511   0.003447  -0.038759  -0.000178  -0.000034
    11  H    0.000715   0.000169  -0.000029  -0.000178   0.001875   0.000171
    12  H    0.000702   0.000060   0.000009  -0.000034   0.000171   0.000132
    13  H   -0.001148  -0.000191   0.000046   0.000172  -0.000753  -0.000093
    14  H    0.000005   0.000438  -0.000156  -0.000002   0.000004  -0.000000
              13         14
     1  O   -0.000002   0.000787
     2  O    0.000075  -0.000943
     3  C    0.000747  -0.000028
     4  C   -0.000673  -0.000202
     5  C    0.000565  -0.000002
     6  H    0.000189  -0.000006
     7  H   -0.001148   0.000005
     8  H   -0.000191   0.000438
     9  H    0.000046  -0.000156
    10  H    0.000172  -0.000002
    11  H   -0.000753   0.000004
    12  H   -0.000093  -0.000000
    13  H    0.001240  -0.000000
    14  H   -0.000000  -0.001678
 Mulliken charges and spin densities:
               1          2
     1  O   -0.250343   0.034148
     2  O   -0.229306   0.365528
     3  C   -0.216293  -0.038722
     4  C   -0.370629   0.669429
     5  C   -0.333697   0.004614
     6  H    0.124804   0.007343
     7  H    0.127595   0.045588
     8  H    0.233063  -0.019269
     9  H    0.156728  -0.033484
    10  H    0.148645  -0.035474
    11  H    0.116506   0.001234
    12  H    0.114171   0.000678
    13  H    0.112902   0.000173
    14  H    0.265853  -0.001785
 Sum of Mulliken charges =  -0.00000   1.00000
 Mulliken charges and spin densities with hydrogens summed into heavy atoms:
               1          2
     1  O    0.015510   0.032363
     2  O    0.003757   0.346259
     3  C    0.036106   0.014209
     4  C   -0.065256   0.600471
     5  C    0.009882   0.006699
 Electronic spatial extent (au):  <R**2>=            730.5137
 Charge=             -0.0000 electrons
 Dipole moment (field-independent basis, Debye):
    X=             -1.6176    Y=              0.6933    Z=             -1.6403  Tot=              2.4058
 Quadrupole moment (field-independent basis, Debye-Ang):
   XX=            -34.0874   YY=            -33.9893   ZZ=            -30.1158
   XY=              0.2085   XZ=             -4.9104   YZ=              0.4464
 Traceless Quadrupole moment (field-independent basis, Debye-Ang):
   XX=             -1.3566   YY=             -1.2585   ZZ=              2.6151
   XY=              0.2085   XZ=             -4.9104   YZ=              0.4464
 Octapole moment (field-independent basis, Debye-Ang**2):
  XXX=             13.3439  YYY=             -0.1975  ZZZ=             -3.8155  XYY=              4.1225
  XXY=             -0.1626  XXZ=            -13.7544  XZZ=             11.3980  YZZ=             -0.6742
  YYZ=             -0.6507  XYZ=              0.8001
 Hexadecapole moment (field-independent basis, Debye-Ang**3):
 XXXX=           -708.0201 YYYY=           -135.0026 ZZZZ=            -70.3277 XXXY=             -9.0973
 XXXZ=            -35.0194 YYYX=             -2.4075 YYYZ=             -0.5020 ZZZX=            -14.5676
 ZZZY=             -1.5178 XXYY=           -145.4824 XXZZ=           -112.9392 YYZZ=            -36.9001
 XXYZ=              1.6933 YYXZ=             -1.7084 ZZXY=             -0.3201
 N-N= 1.821196054519D+02 E-N=-9.963147989371D+02  KE= 2.685183175366D+02
                          Isotropic Fermi Contact Couplings
        Atom                 a.u.       MegaHertz       Gauss      10(-4) cm-1
     1  O(17)              0.00111      -0.67583      -0.24115      -0.22543
     2  O(17)              0.11645     -70.59017     -25.18833     -23.54634
     3  C(13)             -0.00960     -10.79684      -3.85258      -3.60144
     4  C(13)              0.17471     196.40240      70.08126      65.51279
     5  C(13)              0.00781       8.78169       3.13353       2.92926
     6  H(1)               0.00402      17.96703       6.41108       5.99316
     7  H(1)               0.02240     100.12022      35.72538      33.39651
     8  H(1)              -0.02965    -132.51071     -47.28312     -44.20082
     9  H(1)              -0.00791     -35.35592     -12.61587     -11.79347
    10  H(1)              -0.00792     -35.38552     -12.62643     -11.80334
    11  H(1)              -0.00022      -0.97462      -0.34777      -0.32510
    12  H(1)              -0.00037      -1.66645      -0.59463      -0.55587
    13  H(1)              -0.00019      -0.82848      -0.29562      -0.27635
    14  H(1)              -0.00069      -3.09979      -1.10608      -1.03398
 --------------------------------------------------------
       Center         ----  Spin Dipole Couplings  ----
                      3XX-RR        3YY-RR        3ZZ-RR
 --------------------------------------------------------
     1   Atom        0.223203     -0.110146     -0.113057
     2   Atom        0.808731      0.100779     -0.909510
     3   Atom        0.025468     -0.008024     -0.017444
     4   Atom       -0.036917      0.286556     -0.249639
     5   Atom        0.007693      0.000043     -0.007736
     6   Atom       -0.001922     -0.007153      0.009075
     7   Atom        0.006342     -0.000122     -0.006220
     8   Atom        0.118866     -0.011022     -0.107845
     9   Atom        0.007870      0.031638     -0.039508
    10   Atom       -0.032506     -0.015917      0.048423
    11   Atom        0.002014      0.002589     -0.004603
    12   Atom        0.003439     -0.001077     -0.002362
    13   Atom        0.004906     -0.001061     -0.003845
    14   Atom        0.000299     -0.011708      0.011409
 --------------------------------------------------------
                        XY            XZ            YZ
 --------------------------------------------------------
     1   Atom       -0.189912      0.037993      0.006905
     2   Atom       -1.314352      0.176830     -0.142765
     3   Atom       -0.021271      0.007023     -0.000453
     4   Atom       -0.462016     -0.196744      0.271752
     5   Atom        0.010098      0.001199     -0.000671
     6   Atom       -0.002236      0.009470     -0.002228
     7   Atom       -0.007757      0.003776      0.002222
     8   Atom       -0.143923     -0.019809      0.024409
     9   Atom        0.027180     -0.019280     -0.001755
    10   Atom       -0.015384     -0.016546     -0.013090
    11   Atom        0.005856      0.002869      0.002908
    12   Atom        0.002461      0.002086      0.001032
    13   Atom        0.004621     -0.002431     -0.001543
    14   Atom        0.001172     -0.009934     -0.003198
 --------------------------------------------------------


 ---------------------------------------------------------------------------------
              Anisotropic Spin Dipole Couplings in Principal Axis System
 ---------------------------------------------------------------------------------

       Atom             a.u.   MegaHertz   Gauss  10(-4) cm-1        Axes

              Baa    -0.2017    14.596     5.208     4.869  0.4138  0.8766 -0.2456
     1 O(17)  Bbb    -0.1099     7.950     2.837     2.652  0.0348  0.2543  0.9665
              Bcc     0.3116   -22.546    -8.045    -7.521  0.9097 -0.4084  0.0748
 
              Baa    -0.9297    67.275    24.005    22.440  0.0819  0.2386  0.9677
     2 O(17)  Bbb    -0.9050    65.486    23.367    21.844  0.6064  0.7586 -0.2384
              Bcc     1.8347  -132.761   -47.372   -44.284  0.7909 -0.6063  0.0825
 
              Baa    -0.0209    -2.809    -1.002    -0.937 -0.3841 -0.6086  0.6943
     3 C(13)  Bbb    -0.0157    -2.100    -0.749    -0.701  0.2244  0.6680  0.7096
              Bcc     0.0366     4.909     1.752     1.637  0.8956 -0.4283  0.1200
 
              Baa    -0.3677   -49.342   -17.606   -16.459  0.7119  0.2266  0.6647
     4 C(13)  Bbb    -0.3616   -48.523   -17.314   -16.186 -0.4390 -0.5951  0.6731
              Bcc     0.7293    97.865    34.921    32.644 -0.5481  0.7710  0.3242
 
              Baa    -0.0086    -1.160    -0.414    -0.387 -0.3496  0.4692  0.8109
     5 C(13)  Bbb    -0.0060    -0.811    -0.289    -0.270 -0.4469  0.6772 -0.5845
              Bcc     0.0147     1.970     0.703     0.657  0.8234  0.5668  0.0271
 
              Baa    -0.0083    -4.427    -1.580    -1.477  0.6240  0.7420 -0.2450
     6 H(1)   Bbb    -0.0066    -3.548    -1.266    -1.183 -0.6017  0.6563  0.4553
              Bcc     0.0149     7.975     2.846     2.660  0.4986 -0.1367  0.8560
 
              Baa    -0.0098    -5.242    -1.870    -1.748 -0.4194 -0.5077  0.7525
     7 H(1)   Bbb    -0.0019    -1.016    -0.362    -0.339  0.3420  0.6795  0.6490
              Bcc     0.0117     6.257     2.233     2.087  0.8409 -0.5296  0.1114
 
              Baa    -0.1176   -62.726   -22.382   -20.923 -0.2539 -0.5285  0.8101
     8 H(1)   Bbb    -0.0970   -51.770   -18.473   -17.269  0.4884  0.6529  0.5790
              Bcc     0.2146   114.496    40.855    38.192  0.8349 -0.5426 -0.0924
 
              Baa    -0.0472   -25.174    -8.983    -8.397  0.3762 -0.1092  0.9201
     9 H(1)   Bbb    -0.0039    -2.082    -0.743    -0.694  0.7301 -0.5765 -0.3669
              Bcc     0.0511    27.256     9.725     9.092  0.5705  0.8098 -0.1371
 
              Baa    -0.0463   -24.712    -8.818    -8.243  0.8306  0.5133  0.2160
    10 H(1)   Bbb    -0.0068    -3.653    -1.303    -1.218 -0.5329  0.8452  0.0406
              Bcc     0.0532    28.365    10.121     9.462 -0.1617 -0.1488  0.9756
 
              Baa    -0.0058    -3.094    -1.104    -1.032 -0.2160 -0.1817  0.9593
    11 H(1)   Bbb    -0.0036    -1.899    -0.678    -0.633  0.7168 -0.6966  0.0295
              Bcc     0.0094     4.993     1.782     1.666  0.6630  0.6940  0.2808
 
              Baa    -0.0031    -1.646    -0.587    -0.549 -0.2226 -0.2160  0.9507
    12 H(1)   Bbb    -0.0021    -1.146    -0.409    -0.382 -0.4327  0.8957  0.1022
              Bcc     0.0052     2.792     0.996     0.931  0.8736  0.3886  0.2928
 
              Baa    -0.0046    -2.439    -0.870    -0.814  0.1126  0.2720  0.9557
    13 H(1)   Bbb    -0.0035    -1.890    -0.674    -0.631 -0.5113  0.8406 -0.1790
              Bcc     0.0081     4.329     1.545     1.444  0.8520  0.4685 -0.2337
 
              Baa    -0.0121    -6.481    -2.312    -2.162  0.0212  0.9895  0.1433
    14 H(1)   Bbb    -0.0055    -2.920    -1.042    -0.974  0.8657 -0.0898  0.4924
              Bcc     0.0176     9.401     3.354     3.136 -0.5001 -0.1136  0.8585
 

 ---------------------------------------------------------------------------------

 No NMR shielding tensors so no spin-rotation constants.
 Leave Link  601 at Thu Sep  5 15:57:23 2019, MaxMem=   671088640 cpu:              94.5 elap:              47.3
 (Enter /shared/centos7/gaussian/g16/l9999.exe)
 1\1\GINC-C0266\FOpt\UM062X\CC-pVTZ\C3H9O2(2)\HARMS.N\05-Sep-2019\0\\#p
  m062x/cc-pVTZ Opt=(ModRedun,Loose,maxcycles=900) Int(Grid=SG1) scf=(m
 axcycle=900)\\Gaussian input prepared by ASE\\0,2\O,1.7396495121,-0.86
 63928867,-1.3959398824\O,0.8653880735,-1.7619804987,-0.7830836361\C,-0
 .1556187102,-0.0649166219,2.1015231651\C,0.9810131,-0.778619118,1.4263
 165942\C,-1.3220603708,-0.9918198522,2.4232769885\H,-0.4946494835,0.76
 78991464,1.4824946925\H,0.2185523761,0.3860562011,3.0290568549\H,0.552
 9897787,-1.2445096066,0.2126001697\H,1.8060773282,-0.1747960604,1.0621
 310954\H,1.301508851,-1.7058344144,1.8935701606\H,-1.7372895281,-1.421
 4649982,1.5116208829\H,-2.1193493203,-0.4638581367,2.9420954354\H,-0.9
 933689902,-1.8151562269,3.0578686253\H,1.1591906992,-0.3575297034,-1.9
 747502685\\Version=EM64L-G16RevA.03\State=2-A\HF=-269.9778413\S2=0.759
 95\S2-1=0.\S2A=0.750049\RMSD=7.935e-09\RMSF=2.918e-03\Dipole=-0.489024
 3,0.733891,0.3437328\Quadrupole=-1.8377564,-0.387221,2.2249774,0.54100
 2,1.5422482,-3.0640395\PG=C01 [X(C3H9O2)]\\@


 THERE IS AN OLD, OLD RECIPE IN MAINE FOR STEWING COOT. PLACE THE
 BIRD IN A KETTLE OF WATER WITH A RED BUILDING BRICK FREE OF MORTAR AND
 BLEMISHES. PARBOIL THE COOT AND BRICK TOGETHER FOR THREE HOURS.
 POUR OFF THE WATER, REFILL THE KETTLE, AND AGAIN PARBOIL FOR THREE HOURS.
 ONCE AGAIN POUR OFF THE WATER, FOR THE LAST TIME ADD FRESH WATER,
 AND LET THE COOT AND BRICK SIMMER TOGETHER OVERNIGHT. IN THE MORNING,
 THROW AWAY THE COOT AND EAT THE BRICK.
 Job cpu time:       0 days  9 hours 13 minutes 26.8 seconds.
 Elapsed time:       0 days  4 hours 36 minutes 47.5 seconds.
 File lengths (MBytes):  RWF=    304 Int=      0 D2E=      0 Chk=     32 Scr=     32
 Normal termination of Gaussian 16 at Thu Sep  5 15:57:24 2019.
