 Entering Gaussian System, Link 0=g16
 Input=loose/ts/CCC+[O]O_[CH2]CC+OO/conformers/CCC+[O]O_[CH2]CC+OO_forward_shell_4.com
 Output=loose/ts/CCC+[O]O_[CH2]CC+OO/conformers/CCC+[O]O_[CH2]CC+OO_forward_shell_4.log
 Initial command:
 /shared/centos7/gaussian/g16/l1.exe "/scratch/harms.n/gauss_scrdir/Gau-47279.inp" -scrdir="/scratch/harms.n/gauss_scrdir/"
 Entering Link 1 = /shared/centos7/gaussian/g16/l1.exe PID=     47289.
  
 Copyright (c) 1988,1990,1992,1993,1995,1998,2003,2009,2016,
            Gaussian, Inc.  All Rights Reserved.
  
 This is part of the Gaussian(R) 16 program.  It is based on
 the Gaussian(R) 09 system (copyright 2009, Gaussian, Inc.),
 the Gaussian(R) 03 system (copyright 2003, Gaussian, Inc.),
 the Gaussian(R) 98 system (copyright 1998, Gaussian, Inc.),
 the Gaussian(R) 94 system (copyright 1995, Gaussian, Inc.),
 the Gaussian 92(TM) system (copyright 1992, Gaussian, Inc.),
 the Gaussian 90(TM) system (copyright 1990, Gaussian, Inc.),
 the Gaussian 88(TM) system (copyright 1988, Gaussian, Inc.),
 the Gaussian 86(TM) system (copyright 1986, Carnegie Mellon
 University), and the Gaussian 82(TM) system (copyright 1983,
 Carnegie Mellon University). Gaussian is a federally registered
 trademark of Gaussian, Inc.
  
 This software contains proprietary and confidential information,
 including trade secrets, belonging to Gaussian, Inc.
  
 This software is provided under written license and may be
 used, copied, transmitted, or stored only in accord with that
 written license.
  
 The following legend is applicable only to US Government
 contracts under FAR:
  
                    RESTRICTED RIGHTS LEGEND
  
 Use, reproduction and disclosure by the US Government is
 subject to restrictions as set forth in subparagraphs (a)
 and (c) of the Commercial Computer Software - Restricted
 Rights clause in FAR 52.227-19.
  
 Gaussian, Inc.
 340 Quinnipiac St., Bldg. 40, Wallingford CT 06492
  
  
 ---------------------------------------------------------------
 Warning -- This program may not be used in any manner that
 competes with the business of Gaussian, Inc. or will provide
 assistance to any competitor of Gaussian, Inc.  The licensee
 of this program is prohibited from giving any competitor of
 Gaussian, Inc. access to this program.  By using this program,
 the user acknowledges that Gaussian, Inc. is engaged in the
 business of creating and licensing software in the field of
 computational chemistry and represents and warrants to the
 licensee that it is not a competitor of Gaussian, Inc. and that
 it will not use this program in any manner prohibited above.
 ---------------------------------------------------------------
  

 Cite this work as:
 Gaussian 16, Revision A.03,
 M. J. Frisch, G. W. Trucks, H. B. Schlegel, G. E. Scuseria, 
 M. A. Robb, J. R. Cheeseman, G. Scalmani, V. Barone, 
 G. A. Petersson, H. Nakatsuji, X. Li, M. Caricato, A. V. Marenich, 
 J. Bloino, B. G. Janesko, R. Gomperts, B. Mennucci, H. P. Hratchian, 
 J. V. Ortiz, A. F. Izmaylov, J. L. Sonnenberg, D. Williams-Young, 
 F. Ding, F. Lipparini, F. Egidi, J. Goings, B. Peng, A. Petrone, 
 T. Henderson, D. Ranasinghe, V. G. Zakrzewski, J. Gao, N. Rega, 
 G. Zheng, W. Liang, M. Hada, M. Ehara, K. Toyota, R. Fukuda, 
 J. Hasegawa, M. Ishida, T. Nakajima, Y. Honda, O. Kitao, H. Nakai, 
 T. Vreven, K. Throssell, J. A. Montgomery, Jr., J. E. Peralta, 
 F. Ogliaro, M. J. Bearpark, J. J. Heyd, E. N. Brothers, K. N. Kudin, 
 V. N. Staroverov, T. A. Keith, R. Kobayashi, J. Normand, 
 K. Raghavachari, A. P. Rendell, J. C. Burant, S. S. Iyengar, 
 J. Tomasi, M. Cossi, J. M. Millam, M. Klene, C. Adamo, R. Cammi, 
 J. W. Ochterski, R. L. Martin, K. Morokuma, O. Farkas, 
 J. B. Foresman, and D. J. Fox, Gaussian, Inc., Wallingford CT, 2016.
 
 ******************************************
 Gaussian 16:  EM64L-G16RevA.03 25-Dec-2016
                 5-Sep-2019 
 ******************************************
 %nprocshared=20
 Will use up to   20 processors via shared memory.
 %mem=5GB
 ----------------------------------------------------------------------
 #p m062x/cc-pVTZ Opt=(ModRedun,Loose,maxcycles=900) Int(Grid=SG1) scf=
 (maxcycle=900)
 ----------------------------------------------------------------------
 1/6=900,7=-1,18=120,19=15,26=2,38=1/1,3;
 2/9=110,12=2,17=6,18=5,40=1/2;
 3/5=16,6=1,11=2,25=1,30=1,71=1,74=-55,75=1/1,2,3;
 4//1;
 5/5=2,7=900,38=5/2;
 6/7=2,8=2,9=2,10=2,28=1/1;
 7//1,2,3,16;
 1/6=900,7=-1,18=20,19=15,26=2/3(2);
 2/9=110/2;
 99//99;
 2/9=110/2;
 3/5=16,6=1,11=2,25=1,30=1,71=1,74=-55,75=1/1,2,3;
 4/5=5,16=3,69=1/1;
 5/5=2,7=900,38=5/2;
 7//1,2,3,16;
 1/6=900,7=-1,18=20,19=15,26=2/3(-5);
 2/9=110/2;
 6/7=2,8=2,9=2,10=2,19=2,28=1/1;
 99/9=1/99;
 Leave Link    1 at Thu Sep  5 10:06:56 2019, MaxMem=   671088640 cpu:               3.4 elap:               1.7
 (Enter /shared/centos7/gaussian/g16/l101.exe)
 ------------------------------
 Gaussian input prepared by ASE
 ------------------------------
 Symbolic Z-matrix:
 Charge =  0 Multiplicity = 2
 O                     1.90162  -0.68791  -1.67648 
 O                     1.04577  -1.44342  -1.02176 
 C                    -0.29961  -0.15138   1.92023 
 C                     0.83894  -0.9874    1.34701 
 C                    -1.28606  -0.94914   2.76747 
 H                    -0.86278   0.33489   1.09508 
 H                     0.12365   0.67434   2.53123 
 H                     0.89287  -0.87597  -0.01609 
 H                     1.83828  -0.67144   1.71536 
 H                     0.70391  -2.08294   1.47233 
 H                    -1.77681  -1.74382   2.16587 
 H                    -2.08134  -0.28358   3.16434 
 H                    -0.76392  -1.4326    3.62055 
 H                     1.32883  -0.00184  -2.10285 
 
 Add virtual bond connecting atoms H8         and O2         Dist= 2.20D+00.
 Add virtual bond connecting atoms H8         and C4         Dist= 2.59D+00.
 The following ModRedundant input section has been read:
 B       4       8 F                                                           
 B       2       8 F                                                           
 A       2       8       4 F                                                   
 
 ITRead=  0  0  0  0  0  0  0  0  0  0  0  0  0  0
 MicOpt= -1 -1 -1 -1 -1 -1 -1 -1 -1 -1 -1 -1 -1 -1
 NAtoms=     14 NQM=       14 NQMF=       0 NMMI=      0 NMMIF=      0
                NMic=       0 NMicF=      0.
                    Isotopes and Nuclear Properties:
 (Nuclear quadrupole moments (NQMom) in fm**2, nuclear magnetic moments (NMagM)
  in nuclear magnetons)

  Atom         1           2           3           4           5           6           7           8           9          10
 IAtWgt=          16          16          12          12          12           1           1           1           1           1
 AtmWgt=  15.9949146  15.9949146  12.0000000  12.0000000  12.0000000   1.0078250   1.0078250   1.0078250   1.0078250   1.0078250
 NucSpn=           0           0           0           0           0           1           1           1           1           1
 AtZEff=  -0.0000000  -0.0000000  -0.0000000  -0.0000000  -0.0000000  -0.0000000  -0.0000000  -0.0000000  -0.0000000  -0.0000000
 NQMom=    0.0000000   0.0000000   0.0000000   0.0000000   0.0000000   0.0000000   0.0000000   0.0000000   0.0000000   0.0000000
 NMagM=    0.0000000   0.0000000   0.0000000   0.0000000   0.0000000   2.7928460   2.7928460   2.7928460   2.7928460   2.7928460
 AtZNuc=   8.0000000   8.0000000   6.0000000   6.0000000   6.0000000   1.0000000   1.0000000   1.0000000   1.0000000   1.0000000

  Atom        11          12          13          14
 IAtWgt=           1           1           1           1
 AtmWgt=   1.0078250   1.0078250   1.0078250   1.0078250
 NucSpn=           1           1           1           1
 AtZEff=  -0.0000000  -0.0000000  -0.0000000  -0.0000000
 NQMom=    0.0000000   0.0000000   0.0000000   0.0000000
 NMagM=    2.7928460   2.7928460   2.7928460   2.7928460
 AtZNuc=   1.0000000   1.0000000   1.0000000   1.0000000
 Leave Link  101 at Thu Sep  5 10:06:59 2019, MaxMem=   671088640 cpu:               6.6 elap:               3.3
 (Enter /shared/centos7/gaussian/g16/l103.exe)

 GradGradGradGradGradGradGradGradGradGradGradGradGradGradGradGradGradGrad
 Berny optimization.
 Initialization pass.
                           ----------------------------
                           !    Initial Parameters    !
                           ! (Angstroms and Degrees)  !
 --------------------------                            --------------------------
 ! Name  Definition              Value          Derivative Info.                !
 --------------------------------------------------------------------------------
 ! R1    R(1,2)                  1.316          estimate D2E/DX2                !
 ! R2    R(1,14)                 0.9902         estimate D2E/DX2                !
 ! R3    R(2,8)                  1.1648         Frozen                          !
 ! R4    R(3,4)                  1.5244         estimate D2E/DX2                !
 ! R5    R(3,5)                  1.5255         estimate D2E/DX2                !
 ! R6    R(3,6)                  1.1111         estimate D2E/DX2                !
 ! R7    R(3,7)                  1.111          estimate D2E/DX2                !
 ! R8    R(4,8)                  1.3687         Frozen                          !
 ! R9    R(4,9)                  1.1109         estimate D2E/DX2                !
 ! R10   R(4,10)                 1.1109         estimate D2E/DX2                !
 ! R11   R(5,11)                 1.111          estimate D2E/DX2                !
 ! R12   R(5,12)                 1.1104         estimate D2E/DX2                !
 ! R13   R(5,13)                 1.1109         estimate D2E/DX2                !
 ! A1    A(2,1,14)             103.6376         estimate D2E/DX2                !
 ! A2    A(1,2,8)              103.6047         estimate D2E/DX2                !
 ! A3    A(4,3,5)              113.891          estimate D2E/DX2                !
 ! A4    A(4,3,6)              109.8361         estimate D2E/DX2                !
 ! A5    A(4,3,7)              109.2604         estimate D2E/DX2                !
 ! A6    A(5,3,6)              108.2738         estimate D2E/DX2                !
 ! A7    A(5,3,7)              109.2435         estimate D2E/DX2                !
 ! A8    A(6,3,7)              106.0366         estimate D2E/DX2                !
 ! A9    A(3,4,8)              111.0555         estimate D2E/DX2                !
 ! A10   A(3,4,9)              113.0293         estimate D2E/DX2                !
 ! A11   A(3,4,10)             114.0557         estimate D2E/DX2                !
 ! A12   A(8,4,9)              105.7603         estimate D2E/DX2                !
 ! A13   A(8,4,10)             101.3857         estimate D2E/DX2                !
 ! A14   A(9,4,10)             110.6344         estimate D2E/DX2                !
 ! A15   A(3,5,11)             111.036          estimate D2E/DX2                !
 ! A16   A(3,5,12)             110.3762         estimate D2E/DX2                !
 ! A17   A(3,5,13)             110.4955         estimate D2E/DX2                !
 ! A18   A(11,5,12)            107.8133         estimate D2E/DX2                !
 ! A19   A(11,5,13)            108.1883         estimate D2E/DX2                !
 ! A20   A(12,5,13)            108.8455         estimate D2E/DX2                !
 ! A21   A(2,8,4)              145.6251         Frozen                          !
 ! D1    D(14,1,2,8)           -84.0955         estimate D2E/DX2                !
 ! D2    D(1,2,8,4)           -132.917          estimate D2E/DX2                !
 ! D3    D(5,3,4,8)            123.8776         estimate D2E/DX2                !
 ! D4    D(5,3,4,9)           -117.4439         estimate D2E/DX2                !
 ! D5    D(5,3,4,10)            10.08           estimate D2E/DX2                !
 ! D6    D(6,3,4,8)              2.2524         estimate D2E/DX2                !
 ! D7    D(6,3,4,9)            120.9309         estimate D2E/DX2                !
 ! D8    D(6,3,4,10)          -111.5452         estimate D2E/DX2                !
 ! D9    D(7,3,4,8)           -113.6688         estimate D2E/DX2                !
 ! D10   D(7,3,4,9)              5.0096         estimate D2E/DX2                !
 ! D11   D(7,3,4,10)           132.5336         estimate D2E/DX2                !
 ! D12   D(4,3,5,11)           -61.1814         estimate D2E/DX2                !
 ! D13   D(4,3,5,12)           179.3147         estimate D2E/DX2                !
 ! D14   D(4,3,5,13)            58.8705         estimate D2E/DX2                !
 ! D15   D(6,3,5,11)            61.3055         estimate D2E/DX2                !
 ! D16   D(6,3,5,12)           -58.1983         estimate D2E/DX2                !
 ! D17   D(6,3,5,13)          -178.6426         estimate D2E/DX2                !
 ! D18   D(7,3,5,11)           176.3557         estimate D2E/DX2                !
 ! D19   D(7,3,5,12)            56.8518         estimate D2E/DX2                !
 ! D20   D(7,3,5,13)           -63.5924         estimate D2E/DX2                !
 ! D21   D(3,4,8,2)           -138.2895         estimate D2E/DX2                !
 ! D22   D(9,4,8,2)             98.7396         estimate D2E/DX2                !
 ! D23   D(10,4,8,2)           -16.7504         estimate D2E/DX2                !
 --------------------------------------------------------------------------------
 Trust Radius=3.00D-01 FncErr=1.00D-05 GrdErr=1.00D-04 EigMax=2.50D+02 EigMin=1.00D-04
 Number of steps in this run=    100 maximum allowed number of steps=    100.
 GradGradGradGradGradGradGradGradGradGradGradGradGradGradGradGradGradGrad

 Leave Link  103 at Thu Sep  5 10:07:00 2019, MaxMem=   671088640 cpu:               1.4 elap:               0.7
 (Enter /shared/centos7/gaussian/g16/l202.exe)
                          Input orientation:                          
 ---------------------------------------------------------------------
 Center     Atomic      Atomic             Coordinates (Angstroms)
 Number     Number       Type             X           Y           Z
 ---------------------------------------------------------------------
      1          8           0        1.901619   -0.687905   -1.676485
      2          8           0        1.045771   -1.443424   -1.021762
      3          6           0       -0.299611   -0.151380    1.920233
      4          6           0        0.838942   -0.987396    1.347010
      5          6           0       -1.286060   -0.949135    2.767466
      6          1           0       -0.862781    0.334894    1.095082
      7          1           0        0.123649    0.674344    2.531227
      8          1           0        0.892871   -0.875972   -0.016091
      9          1           0        1.838281   -0.671442    1.715362
     10          1           0        0.703906   -2.082938    1.472327
     11          1           0       -1.776810   -1.743818    2.165874
     12          1           0       -2.081343   -0.283576    3.164345
     13          1           0       -0.763923   -1.432604    3.620550
     14          1           0        1.328825   -0.001838   -2.102853
 ---------------------------------------------------------------------
                    Distance matrix (angstroms):
                    1          2          3          4          5
     1  O    0.000000
     2  O    1.316034   0.000000
     3  C    4.250841   3.483499   0.000000
     4  C    3.218773   2.421119   1.524404   0.000000
     5  C    5.475239   4.476607   1.525549   2.556324   0.000000
     6  H    4.045937   3.359466   1.111080   2.169742   2.150527
     7  H    4.766732   4.237803   1.110983   2.162266   2.163048
     8  H    1.951884   1.164798   2.386712   1.368709   3.535715
     9  H    3.392478   2.952266   2.209755   1.110941   3.308405
    10  H    3.646320   2.597370   2.222292   1.110923   2.631133
    11  H    5.423054   4.268281   2.185936   2.843390   1.110977
    12  H    6.281807   5.352343   2.177122   3.510859   1.110386
    13  H    5.976476   4.982587   2.179036   2.817156   1.110910
    14  H    0.990238   1.824020   4.342740   3.621169   5.608477
                    6          7          8          9         10
     6  H    0.000000
     7  H    1.775045   0.000000
     8  H    2.404831   3.079611   0.000000
     9  H    2.948422   2.327388   1.983320   0.000000
    10  H    2.905638   3.010078   1.925581   1.827072   0.000000
    11  H    2.510595   3.097214   3.555463   3.797609   2.598069
    12  H    2.479768   2.486050   4.394548   4.196837   3.722666
    13  H    3.084122   2.532516   4.034843   3.313695   2.681850
    14  H    3.891441   4.835738   2.304071   3.909818   4.183708
                   11         12         13         14
    11  H    0.000000
    12  H    1.794991   0.000000
    13  H    1.799688   1.806650   0.000000
    14  H    5.558911   6.281083   6.259715   0.000000
 Stoichiometry    C3H9O2(2)
 Framework group  C1[X(C3H9O2)]
 Deg. of freedom    36
 Full point group                 C1      NOp   1
 Largest Abelian subgroup         C1      NOp   1
 Largest concise Abelian subgroup C1      NOp   1
                         Standard orientation:                         
 ---------------------------------------------------------------------
 Center     Atomic      Atomic             Coordinates (Angstroms)
 Number     Number       Type             X           Y           Z
 ---------------------------------------------------------------------
      1          8           0        2.749543    0.247459   -0.103283
      2          8           0        1.778037   -0.639686   -0.070190
      3          6           0       -1.487338    0.560855   -0.245664
      4          6           0       -0.363940    0.175737    0.710092
      5          6           0       -2.689100   -0.377586   -0.196692
      6          1           0       -1.104394    0.582389   -1.288443
      7          1           0       -1.821688    1.596034   -0.020059
      8          1           0        0.817400    0.009930    0.039041
      9          1           0       -0.166188    0.949307    1.482539
     10          1           0       -0.491401   -0.822913    1.179775
     11          1           0       -2.399616   -1.411479   -0.482232
     12          1           0       -3.474529   -0.037168   -0.903922
     13          1           0       -3.117465   -0.407871    0.827860
     14          1           0        2.779515    0.525555   -1.053196
 ---------------------------------------------------------------------
 Rotational constants (GHZ):          14.0600798           1.4774668           1.4571531
 Leave Link  202 at Thu Sep  5 10:07:02 2019, MaxMem=   671088640 cpu:               3.2 elap:               1.6
 (Enter /shared/centos7/gaussian/g16/l301.exe)
 Standard basis: CC-pVTZ (5D, 7F)
 Ernie: Thresh=  0.10000D-02 Tol=  0.10000D-05 Strict=F.
 Ernie:  15 primitive shells out of 202 were deleted.
 There are   310 symmetry adapted cartesian basis functions of A   symmetry.
 There are   276 symmetry adapted basis functions of A   symmetry.
   276 basis functions,   413 primitive gaussians,   310 cartesian basis functions
    22 alpha electrons       21 beta electrons
       nuclear repulsion energy       178.8739370950 Hartrees.
 IExCor= 4336 DFT=T Ex+Corr=M062X ExCW=0 ScaHFX=  0.540000
 ScaDFX=  1.000000  1.000000  1.000000  1.000000 ScalE2=  1.000000  1.000000
 IRadAn=      1 IRanWt=     -1 IRanGd=            0 ICorTp=0 IEmpDi=  4
 NAtoms=   14 NActive=   14 NUniq=   14 SFac= 1.00D+00 NAtFMM=   60 NAOKFM=F Big=F
 Integral buffers will be    131072 words long.
 Raffenetti 2 integral format.
 Two-electron integral symmetry is turned on.
 Leave Link  301 at Thu Sep  5 10:07:03 2019, MaxMem=   671088640 cpu:               2.1 elap:               1.1
 (Enter /shared/centos7/gaussian/g16/l302.exe)
 NPDir=0 NMtPBC=     1 NCelOv=     1 NCel=       1 NClECP=     1 NCelD=      1
         NCelK=      1 NCelE2=     1 NClLst=     1 CellRange=     0.0.
 One-electron integrals computed using PRISM.
 One-electron integral symmetry used in STVInt
 NBasis=   276 RedAO= T EigKep=  7.15D-04  NBF=   276
 NBsUse=   276 1.00D-06 EigRej= -1.00D+00 NBFU=   276
 Precomputing XC quadrature grid using
 IXCGrd= 4 IRadAn=           1 IRanWt=          -1 IRanGd=           0 AccXCQ= 0.00D+00.
 Generated NRdTot=       0 NPtTot=           0 NUsed=           0 NTot=          32
 NSgBfM=   310   310   310   310   310 MxSgAt=    14 MxSgA2=    14.
 Leave Link  302 at Thu Sep  5 10:07:56 2019, MaxMem=   671088640 cpu:             106.2 elap:              53.1
 (Enter /shared/centos7/gaussian/g16/l303.exe)
 DipDrv:  MaxL=1.
 Leave Link  303 at Thu Sep  5 10:08:00 2019, MaxMem=   671088640 cpu:               8.5 elap:               4.3
 (Enter /shared/centos7/gaussian/g16/l401.exe)
 ExpMin= 1.03D-01 ExpMax= 1.53D+04 ExpMxC= 5.22D+02 IAcc=1 IRadAn=         1 AccDes= 0.00D+00
 Harris functional with IExCor= 1009 and IRadAn=       1 diagonalized for initial guess.
 HarFok:  IExCor= 1009 AccDes= 0.00D+00 IRadAn=         1 IDoV= 1 UseB2=F ITyADJ=14
 ICtDFT=  3500011 ScaDFX=  1.000000  1.000000  1.000000  1.000000
 FoFCou: FMM=F IPFlag=           0 FMFlag=      100000 FMFlg1=           0
         NFxFlg=           0 DoJE=T BraDBF=F KetDBF=T FulRan=T
         wScrn=  0.000000 ICntrl=       500 IOpCl=  0 I1Cent=   200000004 NGrid=           0
         NMat0=    1 NMatS0=      1 NMatT0=    0 NMatD0=    1 NMtDS0=    0 NMtDT0=    0
 Petite list used in FoFCou.
 Harris En= -269.898978757681    
 JPrj=0 DoOrth=F DoCkMO=F.
 Initial guess <Sx>= 0.0000 <Sy>= 0.0000 <Sz>= 0.5000 <S**2>= 0.7500 S= 0.5000
 Leave Link  401 at Thu Sep  5 10:08:44 2019, MaxMem=   671088640 cpu:              69.4 elap:              44.1
 (Enter /shared/centos7/gaussian/g16/l502.exe)
 Integral symmetry usage will be decided dynamically.
 UHF open shell SCF:
 Using DIIS extrapolation, IDIIS=  1040.
 NGot=   671088640 LenX=   670887394 LenY=   670790853
 Requested convergence on RMS density matrix=1.00D-08 within 900 cycles.
 Requested convergence on MAX density matrix=1.00D-06.
 Requested convergence on             energy=1.00D-06.
 No special actions if energy rises.
 Fock matrices will be formed incrementally for  20 cycles.

 Cycle   1  Pass 1  IDiag  1:
 FoFJK:  IHMeth= 1 ICntrl=       0 DoSepK=F KAlg= 0 I1Cent=           0 FoldK=F
 IRaf= 940000000 NMat=       1 IRICut=       1 DoRegI=T DoRafI=F ISym2E= 0 IDoP0=0 IntGTp=1.
 FoFCou: FMM=F IPFlag=           0 FMFlag=      100000 FMFlg1=           0
         NFxFlg=           0 DoJE=F BraDBF=F KetDBF=F FulRan=T
         wScrn=  0.000000 ICntrl=         0 IOpCl=  1 I1Cent=           0 NGrid=           0
         NMat0=    1 NMatS0=      1 NMatT0=    0 NMatD0=    1 NMtDS0=    0 NMtDT0=    0
 Symmetry not used in FoFCou.
 E= -269.762258668673    
 DIIS: error= 3.31D-02 at cycle   1 NSaved=   1.
 NSaved= 1 IEnMin= 1 EnMin= -269.762258668673     IErMin= 1 ErrMin= 3.31D-02
 ErrMax= 3.31D-02  0.00D+00 EMaxC= 1.00D-01 BMatC= 8.92D-01 BMatP= 8.92D-01
 IDIUse=3 WtCom= 6.69D-01 WtEn= 3.31D-01
 Coeff-Com:  0.100D+01
 Coeff-En:   0.100D+01
 Coeff:      0.100D+01
 Gap=     0.349 Goal=   None    Shift=    0.000
 Gap=     0.336 Goal=   None    Shift=    0.000
 GapD=    0.336 DampG=1.000 DampE=0.500 DampFc=0.5000 IDamp=-1.
 Damping current iteration by 5.00D-01
 RMSDP=2.19D-03 MaxDP=9.45D-02              OVMax= 2.30D-01

 Cycle   2  Pass 1  IDiag  1:
 RMSU=  1.09D-03    CP:  9.98D-01
 E= -269.860903298670     Delta-E=       -0.098644629997 Rises=F Damp=T
 DIIS: error= 4.57D-03 at cycle   2 NSaved=   2.
 NSaved= 2 IEnMin= 2 EnMin= -269.860903298670     IErMin= 2 ErrMin= 4.57D-03
 ErrMax= 4.57D-03  0.00D+00 EMaxC= 1.00D-01 BMatC= 7.31D-02 BMatP= 8.92D-01
 IDIUse=3 WtCom= 9.54D-01 WtEn= 4.57D-02
 Coeff-Com: -0.839D-01 0.108D+01
 Coeff-En:   0.000D+00 0.100D+01
 Coeff:     -0.801D-01 0.108D+01
 Gap=     0.351 Goal=   None    Shift=    0.000
 Gap=     0.337 Goal=   None    Shift=    0.000
 RMSDP=5.58D-04 MaxDP=2.21D-02 DE=-9.86D-02 OVMax= 1.38D-01

 Cycle   3  Pass 1  IDiag  1:
 RMSU=  5.51D-04    CP:  1.00D+00  9.42D-01
 E= -269.958452279455     Delta-E=       -0.097548980785 Rises=F Damp=F
 DIIS: error= 4.31D-03 at cycle   3 NSaved=   3.
 NSaved= 3 IEnMin= 3 EnMin= -269.958452279455     IErMin= 3 ErrMin= 4.31D-03
 ErrMax= 4.31D-03  0.00D+00 EMaxC= 1.00D-01 BMatC= 2.17D-02 BMatP= 7.31D-02
 IDIUse=3 WtCom= 9.57D-01 WtEn= 4.31D-02
 Coeff-Com: -0.787D-01 0.369D+00 0.710D+00
 Coeff-En:   0.000D+00 0.000D+00 0.100D+01
 Coeff:     -0.754D-01 0.353D+00 0.723D+00
 Gap=     0.336 Goal=   None    Shift=    0.000
 Gap=     0.262 Goal=   None    Shift=    0.000
 RMSDP=2.40D-04 MaxDP=7.90D-03 DE=-9.75D-02 OVMax= 7.05D-02

 Cycle   4  Pass 1  IDiag  1:
 RMSU=  2.10D-04    CP:  1.00D+00  1.01D+00  8.41D-01
 E= -269.962903717462     Delta-E=       -0.004451438007 Rises=F Damp=F
 DIIS: error= 2.12D-03 at cycle   4 NSaved=   4.
 NSaved= 4 IEnMin= 4 EnMin= -269.962903717462     IErMin= 4 ErrMin= 2.12D-03
 ErrMax= 2.12D-03  0.00D+00 EMaxC= 1.00D-01 BMatC= 6.70D-03 BMatP= 2.17D-02
 IDIUse=3 WtCom= 9.79D-01 WtEn= 2.12D-02
 Coeff-Com: -0.277D-01 0.648D-01 0.378D+00 0.585D+00
 Coeff-En:   0.000D+00 0.000D+00 0.633D-01 0.937D+00
 Coeff:     -0.271D-01 0.634D-01 0.372D+00 0.592D+00
 Gap=     0.338 Goal=   None    Shift=    0.000
 Gap=     0.265 Goal=   None    Shift=    0.000
 RMSDP=1.01D-04 MaxDP=4.10D-03 DE=-4.45D-03 OVMax= 9.85D-03

 Cycle   5  Pass 1  IDiag  1:
 RMSU=  6.77D-05    CP:  1.00D+00  1.00D+00  9.57D-01  8.25D-01
 E= -269.964288875457     Delta-E=       -0.001385157995 Rises=F Damp=F
 DIIS: error= 4.61D-04 at cycle   5 NSaved=   5.
 NSaved= 5 IEnMin= 5 EnMin= -269.964288875457     IErMin= 5 ErrMin= 4.61D-04
 ErrMax= 4.61D-04  0.00D+00 EMaxC= 1.00D-01 BMatC= 2.42D-04 BMatP= 6.70D-03
 IDIUse=3 WtCom= 9.95D-01 WtEn= 4.61D-03
 Coeff-Com:  0.633D-02-0.274D-01-0.624D-02 0.425D-01 0.985D+00
 Coeff-En:   0.000D+00 0.000D+00 0.000D+00 0.000D+00 0.100D+01
 Coeff:      0.630D-02-0.273D-01-0.621D-02 0.423D-01 0.985D+00
 Gap=     0.339 Goal=   None    Shift=    0.000
 Gap=     0.269 Goal=   None    Shift=    0.000
 RMSDP=5.33D-05 MaxDP=1.73D-03 DE=-1.39D-03 OVMax= 1.56D-02

 Cycle   6  Pass 1  IDiag  1:
 RMSU=  2.55D-05    CP:  1.00D+00  9.95D-01  9.87D-01  9.78D-01  1.43D+00
 E= -269.964499144859     Delta-E=       -0.000210269401 Rises=F Damp=F
 DIIS: error= 3.33D-04 at cycle   6 NSaved=   6.
 NSaved= 6 IEnMin= 6 EnMin= -269.964499144859     IErMin= 6 ErrMin= 3.33D-04
 ErrMax= 3.33D-04  0.00D+00 EMaxC= 1.00D-01 BMatC= 9.42D-05 BMatP= 2.42D-04
 IDIUse=3 WtCom= 9.97D-01 WtEn= 3.33D-03
 Coeff-Com:  0.752D-02-0.179D-01-0.793D-01-0.173D+00 0.139D+00 0.112D+01
 Coeff-En:   0.000D+00 0.000D+00 0.000D+00 0.000D+00 0.000D+00 0.100D+01
 Coeff:      0.750D-02-0.179D-01-0.790D-01-0.173D+00 0.138D+00 0.112D+01
 Gap=     0.342 Goal=   None    Shift=    0.000
 Gap=     0.271 Goal=   None    Shift=    0.000
 RMSDP=4.34D-05 MaxDP=1.56D-03 DE=-2.10D-04 OVMax= 1.08D-02

 Cycle   7  Pass 1  IDiag  1:
 RMSU=  1.27D-05    CP:  1.00D+00  9.89D-01  1.01D+00  1.06D+00  1.90D+00
                    CP:  1.45D+00
 E= -269.964577397307     Delta-E=       -0.000078252448 Rises=F Damp=F
 DIIS: error= 1.14D-04 at cycle   7 NSaved=   7.
 NSaved= 7 IEnMin= 7 EnMin= -269.964577397307     IErMin= 7 ErrMin= 1.14D-04
 ErrMax= 1.14D-04  0.00D+00 EMaxC= 1.00D-01 BMatC= 1.69D-05 BMatP= 9.42D-05
 IDIUse=3 WtCom= 9.99D-01 WtEn= 1.14D-03
 Coeff-Com:  0.148D-02-0.116D-02-0.225D-01-0.734D-01-0.890D-01 0.418D+00
 Coeff-Com:  0.766D+00
 Coeff-En:   0.000D+00 0.000D+00 0.000D+00 0.000D+00 0.000D+00 0.000D+00
 Coeff-En:   0.100D+01
 Coeff:      0.148D-02-0.116D-02-0.225D-01-0.734D-01-0.889D-01 0.418D+00
 Coeff:      0.767D+00
 Gap=     0.341 Goal=   None    Shift=    0.000
 Gap=     0.271 Goal=   None    Shift=    0.000
 RMSDP=1.28D-05 MaxDP=3.65D-04 DE=-7.83D-05 OVMax= 3.99D-03

 Cycle   8  Pass 1  IDiag  1:
 RMSU=  5.22D-06    CP:  1.00D+00  9.89D-01  1.02D+00  1.08D+00  2.02D+00
                    CP:  1.70D+00  1.13D+00
 E= -269.964588274935     Delta-E=       -0.000010877628 Rises=F Damp=F
 DIIS: error= 5.01D-05 at cycle   8 NSaved=   8.
 NSaved= 8 IEnMin= 8 EnMin= -269.964588274935     IErMin= 8 ErrMin= 5.01D-05
 ErrMax= 5.01D-05  0.00D+00 EMaxC= 1.00D-01 BMatC= 3.22D-06 BMatP= 1.69D-05
 IDIUse=1 WtCom= 1.00D+00 WtEn= 0.00D+00
 Coeff-Com: -0.143D-02 0.369D-02 0.181D-01 0.287D-01-0.184D-01-0.223D+00
 Coeff-Com:  0.602D-01 0.113D+01
 Coeff:     -0.143D-02 0.369D-02 0.181D-01 0.287D-01-0.184D-01-0.223D+00
 Coeff:      0.602D-01 0.113D+01
 Gap=     0.341 Goal=   None    Shift=    0.000
 Gap=     0.271 Goal=   None    Shift=    0.000
 RMSDP=8.38D-06 MaxDP=2.91D-04 DE=-1.09D-05 OVMax= 2.51D-03

 Cycle   9  Pass 1  IDiag  1:
 RMSU=  2.75D-06    CP:  1.00D+00  9.89D-01  1.02D+00  1.09D+00  2.09D+00
                    CP:  1.82D+00  1.45D+00  1.63D+00
 E= -269.964591691813     Delta-E=       -0.000003416879 Rises=F Damp=F
 DIIS: error= 2.55D-05 at cycle   9 NSaved=   9.
 NSaved= 9 IEnMin= 9 EnMin= -269.964591691813     IErMin= 9 ErrMin= 2.55D-05
 ErrMax= 2.55D-05  0.00D+00 EMaxC= 1.00D-01 BMatC= 1.46D-06 BMatP= 3.22D-06
 IDIUse=1 WtCom= 1.00D+00 WtEn= 0.00D+00
 Coeff-Com: -0.892D-03 0.175D-02 0.133D-01 0.265D-01 0.744D-02-0.203D+00
 Coeff-Com: -0.107D+00 0.599D+00 0.663D+00
 Coeff:     -0.892D-03 0.175D-02 0.133D-01 0.265D-01 0.744D-02-0.203D+00
 Coeff:     -0.107D+00 0.599D+00 0.663D+00
 Gap=     0.342 Goal=   None    Shift=    0.000
 Gap=     0.271 Goal=   None    Shift=    0.000
 RMSDP=3.82D-06 MaxDP=1.40D-04 DE=-3.42D-06 OVMax= 1.16D-03

 Cycle  10  Pass 1  IDiag  1:
 RMSU=  1.43D-06    CP:  1.00D+00  9.89D-01  1.02D+00  1.10D+00  2.12D+00
                    CP:  1.87D+00  1.57D+00  1.96D+00  1.16D+00
 E= -269.964592668168     Delta-E=       -0.000000976354 Rises=F Damp=F
 DIIS: error= 1.51D-05 at cycle  10 NSaved=  10.
 NSaved=10 IEnMin=10 EnMin= -269.964592668168     IErMin=10 ErrMin= 1.51D-05
 ErrMax= 1.51D-05  0.00D+00 EMaxC= 1.00D-01 BMatC= 2.79D-07 BMatP= 1.46D-06
 IDIUse=1 WtCom= 1.00D+00 WtEn= 0.00D+00
 Coeff-Com:  0.364D-03-0.931D-03-0.309D-02-0.499D-02 0.110D-01 0.305D-01
 Coeff-Com: -0.411D-01-0.311D+00 0.160D+00 0.116D+01
 Coeff:      0.364D-03-0.931D-03-0.309D-02-0.499D-02 0.110D-01 0.305D-01
 Coeff:     -0.411D-01-0.311D+00 0.160D+00 0.116D+01
 Gap=     0.342 Goal=   None    Shift=    0.000
 Gap=     0.272 Goal=   None    Shift=    0.000
 RMSDP=3.40D-06 MaxDP=1.39D-04 DE=-9.76D-07 OVMax= 9.55D-04

 Cycle  11  Pass 1  IDiag  1:
 RMSU=  7.94D-07    CP:  1.00D+00  9.88D-01  1.02D+00  1.10D+00  2.14D+00
                    CP:  1.91D+00  1.67D+00  2.30D+00  1.67D+00  1.56D+00
 E= -269.964593100802     Delta-E=       -0.000000432634 Rises=F Damp=F
 DIIS: error= 6.69D-06 at cycle  11 NSaved=  11.
 NSaved=11 IEnMin=11 EnMin= -269.964593100802     IErMin=11 ErrMin= 6.69D-06
 ErrMax= 6.69D-06  0.00D+00 EMaxC= 1.00D-01 BMatC= 3.92D-08 BMatP= 2.79D-07
 IDIUse=1 WtCom= 1.00D+00 WtEn= 0.00D+00
 Coeff-Com:  0.185D-03-0.385D-03-0.289D-02-0.533D-02-0.338D-03 0.424D-01
 Coeff-Com:  0.177D-01-0.148D+00-0.101D+00 0.934D-01 0.110D+01
 Coeff:      0.185D-03-0.385D-03-0.289D-02-0.533D-02-0.338D-03 0.424D-01
 Coeff:      0.177D-01-0.148D+00-0.101D+00 0.934D-01 0.110D+01
 Gap=     0.342 Goal=   None    Shift=    0.000
 Gap=     0.272 Goal=   None    Shift=    0.000
 RMSDP=1.36D-06 MaxDP=5.92D-05 DE=-4.33D-07 OVMax= 4.49D-04

 Cycle  12  Pass 1  IDiag  1:
 RMSU=  3.41D-07    CP:  1.00D+00  9.88D-01  1.02D+00  1.10D+00  2.14D+00
                    CP:  1.92D+00  1.70D+00  2.43D+00  1.90D+00  1.98D+00
                    CP:  1.51D+00
 E= -269.964593180832     Delta-E=       -0.000000080030 Rises=F Damp=F
 DIIS: error= 2.84D-06 at cycle  12 NSaved=  12.
 NSaved=12 IEnMin=12 EnMin= -269.964593180832     IErMin=12 ErrMin= 2.84D-06
 ErrMax= 2.84D-06  0.00D+00 EMaxC= 1.00D-01 BMatC= 8.81D-09 BMatP= 3.92D-08
 IDIUse=1 WtCom= 1.00D+00 WtEn= 0.00D+00
 Coeff-Com: -0.117D-03 0.275D-03 0.889D-03 0.181D-02-0.272D-02-0.104D-01
 Coeff-Com:  0.467D-02 0.856D-01-0.129D-01-0.269D+00-0.253D+00 0.145D+01
 Coeff:     -0.117D-03 0.275D-03 0.889D-03 0.181D-02-0.272D-02-0.104D-01
 Coeff:      0.467D-02 0.856D-01-0.129D-01-0.269D+00-0.253D+00 0.145D+01
 Gap=     0.342 Goal=   None    Shift=    0.000
 Gap=     0.272 Goal=   None    Shift=    0.000
 RMSDP=8.32D-07 MaxDP=3.38D-05 DE=-8.00D-08 OVMax= 3.00D-04

 Cycle  13  Pass 1  IDiag  1:
 RMSU=  1.36D-07    CP:  1.00D+00  9.88D-01  1.02D+00  1.10D+00  2.14D+00
                    CP:  1.93D+00  1.72D+00  2.50D+00  2.01D+00  2.24D+00
                    CP:  2.05D+00  1.79D+00
 E= -269.964593200831     Delta-E=       -0.000000019999 Rises=F Damp=F
 DIIS: error= 1.04D-06 at cycle  13 NSaved=  13.
 NSaved=13 IEnMin=13 EnMin= -269.964593200831     IErMin=13 ErrMin= 1.04D-06
 ErrMax= 1.04D-06  0.00D+00 EMaxC= 1.00D-01 BMatC= 9.23D-10 BMatP= 8.81D-09
 IDIUse=1 WtCom= 1.00D+00 WtEn= 0.00D+00
 Coeff-Com: -0.212D-04 0.489D-04 0.370D-03 0.721D-03-0.903D-04-0.564D-02
 Coeff-Com: -0.311D-02 0.202D-01 0.158D-01 0.233D-02-0.185D+00-0.151D-01
 Coeff-Com:  0.117D+01
 Coeff:     -0.212D-04 0.489D-04 0.370D-03 0.721D-03-0.903D-04-0.564D-02
 Coeff:     -0.311D-02 0.202D-01 0.158D-01 0.233D-02-0.185D+00-0.151D-01
 Coeff:      0.117D+01
 Gap=     0.342 Goal=   None    Shift=    0.000
 Gap=     0.272 Goal=   None    Shift=    0.000
 RMSDP=2.33D-07 MaxDP=8.17D-06 DE=-2.00D-08 OVMax= 8.34D-05

 Cycle  14  Pass 1  IDiag  1:
 RMSU=  4.28D-08    CP:  1.00D+00  9.88D-01  1.02D+00  1.10D+00  2.14D+00
                    CP:  1.93D+00  1.72D+00  2.51D+00  2.03D+00  2.31D+00
                    CP:  2.20D+00  2.12D+00  1.43D+00
 E= -269.964593202355     Delta-E=       -0.000000001524 Rises=F Damp=F
 DIIS: error= 2.77D-07 at cycle  14 NSaved=  14.
 NSaved=14 IEnMin=14 EnMin= -269.964593202355     IErMin=14 ErrMin= 2.77D-07
 ErrMax= 2.77D-07  0.00D+00 EMaxC= 1.00D-01 BMatC= 9.58D-11 BMatP= 9.23D-10
 IDIUse=1 WtCom= 1.00D+00 WtEn= 0.00D+00
 Coeff-Com:  0.132D-04-0.295D-04-0.984D-04-0.157D-03 0.172D-03 0.110D-02
 Coeff-Com: -0.577D-03-0.840D-02 0.152D-02 0.304D-01 0.129D-01-0.148D+00
 Coeff-Com:  0.570D-01 0.105D+01
 Coeff:      0.132D-04-0.295D-04-0.984D-04-0.157D-03 0.172D-03 0.110D-02
 Coeff:     -0.577D-03-0.840D-02 0.152D-02 0.304D-01 0.129D-01-0.148D+00
 Coeff:      0.570D-01 0.105D+01
 Gap=     0.342 Goal=   None    Shift=    0.000
 Gap=     0.272 Goal=   None    Shift=    0.000
 RMSDP=5.31D-08 MaxDP=1.46D-06 DE=-1.52D-09 OVMax= 1.66D-05

 Cycle  15  Pass 1  IDiag  1:
 RMSU=  1.52D-08    CP:  1.00D+00  9.88D-01  1.02D+00  1.10D+00  2.14D+00
                    CP:  1.93D+00  1.72D+00  2.51D+00  2.03D+00  2.33D+00
                    CP:  2.23D+00  2.19D+00  1.60D+00  1.36D+00
 E= -269.964593202446     Delta-E=       -0.000000000090 Rises=F Damp=F
 DIIS: error= 1.06D-07 at cycle  15 NSaved=  15.
 NSaved=15 IEnMin=15 EnMin= -269.964593202446     IErMin=15 ErrMin= 1.06D-07
 ErrMax= 1.06D-07  0.00D+00 EMaxC= 1.00D-01 BMatC= 2.07D-11 BMatP= 9.58D-11
 IDIUse=1 WtCom= 1.00D+00 WtEn= 0.00D+00
 Coeff-Com:  0.493D-05-0.115D-04-0.603D-04-0.918D-04 0.542D-04 0.826D-03
 Coeff-Com:  0.345D-04-0.423D-02-0.671D-03 0.884D-02 0.202D-01-0.416D-01
 Coeff-Com: -0.101D+00 0.299D+00 0.818D+00
 Coeff:      0.493D-05-0.115D-04-0.603D-04-0.918D-04 0.542D-04 0.826D-03
 Coeff:      0.345D-04-0.423D-02-0.671D-03 0.884D-02 0.202D-01-0.416D-01
 Coeff:     -0.101D+00 0.299D+00 0.818D+00
 Gap=     0.342 Goal=   None    Shift=    0.000
 Gap=     0.272 Goal=   None    Shift=    0.000
 RMSDP=1.43D-08 MaxDP=4.83D-07 DE=-9.05D-11 OVMax= 3.20D-06

 Cycle  16  Pass 1  IDiag  1:
 RMSU=  5.42D-09    CP:  1.00D+00  9.88D-01  1.02D+00  1.10D+00  2.14D+00
                    CP:  1.93D+00  1.72D+00  2.51D+00  2.03D+00  2.33D+00
                    CP:  2.23D+00  2.21D+00  1.64D+00  1.51D+00  1.11D+00
 E= -269.964593202454     Delta-E=       -0.000000000009 Rises=F Damp=F
 DIIS: error= 4.14D-08 at cycle  16 NSaved=  16.
 NSaved=16 IEnMin=16 EnMin= -269.964593202454     IErMin=16 ErrMin= 4.14D-08
 ErrMax= 4.14D-08  0.00D+00 EMaxC= 1.00D-01 BMatC= 3.11D-12 BMatP= 2.07D-11
 IDIUse=1 WtCom= 1.00D+00 WtEn= 0.00D+00
 Coeff-Com: -0.157D-05 0.330D-05 0.375D-05 0.123D-04-0.147D-04-0.143D-05
 Coeff-Com:  0.504D-04 0.474D-03-0.302D-03-0.296D-02 0.185D-02 0.159D-01
 Coeff-Com: -0.318D-01-0.131D+00 0.195D+00 0.952D+00
 Coeff:     -0.157D-05 0.330D-05 0.375D-05 0.123D-04-0.147D-04-0.143D-05
 Coeff:      0.504D-04 0.474D-03-0.302D-03-0.296D-02 0.185D-02 0.159D-01
 Coeff:     -0.318D-01-0.131D+00 0.195D+00 0.952D+00
 Gap=     0.342 Goal=   None    Shift=    0.000
 Gap=     0.272 Goal=   None    Shift=    0.000
 RMSDP=6.55D-09 MaxDP=2.38D-07 DE=-8.53D-12 OVMax= 1.24D-06

 SCF Done:  E(UM062X) =  -269.964593202     A.U. after   16 cycles
            NFock= 16  Conv=0.65D-08     -V/T= 2.0058
 <Sx>= 0.0000 <Sy>= 0.0000 <Sz>= 0.5000 <S**2>= 0.7603 S= 0.5052
 <L.S>= 0.000000000000E+00
 KE= 2.684085316958D+02 PE=-9.896482802855D+02 EE= 2.724012182922D+02
 Annihilation of the first spin contaminant:
 S**2 before annihilation     0.7603,   after     0.7500
 Leave Link  502 at Thu Sep  5 10:26:06 2019, MaxMem=   671088640 cpu:            2082.4 elap:            1041.8
 (Enter /shared/centos7/gaussian/g16/l601.exe)
 Copying SCF densities to generalized density rwf, IOpCl= 1 IROHF=0.

 **********************************************************************

            Population analysis using the SCF density.

 **********************************************************************

 Orbital symmetries:
 Alpha Orbitals:
       Occupied  (A) (A) (A) (A) (A) (A) (A) (A) (A) (A) (A) (A)
                 (A) (A) (A) (A) (A) (A) (A) (A) (A) (A)
       Virtual   (A) (A) (A) (A) (A) (A) (A) (A) (A) (A) (A) (A)
                 (A) (A) (A) (A) (A) (A) (A) (A) (A) (A) (A) (A)
                 (A) (A) (A) (A) (A) (A) (A) (A) (A) (A) (A) (A)
                 (A) (A) (A) (A) (A) (A) (A) (A) (A) (A) (A) (A)
                 (A) (A) (A) (A) (A) (A) (A) (A) (A) (A) (A) (A)
                 (A) (A) (A) (A) (A) (A) (A) (A) (A) (A) (A) (A)
                 (A) (A) (A) (A) (A) (A) (A) (A) (A) (A) (A) (A)
                 (A) (A) (A) (A) (A) (A) (A) (A) (A) (A) (A) (A)
                 (A) (A) (A) (A) (A) (A) (A) (A) (A) (A) (A) (A)
                 (A) (A) (A) (A) (A) (A) (A) (A) (A) (A) (A) (A)
                 (A) (A) (A) (A) (A) (A) (A) (A) (A) (A) (A) (A)
                 (A) (A) (A) (A) (A) (A) (A) (A) (A) (A) (A) (A)
                 (A) (A) (A) (A) (A) (A) (A) (A) (A) (A) (A) (A)
                 (A) (A) (A) (A) (A) (A) (A) (A) (A) (A) (A) (A)
                 (A) (A) (A) (A) (A) (A) (A) (A) (A) (A) (A) (A)
                 (A) (A) (A) (A) (A) (A) (A) (A) (A) (A) (A) (A)
                 (A) (A) (A) (A) (A) (A) (A) (A) (A) (A) (A) (A)
                 (A) (A) (A) (A) (A) (A) (A) (A) (A) (A) (A) (A)
                 (A) (A) (A) (A) (A) (A) (A) (A) (A) (A) (A) (A)
                 (A) (A) (A) (A) (A) (A) (A) (A) (A) (A) (A) (A)
                 (A) (A) (A) (A) (A) (A) (A) (A) (A) (A) (A) (A)
                 (A) (A)
 Beta  Orbitals:
       Occupied  (A) (A) (A) (A) (A) (A) (A) (A) (A) (A) (A) (A)
                 (A) (A) (A) (A) (A) (A) (A) (A) (A)
       Virtual   (A) (A) (A) (A) (A) (A) (A) (A) (A) (A) (A) (A)
                 (A) (A) (A) (A) (A) (A) (A) (A) (A) (A) (A) (A)
                 (A) (A) (A) (A) (A) (A) (A) (A) (A) (A) (A) (A)
                 (A) (A) (A) (A) (A) (A) (A) (A) (A) (A) (A) (A)
                 (A) (A) (A) (A) (A) (A) (A) (A) (A) (A) (A) (A)
                 (A) (A) (A) (A) (A) (A) (A) (A) (A) (A) (A) (A)
                 (A) (A) (A) (A) (A) (A) (A) (A) (A) (A) (A) (A)
                 (A) (A) (A) (A) (A) (A) (A) (A) (A) (A) (A) (A)
                 (A) (A) (A) (A) (A) (A) (A) (A) (A) (A) (A) (A)
                 (A) (A) (A) (A) (A) (A) (A) (A) (A) (A) (A) (A)
                 (A) (A) (A) (A) (A) (A) (A) (A) (A) (A) (A) (A)
                 (A) (A) (A) (A) (A) (A) (A) (A) (A) (A) (A) (A)
                 (A) (A) (A) (A) (A) (A) (A) (A) (A) (A) (A) (A)
                 (A) (A) (A) (A) (A) (A) (A) (A) (A) (A) (A) (A)
                 (A) (A) (A) (A) (A) (A) (A) (A) (A) (A) (A) (A)
                 (A) (A) (A) (A) (A) (A) (A) (A) (A) (A) (A) (A)
                 (A) (A) (A) (A) (A) (A) (A) (A) (A) (A) (A) (A)
                 (A) (A) (A) (A) (A) (A) (A) (A) (A) (A) (A) (A)
                 (A) (A) (A) (A) (A) (A) (A) (A) (A) (A) (A) (A)
                 (A) (A) (A) (A) (A) (A) (A) (A) (A) (A) (A) (A)
                 (A) (A) (A) (A) (A) (A) (A) (A) (A) (A) (A) (A)
                 (A) (A) (A)
 The electronic state is 2-A.
 Alpha  occ. eigenvalues --  -19.69352 -19.68368 -10.55234 -10.54761 -10.53721
 Alpha  occ. eigenvalues --   -1.31230  -0.97667  -0.88760  -0.77579  -0.67767
 Alpha  occ. eigenvalues --   -0.64053  -0.59295  -0.54342  -0.53068  -0.50264
 Alpha  occ. eigenvalues --   -0.47267  -0.43833  -0.40957  -0.40190  -0.38958
 Alpha  occ. eigenvalues --   -0.36736  -0.28750
 Alpha virt. eigenvalues --    0.05405   0.07302   0.10444   0.10893   0.12177
 Alpha virt. eigenvalues --    0.14295   0.14646   0.16309   0.20318   0.22133
 Alpha virt. eigenvalues --    0.23419   0.25582   0.28705   0.30009   0.31686
 Alpha virt. eigenvalues --    0.32149   0.33703   0.36240   0.41662   0.43071
 Alpha virt. eigenvalues --    0.44893   0.45258   0.47830   0.48417   0.48790
 Alpha virt. eigenvalues --    0.49674   0.50857   0.52363   0.53006   0.53393
 Alpha virt. eigenvalues --    0.55909   0.57069   0.58144   0.59240   0.63749
 Alpha virt. eigenvalues --    0.65474   0.68370   0.71480   0.73516   0.74870
 Alpha virt. eigenvalues --    0.77904   0.82637   0.83197   0.84189   0.86343
 Alpha virt. eigenvalues --    0.88469   0.92430   0.94012   0.95666   0.97538
 Alpha virt. eigenvalues --    1.02381   1.03019   1.06083   1.06730   1.08757
 Alpha virt. eigenvalues --    1.09029   1.12224   1.13840   1.14767   1.15822
 Alpha virt. eigenvalues --    1.17178   1.19278   1.21230   1.23945   1.24504
 Alpha virt. eigenvalues --    1.28999   1.30543   1.30793   1.31357   1.34370
 Alpha virt. eigenvalues --    1.37689   1.38716   1.39934   1.40807   1.44782
 Alpha virt. eigenvalues --    1.46822   1.48939   1.50839   1.53559   1.54940
 Alpha virt. eigenvalues --    1.56501   1.60283   1.67517   1.68761   1.71748
 Alpha virt. eigenvalues --    1.78603   1.94194   1.96918   2.01579   2.12088
 Alpha virt. eigenvalues --    2.18530   2.21198   2.23444   2.25615   2.27038
 Alpha virt. eigenvalues --    2.29940   2.31383   2.36804   2.38611   2.40370
 Alpha virt. eigenvalues --    2.50493   2.50816   2.53223   2.54741   2.59426
 Alpha virt. eigenvalues --    2.61645   2.64908   2.67608   2.68556   2.74663
 Alpha virt. eigenvalues --    2.76400   2.79364   2.81440   2.83101   2.85080
 Alpha virt. eigenvalues --    2.87237   2.90463   2.92106   2.94270   2.95058
 Alpha virt. eigenvalues --    2.99897   3.02966   3.04590   3.05191   3.07182
 Alpha virt. eigenvalues --    3.08977   3.09943   3.12884   3.14930   3.17451
 Alpha virt. eigenvalues --    3.21019   3.21922   3.23624   3.25106   3.26298
 Alpha virt. eigenvalues --    3.27033   3.28651   3.32316   3.36143   3.37155
 Alpha virt. eigenvalues --    3.39009   3.39791   3.41654   3.44130   3.45632
 Alpha virt. eigenvalues --    3.48566   3.49320   3.50559   3.54471   3.56786
 Alpha virt. eigenvalues --    3.58658   3.62010   3.67033   3.68671   3.70400
 Alpha virt. eigenvalues --    3.71552   3.72307   3.75273   3.77597   3.77915
 Alpha virt. eigenvalues --    3.79490   3.80114   3.81702   3.83522   3.84574
 Alpha virt. eigenvalues --    3.85428   3.86427   3.89410   3.90829   3.94738
 Alpha virt. eigenvalues --    3.97392   3.97777   4.01290   4.02979   4.03456
 Alpha virt. eigenvalues --    4.04935   4.05416   4.06732   4.09538   4.14747
 Alpha virt. eigenvalues --    4.14914   4.15643   4.20214   4.22960   4.24854
 Alpha virt. eigenvalues --    4.24974   4.30742   4.32978   4.36625   4.38033
 Alpha virt. eigenvalues --    4.38382   4.45292   4.50005   4.53528   4.57496
 Alpha virt. eigenvalues --    4.66205   4.68001   4.72863   4.73794   4.76206
 Alpha virt. eigenvalues --    4.78126   4.80064   4.84405   4.86990   4.87989
 Alpha virt. eigenvalues --    4.90541   4.95077   4.96707   5.00916   5.02280
 Alpha virt. eigenvalues --    5.07296   5.09446   5.12601   5.14559   5.17400
 Alpha virt. eigenvalues --    5.19676   5.22236   5.23708   5.25038   5.27862
 Alpha virt. eigenvalues --    5.31786   5.35122   5.40468   5.43298   5.55028
 Alpha virt. eigenvalues --    5.68792   5.71105   5.76739   5.78818   5.86082
 Alpha virt. eigenvalues --    5.86493   6.01290   6.17111   6.25888   6.30340
 Alpha virt. eigenvalues --    6.34161   6.42831   6.43817   6.50234   6.53532
 Alpha virt. eigenvalues --    6.57072   6.62687   6.77769   6.83983   6.88487
 Alpha virt. eigenvalues --    7.21886   7.28105   7.50138   7.66488   9.91980
 Alpha virt. eigenvalues --   11.23453  11.62639  12.59113  13.20818
  Beta  occ. eigenvalues --  -19.69111 -19.67421 -10.54779 -10.54685 -10.53697
  Beta  occ. eigenvalues --   -1.29431  -0.95161  -0.88060  -0.76243  -0.66786
  Beta  occ. eigenvalues --   -0.62624  -0.55931  -0.52627  -0.52313  -0.49436
  Beta  occ. eigenvalues --   -0.46629  -0.42785  -0.40466  -0.39661  -0.35797
  Beta  occ. eigenvalues --   -0.34248
  Beta virt. eigenvalues --   -0.07090   0.05361   0.07242   0.10459   0.10941
  Beta virt. eigenvalues --    0.12226   0.14317   0.14679   0.16531   0.20975
  Beta virt. eigenvalues --    0.22612   0.24068   0.25722   0.28808   0.30117
  Beta virt. eigenvalues --    0.31874   0.32404   0.33746   0.36511   0.41826
  Beta virt. eigenvalues --    0.43306   0.45131   0.45453   0.48026   0.48643
  Beta virt. eigenvalues --    0.49075   0.50442   0.51402   0.52836   0.53403
  Beta virt. eigenvalues --    0.53664   0.56625   0.57466   0.58816   0.59473
  Beta virt. eigenvalues --    0.64125   0.66048   0.68448   0.71653   0.73749
  Beta virt. eigenvalues --    0.75250   0.77986   0.82758   0.83435   0.84318
  Beta virt. eigenvalues --    0.86548   0.88468   0.92375   0.94077   0.95958
  Beta virt. eigenvalues --    0.97798   1.02450   1.03145   1.06092   1.06532
  Beta virt. eigenvalues --    1.08770   1.09105   1.12394   1.13959   1.14992
  Beta virt. eigenvalues --    1.15785   1.17275   1.19601   1.21427   1.24470
  Beta virt. eigenvalues --    1.25052   1.29348   1.30484   1.31015   1.31731
  Beta virt. eigenvalues --    1.34698   1.37937   1.39057   1.40241   1.41157
  Beta virt. eigenvalues --    1.45129   1.47091   1.49148   1.51093   1.54063
  Beta virt. eigenvalues --    1.55477   1.56935   1.60541   1.68046   1.69027
  Beta virt. eigenvalues --    1.72637   1.79992   1.94958   1.97333   2.01988
  Beta virt. eigenvalues --    2.13065   2.18864   2.21064   2.23800   2.26140
  Beta virt. eigenvalues --    2.27568   2.30275   2.31694   2.37465   2.38866
  Beta virt. eigenvalues --    2.41212   2.50617   2.51072   2.53837   2.55735
  Beta virt. eigenvalues --    2.59806   2.62490   2.65424   2.68238   2.69159
  Beta virt. eigenvalues --    2.73884   2.76719   2.79908   2.82274   2.83695
  Beta virt. eigenvalues --    2.86167   2.88546   2.91142   2.93153   2.95178
  Beta virt. eigenvalues --    2.97097   3.00892   3.04088   3.05105   3.06675
  Beta virt. eigenvalues --    3.08090   3.09429   3.11140   3.13694   3.15046
  Beta virt. eigenvalues --    3.17818   3.21440   3.22643   3.23748   3.25450
  Beta virt. eigenvalues --    3.27074   3.27967   3.29146   3.33071   3.37115
  Beta virt. eigenvalues --    3.37976   3.39432   3.40445   3.42277   3.44594
  Beta virt. eigenvalues --    3.46097   3.49040   3.50294   3.50932   3.54616
  Beta virt. eigenvalues --    3.57713   3.58978   3.62381   3.67374   3.68871
  Beta virt. eigenvalues --    3.70802   3.71751   3.72523   3.75482   3.77943
  Beta virt. eigenvalues --    3.78314   3.79752   3.80432   3.82576   3.83858
  Beta virt. eigenvalues --    3.84556   3.86055   3.86946   3.89994   3.91183
  Beta virt. eigenvalues --    3.94741   3.97551   3.98128   4.01475   4.03063
  Beta virt. eigenvalues --    4.03761   4.05316   4.05550   4.07498   4.09906
  Beta virt. eigenvalues --    4.14997   4.15279   4.15910   4.20628   4.23500
  Beta virt. eigenvalues --    4.25408   4.25718   4.31101   4.33445   4.37268
  Beta virt. eigenvalues --    4.38399   4.39519   4.45769   4.50885   4.54661
  Beta virt. eigenvalues --    4.57953   4.66796   4.68605   4.73319   4.74009
  Beta virt. eigenvalues --    4.76564   4.78534   4.80351   4.85603   4.87794
  Beta virt. eigenvalues --    4.88475   4.91452   4.96213   4.97359   5.01564
  Beta virt. eigenvalues --    5.03066   5.08838   5.10168   5.12917   5.15427
  Beta virt. eigenvalues --    5.17861   5.20223   5.22619   5.24231   5.26001
  Beta virt. eigenvalues --    5.28540   5.32447   5.36417   5.42244   5.43750
  Beta virt. eigenvalues --    5.57244   5.69347   5.74857   5.77061   5.79320
  Beta virt. eigenvalues --    5.86258   5.87885   6.01846   6.18798   6.26337
  Beta virt. eigenvalues --    6.31051   6.34297   6.43394   6.44634   6.51428
  Beta virt. eigenvalues --    6.54845   6.59148   6.65213   6.78979   6.84370
  Beta virt. eigenvalues --    6.89722   7.21763   7.29250   7.50372   7.66625
  Beta virt. eigenvalues --    9.92614  11.24163  11.62957  12.59841  13.20966
          Condensed to atoms (all electrons):
               1          2          3          4          5          6
     1  O    7.899775   0.023972  -0.000178  -0.000581   0.000021  -0.000020
     2  O    0.023972   8.123561   0.003512  -0.088104  -0.000356   0.001955
     3  C   -0.000178   0.003512   5.048128   0.264885   0.302220   0.404836
     4  C   -0.000581  -0.088104   0.264885   5.306649  -0.043715  -0.051956
     5  C    0.000021  -0.000356   0.302220  -0.043715   4.948348  -0.042383
     6  H   -0.000020   0.001955   0.404836  -0.051956  -0.042383   0.613291
     7  H   -0.000046  -0.000120   0.394407  -0.033818  -0.032383  -0.041796
     8  H   -0.017582   0.188185  -0.022308   0.226790   0.001507  -0.004863
     9  H    0.001024  -0.000555  -0.037377   0.372768   0.001830   0.005753
    10  H    0.000936  -0.000402  -0.050405   0.397404  -0.002483   0.003537
    11  H   -0.000003  -0.000008  -0.039489  -0.004256   0.403284  -0.006965
    12  H    0.000000   0.000007  -0.036554   0.007590   0.402248  -0.004673
    13  H   -0.000001   0.000020  -0.040538  -0.002971   0.400183   0.008220
    14  H    0.311437  -0.045750   0.000431   0.001119  -0.000000  -0.000004
               7          8          9         10         11         12
     1  O   -0.000046  -0.017582   0.001024   0.000936  -0.000003   0.000000
     2  O   -0.000120   0.188185  -0.000555  -0.000402  -0.000008   0.000007
     3  C    0.394407  -0.022308  -0.037377  -0.050405  -0.039489  -0.036554
     4  C   -0.033818   0.226790   0.372768   0.397404  -0.004256   0.007590
     5  C   -0.032383   0.001507   0.001830  -0.002483   0.403284   0.402248
     6  H   -0.041796  -0.004863   0.005753   0.003537  -0.006965  -0.004673
     7  H    0.608837   0.001943  -0.013017   0.004803   0.007663  -0.005764
     8  H    0.001943   0.442174  -0.003932  -0.015534   0.000215  -0.000167
     9  H   -0.013017  -0.003932   0.577036  -0.032504  -0.000088  -0.000363
    10  H    0.004803  -0.015534  -0.032504   0.558985   0.001394   0.000328
    11  H    0.007663   0.000215  -0.000088   0.001394   0.593089  -0.031632
    12  H   -0.005764  -0.000167  -0.000363   0.000328  -0.031632   0.587861
    13  H   -0.006826  -0.000009   0.000921   0.000317  -0.037978  -0.029135
    14  H   -0.000031  -0.010849  -0.000126   0.000058  -0.000004   0.000000
              13         14
     1  O   -0.000001   0.311437
     2  O    0.000020  -0.045750
     3  C   -0.040538   0.000431
     4  C   -0.002971   0.001119
     5  C    0.400183  -0.000000
     6  H    0.008220  -0.000004
     7  H   -0.006826  -0.000031
     8  H   -0.000009  -0.010849
     9  H    0.000921  -0.000126
    10  H    0.000317   0.000058
    11  H   -0.037978  -0.000004
    12  H   -0.029135   0.000000
    13  H    0.595719   0.000001
    14  H    0.000001   0.482313
          Atomic-Atomic Spin Densities.
               1          2          3          4          5          6
     1  O    0.123060  -0.066136  -0.000712   0.015855   0.000024  -0.000425
     2  O   -0.066136   0.570906   0.006164  -0.103693  -0.000489   0.002900
     3  C   -0.000712   0.006164  -0.036220  -0.031579   0.002418   0.015182
     4  C    0.015855  -0.103693  -0.031579   0.710672  -0.007840  -0.019692
     5  C    0.000024  -0.000489   0.002418  -0.007840   0.028443  -0.008390
     6  H   -0.000425   0.002900   0.015182  -0.019692  -0.008390   0.041986
     7  H    0.000076  -0.000428   0.000759  -0.002334   0.006241  -0.006892
     8  H    0.012559  -0.035814  -0.002379   0.059128   0.000771  -0.003376
     9  H   -0.001059   0.003959   0.006769  -0.008747  -0.001369   0.001124
    10  H   -0.000250   0.000930   0.003174  -0.004260  -0.000038   0.000221
    11  H    0.000004  -0.000090  -0.000046  -0.000486   0.001367  -0.001145
    12  H   -0.000001   0.000019  -0.000389   0.000795  -0.003401   0.002022
    13  H   -0.000001   0.000034   0.000954   0.001752  -0.002622   0.000543
    14  H    0.000834  -0.000036  -0.000042  -0.000121   0.000001   0.000005
               7          8          9         10         11         12
     1  O    0.000076   0.012559  -0.001059  -0.000250   0.000004  -0.000001
     2  O   -0.000428  -0.035814   0.003959   0.000930  -0.000090   0.000019
     3  C    0.000759  -0.002379   0.006769   0.003174  -0.000046  -0.000389
     4  C   -0.002334   0.059128  -0.008747  -0.004260  -0.000486   0.000795
     5  C    0.006241   0.000771  -0.001369  -0.000038   0.001367  -0.003401
     6  H   -0.006892  -0.003376   0.001124   0.000221  -0.001145   0.002022
     7  H    0.017082   0.000493  -0.001249  -0.000254   0.000261  -0.001212
     8  H    0.000493  -0.064633  -0.000868   0.003382   0.000100  -0.000036
     9  H   -0.001249  -0.000868  -0.027026   0.001907  -0.000069   0.000099
    10  H   -0.000254   0.003382   0.001907  -0.034154  -0.000161   0.000028
    11  H    0.000261   0.000100  -0.000069  -0.000161   0.001487  -0.000772
    12  H   -0.001212  -0.000036   0.000099   0.000028  -0.000772   0.005872
    13  H   -0.000727  -0.000123   0.000147   0.000100  -0.000678   0.001605
    14  H    0.000004   0.000769  -0.000006  -0.000005   0.000000  -0.000000
              13         14
     1  O   -0.000001   0.000834
     2  O    0.000034  -0.000036
     3  C    0.000954  -0.000042
     4  C    0.001752  -0.000121
     5  C   -0.002622   0.000001
     6  H    0.000543   0.000005
     7  H   -0.000727   0.000004
     8  H   -0.000123   0.000769
     9  H    0.000147  -0.000006
    10  H    0.000100  -0.000005
    11  H   -0.000678   0.000000
    12  H    0.001605  -0.000000
    13  H   -0.002304  -0.000000
    14  H   -0.000000  -0.005249
 Mulliken charges and spin densities:
               1          2
     1  O   -0.218752   0.083827
     2  O   -0.205916   0.378227
     3  C   -0.191570  -0.035945
     4  C   -0.351803   0.609451
     5  C   -0.338321   0.015115
     6  H    0.115068   0.024062
     7  H    0.116149   0.011820
     8  H    0.214431  -0.030027
     9  H    0.128632  -0.026387
    10  H    0.133565  -0.029380
    11  H    0.114778  -0.000227
    12  H    0.110254   0.004630
    13  H    0.112079  -0.001320
    14  H    0.261406  -0.003846
 Sum of Mulliken charges =  -0.00000   1.00000
 Mulliken charges and spin densities with hydrogens summed into heavy atoms:
               1          2
     1  O    0.042654   0.079981
     2  O    0.008515   0.348200
     3  C    0.039647  -0.000063
     4  C   -0.089607   0.553684
     5  C   -0.001209   0.018198
 Electronic spatial extent (au):  <R**2>=            821.1969
 Charge=             -0.0000 electrons
 Dipole moment (field-independent basis, Debye):
    X=             -1.2806    Y=              1.2896    Z=             -1.3742  Tot=              2.2785
 Quadrupole moment (field-independent basis, Debye-Ang):
   XX=            -34.7194   YY=            -33.2630   ZZ=            -30.7170
   XY=              2.2935   XZ=             -4.5926   YZ=             -0.9942
 Traceless Quadrupole moment (field-independent basis, Debye-Ang):
   XX=             -1.8196   YY=             -0.3632   ZZ=              2.1828
   XY=              2.2935   XZ=             -4.5926   YZ=             -0.9942
 Octapole moment (field-independent basis, Debye-Ang**2):
  XXX=             17.0347  YYY=             -0.3801  ZZZ=             -4.0694  XYY=              6.0016
  XXY=              6.5289  XXZ=            -14.4671  XZZ=             11.8844  YZZ=              1.5060
  YYZ=             -0.2073  XYZ=             -3.1074
 Hexadecapole moment (field-independent basis, Debye-Ang**3):
 XXXX=           -873.5812 YYYY=            -92.8980 ZZZZ=            -84.2888 XXXY=              7.0181
 XXXZ=            -39.6563 YYYX=             -0.1254 YYYZ=              0.7450 ZZZX=            -11.4709
 ZZZY=             -1.5963 XXYY=           -159.6866 XXZZ=           -139.6008 YYZZ=            -29.1271
 XXYZ=             -9.7871 YYXZ=             -3.6146 ZZXY=              3.3923
 N-N= 1.788739370950D+02 E-N=-9.896482770093D+02  KE= 2.684085316958D+02
                          Isotropic Fermi Contact Couplings
        Atom                 a.u.       MegaHertz       Gauss      10(-4) cm-1
     1  O(17)              0.00579      -3.50744      -1.25154      -1.16996
     2  O(17)              0.11997     -72.72301     -25.94938     -24.25778
     3  C(13)             -0.00762      -8.56695      -3.05690      -2.85763
     4  C(13)              0.20741     233.16947      83.20067      77.77696
     5  C(13)              0.01526      17.14990       6.11951       5.72059
     6  H(1)               0.01249      55.81179      19.91503      18.61681
     7  H(1)               0.00440      19.67567       7.02077       6.56310
     8  H(1)              -0.03558    -159.05438     -56.75456     -53.05483
     9  H(1)              -0.00423     -18.89569      -6.74245      -6.30292
    10  H(1)              -0.00735     -32.87522     -11.73070     -10.96599
    11  H(1)              -0.00003      -0.13583      -0.04847      -0.04531
    12  H(1)               0.00145       6.47487       2.31040       2.15979
    13  H(1)              -0.00036      -1.60882      -0.57407      -0.53664
    14  H(1)              -0.00204      -9.13319      -3.25895      -3.04650
 --------------------------------------------------------
       Center         ----  Spin Dipole Couplings  ----
                      3XX-RR        3YY-RR        3ZZ-RR
 --------------------------------------------------------
     1   Atom        0.245747     -0.049020     -0.196728
     2   Atom        0.424974      0.394701     -0.819674
     3   Atom        0.031775     -0.017927     -0.013848
     4   Atom        0.366746     -0.316294     -0.050452
     5   Atom        0.014817     -0.004509     -0.010308
     6   Atom       -0.002968     -0.008039      0.011006
     7   Atom        0.002892      0.002892     -0.005785
     8   Atom        0.151304     -0.062989     -0.088314
     9   Atom       -0.009616      0.002278      0.007338
    10   Atom       -0.013497      0.028999     -0.015503
    11   Atom        0.002197      0.000879     -0.003076
    12   Atom        0.003412     -0.002288     -0.001124
    13   Atom        0.006468     -0.003956     -0.002513
    14   Atom       -0.004891     -0.008218      0.013109
 --------------------------------------------------------
                        XY            XZ            YZ
 --------------------------------------------------------
     1   Atom       -0.354991     -0.129524      0.070904
     2   Atom       -1.389711     -0.447076      0.441443
     3   Atom       -0.014725      0.004779     -0.001936
     4   Atom       -0.075010     -0.442395      0.048720
     5   Atom        0.014577      0.007662      0.003935
     6   Atom       -0.002187      0.007504     -0.004251
     7   Atom       -0.006567      0.003702     -0.002456
     8   Atom       -0.110455     -0.080742      0.023331
     9   Atom        0.012887     -0.001844      0.041346
    10   Atom        0.004782     -0.020251     -0.029046
    11   Atom        0.004004      0.002514      0.002540
    12   Atom        0.000128      0.002948     -0.000451
    13   Atom        0.002736     -0.001489     -0.000657
    14   Atom        0.003245     -0.009647     -0.015545
 --------------------------------------------------------


 ---------------------------------------------------------------------------------
              Anisotropic Spin Dipole Couplings in Principal Axis System
 ---------------------------------------------------------------------------------

       Atom             a.u.   MegaHertz   Gauss  10(-4) cm-1        Axes

              Baa    -0.2886    20.885     7.452     6.967  0.5753  0.7935  0.1985
     1 O(17)  Bbb    -0.2246    16.251     5.799     5.421  0.0536 -0.2788  0.9589
              Bcc     0.5132   -37.136   -13.251   -12.387  0.8162 -0.5409 -0.2029
 
              Baa    -0.9800    70.910    25.303    23.653  0.7078  0.7057  0.0307
     2 O(17)  Bbb    -0.9626    69.651    24.853    23.233  0.1355 -0.1783  0.9746
              Bcc     1.9425  -140.561   -50.156   -46.886  0.6933 -0.6857 -0.2218
 
              Baa    -0.0220    -2.953    -1.054    -0.985  0.2568  0.9633  0.0782
     3 C(13)  Bbb    -0.0143    -1.922    -0.686    -0.641 -0.1184 -0.0489  0.9918
              Bcc     0.0363     4.876     1.740     1.626  0.9592 -0.2639  0.1015
 
              Baa    -0.3311   -44.431   -15.854   -14.821  0.5185 -0.1458  0.8426
     4 C(13)  Bbb    -0.3244   -43.529   -15.532   -14.520  0.1550  0.9851  0.0751
              Bcc     0.6555    87.960    31.386    29.340  0.8409 -0.0916 -0.5333
 
              Baa    -0.0125    -1.682    -0.600    -0.561 -0.4516  0.4394  0.7765
     5 C(13)  Bbb    -0.0122    -1.640    -0.585    -0.547 -0.2512  0.7725 -0.5833
              Bcc     0.0248     3.322     1.185     1.108  0.8561  0.4585  0.2385
 
              Baa    -0.0090    -4.828    -1.723    -1.610  0.1775  0.9741  0.1401
     6 H(1)   Bbb    -0.0062    -3.309    -1.181    -1.104  0.9020 -0.1041 -0.4190
              Bcc     0.0152     8.137     2.903     2.714  0.3936 -0.2007  0.8971
 
              Baa    -0.0071    -3.815    -1.361    -1.272 -0.3426  0.0057  0.9395
     7 H(1)   Bbb    -0.0035    -1.851    -0.661    -0.618  0.6328  0.7405  0.2263
              Bcc     0.0106     5.666     2.022     1.890  0.6944 -0.6720  0.2573
 
              Baa    -0.1200   -64.001   -22.837   -21.348  0.4375  0.5602  0.7034
     8 H(1)   Bbb    -0.1007   -53.705   -19.163   -17.914  0.1132  0.7416 -0.6612
              Bcc     0.2206   117.706    42.000    39.262  0.8921 -0.3689 -0.2610
 
              Baa    -0.0404   -21.545    -7.688    -7.187 -0.3332  0.7062 -0.6247
     9 H(1)   Bbb    -0.0069    -3.660    -1.306    -1.221  0.9333  0.1531 -0.3247
              Bcc     0.0472    25.205     8.994     8.408  0.1337  0.6913  0.7101
 
              Baa    -0.0403   -21.487    -7.667    -7.167  0.5431  0.2925  0.7871
    10 H(1)   Bbb    -0.0062    -3.292    -1.175    -1.098  0.8082 -0.4364 -0.3954
              Bcc     0.0464    24.779     8.842     8.265  0.2278  0.8508 -0.4734
 
              Baa    -0.0044    -2.345    -0.837    -0.782 -0.1535 -0.3317  0.9308
    11 H(1)   Bbb    -0.0025    -1.321    -0.471    -0.441 -0.6868  0.7131  0.1409
              Bcc     0.0069     3.666     1.308     1.223  0.7105  0.6176  0.3373
 
              Baa    -0.0029    -1.555    -0.555    -0.519 -0.3499  0.5929  0.7253
    12 H(1)   Bbb    -0.0019    -1.040    -0.371    -0.347  0.2708  0.8052 -0.5276
              Bcc     0.0049     2.595     0.926     0.866  0.8968 -0.0118  0.4423
 
              Baa    -0.0047    -2.492    -0.889    -0.831 -0.2179  0.9654  0.1433
    13 H(1)   Bbb    -0.0027    -1.457    -0.520    -0.486  0.1886 -0.1024  0.9767
              Bcc     0.0074     3.949     1.409     1.317  0.9576  0.2399 -0.1597
 
              Baa    -0.0167    -8.907    -3.178    -2.971  0.1747  0.8487  0.4992
    14 H(1)   Bbb    -0.0080    -4.279    -1.527    -1.427  0.9305 -0.3081  0.1982
              Bcc     0.0247    13.186     4.705     4.398 -0.3220 -0.4299  0.8435
 

 ---------------------------------------------------------------------------------

 No NMR shielding tensors so no spin-rotation constants.
 Leave Link  601 at Thu Sep  5 10:27:16 2019, MaxMem=   671088640 cpu:             121.1 elap:              69.6
 (Enter /shared/centos7/gaussian/g16/l701.exe)
 ... and contract with generalized density number  0.
 Compute integral first derivatives.
 Leave Link  701 at Thu Sep  5 10:27:44 2019, MaxMem=   671088640 cpu:              56.9 elap:              28.5
 (Enter /shared/centos7/gaussian/g16/l702.exe)
 L702 exits ... SP integral derivatives will be done elsewhere.
 Leave Link  702 at Thu Sep  5 10:27:45 2019, MaxMem=   671088640 cpu:               1.2 elap:               1.2
 (Enter /shared/centos7/gaussian/g16/l703.exe)
 Integral derivatives from FoFJK, PRISM(SPDF).
 Compute integral first derivatives, UseDBF=F ICtDFT=           0.
 Calling FoFJK, ICntrl=      2127 FMM=F ISym2X=0 I1Cent= 0 IOpClX= 1 NMat=1 NMatS=1 NMatT=0.
 FoFJK:  IHMeth= 1 ICntrl=    2127 DoSepK=F KAlg= 0 I1Cent=           0 FoldK=F
 IRaf=         0 NMat=       1 IRICut=       1 DoRegI=T DoRafI=F ISym2E= 0 IDoP0=0 IntGTp=1.
 FoFCou: FMM=F IPFlag=           0 FMFlag=      100000 FMFlg1=         800
         NFxFlg=           0 DoJE=F BraDBF=F KetDBF=F FulRan=T
         wScrn=  0.000000 ICntrl=      2127 IOpCl=  1 I1Cent=           0 NGrid=           0
         NMat0=    1 NMatS0=      1 NMatT0=    0 NMatD0=    1 NMtDS0=    0 NMtDT0=    0
 Symmetry not used in FoFCou.
 Leave Link  703 at Thu Sep  5 10:29:05 2019, MaxMem=   671088640 cpu:             158.7 elap:              79.5
 (Enter /shared/centos7/gaussian/g16/l716.exe)
 Dipole        =-5.03845939D-01 5.07368653D-01-5.40643501D-01
 ***** Axes restored to original set *****
 -------------------------------------------------------------------
 Center     Atomic                   Forces (Hartrees/Bohr)
 Number     Number              X              Y              Z
 -------------------------------------------------------------------
      1        8           0.022559210    0.049351717   -0.041845286
      2        8          -0.036166927   -0.027647395    0.022035934
      3        6          -0.000223422    0.011495144   -0.005999416
      4        6           0.005794465   -0.000324330    0.018620799
      5        6          -0.006421887   -0.005655791    0.005850478
      6        1           0.005004836   -0.003356609    0.007995975
      7        1          -0.004795153   -0.007920570   -0.007784915
      8        1          -0.001232291   -0.016417380    0.017137725
      9        1          -0.010617553   -0.005380206   -0.010241834
     10        1           0.001707905    0.014053418   -0.005592134
     11        1           0.006038737    0.008424323    0.006913295
     12        1           0.008921854   -0.008709864   -0.003199916
     13        1          -0.007328563    0.005287286   -0.009295560
     14        1           0.016758787   -0.013199745    0.005404857
 -------------------------------------------------------------------
 Cartesian Forces:  Max     0.049351717 RMS     0.015562851
 Leave Link  716 at Thu Sep  5 10:29:06 2019, MaxMem=   671088640 cpu:               1.3 elap:               1.3
 (Enter /shared/centos7/gaussian/g16/l103.exe)

 GradGradGradGradGradGradGradGradGradGradGradGradGradGradGradGradGradGrad
 Berny optimization.
 FormGI is forming the generalized inverse of G from B-inverse, IUseBI=4.
 Internal  Forces:  Max     0.064423030 RMS     0.010812460
 Search for a local minimum.
 Step number   1 out of a maximum of  100
 All quantities printed in internal units (Hartrees-Bohrs-Radians)
 RMS Force = .10674D-01 SwitMx=.10000D-02 MixMth= 1
 Mixed Optimization -- RFO/linear search
 Second derivative matrix not updated -- first step.
 ITU=  0
     Eigenvalues ---    0.00230   0.00230   0.00428   0.00443   0.02406
     Eigenvalues ---    0.03460   0.04726   0.04847   0.04957   0.05612
     Eigenvalues ---    0.05650   0.08591   0.11679   0.12381   0.13695
     Eigenvalues ---    0.16000   0.16000   0.16000   0.16000   0.16000
     Eigenvalues ---    0.16000   0.21915   0.29838   0.29946   0.32486
     Eigenvalues ---    0.32496   0.32497   0.32501   0.32502   0.32504
     Eigenvalues ---    0.32559   0.49447   0.629301000.000001000.00000
     Eigenvalues --- 1000.000001000.000001000.000001000.000001000.00000
     Eigenvalues --- 1000.000001000.000001000.000001000.000001000.00000
     Eigenvalues --- 1000.000001000.000001000.000001000.000001000.00000
     Eigenvalues --- 1000.000001000.000001000.000001000.000001000.00000
     Eigenvalues --- 1000.000001000.00000
 RFO step:  Lambda=-1.37538792D-02 EMin= 2.30000000D-03
 Linear search not attempted -- first point.
 Iteration  1 RMS(Cart)=  0.07075365 RMS(Int)=  0.00387380
 Iteration  2 RMS(Cart)=  0.00492104 RMS(Int)=  0.00030290
 Iteration  3 RMS(Cart)=  0.00002329 RMS(Int)=  0.00030255
 Iteration  4 RMS(Cart)=  0.00000000 RMS(Int)=  0.00030255
 Iteration  1 RMS(Cart)=  0.00000000 RMS(Int)=  0.00000000
 ITry= 1 IFail=0 DXMaxC= 3.32D-01 DCOld= 1.00D+10 DXMaxT= 3.00D-01 DXLimC= 3.00D+00 Rises=F
 Variable       Old X    -DE/DX   Delta X   Delta X   Delta X     New X
                                 (Linear)    (Quad)   (Total)
    R1        2.48694   0.06442   0.00000   0.10018   0.10018   2.58713
    R2        1.87128  -0.02113   0.00000  -0.04158  -0.04158   1.82970
    R3        2.20115   0.00873   0.00000   0.00000  -0.00000   2.20115
    R4        2.88071  -0.00327   0.00000  -0.01043  -0.01043   2.87027
    R5        2.88287  -0.00029   0.00000  -0.00092  -0.00092   2.88195
    R6        2.09964  -0.00995   0.00000  -0.02938  -0.02938   2.07026
    R7        2.09945  -0.01199   0.00000  -0.03541  -0.03541   2.06404
    R8        2.58649  -0.00324   0.00000   0.00000   0.00000   2.58649
    R9        2.09937  -0.01447   0.00000  -0.04272  -0.04272   2.05665
   R10        2.09934  -0.01471   0.00000  -0.04341  -0.04341   2.05593
   R11        2.09944  -0.01245   0.00000  -0.03675  -0.03675   2.06269
   R12        2.09832  -0.01277   0.00000  -0.03763  -0.03763   2.06070
   R13        2.09932  -0.01286   0.00000  -0.03795  -0.03795   2.06137
    A1        1.80882   0.01077   0.00000   0.06197   0.06197   1.87079
    A2        1.80824   0.01177   0.00000   0.06775   0.06775   1.87599
    A3        1.98777  -0.00409   0.00000  -0.01666  -0.01663   1.97114
    A4        1.91700   0.00157   0.00000   0.00852   0.00855   1.92555
    A5        1.90695   0.00114   0.00000   0.00392   0.00394   1.91089
    A6        1.88973   0.00131   0.00000   0.00648   0.00651   1.89624
    A7        1.90666   0.00156   0.00000   0.00696   0.00696   1.91361
    A8        1.85069  -0.00132   0.00000  -0.00875  -0.00877   1.84191
    A9        1.93828  -0.00130   0.00000  -0.01911  -0.01878   1.91950
   A10        1.97273   0.00547   0.00000   0.04396   0.04315   2.01588
   A11        1.99065   0.00130   0.00000   0.01550   0.01457   2.00522
   A12        1.84587  -0.00404   0.00000  -0.03789  -0.03744   1.80842
   A13        1.76951  -0.00145   0.00000  -0.02287  -0.02276   1.74675
   A14        1.93093  -0.00125   0.00000   0.00799   0.00646   1.93739
   A15        1.93794  -0.00061   0.00000  -0.00340  -0.00340   1.93455
   A16        1.92643   0.00210   0.00000   0.01340   0.01336   1.93979
   A17        1.92851   0.00148   0.00000   0.00707   0.00705   1.93556
   A18        1.88170  -0.00037   0.00000   0.00065   0.00064   1.88233
   A19        1.88824  -0.00084   0.00000  -0.00734  -0.00732   1.88092
   A20        1.89971  -0.00190   0.00000  -0.01114  -0.01119   1.88852
   A21        2.54164   0.02059   0.00000   0.00000  -0.00000   2.54164
    D1       -1.46774  -0.00309   0.00000  -0.08162  -0.08162  -1.54936
    D2       -2.31984   0.00143   0.00000   0.08882   0.08882  -2.23102
    D3        2.16207   0.00046   0.00000   0.01713   0.01722   2.17929
    D4       -2.04978  -0.00193   0.00000  -0.01505  -0.01551  -2.06529
    D5        0.17593   0.00233   0.00000   0.04888   0.04922   0.22515
    D6        0.03931   0.00044   0.00000   0.01400   0.01411   0.05343
    D7        2.11064  -0.00195   0.00000  -0.01817  -0.01861   2.09203
    D8       -1.94683   0.00231   0.00000   0.04576   0.04612  -1.90071
    D9       -1.98390   0.00049   0.00000   0.01749   0.01758  -1.96631
   D10        0.08743  -0.00190   0.00000  -0.01469  -0.01514   0.07229
   D11        2.31315   0.00236   0.00000   0.04924   0.04959   2.36274
   D12       -1.06782   0.00024   0.00000   0.00576   0.00576  -1.06205
   D13        3.12963  -0.00027   0.00000  -0.00160  -0.00159   3.12804
   D14        1.02748  -0.00023   0.00000  -0.00100  -0.00102   1.02647
   D15        1.06998   0.00047   0.00000   0.01025   0.01025   1.08023
   D16       -1.01575  -0.00004   0.00000   0.00289   0.00289  -1.01286
   D17       -3.11790  -0.00000   0.00000   0.00349   0.00347  -3.11444
   D18        3.07799   0.00044   0.00000   0.00707   0.00708   3.08507
   D19        0.99225  -0.00008   0.00000  -0.00029  -0.00027   0.99198
   D20       -1.10990  -0.00004   0.00000   0.00031   0.00030  -1.10960
   D21       -2.41361   0.00112   0.00000   0.00947   0.00954  -2.40407
   D22        1.72333  -0.00221   0.00000  -0.00869  -0.00868   1.71465
   D23       -0.29235   0.00119   0.00000   0.00543   0.00534  -0.28700
         Item               Value     Threshold  Converged?
 Maximum Force            0.064423     0.002500     NO 
 RMS     Force            0.010674     0.001667     NO 
 Maximum Displacement     0.332209     0.010000     NO 
 RMS     Displacement     0.071323     0.006667     NO 
 Predicted change in Energy=-7.297118D-03
 Lowest energy point so far.  Saving SCF results.
 GradGradGradGradGradGradGradGradGradGradGradGradGradGradGradGradGradGrad

 Leave Link  103 at Thu Sep  5 10:32:04 2019, MaxMem=   671088640 cpu:             302.9 elap:             177.4
 (Enter /shared/centos7/gaussian/g16/l202.exe)
                          Input orientation:                          
 ---------------------------------------------------------------------
 Center     Atomic      Atomic             Coordinates (Angstroms)
 Number     Number       Type             X           Y           Z
 ---------------------------------------------------------------------
      1          8           0        1.948103   -0.725256   -1.718265
      2          8           0        0.981042   -1.390461   -1.013573
      3          6           0       -0.320657   -0.143008    1.940477
      4          6           0        0.812831   -0.974743    1.365649
      5          6           0       -1.282233   -0.960011    2.797036
      6          1           0       -0.888749    0.334636    1.134672
      7          1           0        0.092710    0.676516    2.532512
      8          1           0        0.848190   -0.839582    0.004089
      9          1           0        1.813561   -0.682617    1.678173
     10          1           0        0.677644   -2.051213    1.446724
     11          1           0       -1.750713   -1.750790    2.208285
     12          1           0       -2.075321   -0.332736    3.205290
     13          1           0       -0.757696   -1.431016    3.629455
     14          1           0        1.504623   -0.031910   -2.228241
 ---------------------------------------------------------------------
                    Distance matrix (angstroms):
                    1          2          3          4          5
     1  O    0.000000
     2  O    1.369049   0.000000
     3  C    4.344270   3.460777   0.000000
     4  C    3.295696   2.421119   1.518883   0.000000
     5  C    5.556808   4.452914   1.525062   2.537396   0.000000
     6  H    4.160570   3.329720   1.095534   2.159444   2.143454
     7  H    4.845260   4.199554   1.092244   2.146345   2.153755
     8  H    2.046798   1.164798   2.366647   1.368709   3.514791
     9  H    3.399369   2.905104   2.216950   1.088332   3.303443
    10  H    3.659150   2.565484   2.209444   1.087950   2.618240
    11  H    5.490970   4.239421   2.168351   2.807854   1.091528
    12  H    6.370510   5.315914   2.171311   3.483945   1.090474
    13  H    6.034696   4.958081   2.168552   2.792769   1.090829
    14  H    0.968235   1.896105   4.552164   3.779359   5.820768
                    6          7          8          9         10
     6  H    0.000000
     7  H    1.741867   0.000000
     8  H    2.382008   3.043390   0.000000
     9  H    2.938141   2.353394   1.938849   0.000000
    10  H    2.871104   2.993591   1.891648   1.793580   0.000000
    11  H    2.498926   3.065151   3.527475   3.758465   2.562645
    12  H    2.478064   2.484267   4.364802   4.192601   3.691143
    13  H    3.059191   2.523523   4.008983   3.313452   2.684988
    14  H    4.143882   5.015987   2.463033   3.972270   4.273972
                   11         12         13         14
    11  H    0.000000
    12  H    1.763595   0.000000
    13  H    1.762970   1.766995   0.000000
    14  H    5.764939   6.513812   6.433365   0.000000
 Stoichiometry    C3H9O2(2)
 Framework group  C1[X(C3H9O2)]
 Deg. of freedom    36
 Full point group                 C1      NOp   1
 RotChk:  IX=0 Diff= 1.81D-01
 Largest Abelian subgroup         C1      NOp   1
 Largest concise Abelian subgroup C1      NOp   1
                         Standard orientation:                         
 ---------------------------------------------------------------------
 Center     Atomic      Atomic             Coordinates (Angstroms)
 Number     Number       Type             X           Y           Z
 ---------------------------------------------------------------------
      1          8           0        2.818273    0.210826   -0.082348
      2          8           0        1.740533   -0.632638   -0.045772
      3          6           0       -1.507567    0.528893   -0.324471
      4          6           0       -0.389837    0.267724    0.670253
      5          6           0       -2.705247   -0.394726   -0.128754
      6          1           0       -1.139425    0.412629   -1.349727
      7          1           0       -1.829708    1.569566   -0.245595
      8          1           0        0.781635    0.026695    0.004727
      9          1           0       -0.144323    1.099200    1.328158
     10          1           0       -0.484014   -0.659284    1.231877
     11          1           0       -2.415966   -1.438961   -0.260375
     12          1           0       -3.494380   -0.173280   -0.848035
     13          1           0       -3.119118   -0.287908    0.874843
     14          1           0        2.990759    0.414490   -1.013072
 ---------------------------------------------------------------------
 Rotational constants (GHZ):          14.5898325           1.4490469           1.4280374
 Leave Link  202 at Thu Sep  5 10:32:06 2019, MaxMem=   671088640 cpu:               2.5 elap:               2.6
 (Enter /shared/centos7/gaussian/g16/l301.exe)
 Standard basis: CC-pVTZ (5D, 7F)
 Ernie: Thresh=  0.10000D-02 Tol=  0.10000D-05 Strict=F.
 Ernie:  15 primitive shells out of 202 were deleted.
 There are   310 symmetry adapted cartesian basis functions of A   symmetry.
 There are   276 symmetry adapted basis functions of A   symmetry.
[...]
      3        6          -0.000619167    0.000473594   -0.000167224
      4        6          -0.003686457    0.004694791    0.004016758
      5        6          -0.001840125   -0.002040169    0.000632020
      6        1          -0.002885365    0.000293100   -0.001566744
      7        1           0.000277021   -0.000798471    0.000095549
      8        1           0.013469109   -0.005693347   -0.000565953
      9        1           0.000913558   -0.002432540   -0.000004212
     10        1          -0.000395518   -0.000420193    0.000883759
     11        1           0.001020061    0.002182707   -0.000107404
     12        1          -0.000338451    0.000313866    0.001068118
     13        1           0.000975581   -0.000364795   -0.000065954
     14        1          -0.000946056    0.001672402   -0.000721088
 -------------------------------------------------------------------
 Cartesian Forces:  Max     0.013469109 RMS     0.002994248
 Leave Link  716 at Fri Sep  6 09:58:03 2019, MaxMem=   671088640 cpu:               1.7 elap:               0.9
 (Enter /shared/centos7/gaussian/g16/l103.exe)

 GradGradGradGradGradGradGradGradGradGradGradGradGradGradGradGradGradGrad
 Berny optimization.
 Using GEDIIS/GDIIS optimizer.
 FormGI is forming the generalized inverse of G from B-inverse, IUseBI=4.
 Internal  Forces:  Max     0.018477023 RMS     0.002752578
 Search for a local minimum.
 Step number  78 out of a maximum of  100
 All quantities printed in internal units (Hartrees-Bohrs-Radians)
 RMS Force = .10681D-02 SwitMx=.10000D-02 MixMth= 1
 Mixed Optimization -- RFO/linear search
 Update second derivatives using D2CorX and points   22   24   25   27   28
                                                     29   30   31   33   34
                                                     36   37   39   40   42
                                                     43   44   46   47   49
                                                     50   52   54   55   56
                                                     57   59   60   62   63
                                                     65   66   68   69   70
                                                     72   73   75   76   78
                                                     17
 DE=  2.16D-04 DEPred=-1.47D-04 R=-1.47D+00
 Trust test=-1.47D+00 RLast= 2.46D-01 DXMaxT set to 5.00D-02
 ITU= -1 -1  0 -1 -1  0 -1 -1 -1  0 -1 -1  0 -1 -1  0 -1 -1  0 -1
 ITU= -1  0 -1 -1 -1  0  0 -1  0 -1 -1  0 -1 -1 -1  0 -1 -1  0 -1
 ITU= -1  0 -1 -1  0 -1 -1  0 -1 -1  0 -1 -1  0  0  0  0 -1
 Use linear search instead of GDIIS.
 Energy rises -- skip Quadratic/GDIIS search.
 Quartic linear search produced a step of -0.93973.
 Iteration  1 RMS(Cart)=  0.04623066 RMS(Int)=  0.00102931
 Iteration  2 RMS(Cart)=  0.00139646 RMS(Int)=  0.00000354
 Iteration  3 RMS(Cart)=  0.00000199 RMS(Int)=  0.00000326
 Iteration  4 RMS(Cart)=  0.00000000 RMS(Int)=  0.00000326
 Iteration  1 RMS(Cart)=  0.00000000 RMS(Int)=  0.00000000
 ITry= 1 IFail=0 DXMaxC= 1.27D-01 DCOld= 1.00D+10 DXMaxT= 5.00D-02 DXLimC= 3.00D+00 Rises=T
 Variable       Old X    -DE/DX   Delta X   Delta X   Delta X     New X
                                 (Linear)    (Quad)   (Total)
    R1        2.63903  -0.00213  -0.00569   0.00000  -0.00569   2.63334
    R2        1.81949   0.00193   0.00329   0.00000   0.00329   1.82278
    R3        2.20115  -0.00148  -0.00000   0.00000  -0.00000   2.20115
    R4        2.83225   0.00211   0.00684   0.00000   0.00684   2.83909
    R5        2.89477   0.00147   0.00431   0.00000   0.00431   2.89909
    R6        2.05107   0.00327   0.00694   0.00000   0.00694   2.05801
    R7        2.06411  -0.00064  -0.00167   0.00000  -0.00167   2.06244
    R8        2.58649   0.00517  -0.00000   0.00000  -0.00000   2.58649
    R9        2.05129   0.00075   0.00099   0.00000   0.00099   2.05228
   R10        2.05100   0.00041   0.00257   0.00000   0.00257   2.05357
   R11        2.06597  -0.00237  -0.00679   0.00000  -0.00679   2.05918
   R12        2.05703   0.00084   0.00162   0.00000   0.00162   2.05865
   R13        2.05540   0.00075   0.00206   0.00000   0.00206   2.05746
    A1        1.79833  -0.00085  -0.00017   0.00000  -0.00017   1.79816
    A2        1.83711  -0.00275  -0.00846   0.00000  -0.00846   1.82865
    A3        1.94539  -0.00088  -0.00562   0.00000  -0.00562   1.93977
    A4        1.92015   0.00070   0.00710   0.00000   0.00710   1.92725
    A5        1.92277  -0.00033  -0.00717   0.00000  -0.00717   1.91560
    A6        1.90158   0.00034   0.00948   0.00000   0.00948   1.91106
    A7        1.90439   0.00032  -0.00330   0.00000  -0.00329   1.90110
    A8        1.86776  -0.00011  -0.00029   0.00000  -0.00029   1.86746
    A9        1.90300  -0.00046   0.00219   0.00000   0.00221   1.90521
   A10        1.99898   0.00214   0.02392   0.00000   0.02392   2.02290
   A11        2.04861  -0.00125  -0.01977   0.00000  -0.01977   2.02884
   A12        1.69989   0.00009   0.01152   0.00000   0.01153   1.71143
   A13        1.76981   0.00061  -0.00334   0.00000  -0.00334   1.76648
   A14        1.98892  -0.00105  -0.01128   0.00000  -0.01128   1.97764
   A15        1.92953   0.00011   0.00106   0.00000   0.00107   1.93060
   A16        1.92652   0.00134   0.00957   0.00000   0.00957   1.93610
   A17        1.93887  -0.00091  -0.00746   0.00000  -0.00746   1.93141
   A18        1.88795  -0.00043  -0.00168   0.00000  -0.00168   1.88628
   A19        1.88837  -0.00005  -0.00578   0.00000  -0.00578   1.88259
   A20        1.89114  -0.00008   0.00412   0.00000   0.00412   1.89526
   A21        2.54164   0.01848   0.00000   0.00000   0.00000   2.54164
    D1       -1.64530   0.00047   0.01985   0.00000   0.01985  -1.62545
    D2       -1.13911  -0.00092   0.02602   0.00000   0.02602  -1.11310
    D3       -3.02800  -0.00023  -0.03306   0.00000  -0.03305  -3.06105
    D4       -1.14500   0.00070  -0.00503   0.00000  -0.00503  -1.15003
    D5        1.25736   0.00009  -0.01842   0.00000  -0.01842   1.23895
    D6        1.14379  -0.00054  -0.04613   0.00000  -0.04613   1.09766
    D7        3.02679   0.00039  -0.01810   0.00000  -0.01811   3.00869
    D8       -0.85403  -0.00022  -0.03149   0.00000  -0.03149  -0.88552
    D9       -0.91128  -0.00063  -0.04571   0.00000  -0.04571  -0.95698
   D10        0.97173   0.00030  -0.01768   0.00000  -0.01768   0.95404
   D11       -2.90910  -0.00032  -0.03107   0.00000  -0.03107  -2.94017
   D12       -1.00040  -0.00024  -0.05474   0.00000  -0.05474  -1.05515
   D13       -3.08860  -0.00064  -0.05955   0.00000  -0.05955   3.13504
   D14        1.09634  -0.00082  -0.06614   0.00000  -0.06614   1.03020
   D15        1.12180   0.00030  -0.04307   0.00000  -0.04307   1.07873
   D16       -0.96640  -0.00010  -0.04787   0.00000  -0.04787  -1.01427
   D17       -3.06464  -0.00029  -0.05447   0.00000  -0.05447  -3.11911
   D18       -3.12780   0.00053  -0.03996   0.00000  -0.03996   3.11543
   D19        1.06719   0.00013  -0.04476   0.00000  -0.04476   1.02242
   D20       -1.03105  -0.00005  -0.05136   0.00000  -0.05136  -1.08241
   D21        2.63814   0.00078   0.09435   0.00000   0.09434   2.73248
   D22        0.55788  -0.00148   0.06130   0.00000   0.06130   0.61919
   D23       -1.47284  -0.00055   0.07064   0.00000   0.07064  -1.40219
         Item               Value     Threshold  Converged?
 Maximum Force            0.003272     0.002500     NO 
 RMS     Force            0.001068     0.001667     YES
 Maximum Displacement     0.126797     0.010000     NO 
 RMS     Displacement     0.046696     0.006667     NO 
 Predicted change in Energy=-7.868974D-05
 GradGradGradGradGradGradGradGradGradGradGradGradGradGradGradGradGradGrad

 Leave Link  103 at Fri Sep  6 10:00:13 2019, MaxMem=   671088640 cpu:             249.3 elap:             130.4
 (Enter /shared/centos7/gaussian/g16/l202.exe)
                          Input orientation:                          
 ---------------------------------------------------------------------
 Center     Atomic      Atomic             Coordinates (Angstroms)
 Number     Number       Type             X           Y           Z
 ---------------------------------------------------------------------
      1          8           0        2.395820   -0.383562   -0.813584
      2          8           0        1.253728   -1.052073   -1.250130
      3          6           0       -0.685975   -0.406437    1.569477
      4          6           0        0.287191   -1.367116    0.947226
      5          6           0       -0.887833   -0.710746    3.059512
      6          1           0       -1.645373   -0.451456    1.056095
      7          1           0       -0.315159    0.614577    1.463790
      8          1           0        0.515610   -0.997566   -0.350704
      9          1           0        1.310464   -1.304644    1.305621
     10          1           0       -0.061578   -2.388179    0.817942
     11          1           0       -1.283607   -1.716864    3.195434
     12          1           0       -1.588872   -0.008219    3.508696
     13          1           0        0.057613   -0.648464    3.595849
     14          1           0        2.251307    0.518558   -1.122939
 ---------------------------------------------------------------------
                    Distance matrix (angstroms):
                    1          2          3          4          5
     1  O    0.000000
     2  O    1.393504   0.000000
     3  C    3.895762   3.482739   0.000000
     4  C    2.917901   2.421119   1.502382   0.000000
     5  C    5.088250   4.824499   1.534130   2.504646   0.000000
     6  H    4.453263   3.752892   1.089052   2.141283   2.157494
     7  H    3.678603   3.550280   1.091396   2.134659   2.151922
     8  H    2.031366   1.164798   2.341011   1.368709   3.698849
     9  H    2.552923   2.568827   2.205031   1.086018   2.874257
    10  H    3.566394   2.791438   2.209520   1.086704   2.919095
    11  H    5.602508   5.161691   2.172123   2.764809   1.089672
    12  H    5.890735   5.640605   2.175862   3.453598   1.089389
    13  H    4.998048   5.007704   2.172023   2.753973   1.088762
    14  H    0.964575   1.865000   4.090519   3.420395   5.371990
                    6          7          8          9         10
     6  H    0.000000
     7  H    1.752744   0.000000
     8  H    2.635748   2.565457   0.000000
     9  H    3.086611   2.520134   1.862659   0.000000
    10  H    2.513170   3.081878   1.905960   1.815042   0.000000
    11  H    2.511753   3.061389   4.040998   3.235819   2.756173
    12  H    2.492971   2.488345   4.505843   3.865282   3.903460
    13  H    3.064200   2.505975   3.988347   2.691719   3.279875
    14  H    4.568723   3.645152   2.430560   3.179174   4.191130
                   11         12         13         14
    11  H    0.000000
    12  H    1.763743   0.000000
    13  H    1.760875   1.768734   0.000000
    14  H    6.011745   6.039579   5.333029   0.000000
 Stoichiometry    C3H9O2(2)
 Framework group  C1[X(C3H9O2)]
 Deg. of freedom    36
 Full point group                 C1      NOp   1
 RotChk:  IX=2 Diff= 1.58D-01
 Largest Abelian subgroup         C1      NOp   1
 Largest concise Abelian subgroup C1      NOp   1
                         Standard orientation:                         
 ---------------------------------------------------------------------
 Center     Atomic      Atomic             Coordinates (Angstroms)
 Number     Number       Type             X           Y           Z
 ---------------------------------------------------------------------
      1          8           0        2.369121    0.690987    0.173128
      2          8           0        2.025921   -0.616088   -0.166904
      3          6           0       -1.387292   -0.042076   -0.554152
      4          6           0       -0.314284   -0.427211    0.424355
      5          6           0       -2.702625    0.281564    0.166064
      6          1           0       -1.553511   -0.844663   -1.271269
      7          1           0       -1.070541    0.833707   -1.123202
      8          1           0        0.864029   -0.606439   -0.248566
      9          1           0        0.014372    0.356285    1.100783
     10          1           0       -0.429938   -1.393036    0.908844
     11          1           0       -3.058400   -0.584888    0.722904
     12          1           0       -3.476237    0.566706   -0.545966
     13          1           0       -2.562978    1.098228    0.872436
     14          1           0        2.538072    1.101238   -0.683350
 ---------------------------------------------------------------------
 Rotational constants (GHZ):          13.2925832           1.5808578           1.5332607
 Leave Link  202 at Fri Sep  6 10:00:15 2019, MaxMem=   671088640 cpu:               3.3 elap:               1.6
 (Enter /shared/centos7/gaussian/g16/l301.exe)
 Standard basis: CC-pVTZ (5D, 7F)
 Ernie: Thresh=  0.10000D-02 Tol=  0.10000D-05 Strict=F.
 Ernie:  15 primitive shells out of 202 were deleted.
 There are   310 symmetry adapted cartesian basis functions of A   symmetry.
 There are   276 symmetry adapted basis functions of A   symmetry.
   276 basis functions,   413 primitive gaussians,   310 cartesian basis functions
    22 alpha electrons       21 beta electrons
       nuclear repulsion energy       180.4861289658 Hartrees.
 IExCor= 4336 DFT=T Ex+Corr=M062X ExCW=0 ScaHFX=  0.540000
 ScaDFX=  1.000000  1.000000  1.000000  1.000000 ScalE2=  1.000000  1.000000
 IRadAn=      1 IRanWt=     -1 IRanGd=            0 ICorTp=0 IEmpDi=  4
 NAtoms=   14 NActive=   14 NUniq=   14 SFac= 1.00D+00 NAtFMM=   60 NAOKFM=F Big=F
 Integral buffers will be    131072 words long.
 Raffenetti 2 integral format.
 Two-electron integral symmetry is turned on.
 Leave Link  301 at Fri Sep  6 10:00:16 2019, MaxMem=   671088640 cpu:               1.6 elap:               0.8
 (Enter /shared/centos7/gaussian/g16/l302.exe)
 NPDir=0 NMtPBC=     1 NCelOv=     1 NCel=       1 NClECP=     1 NCelD=      1
         NCelK=      1 NCelE2=     1 NClLst=     1 CellRange=     0.0.
 One-electron integrals computed using PRISM.
 One-electron integral symmetry used in STVInt
 NBasis=   276 RedAO= T EigKep=  7.59D-04  NBF=   276
 NBsUse=   276 1.00D-06 EigRej= -1.00D+00 NBFU=   276
 Precomputing XC quadrature grid using
 IXCGrd= 4 IRadAn=           1 IRanWt=          -1 IRanGd=           0 AccXCQ= 0.00D+00.
 Generated NRdTot=       0 NPtTot=           0 NUsed=           0 NTot=          32
 NSgBfM=   310   310   310   310   310 MxSgAt=    14 MxSgA2=    14.
 Leave Link  302 at Fri Sep  6 10:01:46 2019, MaxMem=   671088640 cpu:             171.7 elap:              90.1
 (Enter /shared/centos7/gaussian/g16/l303.exe)
 DipDrv:  MaxL=1.
 Leave Link  303 at Fri Sep  6 10:01:53 2019, MaxMem=   671088640 cpu:              12.0 elap:               7.5
 (Enter /shared/centos7/gaussian/g16/l401.exe)
 Lowest energy guess from the checkpoint file:  "/scratch/harms.n/gauss_scrdir/Gau-47289.chk"
 B after Tr=     0.000000   -0.000000   -0.000000
         Rot=    0.999992   -0.004111    0.000076   -0.000023 Ang=  -0.47 deg.
 Guess basis will be translated and rotated to current coordinates.
 B after Tr=     0.000000   -0.000000   -0.000000
         Rot=    0.998747    0.050032   -0.001196    0.000281 Ang=   5.74 deg.
 Guess basis will be translated and rotated to current coordinates.
 CkInt1:  FT= 6.03D-02
 Max alpha theta=  1.840 degrees.
 Max  beta theta=  1.832 degrees.
 JPrj=2 DoOrth=T DoCkMO=T.
 Initial guess <Sx>= 0.0000 <Sy>= 0.0000 <Sz>= 0.5000 <S**2>= 0.7600 S= 0.5050
 Leave Link  401 at Fri Sep  6 10:02:54 2019, MaxMem=   671088640 cpu:             122.0 elap:              61.1
 (Enter /shared/centos7/gaussian/g16/l502.exe)
 Integral symmetry usage will be decided dynamically.
 UHF open shell SCF:
 Using DIIS extrapolation, IDIIS=  1040.
 NGot=   671088640 LenX=   670887394 LenY=   670790853
 Requested convergence on RMS density matrix=1.00D-08 within 900 cycles.
 Requested convergence on MAX density matrix=1.00D-06.
 Requested convergence on             energy=1.00D-06.
 No special actions if energy rises.
 Fock matrices will be formed incrementally for  20 cycles.

 Cycle   1  Pass 1  IDiag  1:
 FoFJK:  IHMeth= 1 ICntrl=       0 DoSepK=F KAlg= 0 I1Cent=           0 FoldK=F
 IRaf= 950000000 NMat=       1 IRICut=       1 DoRegI=T DoRafI=F ISym2E= 0 IDoP0=0 IntGTp=1.
 FoFCou: FMM=F IPFlag=           0 FMFlag=      100000 FMFlg1=           0
         NFxFlg=           0 DoJE=F BraDBF=F KetDBF=F FulRan=T
         wScrn=  0.000000 ICntrl=         0 IOpCl=  1 I1Cent=           0 NGrid=           0
         NMat0=    1 NMatS0=      1 NMatT0=    0 NMatD0=    1 NMtDS0=    0 NMtDT0=    0
 Symmetry not used in FoFCou.
 E= -269.977435972672    
 DIIS: error= 1.05D-05 at cycle   1 NSaved=   1.
 NSaved= 1 IEnMin= 1 EnMin= -269.977435972672     IErMin= 1 ErrMin= 1.05D-05
 ErrMax= 1.05D-05  0.00D+00 EMaxC= 1.00D-01 BMatC= 3.10D-07 BMatP= 3.10D-07
 IDIUse=1 WtCom= 1.00D+00 WtEn= 0.00D+00
 Coeff-Com:  0.100D+01
 Coeff:      0.100D+01
 Gap=    19.897 Goal=   None    Shift=    0.000
 Gap=    19.893 Goal=   None    Shift=    0.000
 RMSDP=1.43D-06 MaxDP=5.25D-05              OVMax= 3.97D-05

 Cycle   2  Pass 1  IDiag  1:
 RMSU=  1.42D-06    CP:  1.00D+00
 E= -269.977436022682     Delta-E=       -0.000000050010 Rises=F Damp=F
 DIIS: error= 1.51D-06 at cycle   2 NSaved=   2.
 NSaved= 2 IEnMin= 2 EnMin= -269.977436022682     IErMin= 2 ErrMin= 1.51D-06
 ErrMax= 1.51D-06  0.00D+00 EMaxC= 1.00D-01 BMatC= 5.03D-09 BMatP= 3.10D-07
 IDIUse=1 WtCom= 1.00D+00 WtEn= 0.00D+00
 Coeff-Com: -0.298D-01 0.103D+01
 Coeff:     -0.298D-01 0.103D+01
 Gap=     0.346 Goal=   None    Shift=    0.000
 Gap=     0.288 Goal=   None    Shift=    0.000
 RMSDP=2.01D-07 MaxDP=7.60D-06 DE=-5.00D-08 OVMax= 2.67D-05

 Cycle   3  Pass 1  IDiag  1:
 RMSU=  1.58D-07    CP:  1.00D+00  1.09D+00
 E= -269.977436023566     Delta-E=       -0.000000000884 Rises=F Damp=F
 DIIS: error= 1.46D-06 at cycle   3 NSaved=   3.
 NSaved= 3 IEnMin= 3 EnMin= -269.977436023566     IErMin= 3 ErrMin= 1.46D-06
 ErrMax= 1.46D-06  0.00D+00 EMaxC= 1.00D-01 BMatC= 2.67D-09 BMatP= 5.03D-09
 IDIUse=1 WtCom= 1.00D+00 WtEn= 0.00D+00
 Coeff-Com: -0.267D-01 0.428D+00 0.598D+00
 Coeff:     -0.267D-01 0.428D+00 0.598D+00
 Gap=     0.346 Goal=   None    Shift=    0.000
 Gap=     0.288 Goal=   None    Shift=    0.000
 RMSDP=7.49D-08 MaxDP=2.46D-06 DE=-8.84D-10 OVMax= 9.50D-06

 Cycle   4  Pass 1  IDiag  1:
 RMSU=  6.79D-08    CP:  1.00D+00  1.10D+00  8.41D-01
 E= -269.977436024090     Delta-E=       -0.000000000523 Rises=F Damp=F
 DIIS: error= 5.74D-07 at cycle   4 NSaved=   4.
 NSaved= 4 IEnMin= 4 EnMin= -269.977436024090     IErMin= 4 ErrMin= 5.74D-07
 ErrMax= 5.74D-07  0.00D+00 EMaxC= 1.00D-01 BMatC= 3.00D-10 BMatP= 2.67D-09
 IDIUse=1 WtCom= 1.00D+00 WtEn= 0.00D+00
 Coeff-Com: -0.735D-02 0.522D-01 0.249D+00 0.706D+00
 Coeff:     -0.735D-02 0.522D-01 0.249D+00 0.706D+00
 Gap=     0.346 Goal=   None    Shift=    0.000
 Gap=     0.288 Goal=   None    Shift=    0.000
 RMSDP=2.86D-08 MaxDP=1.33D-06 DE=-5.23D-10 OVMax= 7.65D-06

 Cycle   5  Pass 1  IDiag  1:
 RMSU=  2.05D-08    CP:  1.00D+00  1.10D+00  9.55D-01  9.13D-01
 E= -269.977436024184     Delta-E=       -0.000000000094 Rises=F Damp=F
 DIIS: error= 1.60D-07 at cycle   5 NSaved=   5.
 NSaved= 5 IEnMin= 5 EnMin= -269.977436024184     IErMin= 5 ErrMin= 1.60D-07
 ErrMax= 1.60D-07  0.00D+00 EMaxC= 1.00D-01 BMatC= 4.91D-11 BMatP= 3.00D-10
 IDIUse=1 WtCom= 1.00D+00 WtEn= 0.00D+00
 Coeff-Com:  0.499D-03-0.352D-01 0.105D-01 0.285D+00 0.739D+00
 Coeff:      0.499D-03-0.352D-01 0.105D-01 0.285D+00 0.739D+00
 Gap=     0.346 Goal=   None    Shift=    0.000
 Gap=     0.288 Goal=   None    Shift=    0.000
 RMSDP=1.54D-08 MaxDP=6.20D-07 DE=-9.41D-11 OVMax= 3.46D-06

 Cycle   6  Pass 1  IDiag  1:
 RMSU=  1.08D-08    CP:  1.00D+00  1.11D+00  9.86D-01  1.04D+00  1.19D+00
