 Entering Gaussian System, Link 0=g16
 Input=loose/ts/CCC+[O]O_[CH2]CC+OO/conformers/CCC+[O]O_[CH2]CC+OO_forward_shell_3.com
 Output=loose/ts/CCC+[O]O_[CH2]CC+OO/conformers/CCC+[O]O_[CH2]CC+OO_forward_shell_3.log
 Initial command:
 /shared/centos7/gaussian/g16/l1.exe "/scratch/harms.n/gauss_scrdir/Gau-40851.inp" -scrdir="/scratch/harms.n/gauss_scrdir/"
 Entering Link 1 = /shared/centos7/gaussian/g16/l1.exe PID=     40852.
  
 Copyright (c) 1988,1990,1992,1993,1995,1998,2003,2009,2016,
            Gaussian, Inc.  All Rights Reserved.
  
 This is part of the Gaussian(R) 16 program.  It is based on
 the Gaussian(R) 09 system (copyright 2009, Gaussian, Inc.),
 the Gaussian(R) 03 system (copyright 2003, Gaussian, Inc.),
 the Gaussian(R) 98 system (copyright 1998, Gaussian, Inc.),
 the Gaussian(R) 94 system (copyright 1995, Gaussian, Inc.),
 the Gaussian 92(TM) system (copyright 1992, Gaussian, Inc.),
 the Gaussian 90(TM) system (copyright 1990, Gaussian, Inc.),
 the Gaussian 88(TM) system (copyright 1988, Gaussian, Inc.),
 the Gaussian 86(TM) system (copyright 1986, Carnegie Mellon
 University), and the Gaussian 82(TM) system (copyright 1983,
 Carnegie Mellon University). Gaussian is a federally registered
 trademark of Gaussian, Inc.
  
 This software contains proprietary and confidential information,
 including trade secrets, belonging to Gaussian, Inc.
  
 This software is provided under written license and may be
 used, copied, transmitted, or stored only in accord with that
 written license.
  
 The following legend is applicable only to US Government
 contracts under FAR:
  
                    RESTRICTED RIGHTS LEGEND
  
 Use, reproduction and disclosure by the US Government is
 subject to restrictions as set forth in subparagraphs (a)
 and (c) of the Commercial Computer Software - Restricted
 Rights clause in FAR 52.227-19.
  
 Gaussian, Inc.
 340 Quinnipiac St., Bldg. 40, Wallingford CT 06492
  
  
 ---------------------------------------------------------------
 Warning -- This program may not be used in any manner that
 competes with the business of Gaussian, Inc. or will provide
 assistance to any competitor of Gaussian, Inc.  The licensee
 of this program is prohibited from giving any competitor of
 Gaussian, Inc. access to this program.  By using this program,
 the user acknowledges that Gaussian, Inc. is engaged in the
 business of creating and licensing software in the field of
 computational chemistry and represents and warrants to the
 licensee that it is not a competitor of Gaussian, Inc. and that
 it will not use this program in any manner prohibited above.
 ---------------------------------------------------------------
  

 Cite this work as:
 Gaussian 16, Revision A.03,
 M. J. Frisch, G. W. Trucks, H. B. Schlegel, G. E. Scuseria, 
 M. A. Robb, J. R. Cheeseman, G. Scalmani, V. Barone, 
 G. A. Petersson, H. Nakatsuji, X. Li, M. Caricato, A. V. Marenich, 
 J. Bloino, B. G. Janesko, R. Gomperts, B. Mennucci, H. P. Hratchian, 
 J. V. Ortiz, A. F. Izmaylov, J. L. Sonnenberg, D. Williams-Young, 
 F. Ding, F. Lipparini, F. Egidi, J. Goings, B. Peng, A. Petrone, 
 T. Henderson, D. Ranasinghe, V. G. Zakrzewski, J. Gao, N. Rega, 
 G. Zheng, W. Liang, M. Hada, M. Ehara, K. Toyota, R. Fukuda, 
 J. Hasegawa, M. Ishida, T. Nakajima, Y. Honda, O. Kitao, H. Nakai, 
 T. Vreven, K. Throssell, J. A. Montgomery, Jr., J. E. Peralta, 
 F. Ogliaro, M. J. Bearpark, J. J. Heyd, E. N. Brothers, K. N. Kudin, 
 V. N. Staroverov, T. A. Keith, R. Kobayashi, J. Normand, 
 K. Raghavachari, A. P. Rendell, J. C. Burant, S. S. Iyengar, 
 J. Tomasi, M. Cossi, J. M. Millam, M. Klene, C. Adamo, R. Cammi, 
 J. W. Ochterski, R. L. Martin, K. Morokuma, O. Farkas, 
 J. B. Foresman, and D. J. Fox, Gaussian, Inc., Wallingford CT, 2016.
 
 ******************************************
 Gaussian 16:  EM64L-G16RevA.03 25-Dec-2016
                 5-Sep-2019 
 ******************************************
 %nprocshared=20
 Will use up to   20 processors via shared memory.
 %mem=5GB
 ----------------------------------------------------------------------
 #p m062x/cc-pVTZ Opt=(ModRedun,Loose,maxcycles=900) Int(Grid=SG1) scf=
 (maxcycle=900)
 ----------------------------------------------------------------------
 1/6=900,7=-1,18=120,19=15,26=2,38=1/1,3;
 2/9=110,12=2,17=6,18=5,40=1/2;
 3/5=16,6=1,11=2,25=1,30=1,71=1,74=-55,75=1/1,2,3;
 4//1;
 5/5=2,7=900,38=5/2;
 6/7=2,8=2,9=2,10=2,28=1/1;
 7//1,2,3,16;
 1/6=900,7=-1,18=20,19=15,26=2/3(2);
 2/9=110/2;
 99//99;
 2/9=110/2;
 3/5=16,6=1,11=2,25=1,30=1,71=1,74=-55,75=1/1,2,3;
 4/5=5,16=3,69=1/1;
 5/5=2,7=900,38=5/2;
 7//1,2,3,16;
 1/6=900,7=-1,18=20,19=15,26=2/3(-5);
 2/9=110/2;
 6/7=2,8=2,9=2,10=2,19=2,28=1/1;
 99/9=1/99;
 Leave Link    1 at Thu Sep  5 10:05:23 2019, MaxMem=   671088640 cpu:               4.5 elap:               2.3
 (Enter /shared/centos7/gaussian/g16/l101.exe)
 ------------------------------
 Gaussian input prepared by ASE
 ------------------------------
 Symbolic Z-matrix:
 Charge =  0 Multiplicity = 2
 O                     3.93369  -1.85287   1.20926 
 O                     2.70557  -1.64004   0.78691 
 C                     1.44868   0.93098   2.88851 
 C                     1.16661  -0.3842    2.17119 
 C                     1.18685   0.89616   4.39102 
 H                     0.83367   1.73448   2.42953 
 H                     2.50519   1.23427   2.72702 
 H                     2.28157  -0.84414   1.52413 
 H                     0.85255  -1.20803   2.8471 
 H                     0.44179  -0.2744    1.33648 
 H                     0.13433   0.61759   4.61206 
 H                     1.37722   1.90081   4.82391 
 H                     1.85069   0.16373   4.89795 
 H                     3.84305  -2.65572   1.78179 
 
 Add virtual bond connecting atoms H8         and O2         Dist= 2.20D+00.
 Add virtual bond connecting atoms H8         and C4         Dist= 2.59D+00.
 The following ModRedundant input section has been read:
 B       4       8 F                                                           
 B       2       8 F                                                           
 A       2       8       4 F                                                   
 
 ITRead=  0  0  0  0  0  0  0  0  0  0  0  0  0  0
 MicOpt= -1 -1 -1 -1 -1 -1 -1 -1 -1 -1 -1 -1 -1 -1
 NAtoms=     14 NQM=       14 NQMF=       0 NMMI=      0 NMMIF=      0
                NMic=       0 NMicF=      0.
                    Isotopes and Nuclear Properties:
 (Nuclear quadrupole moments (NQMom) in fm**2, nuclear magnetic moments (NMagM)
  in nuclear magnetons)

  Atom         1           2           3           4           5           6           7           8           9          10
 IAtWgt=          16          16          12          12          12           1           1           1           1           1
 AtmWgt=  15.9949146  15.9949146  12.0000000  12.0000000  12.0000000   1.0078250   1.0078250   1.0078250   1.0078250   1.0078250
 NucSpn=           0           0           0           0           0           1           1           1           1           1
 AtZEff=  -0.0000000  -0.0000000  -0.0000000  -0.0000000  -0.0000000  -0.0000000  -0.0000000  -0.0000000  -0.0000000  -0.0000000
 NQMom=    0.0000000   0.0000000   0.0000000   0.0000000   0.0000000   0.0000000   0.0000000   0.0000000   0.0000000   0.0000000
 NMagM=    0.0000000   0.0000000   0.0000000   0.0000000   0.0000000   2.7928460   2.7928460   2.7928460   2.7928460   2.7928460
 AtZNuc=   8.0000000   8.0000000   6.0000000   6.0000000   6.0000000   1.0000000   1.0000000   1.0000000   1.0000000   1.0000000

  Atom        11          12          13          14
 IAtWgt=           1           1           1           1
 AtmWgt=   1.0078250   1.0078250   1.0078250   1.0078250
 NucSpn=           1           1           1           1
 AtZEff=  -0.0000000  -0.0000000  -0.0000000  -0.0000000
 NQMom=    0.0000000   0.0000000   0.0000000   0.0000000
 NMagM=    2.7928460   2.7928460   2.7928460   2.7928460
 AtZNuc=   1.0000000   1.0000000   1.0000000   1.0000000
 Leave Link  101 at Thu Sep  5 10:05:25 2019, MaxMem=   671088640 cpu:               4.1 elap:               2.1
 (Enter /shared/centos7/gaussian/g16/l103.exe)

 GradGradGradGradGradGradGradGradGradGradGradGradGradGradGradGradGradGrad
 Berny optimization.
 Initialization pass.
                           ----------------------------
                           !    Initial Parameters    !
                           ! (Angstroms and Degrees)  !
 --------------------------                            --------------------------
 ! Name  Definition              Value          Derivative Info.                !
 --------------------------------------------------------------------------------
 ! R1    R(1,2)                  1.316          estimate D2E/DX2                !
 ! R2    R(1,14)                 0.9902         estimate D2E/DX2                !
 ! R3    R(2,8)                  1.1648         Frozen                          !
 ! R4    R(3,4)                  1.5244         estimate D2E/DX2                !
 ! R5    R(3,5)                  1.5255         estimate D2E/DX2                !
 ! R6    R(3,6)                  1.1111         estimate D2E/DX2                !
 ! R7    R(3,7)                  1.111          estimate D2E/DX2                !
 ! R8    R(4,8)                  1.3687         Frozen                          !
 ! R9    R(4,9)                  1.1109         estimate D2E/DX2                !
 ! R10   R(4,10)                 1.1109         estimate D2E/DX2                !
 ! R11   R(5,11)                 1.111          estimate D2E/DX2                !
 ! R12   R(5,12)                 1.1104         estimate D2E/DX2                !
 ! R13   R(5,13)                 1.1109         estimate D2E/DX2                !
 ! A1    A(2,1,14)             103.3705         estimate D2E/DX2                !
 ! A2    A(1,2,8)              104.3045         estimate D2E/DX2                !
 ! A3    A(4,3,5)              114.3305         estimate D2E/DX2                !
 ! A4    A(4,3,6)              109.0934         estimate D2E/DX2                !
 ! A5    A(4,3,7)              110.0649         estimate D2E/DX2                !
 ! A6    A(5,3,6)              109.1693         estimate D2E/DX2                !
 ! A7    A(5,3,7)              108.2165         estimate D2E/DX2                !
 ! A8    A(6,3,7)              105.6            estimate D2E/DX2                !
 ! A9    A(3,4,8)              111.2012         estimate D2E/DX2                !
 ! A10   A(3,4,9)              113.9417         estimate D2E/DX2                !
 ! A11   A(3,4,10)             112.8932         estimate D2E/DX2                !
 ! A12   A(8,4,9)              105.5877         estimate D2E/DX2                !
 ! A13   A(8,4,10)             102.0924         estimate D2E/DX2                !
 ! A14   A(9,4,10)             110.242          estimate D2E/DX2                !
 ! A15   A(3,5,11)             111.3633         estimate D2E/DX2                !
 ! A16   A(3,5,12)             109.5053         estimate D2E/DX2                !
 ! A17   A(3,5,13)             111.218          estimate D2E/DX2                !
 ! A18   A(11,5,12)            108.1631         estimate D2E/DX2                !
 ! A19   A(11,5,13)            108.0605         estimate D2E/DX2                !
 ! A20   A(12,5,13)            108.4317         estimate D2E/DX2                !
 ! A21   A(2,8,4)              145.6251         Frozen                          !
 ! D1    D(14,1,2,8)            95.9425         estimate D2E/DX2                !
 ! D2    D(1,2,8,4)           -147.0091         estimate D2E/DX2                !
 ! D3    D(5,3,4,8)           -121.887          estimate D2E/DX2                !
 ! D4    D(5,3,4,9)             -2.705          estimate D2E/DX2                !
 ! D5    D(5,3,4,10)           124.0519         estimate D2E/DX2                !
 ! D6    D(6,3,4,8)            115.5748         estimate D2E/DX2                !
 ! D7    D(6,3,4,9)           -125.2432         estimate D2E/DX2                !
 ! D8    D(6,3,4,10)             1.5137         estimate D2E/DX2                !
 ! D9    D(7,3,4,8)              0.1455         estimate D2E/DX2                !
 ! D10   D(7,3,4,9)            119.3275         estimate D2E/DX2                !
 ! D11   D(7,3,4,10)          -113.9157         estimate D2E/DX2                !
 ! D12   D(4,3,5,11)           -58.1265         estimate D2E/DX2                !
 ! D13   D(4,3,5,12)          -177.7078         estimate D2E/DX2                !
 ! D14   D(4,3,5,13)            62.4682         estimate D2E/DX2                !
 ! D15   D(6,3,5,11)            64.3704         estimate D2E/DX2                !
 ! D16   D(6,3,5,12)           -55.2109         estimate D2E/DX2                !
 ! D17   D(6,3,5,13)          -175.0349         estimate D2E/DX2                !
 ! D18   D(7,3,5,11)           178.8353         estimate D2E/DX2                !
 ! D19   D(7,3,5,12)            59.2541         estimate D2E/DX2                !
 ! D20   D(7,3,5,13)           -60.5699         estimate D2E/DX2                !
 ! D21   D(3,4,8,2)           -172.1855         estimate D2E/DX2                !
 ! D22   D(9,4,8,2)             63.7517         estimate D2E/DX2                !
 ! D23   D(10,4,8,2)           -51.533          estimate D2E/DX2                !
 --------------------------------------------------------------------------------
 Trust Radius=3.00D-01 FncErr=1.00D-05 GrdErr=1.00D-04 EigMax=2.50D+02 EigMin=1.00D-04
 Number of steps in this run=    100 maximum allowed number of steps=    100.
 GradGradGradGradGradGradGradGradGradGradGradGradGradGradGradGradGradGrad

 Leave Link  103 at Thu Sep  5 10:05:26 2019, MaxMem=   671088640 cpu:               1.6 elap:               0.8
 (Enter /shared/centos7/gaussian/g16/l202.exe)
                          Input orientation:                          
 ---------------------------------------------------------------------
 Center     Atomic      Atomic             Coordinates (Angstroms)
 Number     Number       Type             X           Y           Z
 ---------------------------------------------------------------------
      1          8           0        3.933690   -1.852870    1.209260
      2          8           0        2.705574   -1.640045    0.786906
      3          6           0        1.448675    0.930985    2.888510
      4          6           0        1.166608   -0.384196    2.171192
      5          6           0        1.186850    0.896161    4.391020
      6          1           0        0.833668    1.734480    2.429533
      7          1           0        2.505189    1.234271    2.727019
      8          1           0        2.281569   -0.844137    1.524134
      9          1           0        0.852551   -1.208035    2.847097
     10          1           0        0.441794   -0.274399    1.336483
     11          1           0        0.134325    0.617591    4.612064
     12          1           0        1.377221    1.900809    4.823915
     13          1           0        1.850694    0.163730    4.897948
     14          1           0        3.843050   -2.655719    1.781788
 ---------------------------------------------------------------------
                    Distance matrix (angstroms):
                    1          2          3          4          5
     1  O    0.000000
     2  O    1.316034   0.000000
     3  C    4.092069   3.550595   0.000000
     4  C    3.277050   2.421119   1.524404   0.000000
     5  C    5.022539   4.661384   1.525549   2.562686   0.000000
     6  H    4.895741   4.194005   1.111080   2.160180   2.162162
     7  H    3.724869   3.473598   1.110983   2.172597   2.149706
     8  H    1.961171   1.164798   2.388784   1.368709   3.527900
     9  H    3.548484   2.804409   2.220919   1.110941   2.631177
    10  H    3.834201   2.700319   2.208065   1.110923   3.354924
    11  H    5.667224   5.132258   2.190061   2.833204   1.110977
    12  H    5.804427   5.531691   2.165977   3.507498   1.110386
    13  H    4.691691   4.570020   2.188182   2.864157   1.110910
    14  H    0.990238   1.820778   4.452225   3.531967   5.145808
                    6          7          8          9         10
     6  H    0.000000
     7  H    1.769940   0.000000
     8  H    3.092803   2.411787   0.000000
     9  H    2.972055   2.951353   1.981096   0.000000
    10  H    2.320328   2.909858   1.935093   1.822732   0.000000
    11  H    2.549502   3.091065   4.035172   2.638914   3.408755
    12  H    2.460930   2.472561   4.386471   3.721289   4.215298
    13  H    3.097527   2.507460   3.547403   2.661582   3.854996
    14  H    5.361884   4.220824   2.405502   3.489091   4.175826
                   11         12         13         14
    11  H    0.000000
    12  H    1.798977   0.000000
    13  H    1.798233   1.801972   0.000000
    14  H    5.699093   6.008061   4.650723   0.000000
 Stoichiometry    C3H9O2(2)
 Framework group  C1[X(C3H9O2)]
 Deg. of freedom    36
 Full point group                 C1      NOp   1
 Largest Abelian subgroup         C1      NOp   1
 Largest concise Abelian subgroup C1      NOp   1
                         Standard orientation:                         
 ---------------------------------------------------------------------
 Center     Atomic      Atomic             Coordinates (Angstroms)
 Number     Number       Type             X           Y           Z
 ---------------------------------------------------------------------
      1          8           0        2.461783   -0.739404    0.146130
      2          8           0        1.986686    0.475420   -0.028315
      3          6           0       -1.503550    0.184643    0.555148
      4          6           0       -0.397783    0.799078   -0.295473
      5          6           0       -2.544111   -0.599965   -0.237899
      6          1           0       -2.011994    0.990027    1.127284
      7          1           0       -1.065169   -0.493086    1.318554
      8          1           0        0.835195    0.355241    0.099672
      9          1           0       -0.471224    0.553315   -1.376396
     10          1           0       -0.305330    1.897382   -0.156431
     11          1           0       -3.032506    0.037137   -1.005910
     12          1           0       -3.329824   -0.975254    0.451136
     13          1           0       -2.084495   -1.469943   -0.753663
     14          1           0        2.550250   -1.085494   -0.777431
 ---------------------------------------------------------------------
 Rotational constants (GHZ):          10.6387118           1.5968241           1.4961221
 Leave Link  202 at Thu Sep  5 10:05:28 2019, MaxMem=   671088640 cpu:               5.1 elap:               2.7
 (Enter /shared/centos7/gaussian/g16/l301.exe)
 Standard basis: CC-pVTZ (5D, 7F)
 Ernie: Thresh=  0.10000D-02 Tol=  0.10000D-05 Strict=F.
 Ernie:  15 primitive shells out of 202 were deleted.
 There are   310 symmetry adapted cartesian basis functions of A   symmetry.
 There are   276 symmetry adapted basis functions of A   symmetry.
   276 basis functions,   413 primitive gaussians,   310 cartesian basis functions
    22 alpha electrons       21 beta electrons
       nuclear repulsion energy       179.0752735064 Hartrees.
 IExCor= 4336 DFT=T Ex+Corr=M062X ExCW=0 ScaHFX=  0.540000
 ScaDFX=  1.000000  1.000000  1.000000  1.000000 ScalE2=  1.000000  1.000000
 IRadAn=      1 IRanWt=     -1 IRanGd=            0 ICorTp=0 IEmpDi=  4
 NAtoms=   14 NActive=   14 NUniq=   14 SFac= 1.00D+00 NAtFMM=   60 NAOKFM=F Big=F
 Integral buffers will be    131072 words long.
 Raffenetti 2 integral format.
 Two-electron integral symmetry is turned on.
 Leave Link  301 at Thu Sep  5 10:05:29 2019, MaxMem=   671088640 cpu:               1.7 elap:               0.9
 (Enter /shared/centos7/gaussian/g16/l302.exe)
 NPDir=0 NMtPBC=     1 NCelOv=     1 NCel=       1 NClECP=     1 NCelD=      1
         NCelK=      1 NCelE2=     1 NClLst=     1 CellRange=     0.0.
 One-electron integrals computed using PRISM.
 One-electron integral symmetry used in STVInt
 NBasis=   276 RedAO= T EigKep=  7.05D-04  NBF=   276
 NBsUse=   276 1.00D-06 EigRej= -1.00D+00 NBFU=   276
 Precomputing XC quadrature grid using
 IXCGrd= 4 IRadAn=           1 IRanWt=          -1 IRanGd=           0 AccXCQ= 0.00D+00.
 Generated NRdTot=       0 NPtTot=           0 NUsed=           0 NTot=          32
 NSgBfM=   310   310   310   310   310 MxSgAt=    14 MxSgA2=    14.
 Leave Link  302 at Thu Sep  5 10:06:28 2019, MaxMem=   671088640 cpu:             117.2 elap:              58.6
 (Enter /shared/centos7/gaussian/g16/l303.exe)
 DipDrv:  MaxL=1.
 Leave Link  303 at Thu Sep  5 10:06:32 2019, MaxMem=   671088640 cpu:               8.2 elap:               4.1
 (Enter /shared/centos7/gaussian/g16/l401.exe)
 ExpMin= 1.03D-01 ExpMax= 1.53D+04 ExpMxC= 5.22D+02 IAcc=1 IRadAn=         1 AccDes= 0.00D+00
 Harris functional with IExCor= 1009 and IRadAn=       1 diagonalized for initial guess.
 HarFok:  IExCor= 1009 AccDes= 0.00D+00 IRadAn=         1 IDoV= 1 UseB2=F ITyADJ=14
 ICtDFT=  3500011 ScaDFX=  1.000000  1.000000  1.000000  1.000000
 FoFCou: FMM=F IPFlag=           0 FMFlag=      100000 FMFlg1=           0
         NFxFlg=           0 DoJE=T BraDBF=F KetDBF=T FulRan=T
         wScrn=  0.000000 ICntrl=       500 IOpCl=  0 I1Cent=   200000004 NGrid=           0
         NMat0=    1 NMatS0=      1 NMatT0=    0 NMatD0=    1 NMtDS0=    0 NMtDT0=    0
 Petite list used in FoFCou.
 Harris En= -269.899250868468    
 JPrj=0 DoOrth=F DoCkMO=F.
 Initial guess <Sx>= 0.0000 <Sy>= 0.0000 <Sz>= 0.5000 <S**2>= 0.7500 S= 0.5000
 Leave Link  401 at Thu Sep  5 10:06:58 2019, MaxMem=   671088640 cpu:              51.4 elap:              25.7
 (Enter /shared/centos7/gaussian/g16/l502.exe)
 Integral symmetry usage will be decided dynamically.
 UHF open shell SCF:
 Using DIIS extrapolation, IDIIS=  1040.
 NGot=   671088640 LenX=   670887394 LenY=   670790853
 Requested convergence on RMS density matrix=1.00D-08 within 900 cycles.
 Requested convergence on MAX density matrix=1.00D-06.
 Requested convergence on             energy=1.00D-06.
 No special actions if energy rises.
 Fock matrices will be formed incrementally for  20 cycles.

 Cycle   1  Pass 1  IDiag  1:
 FoFJK:  IHMeth= 1 ICntrl=       0 DoSepK=F KAlg= 0 I1Cent=           0 FoldK=F
 IRaf= 940000000 NMat=       1 IRICut=       1 DoRegI=T DoRafI=F ISym2E= 0 IDoP0=0 IntGTp=1.
 FoFCou: FMM=F IPFlag=           0 FMFlag=      100000 FMFlg1=           0
         NFxFlg=           0 DoJE=F BraDBF=F KetDBF=F FulRan=T
         wScrn=  0.000000 ICntrl=         0 IOpCl=  1 I1Cent=           0 NGrid=           0
         NMat0=    1 NMatS0=      1 NMatT0=    0 NMatD0=    1 NMtDS0=    0 NMtDT0=    0
 Symmetry not used in FoFCou.
 E= -269.763728572276    
 DIIS: error= 2.60D-02 at cycle   1 NSaved=   1.
 NSaved= 1 IEnMin= 1 EnMin= -269.763728572276     IErMin= 1 ErrMin= 2.60D-02
 ErrMax= 2.60D-02  0.00D+00 EMaxC= 1.00D-01 BMatC= 8.87D-01 BMatP= 8.87D-01
 IDIUse=3 WtCom= 7.40D-01 WtEn= 2.60D-01
 Coeff-Com:  0.100D+01
 Coeff-En:   0.100D+01
 Coeff:      0.100D+01
 Gap=     0.343 Goal=   None    Shift=    0.000
 Gap=     0.337 Goal=   None    Shift=    0.000
 GapD=    0.337 DampG=1.000 DampE=0.500 DampFc=0.5000 IDamp=-1.
 Damping current iteration by 5.00D-01
 RMSDP=2.15D-03 MaxDP=9.44D-02              OVMax= 2.29D-01

 Cycle   2  Pass 1  IDiag  1:
 RMSU=  1.07D-03    CP:  9.98D-01
 E= -269.862009447887     Delta-E=       -0.098280875612 Rises=F Damp=T
 DIIS: error= 4.41D-03 at cycle   2 NSaved=   2.
 NSaved= 2 IEnMin= 2 EnMin= -269.862009447887     IErMin= 2 ErrMin= 4.41D-03
 ErrMax= 4.41D-03  0.00D+00 EMaxC= 1.00D-01 BMatC= 7.30D-02 BMatP= 8.87D-01
 IDIUse=3 WtCom= 9.56D-01 WtEn= 4.41D-02
 Coeff-Com: -0.874D-01 0.109D+01
 Coeff-En:   0.000D+00 0.100D+01
 Coeff:     -0.835D-01 0.108D+01
 Gap=     0.353 Goal=   None    Shift=    0.000
 Gap=     0.336 Goal=   None    Shift=    0.000
 RMSDP=5.57D-04 MaxDP=2.20D-02 DE=-9.83D-02 OVMax= 1.44D-01

 Cycle   3  Pass 1  IDiag  1:
 RMSU=  5.50D-04    CP:  1.00D+00  9.46D-01
 E= -269.958503894605     Delta-E=       -0.096494446718 Rises=F Damp=F
 DIIS: error= 4.22D-03 at cycle   3 NSaved=   3.
 NSaved= 3 IEnMin= 3 EnMin= -269.958503894605     IErMin= 3 ErrMin= 4.22D-03
 ErrMax= 4.22D-03  0.00D+00 EMaxC= 1.00D-01 BMatC= 2.20D-02 BMatP= 7.30D-02
 IDIUse=3 WtCom= 9.58D-01 WtEn= 4.22D-02
 Coeff-Com: -0.798D-01 0.374D+00 0.706D+00
 Coeff-En:   0.000D+00 0.000D+00 0.100D+01
 Coeff:     -0.765D-01 0.358D+00 0.718D+00
 Gap=     0.337 Goal=   None    Shift=    0.000
 Gap=     0.263 Goal=   None    Shift=    0.000
 RMSDP=2.42D-04 MaxDP=1.03D-02 DE=-9.65D-02 OVMax= 7.04D-02

 Cycle   4  Pass 1  IDiag  1:
 RMSU=  2.09D-04    CP:  1.00D+00  1.02D+00  8.32D-01
 E= -269.962992915887     Delta-E=       -0.004489021282 Rises=F Damp=F
 DIIS: error= 1.95D-03 at cycle   4 NSaved=   4.
 NSaved= 4 IEnMin= 4 EnMin= -269.962992915887     IErMin= 4 ErrMin= 1.95D-03
 ErrMax= 1.95D-03  0.00D+00 EMaxC= 1.00D-01 BMatC= 6.64D-03 BMatP= 2.20D-02
 IDIUse=3 WtCom= 9.80D-01 WtEn= 1.95D-02
 Coeff-Com: -0.276D-01 0.643D-01 0.375D+00 0.589D+00
 Coeff-En:   0.000D+00 0.000D+00 0.672D-01 0.933D+00
 Coeff:     -0.270D-01 0.630D-01 0.369D+00 0.595D+00
 Gap=     0.338 Goal=   None    Shift=    0.000
 Gap=     0.266 Goal=   None    Shift=    0.000
 RMSDP=1.02D-04 MaxDP=4.31D-03 DE=-4.49D-03 OVMax= 1.02D-02

 Cycle   5  Pass 1  IDiag  1:
 RMSU=  6.71D-05    CP:  1.00D+00  1.01D+00  9.50D-01  8.11D-01
 E= -269.964356966238     Delta-E=       -0.001364050350 Rises=F Damp=F
 DIIS: error= 6.16D-04 at cycle   5 NSaved=   5.
 NSaved= 5 IEnMin= 5 EnMin= -269.964356966238     IErMin= 5 ErrMin= 6.16D-04
 ErrMax= 6.16D-04  0.00D+00 EMaxC= 1.00D-01 BMatC= 2.38D-04 BMatP= 6.64D-03
 IDIUse=3 WtCom= 9.94D-01 WtEn= 6.16D-03
 Coeff-Com:  0.571D-02-0.261D-01 0.145D-02 0.523D-01 0.967D+00
 Coeff-En:   0.000D+00 0.000D+00 0.000D+00 0.000D+00 0.100D+01
 Coeff:      0.568D-02-0.260D-01 0.144D-02 0.520D-01 0.967D+00
 Gap=     0.339 Goal=   None    Shift=    0.000
 Gap=     0.270 Goal=   None    Shift=    0.000
 RMSDP=4.91D-05 MaxDP=2.01D-03 DE=-1.36D-03 OVMax= 1.41D-02

 Cycle   6  Pass 1  IDiag  1:
 RMSU=  2.53D-05    CP:  1.00D+00  1.00D+00  9.79D-01  9.48D-01  1.38D+00
 E= -269.964548235678     Delta-E=       -0.000191269441 Rises=F Damp=F
 DIIS: error= 2.61D-04 at cycle   6 NSaved=   6.
 NSaved= 6 IEnMin= 6 EnMin= -269.964548235678     IErMin= 6 ErrMin= 2.61D-04
 ErrMax= 2.61D-04  0.00D+00 EMaxC= 1.00D-01 BMatC= 9.09D-05 BMatP= 2.38D-04
 IDIUse=3 WtCom= 9.97D-01 WtEn= 2.61D-03
 Coeff-Com:  0.764D-02-0.183D-01-0.797D-01-0.176D+00 0.140D+00 0.113D+01
 Coeff-En:   0.000D+00 0.000D+00 0.000D+00 0.000D+00 0.000D+00 0.100D+01
 Coeff:      0.762D-02-0.182D-01-0.795D-01-0.175D+00 0.140D+00 0.113D+01
 Gap=     0.341 Goal=   None    Shift=    0.000
 Gap=     0.272 Goal=   None    Shift=    0.000
 RMSDP=4.05D-05 MaxDP=1.53D-03 DE=-1.91D-04 OVMax= 9.58D-03

 Cycle   7  Pass 1  IDiag  1:
 RMSU=  1.19D-05    CP:  1.00D+00  9.98D-01  1.00D+00  1.02D+00  1.84D+00
                    CP:  1.43D+00
 E= -269.964618690542     Delta-E=       -0.000070454864 Rises=F Damp=F
 DIIS: error= 8.98D-05 at cycle   7 NSaved=   7.
 NSaved= 7 IEnMin= 7 EnMin= -269.964618690542     IErMin= 7 ErrMin= 8.98D-05
 ErrMax= 8.98D-05  0.00D+00 EMaxC= 1.00D-01 BMatC= 1.40D-05 BMatP= 9.09D-05
 IDIUse=1 WtCom= 1.00D+00 WtEn= 0.00D+00
 Coeff-Com:  0.145D-02-0.123D-02-0.211D-01-0.697D-01-0.788D-01 0.389D+00
 Coeff-Com:  0.781D+00
 Coeff:      0.145D-02-0.123D-02-0.211D-01-0.697D-01-0.788D-01 0.389D+00
 Coeff:      0.781D+00
 Gap=     0.341 Goal=   None    Shift=    0.000
 Gap=     0.273 Goal=   None    Shift=    0.000
 RMSDP=1.11D-05 MaxDP=3.65D-04 DE=-7.05D-05 OVMax= 3.28D-03

 Cycle   8  Pass 1  IDiag  1:
 RMSU=  4.76D-06    CP:  1.00D+00  9.98D-01  1.01D+00  1.04D+00  1.95D+00
                    CP:  1.64D+00  1.11D+00
 E= -269.964626943042     Delta-E=       -0.000008252500 Rises=F Damp=F
 DIIS: error= 4.85D-05 at cycle   8 NSaved=   8.
 NSaved= 8 IEnMin= 8 EnMin= -269.964626943042     IErMin= 8 ErrMin= 4.85D-05
 ErrMax= 4.85D-05  0.00D+00 EMaxC= 1.00D-01 BMatC= 2.36D-06 BMatP= 1.40D-05
 IDIUse=1 WtCom= 1.00D+00 WtEn= 0.00D+00
 Coeff-Com: -0.143D-02 0.341D-02 0.185D-01 0.314D-01-0.148D-01-0.240D+00
 Coeff-Com:  0.234D-01 0.118D+01
 Coeff:     -0.143D-02 0.341D-02 0.185D-01 0.314D-01-0.148D-01-0.240D+00
 Coeff:      0.234D-01 0.118D+01
 Gap=     0.341 Goal=   None    Shift=    0.000
 Gap=     0.273 Goal=   None    Shift=    0.000
 RMSDP=7.17D-06 MaxDP=2.43D-04 DE=-8.25D-06 OVMax= 2.10D-03

 Cycle   9  Pass 1  IDiag  1:
 RMSU=  2.36D-06    CP:  1.00D+00  9.98D-01  1.01D+00  1.04D+00  2.01D+00
                    CP:  1.75D+00  1.40D+00  1.58D+00
 E= -269.964629295817     Delta-E=       -0.000002352775 Rises=F Damp=F
 DIIS: error= 1.87D-05 at cycle   9 NSaved=   9.
 NSaved= 9 IEnMin= 9 EnMin= -269.964629295817     IErMin= 9 ErrMin= 1.87D-05
 ErrMax= 1.87D-05  0.00D+00 EMaxC= 1.00D-01 BMatC= 6.29D-07 BMatP= 2.36D-06
 IDIUse=1 WtCom= 1.00D+00 WtEn= 0.00D+00
 Coeff-Com: -0.585D-03 0.111D-02 0.939D-02 0.181D-01 0.462D-02-0.142D+00
 Coeff-Com: -0.798D-01 0.433D+00 0.756D+00
 Coeff:     -0.585D-03 0.111D-02 0.939D-02 0.181D-01 0.462D-02-0.142D+00
 Coeff:     -0.798D-01 0.433D+00 0.756D+00
 Gap=     0.341 Goal=   None    Shift=    0.000
 Gap=     0.273 Goal=   None    Shift=    0.000
 RMSDP=2.65D-06 MaxDP=1.10D-04 DE=-2.35D-06 OVMax= 7.73D-04

 Cycle  10  Pass 1  IDiag  1:
 RMSU=  1.09D-06    CP:  1.00D+00  9.98D-01  1.01D+00  1.05D+00  2.03D+00
                    CP:  1.78D+00  1.49D+00  1.84D+00  1.23D+00
 E= -269.964629739667     Delta-E=       -0.000000443850 Rises=F Damp=F
 DIIS: error= 1.23D-05 at cycle  10 NSaved=  10.
 NSaved=10 IEnMin=10 EnMin= -269.964629739667     IErMin=10 ErrMin= 1.23D-05
 ErrMax= 1.23D-05  0.00D+00 EMaxC= 1.00D-01 BMatC= 2.40D-07 BMatP= 6.29D-07
 IDIUse=1 WtCom= 1.00D+00 WtEn= 0.00D+00
 Coeff-Com:  0.189D-03-0.536D-03-0.745D-03-0.744D-03 0.104D-01 0.113D-02
 Coeff-Com: -0.522D-01-0.200D+00 0.406D+00 0.836D+00
 Coeff:      0.189D-03-0.536D-03-0.745D-03-0.744D-03 0.104D-01 0.113D-02
 Coeff:     -0.522D-01-0.200D+00 0.406D+00 0.836D+00
 Gap=     0.341 Goal=   None    Shift=    0.000
 Gap=     0.273 Goal=   None    Shift=    0.000
 RMSDP=2.00D-06 MaxDP=9.56D-05 DE=-4.44D-07 OVMax= 5.35D-04

 Cycle  11  Pass 1  IDiag  1:
 RMSU=  6.26D-07    CP:  1.00D+00  9.98D-01  1.01D+00  1.05D+00  2.04D+00
                    CP:  1.80D+00  1.54D+00  2.06D+00  1.63D+00  1.33D+00
 E= -269.964629937118     Delta-E=       -0.000000197451 Rises=F Damp=F
 DIIS: error= 5.83D-06 at cycle  11 NSaved=  11.
 NSaved=11 IEnMin=11 EnMin= -269.964629937118     IErMin=11 ErrMin= 5.83D-06
 ErrMax= 5.83D-06  0.00D+00 EMaxC= 1.00D-01 BMatC= 2.76D-08 BMatP= 2.40D-07
 IDIUse=1 WtCom= 1.00D+00 WtEn= 0.00D+00
 Coeff-Com:  0.168D-03-0.364D-03-0.238D-02-0.460D-02 0.339D-03 0.343D-01
 Coeff-Com:  0.148D-01-0.138D+00-0.112D+00 0.104D+00 0.110D+01
 Coeff:      0.168D-03-0.364D-03-0.238D-02-0.460D-02 0.339D-03 0.343D-01
 Coeff:      0.148D-01-0.138D+00-0.112D+00 0.104D+00 0.110D+01
 Gap=     0.341 Goal=   None    Shift=    0.000
 Gap=     0.273 Goal=   None    Shift=    0.000
 RMSDP=1.11D-06 MaxDP=6.39D-05 DE=-1.97D-07 OVMax= 3.40D-04

 Cycle  12  Pass 1  IDiag  1:
 RMSU=  3.17D-07    CP:  1.00D+00  9.98D-01  1.01D+00  1.05D+00  2.04D+00
                    CP:  1.81D+00  1.57D+00  2.17D+00  1.87D+00  1.78D+00
                    CP:  1.50D+00
 E= -269.964629992473     Delta-E=       -0.000000055355 Rises=F Damp=F
 DIIS: error= 2.82D-06 at cycle  12 NSaved=  12.
 NSaved=12 IEnMin=12 EnMin= -269.964629992473     IErMin=12 ErrMin= 2.82D-06
 ErrMax= 2.82D-06  0.00D+00 EMaxC= 1.00D-01 BMatC= 6.36D-09 BMatP= 2.76D-08
 IDIUse=1 WtCom= 1.00D+00 WtEn= 0.00D+00
 Coeff-Com: -0.104D-03 0.243D-03 0.785D-03 0.161D-02-0.238D-02-0.935D-02
 Coeff-Com:  0.574D-02 0.811D-01-0.523D-01-0.220D+00-0.319D+00 0.151D+01
 Coeff:     -0.104D-03 0.243D-03 0.785D-03 0.161D-02-0.238D-02-0.935D-02
 Coeff:      0.574D-02 0.811D-01-0.523D-01-0.220D+00-0.319D+00 0.151D+01
 Gap=     0.341 Goal=   None    Shift=    0.000
 Gap=     0.273 Goal=   None    Shift=    0.000
 RMSDP=7.08D-07 MaxDP=4.31D-05 DE=-5.54D-08 OVMax= 2.58D-04

 Cycle  13  Pass 1  IDiag  1:
 RMSU=  1.18D-07    CP:  1.00D+00  9.98D-01  1.01D+00  1.05D+00  2.04D+00
                    CP:  1.81D+00  1.58D+00  2.22D+00  1.99D+00  2.08D+00
                    CP:  2.05D+00  1.89D+00
 E= -269.964630008628     Delta-E=       -0.000000016155 Rises=F Damp=F
 DIIS: error= 8.72D-07 at cycle  13 NSaved=  13.
 NSaved=13 IEnMin=13 EnMin= -269.964630008628     IErMin=13 ErrMin= 8.72D-07
 ErrMax= 8.72D-07  0.00D+00 EMaxC= 1.00D-01 BMatC= 8.32D-10 BMatP= 6.36D-09
 IDIUse=1 WtCom= 1.00D+00 WtEn= 0.00D+00
 Coeff-Com: -0.197D-04 0.453D-04 0.348D-03 0.697D-03-0.807D-04-0.532D-02
 Coeff-Com: -0.303D-02 0.194D-01 0.221D-01 0.649D-02-0.189D+00-0.127D+00
 Coeff-Com:  0.128D+01
 Coeff:     -0.197D-04 0.453D-04 0.348D-03 0.697D-03-0.807D-04-0.532D-02
 Coeff:     -0.303D-02 0.194D-01 0.221D-01 0.649D-02-0.189D+00-0.127D+00
 Coeff:      0.128D+01
 Gap=     0.341 Goal=   None    Shift=    0.000
 Gap=     0.273 Goal=   None    Shift=    0.000
 RMSDP=2.67D-07 MaxDP=1.59D-05 DE=-1.62D-08 OVMax= 1.00D-04

 Cycle  14  Pass 1  IDiag  1:
 RMSU=  3.91D-08    CP:  1.00D+00  9.98D-01  1.01D+00  1.05D+00  2.04D+00
                    CP:  1.81D+00  1.58D+00  2.24D+00  2.03D+00  2.19D+00
                    CP:  2.25D+00  2.34D+00  1.58D+00
 E= -269.964630010536     Delta-E=       -0.000000001908 Rises=F Damp=F
 DIIS: error= 2.30D-07 at cycle  14 NSaved=  14.
 NSaved=14 IEnMin=14 EnMin= -269.964630010536     IErMin=14 ErrMin= 2.30D-07
 ErrMax= 2.30D-07  0.00D+00 EMaxC= 1.00D-01 BMatC= 8.33D-11 BMatP= 8.32D-10
 IDIUse=1 WtCom= 1.00D+00 WtEn= 0.00D+00
 Coeff-Com:  0.147D-04-0.330D-04-0.128D-03-0.216D-03 0.175D-03 0.160D-02
 Coeff-Com: -0.378D-03-0.109D-01 0.452D-02 0.272D-01 0.471D-01-0.172D+00
 Coeff-Com: -0.873D-01 0.119D+01
 Coeff:      0.147D-04-0.330D-04-0.128D-03-0.216D-03 0.175D-03 0.160D-02
 Coeff:     -0.378D-03-0.109D-01 0.452D-02 0.272D-01 0.471D-01-0.172D+00
 Coeff:     -0.873D-01 0.119D+01
 Gap=     0.341 Goal=   None    Shift=    0.000
 Gap=     0.273 Goal=   None    Shift=    0.000
 RMSDP=6.56D-08 MaxDP=3.48D-06 DE=-1.91D-09 OVMax= 2.33D-05

 Cycle  15  Pass 1  IDiag  1:
 RMSU=  1.34D-08    CP:  1.00D+00  9.98D-01  1.01D+00  1.05D+00  2.04D+00
                    CP:  1.81D+00  1.58D+00  2.24D+00  2.04D+00  2.22D+00
                    CP:  2.29D+00  2.46D+00  1.82D+00  1.49D+00
 E= -269.964630010651     Delta-E=       -0.000000000116 Rises=F Damp=F
 DIIS: error= 8.96D-08 at cycle  15 NSaved=  15.
 NSaved=15 IEnMin=15 EnMin= -269.964630010651     IErMin=15 ErrMin= 8.96D-08
 ErrMax= 8.96D-08  0.00D+00 EMaxC= 1.00D-01 BMatC= 1.01D-11 BMatP= 8.33D-11
 IDIUse=1 WtCom= 1.00D+00 WtEn= 0.00D+00
 Coeff-Com: -0.512D-07-0.381D-06-0.188D-04-0.197D-04-0.625D-07 0.321D-03
 Coeff-Com:  0.976D-04-0.106D-02-0.106D-02-0.638D-03 0.120D-01 0.105D-01
 Coeff-Com: -0.928D-01-0.199D-01 0.109D+01
 Coeff:     -0.512D-07-0.381D-06-0.188D-04-0.197D-04-0.625D-07 0.321D-03
 Coeff:      0.976D-04-0.106D-02-0.106D-02-0.638D-03 0.120D-01 0.105D-01
 Coeff:     -0.928D-01-0.199D-01 0.109D+01
 Gap=     0.341 Goal=   None    Shift=    0.000
 Gap=     0.273 Goal=   None    Shift=    0.000
 RMSDP=1.45D-08 MaxDP=4.32D-07 DE=-1.16D-10 OVMax= 3.54D-06

 Cycle  16  Pass 1  IDiag  1:
 RMSU=  4.73D-09    CP:  1.00D+00  9.98D-01  1.01D+00  1.05D+00  2.04D+00
                    CP:  1.81D+00  1.58D+00  2.24D+00  2.04D+00  2.22D+00
                    CP:  2.30D+00  2.47D+00  1.86D+00  1.65D+00  1.27D+00
 E= -269.964630010661     Delta-E=       -0.000000000010 Rises=F Damp=F
 DIIS: error= 3.82D-08 at cycle  16 NSaved=  16.
 NSaved=16 IEnMin=16 EnMin= -269.964630010661     IErMin=16 ErrMin= 3.82D-08
 ErrMax= 3.82D-08  0.00D+00 EMaxC= 1.00D-01 BMatC= 2.12D-12 BMatP= 1.01D-11
 IDIUse=1 WtCom= 1.00D+00 WtEn= 0.00D+00
 Coeff-Com: -0.185D-05 0.396D-05 0.725D-05 0.169D-04-0.204D-04-0.581D-04
 Coeff-Com:  0.727D-04 0.868D-03-0.104D-02-0.332D-02-0.118D-02 0.248D-01
 Coeff-Com: -0.227D-01-0.164D+00 0.411D+00 0.756D+00
 Coeff:     -0.185D-05 0.396D-05 0.725D-05 0.169D-04-0.204D-04-0.581D-04
 Coeff:      0.727D-04 0.868D-03-0.104D-02-0.332D-02-0.118D-02 0.248D-01
 Coeff:     -0.227D-01-0.164D+00 0.411D+00 0.756D+00
 Gap=     0.341 Goal=   None    Shift=    0.000
 Gap=     0.273 Goal=   None    Shift=    0.000
 RMSDP=3.78D-09 MaxDP=1.29D-07 DE=-9.55D-12 OVMax= 8.29D-07

 SCF Done:  E(UM062X) =  -269.964630011     A.U. after   16 cycles
            NFock= 16  Conv=0.38D-08     -V/T= 2.0058
 <Sx>= 0.0000 <Sy>= 0.0000 <Sz>= 0.5000 <S**2>= 0.7603 S= 0.5052
 <L.S>= 0.000000000000E+00
 KE= 2.684083023960D+02 PE=-9.900490627341D+02 EE= 2.726008568210D+02
 Annihilation of the first spin contaminant:
 S**2 before annihilation     0.7603,   after     0.7500
 Leave Link  502 at Thu Sep  5 10:20:58 2019, MaxMem=   671088640 cpu:            1680.0 elap:             840.1
 (Enter /shared/centos7/gaussian/g16/l601.exe)
 Copying SCF densities to generalized density rwf, IOpCl= 1 IROHF=0.

 **********************************************************************

            Population analysis using the SCF density.

 **********************************************************************

 Orbital symmetries:
 Alpha Orbitals:
       Occupied  (A) (A) (A) (A) (A) (A) (A) (A) (A) (A) (A) (A)
                 (A) (A) (A) (A) (A) (A) (A) (A) (A) (A)
       Virtual   (A) (A) (A) (A) (A) (A) (A) (A) (A) (A) (A) (A)
                 (A) (A) (A) (A) (A) (A) (A) (A) (A) (A) (A) (A)
                 (A) (A) (A) (A) (A) (A) (A) (A) (A) (A) (A) (A)
                 (A) (A) (A) (A) (A) (A) (A) (A) (A) (A) (A) (A)
                 (A) (A) (A) (A) (A) (A) (A) (A) (A) (A) (A) (A)
                 (A) (A) (A) (A) (A) (A) (A) (A) (A) (A) (A) (A)
                 (A) (A) (A) (A) (A) (A) (A) (A) (A) (A) (A) (A)
                 (A) (A) (A) (A) (A) (A) (A) (A) (A) (A) (A) (A)
                 (A) (A) (A) (A) (A) (A) (A) (A) (A) (A) (A) (A)
                 (A) (A) (A) (A) (A) (A) (A) (A) (A) (A) (A) (A)
                 (A) (A) (A) (A) (A) (A) (A) (A) (A) (A) (A) (A)
                 (A) (A) (A) (A) (A) (A) (A) (A) (A) (A) (A) (A)
                 (A) (A) (A) (A) (A) (A) (A) (A) (A) (A) (A) (A)
                 (A) (A) (A) (A) (A) (A) (A) (A) (A) (A) (A) (A)
                 (A) (A) (A) (A) (A) (A) (A) (A) (A) (A) (A) (A)
                 (A) (A) (A) (A) (A) (A) (A) (A) (A) (A) (A) (A)
                 (A) (A) (A) (A) (A) (A) (A) (A) (A) (A) (A) (A)
                 (A) (A) (A) (A) (A) (A) (A) (A) (A) (A) (A) (A)
                 (A) (A) (A) (A) (A) (A) (A) (A) (A) (A) (A) (A)
                 (A) (A) (A) (A) (A) (A) (A) (A) (A) (A) (A) (A)
                 (A) (A) (A) (A) (A) (A) (A) (A) (A) (A) (A) (A)
                 (A) (A)
 Beta  Orbitals:
       Occupied  (A) (A) (A) (A) (A) (A) (A) (A) (A) (A) (A) (A)
                 (A) (A) (A) (A) (A) (A) (A) (A) (A)
       Virtual   (A) (A) (A) (A) (A) (A) (A) (A) (A) (A) (A) (A)
                 (A) (A) (A) (A) (A) (A) (A) (A) (A) (A) (A) (A)
                 (A) (A) (A) (A) (A) (A) (A) (A) (A) (A) (A) (A)
                 (A) (A) (A) (A) (A) (A) (A) (A) (A) (A) (A) (A)
                 (A) (A) (A) (A) (A) (A) (A) (A) (A) (A) (A) (A)
                 (A) (A) (A) (A) (A) (A) (A) (A) (A) (A) (A) (A)
                 (A) (A) (A) (A) (A) (A) (A) (A) (A) (A) (A) (A)
                 (A) (A) (A) (A) (A) (A) (A) (A) (A) (A) (A) (A)
                 (A) (A) (A) (A) (A) (A) (A) (A) (A) (A) (A) (A)
                 (A) (A) (A) (A) (A) (A) (A) (A) (A) (A) (A) (A)
                 (A) (A) (A) (A) (A) (A) (A) (A) (A) (A) (A) (A)
                 (A) (A) (A) (A) (A) (A) (A) (A) (A) (A) (A) (A)
                 (A) (A) (A) (A) (A) (A) (A) (A) (A) (A) (A) (A)
                 (A) (A) (A) (A) (A) (A) (A) (A) (A) (A) (A) (A)
                 (A) (A) (A) (A) (A) (A) (A) (A) (A) (A) (A) (A)
                 (A) (A) (A) (A) (A) (A) (A) (A) (A) (A) (A) (A)
                 (A) (A) (A) (A) (A) (A) (A) (A) (A) (A) (A) (A)
                 (A) (A) (A) (A) (A) (A) (A) (A) (A) (A) (A) (A)
                 (A) (A) (A) (A) (A) (A) (A) (A) (A) (A) (A) (A)
                 (A) (A) (A) (A) (A) (A) (A) (A) (A) (A) (A) (A)
                 (A) (A) (A) (A) (A) (A) (A) (A) (A) (A) (A) (A)
                 (A) (A) (A)
 The electronic state is 2-A.
 Alpha  occ. eigenvalues --  -19.69416 -19.68247 -10.55301 -10.54689 -10.53774
 Alpha  occ. eigenvalues --   -1.31191  -0.97700  -0.88733  -0.77678  -0.67802
 Alpha  occ. eigenvalues --   -0.63421  -0.59830  -0.54452  -0.52930  -0.50271
 Alpha  occ. eigenvalues --   -0.47607  -0.43666  -0.41025  -0.40295  -0.38858
 Alpha  occ. eigenvalues --   -0.36742  -0.28715
 Alpha virt. eigenvalues --    0.05421   0.07497   0.10328   0.10668   0.12321
 Alpha virt. eigenvalues --    0.14092   0.14285   0.16282   0.20087   0.22808
 Alpha virt. eigenvalues --    0.23175   0.25494   0.28046   0.29801   0.32030
 Alpha virt. eigenvalues --    0.33112   0.34437   0.37562   0.39925   0.41379
 Alpha virt. eigenvalues --    0.44996   0.45043   0.47865   0.48486   0.48594
 Alpha virt. eigenvalues --    0.48919   0.51030   0.52154   0.52917   0.53612
 Alpha virt. eigenvalues --    0.55959   0.56633   0.58224   0.59428   0.64566
 Alpha virt. eigenvalues --    0.66643   0.68478   0.71039   0.73416   0.74269
 Alpha virt. eigenvalues --    0.78580   0.79864   0.84283   0.85448   0.86433
 Alpha virt. eigenvalues --    0.89740   0.90349   0.93830   0.94998   0.99075
 Alpha virt. eigenvalues --    1.02326   1.03734   1.04389   1.06249   1.07360
 Alpha virt. eigenvalues --    1.09871   1.11685   1.12943   1.13509   1.16533
 Alpha virt. eigenvalues --    1.18427   1.19390   1.22404   1.22786   1.24682
 Alpha virt. eigenvalues --    1.27453   1.30126   1.30993   1.32400   1.35764
 Alpha virt. eigenvalues --    1.37407   1.38342   1.39980   1.40952   1.43807
 Alpha virt. eigenvalues --    1.45474   1.49498   1.51666   1.54420   1.56086
 Alpha virt. eigenvalues --    1.56277   1.59201   1.65574   1.68019   1.74714
 Alpha virt. eigenvalues --    1.77040   1.92792   1.97766   2.00921   2.11122
 Alpha virt. eigenvalues --    2.19904   2.21540   2.22262   2.23257   2.24478
 Alpha virt. eigenvalues --    2.29389   2.32310   2.35867   2.40025   2.41522
 Alpha virt. eigenvalues --    2.50116   2.50690   2.51366   2.57421   2.59679
 Alpha virt. eigenvalues --    2.63003   2.63806   2.67054   2.68395   2.74764
 Alpha virt. eigenvalues --    2.76234   2.80500   2.81639   2.83198   2.85193
 Alpha virt. eigenvalues --    2.87707   2.89830   2.91106   2.93920   2.95664
 Alpha virt. eigenvalues --    2.99685   3.00950   3.04187   3.06079   3.08141
 Alpha virt. eigenvalues --    3.09008   3.09716   3.11602   3.14252   3.17363
 Alpha virt. eigenvalues --    3.21091   3.22475   3.23638   3.24806   3.26599
 Alpha virt. eigenvalues --    3.27336   3.29812   3.32788   3.34535   3.37232
 Alpha virt. eigenvalues --    3.39122   3.39944   3.41244   3.44124   3.45515
 Alpha virt. eigenvalues --    3.48665   3.49927   3.51645   3.54246   3.56418
 Alpha virt. eigenvalues --    3.59372   3.63141   3.65496   3.67395   3.69722
 Alpha virt. eigenvalues --    3.72182   3.72826   3.74765   3.75736   3.76652
 Alpha virt. eigenvalues --    3.78690   3.79789   3.81374   3.83064   3.83695
 Alpha virt. eigenvalues --    3.86630   3.88308   3.90100   3.92119   3.94653
 Alpha virt. eigenvalues --    3.96172   3.98556   4.00880   4.03270   4.04120
 Alpha virt. eigenvalues --    4.04607   4.07197   4.07505   4.09399   4.13888
 Alpha virt. eigenvalues --    4.15155   4.16626   4.21631   4.22451   4.26031
 Alpha virt. eigenvalues --    4.28394   4.29993   4.33361   4.34033   4.38593
 Alpha virt. eigenvalues --    4.39250   4.43986   4.48290   4.52124   4.56997
 Alpha virt. eigenvalues --    4.66833   4.68294   4.71865   4.73678   4.75792
 Alpha virt. eigenvalues --    4.77584   4.82429   4.84785   4.86566   4.87614
 Alpha virt. eigenvalues --    4.90993   4.94587   4.97716   5.00400   5.01127
 Alpha virt. eigenvalues --    5.07803   5.10417   5.12384   5.13597   5.17365
 Alpha virt. eigenvalues --    5.18658   5.21389   5.23810   5.24124   5.27784
 Alpha virt. eigenvalues --    5.33524   5.34868   5.39637   5.42888   5.55217
 Alpha virt. eigenvalues --    5.66147   5.71106   5.77130   5.78765   5.85577
 Alpha virt. eigenvalues --    5.92840   6.07619   6.08517   6.24739   6.30078
 Alpha virt. eigenvalues --    6.33785   6.40512   6.44063   6.48455   6.55492
 Alpha virt. eigenvalues --    6.58264   6.63864   6.77858   6.85378   6.87174
 Alpha virt. eigenvalues --    7.21414   7.28376   7.48565   7.65960   9.96192
 Alpha virt. eigenvalues --   11.19312  11.60109  12.60295  13.21093
  Beta  occ. eigenvalues --  -19.69159 -19.67302 -10.54761 -10.54695 -10.53756
  Beta  occ. eigenvalues --   -1.29376  -0.95166  -0.88033  -0.76370  -0.66821
  Beta  occ. eigenvalues --   -0.61902  -0.56863  -0.52825  -0.51583  -0.49529
  Beta  occ. eigenvalues --   -0.46999  -0.42614  -0.40554  -0.39649  -0.35555
  Beta  occ. eigenvalues --   -0.34352
  Beta virt. eigenvalues --   -0.07088   0.05270   0.07438   0.10399   0.10687
  Beta virt. eigenvalues --    0.12414   0.14144   0.14293   0.16503   0.20665
  Beta virt. eigenvalues --    0.23315   0.23848   0.25688   0.28171   0.29816
  Beta virt. eigenvalues --    0.32201   0.33434   0.34481   0.37901   0.40169
  Beta virt. eigenvalues --    0.41598   0.45141   0.45279   0.48190   0.48699
  Beta virt. eigenvalues --    0.48767   0.49767   0.51449   0.52726   0.53369
  Beta virt. eigenvalues --    0.53948   0.56164   0.57145   0.58928   0.59898
  Beta virt. eigenvalues --    0.64915   0.67173   0.68623   0.71279   0.73687
  Beta virt. eigenvalues --    0.74444   0.78750   0.79962   0.84437   0.85495
  Beta virt. eigenvalues --    0.86711   0.89744   0.90582   0.93907   0.95230
  Beta virt. eigenvalues --    0.99296   1.02459   1.03813   1.04433   1.06181
  Beta virt. eigenvalues --    1.07464   1.09979   1.11700   1.13026   1.13654
  Beta virt. eigenvalues --    1.16609   1.18545   1.19628   1.22694   1.23378
  Beta virt. eigenvalues --    1.25059   1.27810   1.30110   1.31139   1.32774
  Beta virt. eigenvalues --    1.36078   1.37694   1.38555   1.40489   1.41134
  Beta virt. eigenvalues --    1.44165   1.45930   1.49719   1.51886   1.54871
  Beta virt. eigenvalues --    1.56449   1.56883   1.59341   1.66378   1.68202
  Beta virt. eigenvalues --    1.75493   1.78626   1.93474   1.98134   2.01291
  Beta virt. eigenvalues --    2.12102   2.19872   2.22022   2.22637   2.23419
  Beta virt. eigenvalues --    2.25012   2.29497   2.32671   2.36418   2.40577
  Beta virt. eigenvalues --    2.42246   2.50313   2.51280   2.51870   2.58404
  Beta virt. eigenvalues --    2.60216   2.63332   2.64386   2.67761   2.68889
  Beta virt. eigenvalues --    2.73978   2.76776   2.81460   2.81873   2.83644
  Beta virt. eigenvalues --    2.86162   2.88911   2.90578   2.92632   2.94367
  Beta virt. eigenvalues --    2.96796   3.00612   3.02453   3.05086   3.06952
  Beta virt. eigenvalues --    3.09190   3.09454   3.10802   3.12572   3.14363
  Beta virt. eigenvalues --    3.17810   3.21519   3.22972   3.24001   3.25247
  Beta virt. eigenvalues --    3.27168   3.28049   3.30229   3.33575   3.35364
  Beta virt. eigenvalues --    3.37992   3.39539   3.40476   3.42365   3.44611
  Beta virt. eigenvalues --    3.45685   3.48829   3.51413   3.51937   3.54373
  Beta virt. eigenvalues --    3.56881   3.59691   3.63419   3.65959   3.67675
  Beta virt. eigenvalues --    3.70212   3.72728   3.73206   3.74903   3.75951
  Beta virt. eigenvalues --    3.76829   3.79035   3.80108   3.81794   3.83242
  Beta virt. eigenvalues --    3.84264   3.86756   3.88783   3.90067   3.92097
  Beta virt. eigenvalues --    3.95238   3.96452   3.98799   4.00912   4.03460
  Beta virt. eigenvalues --    4.04176   4.04704   4.07515   4.08100   4.10009
  Beta virt. eigenvalues --    4.14268   4.15581   4.16870   4.21979   4.22853
  Beta virt. eigenvalues --    4.26544   4.28933   4.30499   4.33804   4.34696
  Beta virt. eigenvalues --    4.39491   4.39651   4.44440   4.49407   4.52876
  Beta virt. eigenvalues --    4.57379   4.67340   4.68885   4.72554   4.73879
  Beta virt. eigenvalues --    4.76222   4.77863   4.82978   4.85325   4.87243
  Beta virt. eigenvalues --    4.88031   4.91889   4.95524   4.98296   5.00982
  Beta virt. eigenvalues --    5.01807   5.09131   5.11047   5.12688   5.14317
  Beta virt. eigenvalues --    5.17844   5.19253   5.21613   5.24143   5.25227
  Beta virt. eigenvalues --    5.28271   5.34321   5.36089   5.41473   5.43147
  Beta virt. eigenvalues --    5.57418   5.66659   5.74729   5.77548   5.79369
  Beta virt. eigenvalues --    5.86040   5.93407   6.08357   6.10261   6.25064
  Beta virt. eigenvalues --    6.30762   6.34269   6.41009   6.44844   6.49562
  Beta virt. eigenvalues --    6.56251   6.61144   6.66320   6.79195   6.85819
  Beta virt. eigenvalues --    6.88320   7.21330   7.29380   7.48674   7.66212
  Beta virt. eigenvalues --    9.96916  11.19985  11.60436  12.61014  13.21236
          Condensed to atoms (all electrons):
               1          2          3          4          5          6
     1  O    7.906897   0.020925   0.000724   0.001824  -0.000154   0.000009
     2  O    0.020925   8.128977   0.001448  -0.089080  -0.000055  -0.000265
     3  C    0.000724   0.001448   5.054310   0.246636   0.299530   0.396756
     4  C    0.001824  -0.089080   0.246636   5.325652  -0.039350  -0.033992
     5  C   -0.000154  -0.000055   0.299530  -0.039350   4.949495  -0.033928
     6  H    0.000009  -0.000265   0.396756  -0.033992  -0.033928   0.606356
     7  H    0.001019   0.000958   0.408098  -0.050614  -0.041176  -0.040626
     8  H   -0.020713   0.192657  -0.013722   0.233676   0.001159   0.001911
     9  H    0.000157  -0.001570  -0.054206   0.385980  -0.002126   0.004412
    10  H    0.000780  -0.000782  -0.033489   0.386912   0.003252  -0.012161
    11  H   -0.000001   0.000019  -0.038417  -0.004177   0.399240  -0.006433
    12  H   -0.000001   0.000004  -0.037671   0.007430   0.403573  -0.006313
    13  H    0.000074  -0.000077  -0.040783  -0.002514   0.401175   0.007938
    14  H    0.311327  -0.042639  -0.000181  -0.002082   0.000029   0.000000
               7          8          9         10         11         12
     1  O    0.001019  -0.020713   0.000157   0.000780  -0.000001  -0.000001
     2  O    0.000958   0.192657  -0.001570  -0.000782   0.000019   0.000004
     3  C    0.408098  -0.013722  -0.054206  -0.033489  -0.038417  -0.037671
     4  C   -0.050614   0.233676   0.385980   0.386912  -0.004177   0.007430
     5  C   -0.041176   0.001159  -0.002126   0.003252   0.399240   0.403573
     6  H   -0.040626   0.001911   0.004412  -0.012161  -0.006433  -0.006313
     7  H    0.597627  -0.005540   0.004380   0.004853   0.007887  -0.004618
     8  H   -0.005540   0.404551  -0.009881  -0.012201  -0.000019  -0.000092
     9  H    0.004380  -0.009881   0.578720  -0.035061   0.000926   0.000355
    10  H    0.004853  -0.012201  -0.035061   0.562718   0.000685  -0.000388
    11  H    0.007887  -0.000019   0.000926   0.000685   0.600689  -0.030469
    12  H   -0.004618  -0.000092   0.000355  -0.000388  -0.030469   0.586898
    13  H   -0.007384   0.000017   0.000894  -0.000101  -0.039650  -0.030333
    14  H   -0.000060  -0.000637   0.000643  -0.000058  -0.000001   0.000001
              13         14
     1  O    0.000074   0.311327
     2  O   -0.000077  -0.042639
     3  C   -0.040783  -0.000181
     4  C   -0.002514  -0.002082
     5  C    0.401175   0.000029
     6  H    0.007938   0.000000
     7  H   -0.007384  -0.000060
     8  H    0.000017  -0.000637
     9  H    0.000894   0.000643
    10  H   -0.000101  -0.000058
    11  H   -0.039650  -0.000001
    12  H   -0.030333   0.000001
    13  H    0.600405   0.000013
    14  H    0.000013   0.467712
          Atomic-Atomic Spin Densities.
               1          2          3          4          5          6
     1  O    0.130943  -0.067447  -0.000956   0.015643   0.000047   0.000066
     2  O   -0.067447   0.567333   0.005051  -0.103291  -0.000212  -0.000548
     3  C   -0.000956   0.005051  -0.045423  -0.026118   0.007489   0.001726
     4  C    0.015643  -0.103291  -0.026118   0.707798  -0.006934  -0.006229
     5  C    0.000047  -0.000212   0.007489  -0.006934   0.014154   0.005798
     6  H    0.000066  -0.000548   0.001726  -0.006229   0.005798   0.027620
     7  H   -0.000864   0.002309   0.012151  -0.015705  -0.003555  -0.008888
     8  H    0.011257  -0.030059   0.000313   0.049225   0.000064   0.000676
     9  H   -0.000678   0.004345   0.005317  -0.009740  -0.000825  -0.001115
    10  H   -0.000221   0.001389   0.002422  -0.003255  -0.000370  -0.000650
    11  H   -0.000004   0.000027   0.000112   0.001443  -0.001112  -0.000960
    12  H   -0.000004   0.000016  -0.000637   0.000734  -0.001326  -0.001426
    13  H    0.000059  -0.000142   0.000133   0.000007   0.000648   0.000588
    14  H    0.001390  -0.001105  -0.000039   0.000638   0.000002   0.000002
               7          8          9         10         11         12
     1  O   -0.000864   0.011257  -0.000678  -0.000221  -0.000004  -0.000004
     2  O    0.002309  -0.030059   0.004345   0.001389   0.000027   0.000016
     3  C    0.012151   0.000313   0.005317   0.002422   0.000112  -0.000637
     4  C   -0.015705   0.049225  -0.009740  -0.003255   0.001443   0.000734
     5  C   -0.003555   0.000064  -0.000825  -0.000370  -0.001112  -0.001326
     6  H   -0.008888   0.000676  -0.001115  -0.000650  -0.000960  -0.001426
     7  H    0.040784  -0.002227   0.000934   0.000262   0.000441   0.001649
     8  H   -0.002227  -0.065050  -0.000279   0.002230  -0.000101  -0.000019
     9  H    0.000934  -0.000279  -0.028434   0.003137   0.000490   0.000125
    10  H    0.000262   0.002230   0.003137  -0.031407   0.000033   0.000050
    11  H    0.000441  -0.000101   0.000490   0.000033  -0.001959   0.001439
    12  H    0.001649  -0.000019   0.000125   0.000050   0.001439   0.004227
    13  H   -0.001574   0.000209  -0.000704  -0.000057  -0.000986  -0.001139
    14  H   -0.000014   0.000648  -0.000111  -0.000006  -0.000000  -0.000001
              13         14
     1  O    0.000059   0.001390
     2  O   -0.000142  -0.001105
     3  C    0.000133  -0.000039
     4  C    0.000007   0.000638
     5  C    0.000648   0.000002
     6  H    0.000588   0.000002
     7  H   -0.001574  -0.000014
     8  H    0.000209   0.000648
     9  H   -0.000704  -0.000111
    10  H   -0.000057  -0.000006
    11  H   -0.000986  -0.000000
    12  H   -0.001139  -0.000001
    13  H    0.002734   0.000005
    14  H    0.000005  -0.005532
 Mulliken charges and spin densities:
               1          2
     1  O   -0.222868   0.089231
     2  O   -0.210521   0.377667
     3  C   -0.189033  -0.038459
     4  C   -0.366301   0.604215
     5  C   -0.340664   0.013868
     6  H    0.116335   0.016662
     7  H    0.125196   0.025703
     8  H    0.228835  -0.033113
     9  H    0.126377  -0.027538
    10  H    0.135041  -0.026443
    11  H    0.109720  -0.001138
    12  H    0.111624   0.003688
    13  H    0.110327  -0.000220
    14  H    0.265933  -0.004123
 Sum of Mulliken charges =  -0.00000   1.00000
 Mulliken charges and spin densities with hydrogens summed into heavy atoms:
               1          2
     1  O    0.043065   0.085108
     2  O    0.018314   0.344554
     3  C    0.052497   0.003906
     4  C   -0.104884   0.550234
     5  C   -0.008993   0.016198
 Electronic spatial extent (au):  <R**2>=            798.0997
 Charge=             -0.0000 electrons
 Dipole moment (field-independent basis, Debye):
    X=             -1.4446    Y=             -0.8205    Z=             -1.3362  Tot=              2.1320
 Quadrupole moment (field-independent basis, Debye-Ang):
   XX=            -35.1108   YY=            -31.9830   ZZ=            -31.9255
   XY=             -3.2331   XZ=             -4.3601   YZ=              1.9148
 Traceless Quadrupole moment (field-independent basis, Debye-Ang):
   XX=             -2.1043   YY=              1.0234   ZZ=              1.0809
   XY=             -3.2331   XZ=             -4.3601   YZ=              1.9148
 Octapole moment (field-independent basis, Debye-Ang**2):
  XXX=             15.5937  YYY=             -1.7395  ZZZ=             -1.4737  XYY=              8.0132
  XXY=             -7.0562  XXZ=             -9.0430  XZZ=              8.8219  YZZ=             -2.4699
  YYZ=             -1.6209  XYZ=              5.3235
 Hexadecapole moment (field-independent basis, Debye-Ang**3):
 XXXX=           -808.2402 YYYY=           -125.5395 ZZZZ=            -79.3642 XXXY=            -25.2925
 XXXZ=            -34.8613 YYYX=            -13.0238 YYYZ=              4.4642 ZZZX=             -3.8523
 ZZZY=              1.1391 XXYY=           -151.4164 XXZZ=           -138.8275 YYZZ=            -34.4538
 XXYZ=             10.8185 YYXZ=             -7.1555 ZZXY=             -6.5155
 N-N= 1.790752735064D+02 E-N=-9.900490597311D+02  KE= 2.684083023960D+02
                          Isotropic Fermi Contact Couplings
        Atom                 a.u.       MegaHertz       Gauss      10(-4) cm-1
     1  O(17)              0.00599      -3.63014      -1.29532      -1.21088
     2  O(17)              0.12084     -73.25116     -26.13783     -24.43396
     3  C(13)             -0.00642      -7.22077      -2.57655      -2.40859
     4  C(13)              0.21011     236.20513      84.28387      78.78955
     5  C(13)              0.01140      12.81104       4.57130       4.27330
     6  H(1)               0.00634      28.34303      10.11350       9.45422
     7  H(1)               0.01287      57.53717      20.53069      19.19233
     8  H(1)              -0.03583    -160.17497     -57.15441     -53.42862
     9  H(1)              -0.00602     -26.88734      -9.59407      -8.96865
    10  H(1)              -0.00618     -27.60485      -9.85010      -9.20799
    11  H(1)              -0.00034      -1.50694      -0.53772      -0.50266
    12  H(1)               0.00124       5.52733       1.97229       1.84372
    13  H(1)               0.00001       0.02860       0.01020       0.00954
    14  H(1)              -0.00223      -9.96139      -3.55447      -3.32276
 --------------------------------------------------------
       Center         ----  Spin Dipole Couplings  ----
                      3XX-RR        3YY-RR        3ZZ-RR
 --------------------------------------------------------
     1   Atom        0.534433     -0.288755     -0.245678
     2   Atom        1.662461     -0.701885     -0.960576
     3   Atom        0.036005     -0.019503     -0.016503
     4   Atom        0.423469     -0.184066     -0.239403
     5   Atom        0.007317      0.001960     -0.009276
     6   Atom        0.003836     -0.003994      0.000157
     7   Atom       -0.003630     -0.001043      0.004672
     8   Atom        0.216060     -0.106481     -0.109578
     9   Atom       -0.012731     -0.029557      0.042288
    10   Atom       -0.010983      0.046026     -0.035043
    11   Atom        0.005318     -0.003212     -0.002107
    12   Atom        0.002850     -0.001187     -0.001663
    13   Atom        0.000826      0.002516     -0.003342
    14   Atom       -0.006572     -0.002294      0.008866
 --------------------------------------------------------
                        XY            XZ            YZ
 --------------------------------------------------------
     1   Atom        0.091063      0.007929      0.019675
     2   Atom        0.854405      0.012601      0.000717
     3   Atom       -0.001323     -0.011824     -0.004148
     4   Atom       -0.325780      0.257597     -0.108153
     5   Atom        0.015116      0.004558      0.004059
     6   Atom       -0.000887     -0.007526      0.003374
     7   Atom        0.004232     -0.005409     -0.010714
     8   Atom       -0.035765      0.017645     -0.011626
     9   Atom       -0.011489      0.011480      0.015984
    10   Atom       -0.001027      0.011120      0.008072
    11   Atom        0.002399      0.003491      0.000102
    12   Atom        0.002910     -0.001343     -0.000532
    13   Atom        0.004396      0.001205      0.002319
    14   Atom       -0.007996     -0.005445      0.018590
 --------------------------------------------------------


 ---------------------------------------------------------------------------------
              Anisotropic Spin Dipole Couplings in Principal Axis System
 ---------------------------------------------------------------------------------

       Atom             a.u.   MegaHertz   Gauss  10(-4) cm-1        Axes

              Baa    -0.3046    22.044     7.866     7.353 -0.1000  0.9478 -0.3028
     1 O(17)  Bbb    -0.2399    17.356     6.193     5.789 -0.0450  0.2997  0.9530
              Bcc     0.5445   -39.401   -14.059   -13.143  0.9940  0.1089  0.0127
 
              Baa    -0.9789    70.831    25.274    23.627 -0.3039  0.9370  0.1725
     2 O(17)  Bbb    -0.9601    69.470    24.789    23.173  0.0491 -0.1654  0.9850
              Bcc     1.9389  -140.301   -50.063   -46.799  0.9514  0.3078  0.0042
 
              Baa    -0.0236    -3.169    -1.131    -1.057  0.1493  0.7257  0.6716
     3 C(13)  Bbb    -0.0149    -2.004    -0.715    -0.668  0.1471 -0.6880  0.7107
              Bcc     0.0385     5.173     1.846     1.725  0.9778 -0.0073 -0.2095
 
              Baa    -0.3297   -44.248   -15.789   -14.759 -0.4659 -0.5001  0.7299
     4 C(13)  Bbb    -0.3229   -43.328   -15.460   -14.453  0.1276  0.7784  0.6147
              Bcc     0.6526    87.575    31.249    29.212  0.8756 -0.3796  0.2989
 
              Baa    -0.0108    -1.451    -0.518    -0.484 -0.4864  0.7288 -0.4819
     5 C(13)  Bbb    -0.0104    -1.395    -0.498    -0.465 -0.4470  0.2663  0.8539
              Bcc     0.0212     2.846     1.016     0.949  0.7507  0.6308  0.1962
 
              Baa    -0.0073    -3.897    -1.391    -1.300  0.4189 -0.5907  0.6896
     6 H(1)   Bbb    -0.0030    -1.597    -0.570    -0.533  0.5037  0.7831  0.3648
              Bcc     0.0103     5.494     1.960     1.832  0.7555 -0.1946 -0.6256
 
              Baa    -0.0093    -4.948    -1.766    -1.651 -0.0174  0.7962  0.6048
     7 H(1)   Bbb    -0.0061    -3.260    -1.163    -1.087  0.9404 -0.1925  0.2804
              Bcc     0.0154     8.208     2.929     2.738 -0.3397 -0.5737  0.7453
 
              Baa    -0.1201   -64.104   -22.874   -21.383  0.0375  0.7026  0.7106
     8 H(1)   Bbb    -0.1009   -53.837   -19.211   -17.958  0.1184  0.7029 -0.7013
              Bcc     0.2210   117.941    42.084    39.341  0.9923 -0.1104  0.0568
 
              Baa    -0.0400   -21.340    -7.615    -7.118  0.4587  0.8581 -0.2307
     9 H(1)   Bbb    -0.0070    -3.761    -1.342    -1.254  0.8755 -0.4809 -0.0479
              Bcc     0.0470    25.101     8.957     8.373  0.1521  0.1800  0.9718
 
              Baa    -0.0401   -21.405    -7.638    -7.140 -0.3579 -0.0913  0.9293
    10 H(1)   Bbb    -0.0067    -3.577    -1.276    -1.193  0.9338 -0.0363  0.3560
              Bcc     0.0468    24.982     8.914     8.333  0.0012  0.9952  0.0983
 
              Baa    -0.0044    -2.336    -0.833    -0.779 -0.3826  0.7387  0.5550
    11 H(1)   Bbb    -0.0028    -1.505    -0.537    -0.502 -0.1362 -0.6392  0.7569
              Bcc     0.0072     3.841     1.370     1.281  0.9138  0.2140  0.3452
 
              Baa    -0.0027    -1.462    -0.522    -0.488 -0.4889  0.8516 -0.1892
    12 H(1)   Bbb    -0.0020    -1.045    -0.373    -0.349  0.1029  0.2716  0.9569
              Bcc     0.0047     2.506     0.894     0.836  0.8663  0.4484 -0.2204
 
              Baa    -0.0042    -2.236    -0.798    -0.746  0.1340 -0.4011  0.9062
    13 H(1)   Bbb    -0.0026    -1.389    -0.496    -0.463  0.7836 -0.5169 -0.3447
              Bcc     0.0068     3.625     1.293     1.209  0.6066  0.7563  0.2451
 
              Baa    -0.0173    -9.223    -3.291    -3.076  0.3436  0.7977 -0.4955
    14 H(1)   Bbb    -0.0080    -4.295    -1.532    -1.433  0.8973 -0.1230  0.4240
              Bcc     0.0253    13.517     4.823     4.509 -0.2773  0.5903  0.7580
 

 ---------------------------------------------------------------------------------

 No NMR shielding tensors so no spin-rotation constants.
 Leave Link  601 at Thu Sep  5 10:21:39 2019, MaxMem=   671088640 cpu:              82.6 elap:              41.3
 (Enter /shared/centos7/gaussian/g16/l701.exe)
 ... and contract with generalized density number  0.
 Compute integral first derivatives.
 Leave Link  701 at Thu Sep  5 10:21:58 2019, MaxMem=   671088640 cpu:              37.6 elap:              18.8
 (Enter /shared/centos7/gaussian/g16/l702.exe)
 L702 exits ... SP integral derivatives will be done elsewhere.
 Leave Link  702 at Thu Sep  5 10:21:59 2019, MaxMem=   671088640 cpu:               1.6 elap:               0.8
 (Enter /shared/centos7/gaussian/g16/l703.exe)
 Integral derivatives from FoFJK, PRISM(SPDF).
 Compute integral first derivatives, UseDBF=F ICtDFT=           0.
 Calling FoFJK, ICntrl=      2127 FMM=F ISym2X=0 I1Cent= 0 IOpClX= 1 NMat=1 NMatS=1 NMatT=0.
 FoFJK:  IHMeth= 1 ICntrl=    2127 DoSepK=F KAlg= 0 I1Cent=           0 FoldK=F
 IRaf=         0 NMat=       1 IRICut=       1 DoRegI=T DoRafI=F ISym2E= 0 IDoP0=0 IntGTp=1.
 FoFCou: FMM=F IPFlag=           0 FMFlag=      100000 FMFlg1=         800
         NFxFlg=           0 DoJE=F BraDBF=F KetDBF=F FulRan=T
         wScrn=  0.000000 ICntrl=      2127 IOpCl=  1 I1Cent=           0 NGrid=           0
         NMat0=    1 NMatS0=      1 NMatT0=    0 NMatD0=    1 NMtDS0=    0 NMtDT0=    0
 Symmetry not used in FoFCou.
 Leave Link  703 at Thu Sep  5 10:23:28 2019, MaxMem=   671088640 cpu:             177.6 elap:              88.8
 (Enter /shared/centos7/gaussian/g16/l716.exe)
 Dipole        =-5.68330347D-01-3.22811192D-01-5.25712243D-01
 ***** Axes restored to original set *****
 -------------------------------------------------------------------
 Center     Atomic                   Forces (Hartrees/Bohr)
 Number     Number              X              Y              Z
 -------------------------------------------------------------------
      1        8           0.050397192   -0.033012644    0.032587045
      2        8          -0.043346734    0.013030192   -0.022926653
      3        6           0.005816414    0.008571043   -0.007289559
      4        6          -0.015142586    0.005303277    0.007720249
      5        6          -0.002287477    0.000301829    0.010081342
      6        1           0.007438246   -0.008384310    0.004188433
      7        1          -0.010139815   -0.002064521    0.000843487
      8        1          -0.022881540   -0.001959353   -0.000620896
      9        1           0.007471591    0.007964310   -0.009558723
     10        1           0.012564541   -0.005519754    0.007539434
     11        1           0.012386647    0.003130717   -0.002712023
     12        1          -0.002353271   -0.012496515   -0.002529649
     13        1          -0.007673486    0.008282202   -0.005426105
     14        1           0.007750277    0.016853528   -0.011896381
 -------------------------------------------------------------------
 Cartesian Forces:  Max     0.050397192 RMS     0.015481312
 Leave Link  716 at Thu Sep  5 10:23:29 2019, MaxMem=   671088640 cpu:               1.8 elap:               0.9
 (Enter /shared/centos7/gaussian/g16/l103.exe)

 GradGradGradGradGradGradGradGradGradGradGradGradGradGradGradGradGradGrad
 Berny optimization.
 FormGI is forming the generalized inverse of G from B-inverse, IUseBI=4.
 Internal  Forces:  Max     0.063522636 RMS     0.010661738
 Search for a local minimum.
 Step number   1 out of a maximum of  100
 All quantities printed in internal units (Hartrees-Bohrs-Radians)
 RMS Force = .10514D-01 SwitMx=.10000D-02 MixMth= 1
 Mixed Optimization -- RFO/linear search
 Second derivative matrix not updated -- first step.
 ITU=  0
     Eigenvalues ---    0.00230   0.00230   0.00428   0.00443   0.02406
     Eigenvalues ---    0.03406   0.04685   0.04826   0.05004   0.05524
     Eigenvalues ---    0.05714   0.08680   0.11673   0.12444   0.13721
     Eigenvalues ---    0.16000   0.16000   0.16000   0.16000   0.16000
     Eigenvalues ---    0.16000   0.21907   0.29838   0.29946   0.32486
     Eigenvalues ---    0.32496   0.32497   0.32501   0.32502   0.32504
     Eigenvalues ---    0.32559   0.49447   0.629301000.000001000.00000
     Eigenvalues --- 1000.000001000.000001000.000001000.000001000.00000
     Eigenvalues --- 1000.000001000.000001000.000001000.000001000.00000
     Eigenvalues --- 1000.000001000.000001000.000001000.000001000.00000
     Eigenvalues --- 1000.000001000.000001000.000001000.000001000.00000
     Eigenvalues --- 1000.000001000.00000
 RFO step:  Lambda=-1.31301215D-02 EMin= 2.30000000D-03
 Linear search not attempted -- first point.
 Iteration  1 RMS(Cart)=  0.04816180 RMS(Int)=  0.00190028
 Iteration  2 RMS(Cart)=  0.00216997 RMS(Int)=  0.00030998
 Iteration  3 RMS(Cart)=  0.00000594 RMS(Int)=  0.00030996
 Iteration  4 RMS(Cart)=  0.00000000 RMS(Int)=  0.00030996
 Iteration  1 RMS(Cart)=  0.00000000 RMS(Int)=  0.00000000
 ITry= 1 IFail=0 DXMaxC= 1.81D-01 DCOld= 1.00D+10 DXMaxT= 3.00D-01 DXLimC= 3.00D+00 Rises=F
 Variable       Old X    -DE/DX   Delta X   Delta X   Delta X     New X
                                 (Linear)    (Quad)   (Total)
    R1        2.48694   0.06352   0.00000   0.09888   0.09888   2.58582
    R2        1.87128  -0.02126   0.00000  -0.04187  -0.04187   1.82940
    R3        2.20115   0.00894   0.00000   0.00000  -0.00000   2.20115
    R4        2.88071  -0.00305   0.00000  -0.00974  -0.00974   2.87097
    R5        2.88287  -0.00058   0.00000  -0.00185  -0.00185   2.88102
    R6        2.09964  -0.01191   0.00000  -0.03524  -0.03524   2.06440
    R7        2.09945  -0.01033   0.00000  -0.03056  -0.03056   2.06889
    R8        2.58649  -0.00352   0.00000   0.00000  -0.00000   2.58649
    R9        2.09937  -0.01383   0.00000  -0.04090  -0.04090   2.05847
   R10        2.09934  -0.01441   0.00000  -0.04261  -0.04261   2.05673
   R11        2.09944  -0.01306   0.00000  -0.03863  -0.03863   2.06081
   R12        2.09832  -0.01270   0.00000  -0.03748  -0.03748   2.06084
   R13        2.09932  -0.01252   0.00000  -0.03703  -0.03703   2.06228
    A1        1.80416   0.01079   0.00000   0.06232   0.06232   1.86647
    A2        1.82046   0.00804   0.00000   0.04642   0.04642   1.86688
    A3        1.99544  -0.00507   0.00000  -0.02172  -0.02168   1.97376
    A4        1.90404   0.00138   0.00000   0.00499   0.00504   1.90908
    A5        1.92099   0.00145   0.00000   0.00491   0.00494   1.92593
    A6        1.90536   0.00200   0.00000   0.01060   0.01059   1.91596
    A7        1.88873   0.00182   0.00000   0.00841   0.00839   1.89712
    A8        1.84307  -0.00131   0.00000  -0.00601  -0.00607   1.83700
    A9        1.94083  -0.00045   0.00000  -0.01462  -0.01434   1.92649
   A10        1.98866   0.00144   0.00000   0.01438   0.01338   2.00204
   A11        1.97036   0.00529   0.00000   0.04605   0.04530   2.01566
   A12        1.84285  -0.00242   0.00000  -0.03169  -0.03165   1.81121
   A13        1.78185  -0.00387   0.00000  -0.03417  -0.03377   1.74808
   A14        1.92409  -0.00108   0.00000   0.00931   0.00768   1.93177
   A15        1.94366  -0.00088   0.00000  -0.00604  -0.00607   1.93758
   A16        1.91123   0.00392   0.00000   0.02514   0.02511   1.93634
   A17        1.94112  -0.00020   0.00000  -0.00275  -0.00279   1.93833
   A18        1.88780  -0.00116   0.00000  -0.00370  -0.00372   1.88408
   A19        1.88601  -0.00009   0.00000  -0.00512  -0.00516   1.88085
   A20        1.89249  -0.00170   0.00000  -0.00807  -0.00811   1.88438
   A21        2.54164   0.02043   0.00000   0.00000   0.00000   2.54164
    D1        1.67451   0.00164   0.00000   0.04420   0.04420   1.71871
    D2       -2.56579   0.00165   0.00000   0.10681   0.10681  -2.45898
    D3       -2.12733   0.00024   0.00000   0.00520   0.00512  -2.12221
    D4       -0.04721  -0.00222   0.00000  -0.03648  -0.03684  -0.08405
    D5        2.16511   0.00211   0.00000   0.02886   0.02930   2.19441
    D6        2.01716   0.00014   0.00000   0.00281   0.00273   2.01989
    D7       -2.18591  -0.00232   0.00000  -0.03887  -0.03923  -2.22514
    D8        0.02642   0.00200   0.00000   0.02646   0.02690   0.05332
    D9        0.00254   0.00012   0.00000   0.00445   0.00437   0.00691
   D10        2.08266  -0.00234   0.00000  -0.03723  -0.03758   2.04507
   D11       -1.98820   0.00198   0.00000   0.02811   0.02855  -1.95965
   D12       -1.01450   0.00038   0.00000   0.00131   0.00131  -1.01319
   D13       -3.10159  -0.00016   0.00000  -0.00664  -0.00663  -3.10822
   D14        1.09028  -0.00047   0.00000  -0.01121  -0.01121   1.07907
   D15        1.12347   0.00015   0.00000   0.00063   0.00059   1.12407
   D16       -0.96361  -0.00040   0.00000  -0.00732  -0.00734  -0.97096
   D17       -3.05493  -0.00071   0.00000  -0.01189  -0.01192  -3.06685
   D18        3.12126   0.00061   0.00000   0.00352   0.00354   3.12480
   D19        1.03418   0.00006   0.00000  -0.00443  -0.00440   1.02978
   D20       -1.05714  -0.00025   0.00000  -0.00900  -0.00897  -1.06612
   D21       -3.00520  -0.00108   0.00000   0.00019   0.00027  -3.00493
   D22        1.11268  -0.00099   0.00000   0.01210   0.01219   1.12487
   D23       -0.89942   0.00268   0.00000   0.02753   0.02736  -0.87206
         Item               Value     Threshold  Converged?
 Maximum Force            0.063523     0.002500     NO 
 RMS     Force            0.010514     0.001667     NO 
 Maximum Displacement     0.180572     0.010000     NO 
 RMS     Displacement     0.048682     0.006667     NO 
 Predicted change in Energy=-6.939652D-03
 Lowest energy point so far.  Saving SCF results.
 GradGradGradGradGradGradGradGradGradGradGradGradGradGradGradGradGradGrad

 Leave Link  103 at Thu Sep  5 10:25:14 2019, MaxMem=   671088640 cpu:             209.2 elap:             104.9
 (Enter /shared/centos7/gaussian/g16/l202.exe)
                          Input orientation:                          
 ---------------------------------------------------------------------
 Center     Atomic      Atomic             Coordinates (Angstroms)
 Number     Number       Type             X           Y           Z
 ---------------------------------------------------------------------
      1          8           0        3.951190   -1.923087    1.255302
      2          8           0        2.709219   -1.585747    0.790420
      3          6           0        1.430473    0.959617    2.882582
      4          6           0        1.152518   -0.358879    2.180849
      5          6           0        1.187436    0.899350    4.386450
      6          1           0        0.812144    1.743605    2.439360
      7          1           0        2.464261    1.274067    2.706463
      8          1           0        2.272955   -0.796857    1.528040
      9          1           0        0.900382   -1.184171    2.845594
     10          1           0        0.452983   -0.308147    1.348602
     11          1           0        0.160340    0.605214    4.605143
     12          1           0        1.364617    1.870824    4.849211
     13          1           0        1.849910    0.174109    4.861971
     14          1           0        3.853031   -2.751273    1.746880
 ---------------------------------------------------------------------
                    Distance matrix (angstroms):
                    1          2          3          4          5
     1  O    0.000000
     2  O    1.368359   0.000000
     3  C    4.160774   3.534290   0.000000
     4  C    3.337058   2.421119   1.519249   0.000000
     5  C    5.040692   4.628494   1.524572   2.539494   0.000000
     6  H    4.969933   4.171627   1.092434   2.145488   2.155173
     7  H    3.812954   3.451052   1.094812   2.159502   2.143140
     8  H    2.039425   1.164798   2.372712   1.368709   3.496567
     9  H    3.518871   2.767109   2.208663   1.089296   2.607239
    10  H    3.854114   2.652250   2.217162   1.088374   3.350521
    11  H    5.655465   5.084211   2.169344   2.791252   1.090536
    12  H    5.830978   5.498147   2.168471   3.483779   1.090552
    13  H    4.671367   4.518078   2.170468   2.821142   1.091314
    14  H    0.968079   1.892504   4.574857   3.633821   5.234479
                    6          7          8          9         10
     6  H    0.000000
     7  H    1.738188   0.000000
     8  H    3.068944   2.390399   0.000000
     9  H    2.957141   2.916848   1.941627   0.000000
    10  H    2.351262   2.896968   1.892970   1.791248   0.000000
    11  H    2.532073   3.059477   3.987168   2.616404   3.394838
    12  H    2.475640   2.481271   4.355661   3.682796   4.222944
    13  H    3.067461   2.496707   3.498119   2.610038   3.811526
    14  H    5.470873   4.364957   2.522751   3.518681   4.205689
                   11         12         13         14
    11  H    0.000000
    12  H    1.763979   0.000000
    13  H    1.762515   1.764799   0.000000
    14  H    5.750795   6.097577   4.719549   0.000000
 Stoichiometry    C3H9O2(2)
 Framework group  C1[X(C3H9O2)]
 Deg. of freedom    36
 Full point group                 C1      NOp   1
 RotChk:  IX=0 Diff= 9.01D-02
 Largest Abelian subgroup         C1      NOp   1
 Largest concise Abelian subgroup C1      NOp   1
                         Standard orientation:                         
 ---------------------------------------------------------------------
 Center     Atomic      Atomic             Coordinates (Angstroms)
 Number     Number       Type             X           Y           Z
 ---------------------------------------------------------------------
      1          8           0        2.500300   -0.745252    0.143654
      2          8           0        1.955007    0.501343   -0.001466
      3          6           0       -1.525306    0.225592    0.548612
      4          6           0       -0.425758    0.785174   -0.337943
      5          6           0       -2.526603   -0.636008   -0.212551
      6          1           0       -2.046511    1.048627    1.042951
      7          1           0       -1.094195   -0.370631    1.359337
      8          1           0        0.801996    0.383536    0.114467
      9          1           0       -0.449615    0.434676   -1.369033
     10          1           0       -0.299517    1.865605   -0.302037
     11          1           0       -2.992813   -0.071930   -1.021089
     12          1           0       -3.317482   -0.991149    0.449030
     13          1           0       -2.039132   -1.507609   -0.652608
     14          1           0        2.660809   -1.088391   -0.747227
 ---------------------------------------------------------------------
 Rotational constants (GHZ):          10.4512723           1.5908927           1.4862143
 Leave Link  202 at Thu Sep  5 10:25:15 2019, MaxMem=   671088640 cpu:               3.4 elap:               1.7
 (Enter /shared/centos7/gaussian/g16/l301.exe)
 Standard basis: CC-pVTZ (5D, 7F)
 Ernie: Thresh=  0.10000D-02 Tol=  0.10000D-05 Strict=F.
 Ernie:  15 primitive shells out of 202 were deleted.
 There are   310 symmetry adapted cartesian basis functions of A   symmetry.
 There are   276 symmetry adapted basis functions of A   symmetry.
   276 basis functions,   413 primitive gaussians,   310 cartesian basis functions
    22 alpha electrons       21 beta electrons
[...]
  Beta virt. eigenvalues --    1.36297   1.38434   1.41048   1.41647   1.45561
  Beta virt. eigenvalues --    1.48749   1.51113   1.52789   1.55051   1.56639
  Beta virt. eigenvalues --    1.59483   1.61311   1.62400   1.66632   1.69633
  Beta virt. eigenvalues --    1.76453   1.78523   1.93032   1.96515   2.05666
  Beta virt. eigenvalues --    2.10969   2.18171   2.20827   2.23895   2.28999
  Beta virt. eigenvalues --    2.30879   2.31479   2.35094   2.39828   2.42422
  Beta virt. eigenvalues --    2.45060   2.51613   2.52177   2.55468   2.56613
  Beta virt. eigenvalues --    2.58857   2.62454   2.64548   2.67508   2.72131
  Beta virt. eigenvalues --    2.73032   2.76492   2.81505   2.82860   2.85195
  Beta virt. eigenvalues --    2.86807   2.88782   2.92241   2.93670   2.98478
  Beta virt. eigenvalues --    3.00542   3.04251   3.06709   3.07429   3.08380
  Beta virt. eigenvalues --    3.09383   3.11527   3.12998   3.15475   3.16498
  Beta virt. eigenvalues --    3.18923   3.20586   3.23303   3.23972   3.27051
  Beta virt. eigenvalues --    3.28060   3.28949   3.35185   3.35403   3.37558
  Beta virt. eigenvalues --    3.39297   3.41480   3.42343   3.45354   3.46578
  Beta virt. eigenvalues --    3.49523   3.50924   3.51686   3.55985   3.57859
  Beta virt. eigenvalues --    3.59318   3.64559   3.68784   3.70013   3.71846
  Beta virt. eigenvalues --    3.73810   3.74341   3.76056   3.77415   3.79108
  Beta virt. eigenvalues --    3.79547   3.80676   3.82971   3.84732   3.86200
  Beta virt. eigenvalues --    3.88677   3.90663   3.93009   3.93696   3.96908
  Beta virt. eigenvalues --    3.98046   3.98653   4.00298   4.04248   4.06548
  Beta virt. eigenvalues --    4.07361   4.07803   4.11691   4.12962   4.15179
  Beta virt. eigenvalues --    4.17098   4.20437   4.21154   4.24163   4.26095
  Beta virt. eigenvalues --    4.27913   4.29146   4.34319   4.37201   4.39242
  Beta virt. eigenvalues --    4.42490   4.49358   4.49656   4.53419   4.60242
  Beta virt. eigenvalues --    4.65969   4.71646   4.72765   4.76130   4.80336
  Beta virt. eigenvalues --    4.82954   4.85235   4.86223   4.86290   4.89297
  Beta virt. eigenvalues --    4.90932   4.97909   5.00730   5.01811   5.05227
  Beta virt. eigenvalues --    5.10494   5.12348   5.15347   5.18832   5.20909
  Beta virt. eigenvalues --    5.25638   5.27712   5.30493   5.31877   5.34256
  Beta virt. eigenvalues --    5.40381   5.43454   5.45227   5.48388   5.50355
  Beta virt. eigenvalues --    5.56615   5.58884   5.78340   5.80774   5.81341
  Beta virt. eigenvalues --    5.84580   5.88263   5.96156   6.09749   6.20767
  Beta virt. eigenvalues --    6.34558   6.37088   6.39991   6.48142   6.56046
  Beta virt. eigenvalues --    6.60812   6.63306   6.71555   6.72317   6.86660
  Beta virt. eigenvalues --    6.91332   7.16021   7.20680   7.45654   7.60378
  Beta virt. eigenvalues --    9.92011  11.27562  12.16127  12.92964  13.41879
          Condensed to atoms (all electrons):
               1          2          3          4          5          6
     1  O    7.900801   0.056720  -0.018909   0.006446  -0.000773  -0.000116
     2  O    0.056720   8.089915   0.016567  -0.099529   0.001571   0.002704
     3  C   -0.018909   0.016567   5.042209   0.286909   0.294971   0.401636
     4  C    0.006446  -0.099529   0.286909   5.338916  -0.057287  -0.038174
     5  C   -0.000773   0.001571   0.294971  -0.057287   4.963410  -0.033333
     6  H   -0.000116   0.002704   0.401636  -0.038174  -0.033333   0.574416
     7  H    0.018146  -0.008531   0.406265  -0.039161  -0.041358  -0.035070
     8  H   -0.031536   0.201288  -0.019845   0.229110   0.000659  -0.002735
     9  H    0.006273  -0.001822  -0.049391   0.389725   0.000792   0.006703
    10  H    0.001345   0.000005  -0.035683   0.384917  -0.004453  -0.005096
    11  H   -0.000014   0.000006  -0.039665  -0.003943   0.401974  -0.006249
    12  H   -0.000012   0.000026  -0.037207   0.008575   0.403701  -0.004703
    13  H   -0.000043   0.000004  -0.040005  -0.002756   0.402048   0.007330
    14  H    0.306961  -0.030474   0.001711  -0.002645   0.000072   0.000023
               7          8          9         10         11         12
     1  O    0.018146  -0.031536   0.006273   0.001345  -0.000014  -0.000012
     2  O   -0.008531   0.201288  -0.001822   0.000005   0.000006   0.000026
     3  C    0.406265  -0.019845  -0.049391  -0.035683  -0.039665  -0.037207
     4  C   -0.039161   0.229110   0.389725   0.384917  -0.003943   0.008575
     5  C   -0.041358   0.000659   0.000792  -0.004453   0.401974   0.403701
     6  H   -0.035070  -0.002735   0.006703  -0.005096  -0.006249  -0.004703
     7  H    0.552210   0.000212  -0.005670   0.006738   0.007038  -0.004173
     8  H    0.000212   0.402163  -0.016204  -0.005358  -0.000116  -0.000145
     9  H   -0.005670  -0.016204   0.544431  -0.029192  -0.000215  -0.000113
    10  H    0.006738  -0.005358  -0.029192   0.547160   0.002299  -0.000136
    11  H    0.007038  -0.000116  -0.000215   0.002299   0.608170  -0.032379
    12  H   -0.004173  -0.000145  -0.000113  -0.000136  -0.032379   0.582536
    13  H   -0.005328   0.000039   0.001988   0.000135  -0.041952  -0.030716
    14  H   -0.001192  -0.003820   0.001414  -0.000048   0.000004  -0.000000
              13         14
     1  O   -0.000043   0.306961
     2  O    0.000004  -0.030474
     3  C   -0.040005   0.001711
     4  C   -0.002756  -0.002645
     5  C    0.402048   0.000072
     6  H    0.007330   0.000023
     7  H   -0.005328  -0.001192
     8  H    0.000039  -0.003820
     9  H    0.001988   0.001414
    10  H    0.000135  -0.000048
    11  H   -0.041952   0.000004
    12  H   -0.030716  -0.000000
    13  H    0.598411  -0.000007
    14  H   -0.000007   0.459713
          Atomic-Atomic Spin Densities.
               1          2          3          4          5          6
     1  O    0.049392  -0.038409  -0.002189   0.017929   0.000277  -0.000169
     2  O   -0.038409   0.538653   0.009434  -0.113976  -0.000830   0.001057
     3  C   -0.002189   0.009434  -0.029134  -0.047956   0.019294   0.003744
     4  C    0.017929  -0.113976  -0.047956   0.804973  -0.017698  -0.004739
     5  C    0.000277  -0.000830   0.019294  -0.017698   0.037127  -0.002707
     6  H   -0.000169   0.001057   0.003744  -0.004739  -0.002707   0.005433
     7  H   -0.000956   0.001982   0.002891  -0.004658  -0.002079   0.000690
     8  H    0.008785  -0.035232  -0.000598   0.061037   0.000434  -0.000268
     9  H   -0.002084   0.003659   0.001780  -0.004482  -0.000894  -0.000114
    10  H   -0.000265   0.002000   0.001440  -0.001543  -0.000877   0.000719
    11  H   -0.000004   0.000020   0.000714   0.000368  -0.000401   0.000099
    12  H   -0.000021   0.000053  -0.003652   0.002345  -0.004163   0.000694
    13  H   -0.000031   0.000036   0.000614   0.000236  -0.000373   0.000017
    14  H    0.000491  -0.001186  -0.000090   0.000106   0.000002  -0.000006
               7          8          9         10         11         12
     1  O   -0.000956   0.008785  -0.002084  -0.000265  -0.000004  -0.000021
     2  O    0.001982  -0.035232   0.003659   0.002000   0.000020   0.000053
     3  C    0.002891  -0.000598   0.001780   0.001440   0.000714  -0.003652
     4  C   -0.004658   0.061037  -0.004482  -0.001543   0.000368   0.002345
     5  C   -0.002079   0.000434  -0.000894  -0.000877  -0.000401  -0.004163
     6  H    0.000690  -0.000268  -0.000114   0.000719   0.000099   0.000694
     7  H    0.007013  -0.000580   0.000642  -0.000009   0.000031   0.000725
     8  H   -0.000580  -0.061029   0.002455   0.000865  -0.000042  -0.000051
     9  H    0.000642   0.002455  -0.038510   0.003550   0.000029   0.000151
    10  H   -0.000009   0.000865   0.003550  -0.040166  -0.000091   0.000168
    11  H    0.000031  -0.000042   0.000029  -0.000091  -0.003253   0.000323
    12  H    0.000725  -0.000051   0.000151   0.000168   0.000323   0.013914
    13  H    0.000084  -0.000037  -0.000125   0.000029   0.000642   0.000188
    14  H   -0.000006   0.000504  -0.000182  -0.000005  -0.000000  -0.000000
              13         14
     1  O   -0.000031   0.000491
     2  O    0.000036  -0.001186
     3  C    0.000614  -0.000090
     4  C    0.000236   0.000106
     5  C   -0.000373   0.000002
     6  H    0.000017  -0.000006
     7  H    0.000084  -0.000006
     8  H   -0.000037   0.000504
     9  H   -0.000125  -0.000182
    10  H    0.000029  -0.000005
    11  H    0.000642  -0.000000
    12  H    0.000188  -0.000000
    13  H   -0.002511  -0.000001
    14  H   -0.000001  -0.001011
 Mulliken charges and spin densities:
               1          2
     1  O   -0.245290   0.032746
     2  O   -0.228449   0.367260
     3  C   -0.209564  -0.043708
     4  C   -0.401104   0.691944
     5  C   -0.331994   0.027110
     6  H    0.132664   0.004450
     7  H    0.149874   0.005772
     8  H    0.246286  -0.023757
     9  H    0.151282  -0.034125
    10  H    0.137366  -0.034185
    11  H    0.105041  -0.001564
    12  H    0.114747   0.010674
    13  H    0.110852  -0.001233
    14  H    0.268288  -0.001384
 Sum of Mulliken charges =  -0.00000   1.00000
 Mulliken charges and spin densities with hydrogens summed into heavy atoms:
               1          2
     1  O    0.022998   0.031362
     2  O    0.017837   0.343503
     3  C    0.072974  -0.033486
     4  C   -0.112455   0.623634
     5  C   -0.001354   0.034987
 Electronic spatial extent (au):  <R**2>=            666.6850
 Charge=              0.0000 electrons
 Dipole moment (field-independent basis, Debye):
    X=             -0.6094    Y=              0.6582    Z=             -1.7153  Tot=              1.9356
 Quadrupole moment (field-independent basis, Debye-Ang):
   XX=            -31.3416   YY=            -32.9366   ZZ=            -31.6785
   XY=             -0.1686   XZ=             -5.2032   YZ=              0.3194
 Traceless Quadrupole moment (field-independent basis, Debye-Ang):
   XX=              0.6439   YY=             -0.9510   ZZ=              0.3071
   XY=             -0.1686   XZ=             -5.2032   YZ=              0.3194
 Octapole moment (field-independent basis, Debye-Ang**2):
  XXX=             28.8130  YYY=              0.4485  ZZZ=             -2.3134  XYY=              2.8404
  XXY=             -3.1336  XXZ=            -11.5327  XZZ=              8.8403  YZZ=             -1.9392
  YYZ=              0.5970  XYZ=              1.1298
 Hexadecapole moment (field-independent basis, Debye-Ang**3):
 XXXX=           -607.4937 YYYY=           -121.9901 ZZZZ=            -79.7293 XXXY=            -14.1393
 XXXZ=            -38.8808 YYYX=             -4.0424 YYYZ=              2.7568 ZZZX=             -7.5275
 ZZZY=              4.3813 XXYY=           -128.9285 XXZZ=           -110.8505 YYZZ=            -34.8188
 XXYZ=              3.7121 YYXZ=             -2.3550 ZZXY=             -2.4907
 N-N= 1.865566094257D+02 E-N=-1.005248365292D+03  KE= 2.685148731061D+02
                          Isotropic Fermi Contact Couplings
        Atom                 a.u.       MegaHertz       Gauss      10(-4) cm-1
     1  O(17)              0.00134      -0.81285      -0.29004      -0.27114
     2  O(17)              0.10574     -64.10182     -22.87312     -21.38207
     3  C(13)             -0.01685     -18.94720      -6.76083      -6.32011
     4  C(13)              0.17862     200.80092      71.65076      66.97998
     5  C(13)              0.04191      47.11126      16.81047      15.71463
     6  H(1)               0.00244      10.92230       3.89735       3.64329
     7  H(1)               0.00299      13.37822       4.77368       4.46249
     8  H(1)              -0.02989    -133.60425     -47.67332     -44.56558
     9  H(1)              -0.00613     -27.39792      -9.77626      -9.13896
    10  H(1)              -0.00397     -17.73772      -6.32926      -5.91667
    11  H(1)              -0.00037      -1.65843      -0.59177      -0.55319
    12  H(1)               0.00322      14.40854       5.14133       4.80617
    13  H(1)              -0.00037      -1.63224      -0.58242      -0.54446
    14  H(1)              -0.00074      -3.32184      -1.18531      -1.10805
 --------------------------------------------------------
       Center         ----  Spin Dipole Couplings  ----
                      3XX-RR        3YY-RR        3ZZ-RR
 --------------------------------------------------------
     1   Atom        0.147970     -0.075202     -0.072768
     2   Atom        0.901479     -0.663272     -0.238207
     3   Atom        0.017169     -0.007230     -0.009939
     4   Atom        0.548662     -0.365952     -0.182709
     5   Atom        0.039286     -0.015481     -0.023805
     6   Atom        0.000247     -0.006105      0.005857
     7   Atom       -0.002812      0.009638     -0.006826
     8   Atom        0.145373     -0.069983     -0.075390
     9   Atom       -0.004029     -0.040448      0.044477
    10   Atom       -0.005302      0.042698     -0.037395
    11   Atom        0.009292     -0.003044     -0.006248
    12   Atom        0.001479      0.000227     -0.001707
    13   Atom        0.001634     -0.001491     -0.000142
    14   Atom        0.001158     -0.007093      0.005935
 --------------------------------------------------------
                        XY            XZ            YZ
 --------------------------------------------------------
     1   Atom       -0.164615      0.121433     -0.116613
     2   Atom       -0.677739      1.124450     -0.408577
     3   Atom        0.010538      0.000675     -0.002992
     4   Atom        0.036152      0.410001      0.018227
     5   Atom        0.024017      0.007881      0.002586
     6   Atom        0.002634     -0.007960     -0.006035
     7   Atom        0.005907     -0.000207     -0.005878
     8   Atom       -0.075349      0.105926     -0.034301
     9   Atom       -0.007876     -0.007612      0.024541
    10   Atom       -0.023729      0.012126      0.015668
    11   Atom       -0.001664     -0.001428     -0.000826
    12   Atom        0.004268     -0.001873     -0.003307
    13   Atom        0.006197      0.004001      0.003464
    14   Atom       -0.006817     -0.012089      0.003012
 --------------------------------------------------------


 ---------------------------------------------------------------------------------
              Anisotropic Spin Dipole Couplings in Principal Axis System
 ---------------------------------------------------------------------------------

       Atom             a.u.   MegaHertz   Gauss  10(-4) cm-1        Axes

              Baa    -0.1964    14.208     5.070     4.739  0.1772  0.7968  0.5777
     1 O(17)  Bbb    -0.1091     7.891     2.816     2.632 -0.5847 -0.3870  0.7130
              Bcc     0.3054   -22.100    -7.886    -7.372  0.7917 -0.4641  0.3973
 
              Baa    -0.9312    67.379    24.043    22.475 -0.5783 -0.3161  0.7521
     2 O(17)  Bbb    -0.9110    65.919    23.522    21.988  0.0689  0.8997  0.4311
              Bcc     1.8422  -133.299   -47.564   -44.464  0.8129 -0.3012  0.4985
 
              Baa    -0.0136    -1.831    -0.653    -0.611 -0.2625  0.7270  0.6345
     3 C(13)  Bbb    -0.0074    -1.000    -0.357    -0.333  0.2317 -0.5908  0.7728
              Bcc     0.0211     2.831     1.010     0.944  0.9367  0.3499 -0.0133
 
              Baa    -0.3688   -49.496   -17.661   -16.510  0.2208  0.7956 -0.5642
     4 C(13)  Bbb    -0.3650   -48.980   -17.477   -16.338 -0.3459  0.6047  0.7174
              Bcc     0.7339    98.476    35.139    32.848  0.9119  0.0367  0.4087
 
              Baa    -0.0250    -3.355    -1.197    -1.119 -0.2929  0.5209  0.8018
     5 C(13)  Bbb    -0.0243    -3.256    -1.162    -1.086 -0.2216  0.7788 -0.5869
              Bcc     0.0493     6.611     2.359     2.205  0.9301  0.3495  0.1127
 
              Baa    -0.0087    -4.643    -1.657    -1.549  0.1287  0.8892  0.4389
     6 H(1)   Bbb    -0.0049    -2.619    -0.934    -0.874  0.8376 -0.3344  0.4319
              Bcc     0.0136     7.262     2.591     2.422 -0.5308 -0.3121  0.7879
 
              Baa    -0.0092    -4.929    -1.759    -1.644 -0.3119  0.3701  0.8751
     7 H(1)   Bbb    -0.0043    -2.283    -0.815    -0.761  0.8906 -0.2070  0.4050
              Bcc     0.0135     7.212     2.573     2.406  0.3310  0.9056 -0.2650
 
              Baa    -0.1185   -63.235   -22.564   -21.093 -0.3342  0.1399  0.9321
     8 H(1)   Bbb    -0.0937   -49.995   -17.839   -16.676  0.3127  0.9494 -0.0304
              Bcc     0.2122   113.230    40.403    37.770  0.8891 -0.2813  0.3610
 
              Baa    -0.0478   -25.488    -9.095    -8.502  0.1304  0.9608 -0.2448
     9 H(1)   Bbb    -0.0049    -2.590    -0.924    -0.864  0.9777 -0.0836  0.1925
              Bcc     0.0526    28.078    10.019     9.366 -0.1644  0.2645  0.9503
 
              Baa    -0.0475   -25.327    -9.037    -8.448 -0.3982 -0.2578  0.8803
    10 H(1)   Bbb    -0.0061    -3.258    -1.163    -1.087  0.8474  0.2641  0.4607
              Bcc     0.0536    28.585    10.200     9.535 -0.3512  0.9294  0.1133
 
              Baa    -0.0067    -3.550    -1.267    -1.184  0.1139  0.2714  0.9557
    11 H(1)   Bbb    -0.0030    -1.584    -0.565    -0.528  0.0966  0.9544 -0.2825
              Bcc     0.0096     5.133     1.832     1.712  0.9888 -0.1245 -0.0825
 
              Baa    -0.0045    -2.422    -0.864    -0.808 -0.3107  0.7137  0.6278
    12 H(1)   Bbb    -0.0022    -1.162    -0.415    -0.388  0.6831 -0.2915  0.6696
              Bcc     0.0067     3.584     1.279     1.195  0.6609  0.6369 -0.3969
 
              Baa    -0.0063    -3.382    -1.207    -1.128 -0.5908  0.8039 -0.0679
    13 H(1)   Bbb    -0.0031    -1.630    -0.582    -0.544 -0.4269 -0.2400  0.8719
              Bcc     0.0094     5.012     1.788     1.672  0.6846  0.5441  0.4850
 
              Baa    -0.0121    -6.446    -2.300    -2.150  0.6474  0.6923  0.3187
    14 H(1)   Bbb    -0.0056    -2.991    -1.067    -0.998 -0.4171  0.6718 -0.6122
              Bcc     0.0177     9.437     3.367     3.148 -0.6379  0.2634  0.7237
 

 ---------------------------------------------------------------------------------

 No NMR shielding tensors so no spin-rotation constants.
 Leave Link  601 at Fri Sep  6 01:43:30 2019, MaxMem=   671088640 cpu:              85.7 elap:              42.9
 (Enter /shared/centos7/gaussian/g16/l9999.exe)
 1\1\GINC-C0280\FOpt\UM062X\CC-pVTZ\C3H9O2(2)\HARMS.N\06-Sep-2019\0\\#p
  m062x/cc-pVTZ Opt=(ModRedun,Loose,maxcycles=900) Int(Grid=SG1) scf=(m
 axcycle=900)\\Gaussian input prepared by ASE\\0,2\O,3.7792541562,-1.31
 44741126,1.6089844273\O,2.9093230456,-0.7561989187,0.6766982854\C,1.71
 01157116,0.6166723999,2.9582966314\C,1.1188784748,-0.5917624237,2.2981
 442475\C,1.0264589248,0.9017068586,4.299645191\H,1.6093957118,1.481705
 5072,2.3018812751\H,2.7759746963,0.4556465355,3.1151505929\H,1.8560142
 581,-0.8263869374,1.169008452\H,1.2941628202,-1.5373282529,2.808681928
 9\H,0.1010195435,-0.4844481829,1.9285421572\H,-0.0415588434,1.06986185
 19,4.1653807558\H,1.4530630428,1.7852072716,4.7720447956\H,1.147997357
 8,0.0598449921,4.981480398\H,3.8213608138,-2.2414208222,1.3429271655\\
 Version=EM64L-G16RevA.03\State=2-A\HF=-269.9796913\S2=0.759896\S2-1=0.
 \S2A=0.750048\RMSD=5.098e-09\RMSF=2.971e-03\Dipole=-0.4503627,-0.51095
 84,0.3406484\Quadrupole=-0.9368817,3.3606739,-2.4237922,-1.9775928,0.9
 621515,1.2520205\PG=C01 [X(C3H9O2)]\\@


 CHINESE FORTUNE COOKIE OF JAN 1 1967 SAY....
 ALL THINGS ARE DIFFICULT BEFORE THEY ARE EASY.
 WE LEARN SO LITTLE AND FORGET SO MUCH.
 YOU WILL OVERCOME OBSTACLES TO ACHIEVE SUCCESS.
 AH SO.
 Job cpu time:       1 days  7 hours 10 minutes 25.6 seconds.
 Elapsed time:       0 days 15 hours 38 minutes  4.3 seconds.
 File lengths (MBytes):  RWF=    304 Int=      0 D2E=      0 Chk=     32 Scr=     32
 Normal termination of Gaussian 16 at Fri Sep  6 01:43:31 2019.
