 Entering Gaussian System, Link 0=g16
 Input=loose/ts/CCC+[O]O_[CH2]CC+OO/conformers/CCC+[O]O_[CH2]CC+OO_forward_shell_5.com
 Output=loose/ts/CCC+[O]O_[CH2]CC+OO/conformers/CCC+[O]O_[CH2]CC+OO_forward_shell_5.log
 Initial command:
 /shared/centos7/gaussian/g16/l1.exe "/scratch/harms.n/gauss_scrdir/Gau-47335.inp" -scrdir="/scratch/harms.n/gauss_scrdir/"
 Entering Link 1 = /shared/centos7/gaussian/g16/l1.exe PID=     47340.
  
 Copyright (c) 1988,1990,1992,1993,1995,1998,2003,2009,2016,
            Gaussian, Inc.  All Rights Reserved.
  
 This is part of the Gaussian(R) 16 program.  It is based on
 the Gaussian(R) 09 system (copyright 2009, Gaussian, Inc.),
 the Gaussian(R) 03 system (copyright 2003, Gaussian, Inc.),
 the Gaussian(R) 98 system (copyright 1998, Gaussian, Inc.),
 the Gaussian(R) 94 system (copyright 1995, Gaussian, Inc.),
 the Gaussian 92(TM) system (copyright 1992, Gaussian, Inc.),
 the Gaussian 90(TM) system (copyright 1990, Gaussian, Inc.),
 the Gaussian 88(TM) system (copyright 1988, Gaussian, Inc.),
 the Gaussian 86(TM) system (copyright 1986, Carnegie Mellon
 University), and the Gaussian 82(TM) system (copyright 1983,
 Carnegie Mellon University). Gaussian is a federally registered
 trademark of Gaussian, Inc.
  
 This software contains proprietary and confidential information,
 including trade secrets, belonging to Gaussian, Inc.
  
 This software is provided under written license and may be
 used, copied, transmitted, or stored only in accord with that
 written license.
  
 The following legend is applicable only to US Government
 contracts under FAR:
  
                    RESTRICTED RIGHTS LEGEND
  
 Use, reproduction and disclosure by the US Government is
 subject to restrictions as set forth in subparagraphs (a)
 and (c) of the Commercial Computer Software - Restricted
 Rights clause in FAR 52.227-19.
  
 Gaussian, Inc.
 340 Quinnipiac St., Bldg. 40, Wallingford CT 06492
  
  
 ---------------------------------------------------------------
 Warning -- This program may not be used in any manner that
 competes with the business of Gaussian, Inc. or will provide
 assistance to any competitor of Gaussian, Inc.  The licensee
 of this program is prohibited from giving any competitor of
 Gaussian, Inc. access to this program.  By using this program,
 the user acknowledges that Gaussian, Inc. is engaged in the
 business of creating and licensing software in the field of
 computational chemistry and represents and warrants to the
 licensee that it is not a competitor of Gaussian, Inc. and that
 it will not use this program in any manner prohibited above.
 ---------------------------------------------------------------
  

 Cite this work as:
 Gaussian 16, Revision A.03,
 M. J. Frisch, G. W. Trucks, H. B. Schlegel, G. E. Scuseria, 
 M. A. Robb, J. R. Cheeseman, G. Scalmani, V. Barone, 
 G. A. Petersson, H. Nakatsuji, X. Li, M. Caricato, A. V. Marenich, 
 J. Bloino, B. G. Janesko, R. Gomperts, B. Mennucci, H. P. Hratchian, 
 J. V. Ortiz, A. F. Izmaylov, J. L. Sonnenberg, D. Williams-Young, 
 F. Ding, F. Lipparini, F. Egidi, J. Goings, B. Peng, A. Petrone, 
 T. Henderson, D. Ranasinghe, V. G. Zakrzewski, J. Gao, N. Rega, 
 G. Zheng, W. Liang, M. Hada, M. Ehara, K. Toyota, R. Fukuda, 
 J. Hasegawa, M. Ishida, T. Nakajima, Y. Honda, O. Kitao, H. Nakai, 
 T. Vreven, K. Throssell, J. A. Montgomery, Jr., J. E. Peralta, 
 F. Ogliaro, M. J. Bearpark, J. J. Heyd, E. N. Brothers, K. N. Kudin, 
 V. N. Staroverov, T. A. Keith, R. Kobayashi, J. Normand, 
 K. Raghavachari, A. P. Rendell, J. C. Burant, S. S. Iyengar, 
 J. Tomasi, M. Cossi, J. M. Millam, M. Klene, C. Adamo, R. Cammi, 
 J. W. Ochterski, R. L. Martin, K. Morokuma, O. Farkas, 
 J. B. Foresman, and D. J. Fox, Gaussian, Inc., Wallingford CT, 2016.
 
 ******************************************
 Gaussian 16:  EM64L-G16RevA.03 25-Dec-2016
                 5-Sep-2019 
 ******************************************
 %nprocshared=20
 Will use up to   20 processors via shared memory.
 %mem=5GB
 ----------------------------------------------------------------------
 #p m062x/cc-pVTZ Opt=(ModRedun,Loose,maxcycles=900) Int(Grid=SG1) scf=
 (maxcycle=900)
 ----------------------------------------------------------------------
 1/6=900,7=-1,18=120,19=15,26=2,38=1/1,3;
 2/9=110,12=2,17=6,18=5,40=1/2;
 3/5=16,6=1,11=2,25=1,30=1,71=1,74=-55,75=1/1,2,3;
 4//1;
 5/5=2,7=900,38=5/2;
 6/7=2,8=2,9=2,10=2,28=1/1;
 7//1,2,3,16;
 1/6=900,7=-1,18=20,19=15,26=2/3(2);
 2/9=110/2;
 99//99;
 2/9=110/2;
 3/5=16,6=1,11=2,25=1,30=1,71=1,74=-55,75=1/1,2,3;
 4/5=5,16=3,69=1/1;
 5/5=2,7=900,38=5/2;
 7//1,2,3,16;
 1/6=900,7=-1,18=20,19=15,26=2/3(-5);
 2/9=110/2;
 6/7=2,8=2,9=2,10=2,19=2,28=1/1;
 99/9=1/99;
 Leave Link    1 at Thu Sep  5 10:06:56 2019, MaxMem=   671088640 cpu:               3.3 elap:               1.7
 (Enter /shared/centos7/gaussian/g16/l101.exe)
 ------------------------------
 Gaussian input prepared by ASE
 ------------------------------
 Symbolic Z-matrix:
 Charge =  0 Multiplicity = 2
 O                    -0.42638  -2.63687   3.95497 
 O                     0.47202  -2.50923   3.00181 
 C                     1.36436   0.97199   2.90806 
 C                     1.10672  -0.33023   2.15863 
 C                     1.13088   0.90325   4.41407 
 H                     0.71566   1.77234   2.49198 
 H                     2.41522   1.2886    2.7356 
 H                     0.68272  -1.36492   2.94795 
 H                     0.32581  -0.23452   1.37428 
 H                     2.02844  -0.76646   1.71784 
 H                     0.08305   0.61269   4.64188 
 H                     1.32445   1.89306   4.87857 
 H                     1.80585   0.15795   4.88636 
 H                    -1.2827   -2.69224   3.46077 
 
 Add virtual bond connecting atoms H8         and O2         Dist= 2.20D+00.
 Add virtual bond connecting atoms H8         and C4         Dist= 2.59D+00.
 The following ModRedundant input section has been read:
 B       4       8 F                                                           
 B       2       8 F                                                           
 A       2       8       4 F                                                   
 
 ITRead=  0  0  0  0  0  0  0  0  0  0  0  0  0  0
 MicOpt= -1 -1 -1 -1 -1 -1 -1 -1 -1 -1 -1 -1 -1 -1
 NAtoms=     14 NQM=       14 NQMF=       0 NMMI=      0 NMMIF=      0
                NMic=       0 NMicF=      0.
                    Isotopes and Nuclear Properties:
 (Nuclear quadrupole moments (NQMom) in fm**2, nuclear magnetic moments (NMagM)
  in nuclear magnetons)

  Atom         1           2           3           4           5           6           7           8           9          10
 IAtWgt=          16          16          12          12          12           1           1           1           1           1
 AtmWgt=  15.9949146  15.9949146  12.0000000  12.0000000  12.0000000   1.0078250   1.0078250   1.0078250   1.0078250   1.0078250
 NucSpn=           0           0           0           0           0           1           1           1           1           1
 AtZEff=  -0.0000000  -0.0000000  -0.0000000  -0.0000000  -0.0000000  -0.0000000  -0.0000000  -0.0000000  -0.0000000  -0.0000000
 NQMom=    0.0000000   0.0000000   0.0000000   0.0000000   0.0000000   0.0000000   0.0000000   0.0000000   0.0000000   0.0000000
 NMagM=    0.0000000   0.0000000   0.0000000   0.0000000   0.0000000   2.7928460   2.7928460   2.7928460   2.7928460   2.7928460
 AtZNuc=   8.0000000   8.0000000   6.0000000   6.0000000   6.0000000   1.0000000   1.0000000   1.0000000   1.0000000   1.0000000

  Atom        11          12          13          14
 IAtWgt=           1           1           1           1
 AtmWgt=   1.0078250   1.0078250   1.0078250   1.0078250
 NucSpn=           1           1           1           1
 AtZEff=  -0.0000000  -0.0000000  -0.0000000  -0.0000000
 NQMom=    0.0000000   0.0000000   0.0000000   0.0000000
 NMagM=    2.7928460   2.7928460   2.7928460   2.7928460
 AtZNuc=   1.0000000   1.0000000   1.0000000   1.0000000
 Leave Link  101 at Thu Sep  5 10:06:57 2019, MaxMem=   671088640 cpu:               2.7 elap:               1.4
 (Enter /shared/centos7/gaussian/g16/l103.exe)

 GradGradGradGradGradGradGradGradGradGradGradGradGradGradGradGradGradGrad
 Berny optimization.
 Initialization pass.
                           ----------------------------
                           !    Initial Parameters    !
                           ! (Angstroms and Degrees)  !
 --------------------------                            --------------------------
 ! Name  Definition              Value          Derivative Info.                !
 --------------------------------------------------------------------------------
 ! R1    R(1,2)                  1.316          estimate D2E/DX2                !
 ! R2    R(1,14)                 0.9902         estimate D2E/DX2                !
 ! R3    R(2,8)                  1.1648         Frozen                          !
 ! R4    R(3,4)                  1.5244         estimate D2E/DX2                !
 ! R5    R(3,5)                  1.5255         estimate D2E/DX2                !
 ! R6    R(3,6)                  1.1111         estimate D2E/DX2                !
 ! R7    R(3,7)                  1.111          estimate D2E/DX2                !
 ! R8    R(4,8)                  1.3687         Frozen                          !
 ! R9    R(4,9)                  1.1109         estimate D2E/DX2                !
 ! R10   R(4,10)                 1.1109         estimate D2E/DX2                !
 ! R11   R(5,11)                 1.111          estimate D2E/DX2                !
 ! R12   R(5,12)                 1.1104         estimate D2E/DX2                !
 ! R13   R(5,13)                 1.1109         estimate D2E/DX2                !
 ! A1    A(2,1,14)             103.5505         estimate D2E/DX2                !
 ! A2    A(1,2,8)              104.6105         estimate D2E/DX2                !
 ! A3    A(4,3,5)              114.8953         estimate D2E/DX2                !
 ! A4    A(4,3,6)              109.4249         estimate D2E/DX2                !
 ! A5    A(4,3,7)              109.0863         estimate D2E/DX2                !
 ! A6    A(5,3,6)              108.2276         estimate D2E/DX2                !
 ! A7    A(5,3,7)              108.1104         estimate D2E/DX2                !
 ! A8    A(6,3,7)              106.7882         estimate D2E/DX2                !
 ! A9    A(3,4,8)              114.4954         estimate D2E/DX2                !
 ! A10   A(3,4,9)              113.0976         estimate D2E/DX2                !
 ! A11   A(3,4,10)             112.972          estimate D2E/DX2                !
 ! A12   A(8,4,9)              104.7454         estimate D2E/DX2                !
 ! A13   A(8,4,10)             100.8944         estimate D2E/DX2                !
 ! A14   A(9,4,10)             109.6883         estimate D2E/DX2                !
 ! A15   A(3,5,11)             111.0122         estimate D2E/DX2                !
 ! A16   A(3,5,12)             110.2501         estimate D2E/DX2                !
 ! A17   A(3,5,13)             110.912          estimate D2E/DX2                !
 ! A18   A(11,5,12)            108.1657         estimate D2E/DX2                !
 ! A19   A(11,5,13)            108.0843         estimate D2E/DX2                !
 ! A20   A(12,5,13)            108.317          estimate D2E/DX2                !
 ! A21   A(2,8,4)              145.6251         Frozen                          !
 ! D1    D(14,1,2,8)            97.8924         estimate D2E/DX2                !
 ! D2    D(1,2,8,4)           -154.7814         estimate D2E/DX2                !
 ! D3    D(5,3,4,8)              0.9787         estimate D2E/DX2                !
 ! D4    D(5,3,4,9)            120.8726         estimate D2E/DX2                !
 ! D5    D(5,3,4,10)          -113.7754         estimate D2E/DX2                !
 ! D6    D(6,3,4,8)           -120.9798         estimate D2E/DX2                !
 ! D7    D(6,3,4,9)             -1.0859         estimate D2E/DX2                !
 ! D8    D(6,3,4,10)           124.2661         estimate D2E/DX2                !
 ! D9    D(7,3,4,8)            122.5263         estimate D2E/DX2                !
 ! D10   D(7,3,4,9)           -117.5798         estimate D2E/DX2                !
 ! D11   D(7,3,4,10)             7.7722         estimate D2E/DX2                !
 ! D12   D(4,3,5,11)           -59.2498         estimate D2E/DX2                !
 ! D13   D(4,3,5,12)          -179.0967         estimate D2E/DX2                !
 ! D14   D(4,3,5,13)            60.932          estimate D2E/DX2                !
 ! D15   D(6,3,5,11)            63.3548         estimate D2E/DX2                !
 ! D16   D(6,3,5,12)           -56.4921         estimate D2E/DX2                !
 ! D17   D(6,3,5,13)          -176.4633         estimate D2E/DX2                !
 ! D18   D(7,3,5,11)           178.6732         estimate D2E/DX2                !
 ! D19   D(7,3,5,12)            58.8263         estimate D2E/DX2                !
 ! D20   D(7,3,5,13)           -61.145          estimate D2E/DX2                !
 ! D21   D(3,4,8,2)           -169.3029         estimate D2E/DX2                !
 ! D22   D(9,4,8,2)             66.2461         estimate D2E/DX2                !
 ! D23   D(10,4,8,2)           -47.6717         estimate D2E/DX2                !
 --------------------------------------------------------------------------------
 Trust Radius=3.00D-01 FncErr=1.00D-05 GrdErr=1.00D-04 EigMax=2.50D+02 EigMin=1.00D-04
 Number of steps in this run=    100 maximum allowed number of steps=    100.
 GradGradGradGradGradGradGradGradGradGradGradGradGradGradGradGradGradGrad

 Leave Link  103 at Thu Sep  5 10:06:58 2019, MaxMem=   671088640 cpu:               1.5 elap:               0.8
 (Enter /shared/centos7/gaussian/g16/l202.exe)
                          Input orientation:                          
 ---------------------------------------------------------------------
 Center     Atomic      Atomic             Coordinates (Angstroms)
 Number     Number       Type             X           Y           Z
 ---------------------------------------------------------------------
      1          8           0       -0.426383   -2.636866    3.954969
      2          8           0        0.472025   -2.509234    3.001806
      3          6           0        1.364359    0.971991    2.908058
      4          6           0        1.106721   -0.330235    2.158631
      5          6           0        1.130878    0.903247    4.414066
      6          1           0        0.715661    1.772343    2.491975
      7          1           0        2.415216    1.288598    2.735598
      8          1           0        0.682715   -1.364915    2.947948
      9          1           0        0.325810   -0.234524    1.374281
     10          1           0        2.028436   -0.766464    1.717840
     11          1           0        0.083048    0.612694    4.641884
     12          1           0        1.324450    1.893056    4.878570
     13          1           0        1.805853    0.157946    4.886356
     14          1           0       -1.282699   -2.692236    3.460775
 ---------------------------------------------------------------------
                    Distance matrix (angstroms):
                    1          2          3          4          5
     1  O    0.000000
     2  O    1.316034   0.000000
     3  C    4.162526   3.594993   0.000000
     4  C    3.301179   2.421119   1.524404   0.000000
     5  C    3.894641   3.751478   1.525549   2.570806   0.000000
     6  H    4.783903   4.318701   1.111080   2.164458   2.149922
     7  H    4.997080   4.274387   1.110983   2.160016   2.148319
     8  H    1.965209   1.164798   2.434617   1.368709   2.737684
     9  H    3.605133   2.800807   2.210596   1.110941   3.344092
    10  H    3.811730   2.666126   2.209036   1.110923   3.295934
    11  H    3.360210   3.547900   2.185636   2.846676   1.110977
    12  H    4.943546   4.860969   2.175516   3.519729   1.110386
    13  H    3.696124   3.527673   2.184318   2.857899   1.110910
    14  H    0.990238   1.822964   4.554006   3.603326   4.434142
                    6          7          8          9         10
     6  H    0.000000
     7  H    1.783774   0.000000
     8  H    3.170392   3.176127   0.000000
     9  H    2.329965   2.922106   1.970176   0.000000
    10  H    2.961115   2.325663   1.918925   1.816571   0.000000
    11  H    2.523309   3.087034   2.672070   3.384367   3.773148
    12  H    2.465974   2.479408   3.841029   4.219469   4.190329
    13  H    3.086722   2.505085   2.708869   3.831348   3.308106
    14  H    4.986429   5.481559   2.426443   3.602930   4.208329
                   11         12         13         14
    11  H    0.000000
    12  H    1.799007   0.000000
    13  H    1.798505   1.800671   0.000000
    14  H    3.766012   5.461892   4.437902   0.000000
 Stoichiometry    C3H9O2(2)
 Framework group  C1[X(C3H9O2)]
 Deg. of freedom    36
 Full point group                 C1      NOp   1
 Largest Abelian subgroup         C1      NOp   1
 Largest concise Abelian subgroup C1      NOp   1
                         Standard orientation:                         
 ---------------------------------------------------------------------
 Center     Atomic      Atomic             Coordinates (Angstroms)
 Number     Number       Type             X           Y           Z
 ---------------------------------------------------------------------
      1          8           0        2.201066    0.697272    0.150349
      2          8           0        1.735378   -0.427867   -0.348793
      3          6           0       -1.828934   -0.344012    0.112315
      4          6           0       -0.534730   -1.149063    0.085151
      5          6           0       -1.657604    1.155054   -0.112950
      6          1           0       -2.336250   -0.492859    1.089542
      7          1           0       -2.515996   -0.734292   -0.668653
      8          1           0        0.594162   -0.402008   -0.117030
      9          1           0       -0.343909   -1.699467    1.031106
     10          1           0       -0.478691   -1.850974   -0.774111
     11          1           0       -0.995091    1.600806    0.659483
     12          1           0       -2.641922    1.666373   -0.061680
     13          1           0       -1.210386    1.357721   -1.109466
     14          1           0        2.564145    0.427579    1.031263
 ---------------------------------------------------------------------
 Rotational constants (GHZ):           7.4944107           2.1142365           1.7488171
 Leave Link  202 at Thu Sep  5 10:06:59 2019, MaxMem=   671088640 cpu:               2.6 elap:               1.3
 (Enter /shared/centos7/gaussian/g16/l301.exe)
 Standard basis: CC-pVTZ (5D, 7F)
 Ernie: Thresh=  0.10000D-02 Tol=  0.10000D-05 Strict=F.
 Ernie:  15 primitive shells out of 202 were deleted.
 There are   310 symmetry adapted cartesian basis functions of A   symmetry.
 There are   276 symmetry adapted basis functions of A   symmetry.
   276 basis functions,   413 primitive gaussians,   310 cartesian basis functions
    22 alpha electrons       21 beta electrons
       nuclear repulsion energy       182.8131147787 Hartrees.
 IExCor= 4336 DFT=T Ex+Corr=M062X ExCW=0 ScaHFX=  0.540000
 ScaDFX=  1.000000  1.000000  1.000000  1.000000 ScalE2=  1.000000  1.000000
 IRadAn=      1 IRanWt=     -1 IRanGd=            0 ICorTp=0 IEmpDi=  4
 NAtoms=   14 NActive=   14 NUniq=   14 SFac= 1.00D+00 NAtFMM=   60 NAOKFM=F Big=F
 Integral buffers will be    131072 words long.
 Raffenetti 2 integral format.
 Two-electron integral symmetry is turned on.
 Leave Link  301 at Thu Sep  5 10:07:01 2019, MaxMem=   671088640 cpu:               3.1 elap:               1.7
 (Enter /shared/centos7/gaussian/g16/l302.exe)
 NPDir=0 NMtPBC=     1 NCelOv=     1 NCel=       1 NClECP=     1 NCelD=      1
         NCelK=      1 NCelE2=     1 NClLst=     1 CellRange=     0.0.
 One-electron integrals computed using PRISM.
 One-electron integral symmetry used in STVInt
 NBasis=   276 RedAO= T EigKep=  5.98D-04  NBF=   276
 NBsUse=   276 1.00D-06 EigRej= -1.00D+00 NBFU=   276
 Precomputing XC quadrature grid using
 IXCGrd= 4 IRadAn=           1 IRanWt=          -1 IRanGd=           0 AccXCQ= 0.00D+00.
 Generated NRdTot=       0 NPtTot=           0 NUsed=           0 NTot=          32
 NSgBfM=   310   310   310   310   310 MxSgAt=    14 MxSgA2=    14.
 Leave Link  302 at Thu Sep  5 10:07:52 2019, MaxMem=   671088640 cpu:             102.8 elap:              51.4
 (Enter /shared/centos7/gaussian/g16/l303.exe)
 DipDrv:  MaxL=1.
 Leave Link  303 at Thu Sep  5 10:07:56 2019, MaxMem=   671088640 cpu:               7.6 elap:               3.8
 (Enter /shared/centos7/gaussian/g16/l401.exe)
 ExpMin= 1.03D-01 ExpMax= 1.53D+04 ExpMxC= 5.22D+02 IAcc=1 IRadAn=         1 AccDes= 0.00D+00
 Harris functional with IExCor= 1009 and IRadAn=       1 diagonalized for initial guess.
 HarFok:  IExCor= 1009 AccDes= 0.00D+00 IRadAn=         1 IDoV= 1 UseB2=F ITyADJ=14
 ICtDFT=  3500011 ScaDFX=  1.000000  1.000000  1.000000  1.000000
 FoFCou: FMM=F IPFlag=           0 FMFlag=      100000 FMFlg1=           0
         NFxFlg=           0 DoJE=T BraDBF=F KetDBF=T FulRan=T
         wScrn=  0.000000 ICntrl=       500 IOpCl=  0 I1Cent=   200000004 NGrid=           0
         NMat0=    1 NMatS0=      1 NMatT0=    0 NMatD0=    1 NMtDS0=    0 NMtDT0=    0
 Petite list used in FoFCou.
 Harris En= -269.899049126078    
 JPrj=0 DoOrth=F DoCkMO=F.
 Initial guess <Sx>= 0.0000 <Sy>= 0.0000 <Sz>= 0.5000 <S**2>= 0.7500 S= 0.5000
 Leave Link  401 at Thu Sep  5 10:08:38 2019, MaxMem=   671088640 cpu:              83.2 elap:              41.7
 (Enter /shared/centos7/gaussian/g16/l502.exe)
 Integral symmetry usage will be decided dynamically.
 UHF open shell SCF:
 Using DIIS extrapolation, IDIIS=  1040.
 NGot=   671088640 LenX=   670887394 LenY=   670790853
 Requested convergence on RMS density matrix=1.00D-08 within 900 cycles.
 Requested convergence on MAX density matrix=1.00D-06.
 Requested convergence on             energy=1.00D-06.
 No special actions if energy rises.
 Fock matrices will be formed incrementally for  20 cycles.

 Cycle   1  Pass 1  IDiag  1:
 FoFJK:  IHMeth= 1 ICntrl=       0 DoSepK=F KAlg= 0 I1Cent=           0 FoldK=F
 IRaf= 970000000 NMat=       1 IRICut=       1 DoRegI=T DoRafI=F ISym2E= 0 IDoP0=0 IntGTp=1.
 FoFCou: FMM=F IPFlag=           0 FMFlag=      100000 FMFlg1=           0
         NFxFlg=           0 DoJE=F BraDBF=F KetDBF=F FulRan=T
         wScrn=  0.000000 ICntrl=         0 IOpCl=  1 I1Cent=           0 NGrid=           0
         NMat0=    1 NMatS0=      1 NMatT0=    0 NMatD0=    1 NMtDS0=    0 NMtDT0=    0
 Symmetry not used in FoFCou.
 E= -269.759902719738    
 DIIS: error= 3.38D-02 at cycle   1 NSaved=   1.
 NSaved= 1 IEnMin= 1 EnMin= -269.759902719738     IErMin= 1 ErrMin= 3.38D-02
 ErrMax= 3.38D-02  0.00D+00 EMaxC= 1.00D-01 BMatC= 8.96D-01 BMatP= 8.96D-01
 IDIUse=3 WtCom= 6.62D-01 WtEn= 3.38D-01
 Coeff-Com:  0.100D+01
 Coeff-En:   0.100D+01
 Coeff:      0.100D+01
 Gap=     0.352 Goal=   None    Shift=    0.000
 Gap=     0.334 Goal=   None    Shift=    0.000
 GapD=    0.334 DampG=1.000 DampE=0.500 DampFc=0.5000 IDamp=-1.
 Damping current iteration by 5.00D-01
 RMSDP=2.28D-03 MaxDP=1.17D-01              OVMax= 2.65D-01

 Cycle   2  Pass 1  IDiag  1:
 RMSU=  1.14D-03    CP:  9.99D-01
 E= -269.859277776894     Delta-E=       -0.099375057156 Rises=F Damp=T
 DIIS: error= 5.16D-03 at cycle   2 NSaved=   2.
 NSaved= 2 IEnMin= 2 EnMin= -269.859277776894     IErMin= 2 ErrMin= 5.16D-03
 ErrMax= 5.16D-03  0.00D+00 EMaxC= 1.00D-01 BMatC= 7.49D-02 BMatP= 8.96D-01
 IDIUse=3 WtCom= 9.48D-01 WtEn= 5.16D-02
 Coeff-Com: -0.780D-01 0.108D+01
 Coeff-En:   0.000D+00 0.100D+01
 Coeff:     -0.740D-01 0.107D+01
 Gap=     0.352 Goal=   None    Shift=    0.000
 Gap=     0.336 Goal=   None    Shift=    0.000
 RMSDP=6.31D-04 MaxDP=2.42D-02 DE=-9.94D-02 OVMax= 1.53D-01

 Cycle   3  Pass 1  IDiag  1:
 RMSU=  6.26D-04    CP:  1.01D+00  9.72D-01
 E= -269.957822841516     Delta-E=       -0.098545064621 Rises=F Damp=F
 DIIS: error= 3.61D-03 at cycle   3 NSaved=   3.
 NSaved= 3 IEnMin= 3 EnMin= -269.957822841516     IErMin= 3 ErrMin= 3.61D-03
 ErrMax= 3.61D-03  0.00D+00 EMaxC= 1.00D-01 BMatC= 2.39D-02 BMatP= 7.49D-02
 IDIUse=3 WtCom= 9.64D-01 WtEn= 3.61D-02
 Coeff-Com: -0.782D-01 0.380D+00 0.698D+00
 Coeff-En:   0.000D+00 0.000D+00 0.100D+01
 Coeff:     -0.754D-01 0.367D+00 0.709D+00
 Gap=     0.339 Goal=   None    Shift=    0.000
 Gap=     0.260 Goal=   None    Shift=    0.000
 RMSDP=2.56D-04 MaxDP=1.04D-02 DE=-9.85D-02 OVMax= 7.31D-02

 Cycle   4  Pass 1  IDiag  1:
 RMSU=  2.22D-04    CP:  1.00D+00  1.03D+00  8.34D-01
 E= -269.962736362326     Delta-E=       -0.004913520810 Rises=F Damp=F
 DIIS: error= 1.86D-03 at cycle   4 NSaved=   4.
 NSaved= 4 IEnMin= 4 EnMin= -269.962736362326     IErMin= 4 ErrMin= 1.86D-03
 ErrMax= 1.86D-03  0.00D+00 EMaxC= 1.00D-01 BMatC= 6.71D-03 BMatP= 2.39D-02
 IDIUse=3 WtCom= 9.81D-01 WtEn= 1.86D-02
 Coeff-Com: -0.266D-01 0.625D-01 0.366D+00 0.598D+00
 Coeff-En:   0.000D+00 0.000D+00 0.461D-01 0.954D+00
 Coeff:     -0.261D-01 0.613D-01 0.360D+00 0.605D+00
 Gap=     0.341 Goal=   None    Shift=    0.000
 Gap=     0.263 Goal=   None    Shift=    0.000
 RMSDP=1.09D-04 MaxDP=4.12D-03 DE=-4.91D-03 OVMax= 1.06D-02

 Cycle   5  Pass 1  IDiag  1:
 RMSU=  7.38D-05    CP:  1.00D+00  1.03D+00  9.45D-01  8.18D-01
 E= -269.964125455092     Delta-E=       -0.001389092766 Rises=F Damp=F
 DIIS: error= 6.91D-04 at cycle   5 NSaved=   5.
 NSaved= 5 IEnMin= 5 EnMin= -269.964125455092     IErMin= 5 ErrMin= 6.91D-04
 ErrMax= 6.91D-04  0.00D+00 EMaxC= 1.00D-01 BMatC= 2.69D-04 BMatP= 6.71D-03
 IDIUse=3 WtCom= 9.93D-01 WtEn= 6.91D-03
 Coeff-Com:  0.549D-02-0.259D-01 0.942D-02 0.615D-01 0.950D+00
 Coeff-En:   0.000D+00 0.000D+00 0.000D+00 0.000D+00 0.100D+01
 Coeff:      0.545D-02-0.257D-01 0.936D-02 0.611D-01 0.950D+00
 Gap=     0.342 Goal=   None    Shift=    0.000
 Gap=     0.267 Goal=   None    Shift=    0.000
 RMSDP=5.25D-05 MaxDP=1.95D-03 DE=-1.39D-03 OVMax= 1.51D-02

 Cycle   6  Pass 1  IDiag  1:
 RMSU=  2.81D-05    CP:  1.00D+00  1.03D+00  9.74D-01  9.51D-01  1.37D+00
 E= -269.964341274101     Delta-E=       -0.000215819009 Rises=F Damp=F
 DIIS: error= 2.63D-04 at cycle   6 NSaved=   6.
 NSaved= 6 IEnMin= 6 EnMin= -269.964341274101     IErMin= 6 ErrMin= 2.63D-04
 ErrMax= 2.63D-04  0.00D+00 EMaxC= 1.00D-01 BMatC= 1.07D-04 BMatP= 2.69D-04
 IDIUse=3 WtCom= 9.97D-01 WtEn= 2.63D-03
 Coeff-Com:  0.784D-02-0.187D-01-0.791D-01-0.192D+00 0.119D+00 0.116D+01
 Coeff-En:   0.000D+00 0.000D+00 0.000D+00 0.000D+00 0.000D+00 0.100D+01
 Coeff:      0.782D-02-0.186D-01-0.789D-01-0.191D+00 0.119D+00 0.116D+01
 Gap=     0.344 Goal=   None    Shift=    0.000
 Gap=     0.269 Goal=   None    Shift=    0.000
 RMSDP=4.66D-05 MaxDP=1.70D-03 DE=-2.16D-04 OVMax= 1.15D-02

 Cycle   7  Pass 1  IDiag  1:
 RMSU=  1.37D-05    CP:  1.00D+00  1.02D+00  9.95D-01  1.02D+00  1.87D+00
                    CP:  1.45D+00
 E= -269.964428202964     Delta-E=       -0.000086928864 Rises=F Damp=F
 DIIS: error= 1.08D-04 at cycle   7 NSaved=   7.
 NSaved= 7 IEnMin= 7 EnMin= -269.964428202964     IErMin= 7 ErrMin= 1.08D-04
 ErrMax= 1.08D-04  0.00D+00 EMaxC= 1.00D-01 BMatC= 1.98D-05 BMatP= 1.07D-04
 IDIUse=3 WtCom= 9.99D-01 WtEn= 1.08D-03
 Coeff-Com:  0.186D-02-0.182D-02-0.243D-01-0.837D-01-0.734D-01 0.462D+00
 Coeff-Com:  0.720D+00
 Coeff-En:   0.000D+00 0.000D+00 0.000D+00 0.000D+00 0.000D+00 0.000D+00
 Coeff-En:   0.100D+01
 Coeff:      0.186D-02-0.182D-02-0.243D-01-0.836D-01-0.733D-01 0.461D+00
 Coeff:      0.720D+00
 Gap=     0.344 Goal=   None    Shift=    0.000
 Gap=     0.270 Goal=   None    Shift=    0.000
 RMSDP=1.24D-05 MaxDP=4.04D-04 DE=-8.69D-05 OVMax= 3.43D-03

 Cycle   8  Pass 1  IDiag  1:
 RMSU=  6.37D-06    CP:  1.00D+00  1.02D+00  9.99D-01  1.03D+00  1.97D+00
                    CP:  1.67D+00  1.14D+00
 E= -269.964438332849     Delta-E=       -0.000010129885 Rises=F Damp=F
 DIIS: error= 5.26D-05 at cycle   8 NSaved=   8.
 NSaved= 8 IEnMin= 8 EnMin= -269.964438332849     IErMin= 8 ErrMin= 5.26D-05
 ErrMax= 5.26D-05  0.00D+00 EMaxC= 1.00D-01 BMatC= 4.25D-06 BMatP= 1.98D-05
 IDIUse=1 WtCom= 1.00D+00 WtEn= 0.00D+00
 Coeff-Com: -0.102D-02 0.292D-02 0.118D-01 0.139D-01-0.422D-01-0.131D+00
 Coeff-Com:  0.193D+00 0.953D+00
 Coeff:     -0.102D-02 0.292D-02 0.118D-01 0.139D-01-0.422D-01-0.131D+00
 Coeff:      0.193D+00 0.953D+00
 Gap=     0.344 Goal=   None    Shift=    0.000
 Gap=     0.270 Goal=   None    Shift=    0.000
 RMSDP=8.20D-06 MaxDP=2.98D-04 DE=-1.01D-05 OVMax= 2.62D-03

 Cycle   9  Pass 1  IDiag  1:
 RMSU=  3.04D-06    CP:  1.00D+00  1.02D+00  1.00D+00  1.04D+00  2.04D+00
                    CP:  1.79D+00  1.44D+00  1.32D+00
 E= -269.964441840536     Delta-E=       -0.000003507687 Rises=F Damp=F
 DIIS: error= 3.41D-05 at cycle   9 NSaved=   9.
 NSaved= 9 IEnMin= 9 EnMin= -269.964441840536     IErMin= 9 ErrMin= 3.41D-05
 ErrMax= 3.41D-05  0.00D+00 EMaxC= 1.00D-01 BMatC= 1.95D-06 BMatP= 4.25D-06
 IDIUse=1 WtCom= 1.00D+00 WtEn= 0.00D+00
 Coeff-Com: -0.994D-03 0.203D-02 0.143D-01 0.298D-01 0.216D-02-0.204D+00
 Coeff-Com: -0.104D+00 0.521D+00 0.739D+00
 Coeff:     -0.994D-03 0.203D-02 0.143D-01 0.298D-01 0.216D-02-0.204D+00
 Coeff:     -0.104D+00 0.521D+00 0.739D+00
 Gap=     0.344 Goal=   None    Shift=    0.000
 Gap=     0.270 Goal=   None    Shift=    0.000
 RMSDP=4.74D-06 MaxDP=1.79D-04 DE=-3.51D-06 OVMax= 1.33D-03

 Cycle  10  Pass 1  IDiag  1:
 RMSU=  1.55D-06    CP:  1.00D+00  1.02D+00  1.00D+00  1.04D+00  2.07D+00
                    CP:  1.84D+00  1.60D+00  1.70D+00  1.25D+00
 E= -269.964443084790     Delta-E=       -0.000001244254 Rises=F Damp=F
 DIIS: error= 1.56D-05 at cycle  10 NSaved=  10.
 NSaved=10 IEnMin=10 EnMin= -269.964443084790     IErMin=10 ErrMin= 1.56D-05
 ErrMax= 1.56D-05  0.00D+00 EMaxC= 1.00D-01 BMatC= 2.39D-07 BMatP= 1.95D-06
 IDIUse=1 WtCom= 1.00D+00 WtEn= 0.00D+00
 Coeff-Com:  0.211D-03-0.626D-03-0.671D-03-0.612D-03 0.116D-01 0.187D-02
 Coeff-Com: -0.609D-01-0.162D+00 0.743D-01 0.114D+01
 Coeff:      0.211D-03-0.626D-03-0.671D-03-0.612D-03 0.116D-01 0.187D-02
 Coeff:     -0.609D-01-0.162D+00 0.743D-01 0.114D+01
 Gap=     0.344 Goal=   None    Shift=    0.000
 Gap=     0.270 Goal=   None    Shift=    0.000
 RMSDP=3.20D-06 MaxDP=1.41D-04 DE=-1.24D-06 OVMax= 9.46D-04

 Cycle  11  Pass 1  IDiag  1:
 RMSU=  8.48D-07    CP:  1.00D+00  1.02D+00  1.00D+00  1.04D+00  2.09D+00
                    CP:  1.87D+00  1.68D+00  1.95D+00  1.71D+00  1.57D+00
 E= -269.964443498551     Delta-E=       -0.000000413760 Rises=F Damp=F
 DIIS: error= 7.51D-06 at cycle  11 NSaved=  11.
 NSaved=11 IEnMin=11 EnMin= -269.964443498551     IErMin=11 ErrMin= 7.51D-06
 ErrMax= 7.51D-06  0.00D+00 EMaxC= 1.00D-01 BMatC= 5.08D-08 BMatP= 2.39D-07
 IDIUse=1 WtCom= 1.00D+00 WtEn= 0.00D+00
 Coeff-Com:  0.239D-03-0.519D-03-0.326D-02-0.663D-02 0.483D-03 0.455D-01
 Coeff-Com:  0.165D-01-0.138D+00-0.172D+00 0.134D+00 0.112D+01
 Coeff:      0.239D-03-0.519D-03-0.326D-02-0.663D-02 0.483D-03 0.455D-01
 Coeff:      0.165D-01-0.138D+00-0.172D+00 0.134D+00 0.112D+01
 Gap=     0.344 Goal=   None    Shift=    0.000
 Gap=     0.270 Goal=   None    Shift=    0.000
 RMSDP=1.69D-06 MaxDP=7.50D-05 DE=-4.14D-07 OVMax= 4.72D-04

 Cycle  12  Pass 1  IDiag  1:
 RMSU=  4.25D-07    CP:  1.00D+00  1.02D+00  1.00D+00  1.04D+00  2.10D+00
                    CP:  1.89D+00  1.72D+00  2.05D+00  1.98D+00  2.08D+00
                    CP:  1.52D+00
 E= -269.964443606609     Delta-E=       -0.000000108059 Rises=F Damp=F
 DIIS: error= 3.37D-06 at cycle  12 NSaved=  12.
 NSaved=12 IEnMin=12 EnMin= -269.964443606609     IErMin=12 ErrMin= 3.37D-06
 ErrMax= 3.37D-06  0.00D+00 EMaxC= 1.00D-01 BMatC= 1.11D-08 BMatP= 5.08D-08
 IDIUse=1 WtCom= 1.00D+00 WtEn= 0.00D+00
 Coeff-Com: -0.132D-03 0.314D-03 0.894D-03 0.206D-02-0.275D-02-0.102D-01
 Coeff-Com:  0.817D-02 0.727D-01 0.265D-01-0.291D+00-0.277D+00 0.147D+01
 Coeff:     -0.132D-03 0.314D-03 0.894D-03 0.206D-02-0.275D-02-0.102D-01
 Coeff:      0.817D-02 0.727D-01 0.265D-01-0.291D+00-0.277D+00 0.147D+01
 Gap=     0.344 Goal=   None    Shift=    0.000
 Gap=     0.270 Goal=   None    Shift=    0.000
 RMSDP=9.13D-07 MaxDP=3.73D-05 DE=-1.08D-07 OVMax= 3.15D-04

 Cycle  13  Pass 1  IDiag  1:
 RMSU=  1.51D-07    CP:  1.00D+00  1.02D+00  1.00D+00  1.04D+00  2.10D+00
                    CP:  1.89D+00  1.73D+00  2.09D+00  2.12D+00  2.37D+00
                    CP:  2.05D+00  1.85D+00
 E= -269.964443632307     Delta-E=       -0.000000025698 Rises=F Damp=F
 DIIS: error= 1.18D-06 at cycle  13 NSaved=  13.
 NSaved=13 IEnMin=13 EnMin= -269.964443632307     IErMin=13 ErrMin= 1.18D-06
 ErrMax= 1.18D-06  0.00D+00 EMaxC= 1.00D-01 BMatC= 1.26D-09 BMatP= 1.11D-08
 IDIUse=1 WtCom= 1.00D+00 WtEn= 0.00D+00
 Coeff-Com: -0.226D-04 0.512D-04 0.375D-03 0.790D-03-0.160D-03-0.624D-02
 Coeff-Com: -0.202D-02 0.136D-01 0.281D-01-0.108D-01-0.146D+00-0.152D+00
 Coeff-Com:  0.127D+01
 Coeff:     -0.226D-04 0.512D-04 0.375D-03 0.790D-03-0.160D-03-0.624D-02
 Coeff:     -0.202D-02 0.136D-01 0.281D-01-0.108D-01-0.146D+00-0.152D+00
 Coeff:      0.127D+01
 Gap=     0.344 Goal=   None    Shift=    0.000
 Gap=     0.270 Goal=   None    Shift=    0.000
 RMSDP=3.54D-07 MaxDP=1.29D-05 DE=-2.57D-08 OVMax= 1.23D-04

 Cycle  14  Pass 1  IDiag  1:
 RMSU=  5.73D-08    CP:  1.00D+00  1.02D+00  1.00D+00  1.04D+00  2.10D+00
                    CP:  1.89D+00  1.74D+00  2.11D+00  2.17D+00  2.46D+00
                    CP:  2.24D+00  2.25D+00  1.59D+00
 E= -269.964443635198     Delta-E=       -0.000000002891 Rises=F Damp=F
 DIIS: error= 3.05D-07 at cycle  14 NSaved=  14.
 NSaved=14 IEnMin=14 EnMin= -269.964443635198     IErMin=14 ErrMin= 3.05D-07
 ErrMax= 3.05D-07  0.00D+00 EMaxC= 1.00D-01 BMatC= 1.44D-10 BMatP= 1.26D-09
 IDIUse=1 WtCom= 1.00D+00 WtEn= 0.00D+00
 Coeff-Com:  0.150D-04-0.336D-04-0.105D-03-0.186D-03 0.189D-03 0.121D-02
 Coeff-Com: -0.534D-03-0.819D-02-0.193D-02 0.321D-01 0.332D-01-0.174D+00
 Coeff-Com:  0.254D-01 0.109D+01
 Coeff:      0.150D-04-0.336D-04-0.105D-03-0.186D-03 0.189D-03 0.121D-02
 Coeff:     -0.534D-03-0.819D-02-0.193D-02 0.321D-01 0.332D-01-0.174D+00
 Coeff:      0.254D-01 0.109D+01
 Gap=     0.344 Goal=   None    Shift=    0.000
 Gap=     0.270 Goal=   None    Shift=    0.000
 RMSDP=7.06D-08 MaxDP=2.56D-06 DE=-2.89D-09 OVMax= 2.14D-05

 Cycle  15  Pass 1  IDiag  1:
 RMSU=  1.67D-08    CP:  1.00D+00  1.02D+00  1.00D+00  1.04D+00  2.10D+00
                    CP:  1.89D+00  1.74D+00  2.11D+00  2.18D+00  2.47D+00
                    CP:  2.27D+00  2.33D+00  1.80D+00  1.41D+00
 E= -269.964443635332     Delta-E=       -0.000000000134 Rises=F Damp=F
 DIIS: error= 1.34D-07 at cycle  15 NSaved=  15.
 NSaved=15 IEnMin=15 EnMin= -269.964443635332     IErMin=15 ErrMin= 1.34D-07
 ErrMax= 1.34D-07  0.00D+00 EMaxC= 1.00D-01 BMatC= 2.38D-11 BMatP= 1.44D-10
 IDIUse=1 WtCom= 1.00D+00 WtEn= 0.00D+00
 Coeff-Com:  0.493D-05-0.114D-04-0.614D-04-0.101D-03 0.530D-04 0.897D-03
 Coeff-Com: -0.480D-05-0.338D-02-0.297D-02 0.898D-02 0.233D-01-0.335D-01
 Coeff-Com: -0.104D+00 0.233D+00 0.878D+00
 Coeff:      0.493D-05-0.114D-04-0.614D-04-0.101D-03 0.530D-04 0.897D-03
 Coeff:     -0.480D-05-0.338D-02-0.297D-02 0.898D-02 0.233D-01-0.335D-01
 Coeff:     -0.104D+00 0.233D+00 0.878D+00
 Gap=     0.344 Goal=   None    Shift=    0.000
 Gap=     0.270 Goal=   None    Shift=    0.000
 RMSDP=1.79D-08 MaxDP=6.09D-07 DE=-1.34D-10 OVMax= 4.05D-06

 Cycle  16  Pass 1  IDiag  1:
 RMSU=  6.25D-09    CP:  1.00D+00  1.02D+00  1.00D+00  1.04D+00  2.10D+00
                    CP:  1.89D+00  1.74D+00  2.11D+00  2.18D+00  2.47D+00
                    CP:  2.28D+00  2.34D+00  1.85D+00  1.55D+00  1.21D+00
 E= -269.964443635347     Delta-E=       -0.000000000014 Rises=F Damp=F
 DIIS: error= 4.96D-08 at cycle  16 NSaved=  16.
 NSaved=16 IEnMin=16 EnMin= -269.964443635347     IErMin=16 ErrMin= 4.96D-08
 ErrMax= 4.96D-08  0.00D+00 EMaxC= 1.00D-01 BMatC= 4.22D-12 BMatP= 2.38D-11
 IDIUse=1 WtCom= 1.00D+00 WtEn= 0.00D+00
 Coeff-Com: -0.191D-05 0.398D-05 0.367D-05 0.136D-04-0.199D-04-0.308D-05
 Coeff-Com:  0.668D-04 0.609D-03-0.308D-03-0.367D-02 0.462D-03 0.213D-01
 Coeff-Com: -0.282D-01-0.154D+00 0.263D+00 0.901D+00
 Coeff:     -0.191D-05 0.398D-05 0.367D-05 0.136D-04-0.199D-04-0.308D-05
 Coeff:      0.668D-04 0.609D-03-0.308D-03-0.367D-02 0.462D-03 0.213D-01
 Coeff:     -0.282D-01-0.154D+00 0.263D+00 0.901D+00
 Gap=     0.344 Goal=   None    Shift=    0.000
 Gap=     0.270 Goal=   None    Shift=    0.000
 RMSDP=7.22D-09 MaxDP=1.97D-07 DE=-1.44D-11 OVMax= 1.53D-06

 SCF Done:  E(UM062X) =  -269.964443635     A.U. after   16 cycles
            NFock= 16  Conv=0.72D-08     -V/T= 2.0058
 <Sx>= 0.0000 <Sy>= 0.0000 <Sz>= 0.5000 <S**2>= 0.7603 S= 0.5051
 <L.S>= 0.000000000000E+00
 KE= 2.684041338880D+02 PE=-9.975553359140D+02 EE= 2.763736436120D+02
 Annihilation of the first spin contaminant:
 S**2 before annihilation     0.7603,   after     0.7500
 Leave Link  502 at Thu Sep  5 10:21:14 2019, MaxMem=   671088640 cpu:            1500.4 elap:             756.1
 (Enter /shared/centos7/gaussian/g16/l601.exe)
 Copying SCF densities to generalized density rwf, IOpCl= 1 IROHF=0.

 **********************************************************************

            Population analysis using the SCF density.

 **********************************************************************

 Orbital symmetries:
 Alpha Orbitals:
       Occupied  (A) (A) (A) (A) (A) (A) (A) (A) (A) (A) (A) (A)
                 (A) (A) (A) (A) (A) (A) (A) (A) (A) (A)
       Virtual   (A) (A) (A) (A) (A) (A) (A) (A) (A) (A) (A) (A)
                 (A) (A) (A) (A) (A) (A) (A) (A) (A) (A) (A) (A)
                 (A) (A) (A) (A) (A) (A) (A) (A) (A) (A) (A) (A)
                 (A) (A) (A) (A) (A) (A) (A) (A) (A) (A) (A) (A)
                 (A) (A) (A) (A) (A) (A) (A) (A) (A) (A) (A) (A)
                 (A) (A) (A) (A) (A) (A) (A) (A) (A) (A) (A) (A)
                 (A) (A) (A) (A) (A) (A) (A) (A) (A) (A) (A) (A)
                 (A) (A) (A) (A) (A) (A) (A) (A) (A) (A) (A) (A)
                 (A) (A) (A) (A) (A) (A) (A) (A) (A) (A) (A) (A)
                 (A) (A) (A) (A) (A) (A) (A) (A) (A) (A) (A) (A)
                 (A) (A) (A) (A) (A) (A) (A) (A) (A) (A) (A) (A)
                 (A) (A) (A) (A) (A) (A) (A) (A) (A) (A) (A) (A)
                 (A) (A) (A) (A) (A) (A) (A) (A) (A) (A) (A) (A)
                 (A) (A) (A) (A) (A) (A) (A) (A) (A) (A) (A) (A)
                 (A) (A) (A) (A) (A) (A) (A) (A) (A) (A) (A) (A)
                 (A) (A) (A) (A) (A) (A) (A) (A) (A) (A) (A) (A)
                 (A) (A) (A) (A) (A) (A) (A) (A) (A) (A) (A) (A)
                 (A) (A) (A) (A) (A) (A) (A) (A) (A) (A) (A) (A)
                 (A) (A) (A) (A) (A) (A) (A) (A) (A) (A) (A) (A)
                 (A) (A) (A) (A) (A) (A) (A) (A) (A) (A) (A) (A)
                 (A) (A) (A) (A) (A) (A) (A) (A) (A) (A) (A) (A)
                 (A) (A)
 Beta  Orbitals:
       Occupied  (A) (A) (A) (A) (A) (A) (A) (A) (A) (A) (A) (A)
                 (A) (A) (A) (A) (A) (A) (A) (A) (A)
       Virtual   (A) (A) (A) (A) (A) (A) (A) (A) (A) (A) (A) (A)
                 (A) (A) (A) (A) (A) (A) (A) (A) (A) (A) (A) (A)
                 (A) (A) (A) (A) (A) (A) (A) (A) (A) (A) (A) (A)
                 (A) (A) (A) (A) (A) (A) (A) (A) (A) (A) (A) (A)
                 (A) (A) (A) (A) (A) (A) (A) (A) (A) (A) (A) (A)
                 (A) (A) (A) (A) (A) (A) (A) (A) (A) (A) (A) (A)
                 (A) (A) (A) (A) (A) (A) (A) (A) (A) (A) (A) (A)
                 (A) (A) (A) (A) (A) (A) (A) (A) (A) (A) (A) (A)
                 (A) (A) (A) (A) (A) (A) (A) (A) (A) (A) (A) (A)
                 (A) (A) (A) (A) (A) (A) (A) (A) (A) (A) (A) (A)
                 (A) (A) (A) (A) (A) (A) (A) (A) (A) (A) (A) (A)
                 (A) (A) (A) (A) (A) (A) (A) (A) (A) (A) (A) (A)
                 (A) (A) (A) (A) (A) (A) (A) (A) (A) (A) (A) (A)
                 (A) (A) (A) (A) (A) (A) (A) (A) (A) (A) (A) (A)
                 (A) (A) (A) (A) (A) (A) (A) (A) (A) (A) (A) (A)
                 (A) (A) (A) (A) (A) (A) (A) (A) (A) (A) (A) (A)
                 (A) (A) (A) (A) (A) (A) (A) (A) (A) (A) (A) (A)
                 (A) (A) (A) (A) (A) (A) (A) (A) (A) (A) (A) (A)
                 (A) (A) (A) (A) (A) (A) (A) (A) (A) (A) (A) (A)
                 (A) (A) (A) (A) (A) (A) (A) (A) (A) (A) (A) (A)
                 (A) (A) (A) (A) (A) (A) (A) (A) (A) (A) (A) (A)
                 (A) (A) (A)
 The electronic state is 2-A.
 Alpha  occ. eigenvalues --  -19.69609 -19.68461 -10.55239 -10.54511 -10.53354
 Alpha  occ. eigenvalues --   -1.31341  -0.97898  -0.88471  -0.77536  -0.67891
 Alpha  occ. eigenvalues --   -0.62894  -0.59702  -0.54637  -0.53407  -0.50662
 Alpha  occ. eigenvalues --   -0.45790  -0.44406  -0.40797  -0.39394  -0.38901
 Alpha  occ. eigenvalues --   -0.36783  -0.29076
 Alpha virt. eigenvalues --    0.05354   0.07498   0.10644   0.10842   0.12574
 Alpha virt. eigenvalues --    0.14633   0.14929   0.17436   0.18475   0.20292
 Alpha virt. eigenvalues --    0.26083   0.27033   0.29147   0.30068   0.31723
 Alpha virt. eigenvalues --    0.32093   0.35223   0.37424   0.40932   0.41506
 Alpha virt. eigenvalues --    0.45510   0.46016   0.47324   0.48067   0.48967
 Alpha virt. eigenvalues --    0.49176   0.51173   0.52485   0.53414   0.53612
 Alpha virt. eigenvalues --    0.55667   0.57314   0.58362   0.60731   0.64361
 Alpha virt. eigenvalues --    0.65851   0.68255   0.70830   0.72319   0.75669
 Alpha virt. eigenvalues --    0.80362   0.81015   0.84636   0.85116   0.87559
 Alpha virt. eigenvalues --    0.88482   0.91135   0.94529   0.97646   0.99162
 Alpha virt. eigenvalues --    1.01820   1.04343   1.06246   1.07850   1.10085
 Alpha virt. eigenvalues --    1.10613   1.11540   1.12817   1.15603   1.17314
 Alpha virt. eigenvalues --    1.18476   1.19280   1.21616   1.22840   1.24028
 Alpha virt. eigenvalues --    1.26277   1.29725   1.30816   1.33114   1.34826
 Alpha virt. eigenvalues --    1.38248   1.39771   1.41201   1.41887   1.42968
 Alpha virt. eigenvalues --    1.47729   1.51863   1.53208   1.54531   1.55819
 Alpha virt. eigenvalues --    1.59429   1.60423   1.61155   1.72334   1.76186
 Alpha virt. eigenvalues --    1.77255   1.92733   1.98109   2.01440   2.11370
 Alpha virt. eigenvalues --    2.18265   2.21416   2.22346   2.24133   2.25891
 Alpha virt. eigenvalues --    2.27325   2.33546   2.35133   2.38149   2.43629
 Alpha virt. eigenvalues --    2.51388   2.51952   2.54872   2.56343   2.61469
 Alpha virt. eigenvalues --    2.64594   2.65512   2.66663   2.67840   2.76127
 Alpha virt. eigenvalues --    2.76782   2.79073   2.80816   2.83938   2.84650
 Alpha virt. eigenvalues --    2.87905   2.91147   2.93223   2.93783   2.96611
 Alpha virt. eigenvalues --    2.99255   3.01662   3.04136   3.04859   3.07814
 Alpha virt. eigenvalues --    3.09863   3.10253   3.12852   3.14769   3.16389
 Alpha virt. eigenvalues --    3.20676   3.22003   3.23887   3.26407   3.26935
 Alpha virt. eigenvalues --    3.29309   3.30493   3.33180   3.34299   3.37721
 Alpha virt. eigenvalues --    3.39021   3.41556   3.42326   3.42820   3.44629
 Alpha virt. eigenvalues --    3.46993   3.50219   3.54194   3.54380   3.56420
 Alpha virt. eigenvalues --    3.60652   3.62888   3.66361   3.68888   3.69045
 Alpha virt. eigenvalues --    3.71937   3.72970   3.75264   3.76870   3.78769
 Alpha virt. eigenvalues --    3.79418   3.80822   3.82165   3.82562   3.85199
 Alpha virt. eigenvalues --    3.85850   3.88732   3.89614   3.93706   3.94909
 Alpha virt. eigenvalues --    3.98771   4.00253   4.01078   4.01217   4.04230
 Alpha virt. eigenvalues --    4.05321   4.06850   4.08595   4.10840   4.12280
 Alpha virt. eigenvalues --    4.13753   4.16379   4.22143   4.22962   4.25909
 Alpha virt. eigenvalues --    4.27427   4.29681   4.31613   4.33272   4.36941
 Alpha virt. eigenvalues --    4.40556   4.45367   4.52092   4.52276   4.63017
 Alpha virt. eigenvalues --    4.63763   4.66485   4.71217   4.73041   4.77601
 Alpha virt. eigenvalues --    4.79897   4.82231   4.85624   4.87576   4.87961
 Alpha virt. eigenvalues --    4.90045   4.95197   4.96866   4.99129   5.03630
 Alpha virt. eigenvalues --    5.06945   5.08618   5.09189   5.12533   5.14551
 Alpha virt. eigenvalues --    5.21178   5.22206   5.23595   5.26361   5.31512
 Alpha virt. eigenvalues --    5.33937   5.38185   5.40332   5.44468   5.58196
 Alpha virt. eigenvalues --    5.64088   5.67929   5.77554   5.80773   5.88053
 Alpha virt. eigenvalues --    5.94581   6.06783   6.08528   6.24880   6.30280
 Alpha virt. eigenvalues --    6.34811   6.41339   6.44647   6.50727   6.55874
 Alpha virt. eigenvalues --    6.57764   6.63853   6.78353   6.85095   6.87918
 Alpha virt. eigenvalues --    7.21401   7.29837   7.48025   7.65730  10.07587
 Alpha virt. eigenvalues --   11.04321  11.59953  12.67628  13.17776
  Beta  occ. eigenvalues --  -19.69349 -19.67505 -10.54707 -10.54519 -10.53311
  Beta  occ. eigenvalues --   -1.29502  -0.95332  -0.87718  -0.76327  -0.66621
  Beta  occ. eigenvalues --   -0.61707  -0.56430  -0.53269  -0.51999  -0.49943
  Beta  occ. eigenvalues --   -0.45313  -0.43259  -0.40177  -0.38720  -0.35860
  Beta  occ. eigenvalues --   -0.34391
  Beta virt. eigenvalues --   -0.07410   0.05309   0.07480   0.10751   0.10886
  Beta virt. eigenvalues --    0.12439   0.14515   0.14922   0.18254   0.18623
  Beta virt. eigenvalues --    0.21162   0.26681   0.27184   0.29409   0.30162
  Beta virt. eigenvalues --    0.31894   0.32056   0.35190   0.37774   0.41313
  Beta virt. eigenvalues --    0.41658   0.45742   0.46053   0.47897   0.48497
  Beta virt. eigenvalues --    0.49021   0.49952   0.51399   0.52997   0.53735
  Beta virt. eigenvalues --    0.53983   0.55916   0.57854   0.58602   0.61649
  Beta virt. eigenvalues --    0.64821   0.66195   0.68416   0.71150   0.72515
  Beta virt. eigenvalues --    0.75876   0.80407   0.81317   0.84748   0.85306
  Beta virt. eigenvalues --    0.87533   0.88710   0.91250   0.94542   0.97770
  Beta virt. eigenvalues --    0.99207   1.02443   1.04465   1.06289   1.08044
  Beta virt. eigenvalues --    1.09892   1.10579   1.11652   1.12939   1.15583
  Beta virt. eigenvalues --    1.17322   1.18501   1.19344   1.21934   1.23142
  Beta virt. eigenvalues --    1.24537   1.26756   1.29987   1.30963   1.33437
  Beta virt. eigenvalues --    1.35024   1.38564   1.40281   1.41444   1.42308
  Beta virt. eigenvalues --    1.43264   1.48095   1.51862   1.53403   1.54776
  Beta virt. eigenvalues --    1.56544   1.59863   1.60892   1.61456   1.72661
  Beta virt. eigenvalues --    1.77010   1.78987   1.93468   1.98376   2.01836
  Beta virt. eigenvalues --    2.12483   2.18487   2.21979   2.22425   2.24781
  Beta virt. eigenvalues --    2.26294   2.27530   2.33876   2.35734   2.38984
  Beta virt. eigenvalues --    2.43985   2.51740   2.52325   2.55341   2.56437
  Beta virt. eigenvalues --    2.62547   2.65131   2.66507   2.66852   2.68682
  Beta virt. eigenvalues --    2.76164   2.77064   2.80246   2.81549   2.84191
  Beta virt. eigenvalues --    2.85157   2.88355   2.92747   2.93885   2.94383
  Beta virt. eigenvalues --    2.98060   3.00604   3.03035   3.04758   3.06442
  Beta virt. eigenvalues --    3.09035   3.10893   3.11220   3.13380   3.14910
  Beta virt. eigenvalues --    3.16800   3.21160   3.22355   3.24402   3.26454
  Beta virt. eigenvalues --    3.27196   3.29438   3.30990   3.33791   3.35398
  Beta virt. eigenvalues --    3.38760   3.39344   3.41826   3.43196   3.44491
  Beta virt. eigenvalues --    3.45437   3.47431   3.50690   3.54630   3.54933
  Beta virt. eigenvalues --    3.57142   3.60760   3.63356   3.66697   3.69109
  Beta virt. eigenvalues --    3.69564   3.72540   3.73227   3.75478   3.77074
  Beta virt. eigenvalues --    3.79541   3.79697   3.81073   3.82094   3.82877
  Beta virt. eigenvalues --    3.85402   3.86105   3.89254   3.89974   3.94004
  Beta virt. eigenvalues --    3.95333   3.98939   4.00519   4.01325   4.02098
  Beta virt. eigenvalues --    4.04489   4.05608   4.07187   4.09210   4.11373
  Beta virt. eigenvalues --    4.12979   4.14270   4.16526   4.22199   4.23304
  Beta virt. eigenvalues --    4.26553   4.27849   4.30586   4.31828   4.33626
  Beta virt. eigenvalues --    4.37352   4.41629   4.45749   4.52868   4.53248
  Beta virt. eigenvalues --    4.63578   4.64505   4.67229   4.71299   4.73607
  Beta virt. eigenvalues --    4.77988   4.80266   4.82836   4.86171   4.88308
  Beta virt. eigenvalues --    4.88564   4.91025   4.96393   4.97721   4.99730
  Beta virt. eigenvalues --    5.04078   5.07608   5.09191   5.10477   5.12859
  Beta virt. eigenvalues --    5.15540   5.21539   5.22333   5.24138   5.26876
  Beta virt. eigenvalues --    5.32996   5.35840   5.39181   5.41359   5.44685
  Beta virt. eigenvalues --    5.60567   5.65301   5.70706   5.77947   5.80921
  Beta virt. eigenvalues --    5.89413   5.95177   6.08124   6.09822   6.25251
  Beta virt. eigenvalues --    6.30936   6.35178   6.41853   6.45491   6.51741
  Beta virt. eigenvalues --    6.56855   6.60639   6.66398   6.79854   6.85614
  Beta virt. eigenvalues --    6.88967   7.21376   7.30750   7.48120   7.66025
  Beta virt. eigenvalues --   10.08346  11.04997  11.60260  12.68352  13.17877
          Condensed to atoms (all electrons):
               1          2          3          4          5          6
     1  O    7.900932   0.023927   0.000125   0.002859  -0.001866  -0.000012
     2  O    0.023927   8.118633   0.001175  -0.091434   0.002443  -0.000134
     3  C    0.000125   0.001175   5.090404   0.203444   0.292834   0.398841
     4  C    0.002859  -0.091434   0.203444   5.361831  -0.032160  -0.035135
     5  C   -0.001866   0.002443   0.292834  -0.032160   4.965267  -0.039681
     6  H   -0.000012  -0.000134   0.398841  -0.035135  -0.039681   0.613835
     7  H   -0.000034  -0.000153   0.393919  -0.031694  -0.038296  -0.038162
     8  H   -0.023540   0.197638  -0.015302   0.229543  -0.003697   0.001380
     9  H    0.000088  -0.001577  -0.038247   0.378649   0.003860  -0.013185
    10  H    0.000784  -0.001062  -0.033833   0.386995   0.003421   0.004901
    11  H    0.004207  -0.001628  -0.038395  -0.004906   0.394023  -0.006435
    12  H    0.000012  -0.000015  -0.038189   0.008990   0.400532  -0.005140
    13  H   -0.000395   0.000738  -0.042238  -0.002377   0.404858   0.007737
    14  H    0.311916  -0.043175  -0.000044  -0.001823  -0.000057  -0.000022
               7          8          9         10         11         12
     1  O   -0.000034  -0.023540   0.000088   0.000784   0.004207   0.000012
     2  O   -0.000153   0.197638  -0.001577  -0.001062  -0.001628  -0.000015
     3  C    0.393919  -0.015302  -0.038247  -0.033833  -0.038395  -0.038189
     4  C   -0.031694   0.229543   0.378649   0.386995  -0.004906   0.008990
     5  C   -0.038296  -0.003697   0.003860   0.003421   0.394023   0.400532
     6  H   -0.038162   0.001380  -0.013185   0.004901  -0.006435  -0.005140
     7  H    0.609663   0.001751   0.004521  -0.012232   0.007685  -0.004671
     8  H    0.001751   0.404087  -0.010419  -0.014572   0.000934   0.000368
     9  H    0.004521  -0.010419   0.585166  -0.033421   0.000353  -0.000487
    10  H   -0.012232  -0.014572  -0.033421   0.565275   0.000175  -0.000441
    11  H    0.007685   0.000934   0.000353   0.000175   0.601761  -0.030093
    12  H   -0.004671   0.000368  -0.000487  -0.000441  -0.030093   0.589817
    13  H   -0.006508   0.000011   0.000041   0.000498  -0.038563  -0.029805
    14  H    0.000006  -0.000529   0.000584  -0.000047  -0.000094  -0.000007
              13         14
     1  O   -0.000395   0.311916
     2  O    0.000738  -0.043175
     3  C   -0.042238  -0.000044
     4  C   -0.002377  -0.001823
     5  C    0.404858  -0.000057
     6  H    0.007737  -0.000022
     7  H   -0.006508   0.000006
     8  H    0.000011  -0.000529
     9  H    0.000041   0.000584
    10  H    0.000498  -0.000047
    11  H   -0.038563  -0.000094
    12  H   -0.029805  -0.000007
    13  H    0.584795   0.000030
    14  H    0.000030   0.466804
          Atomic-Atomic Spin Densities.
               1          2          3          4          5          6
     1  O    0.132718  -0.068088  -0.001127   0.014325  -0.000162   0.000070
     2  O   -0.068088   0.573000   0.006187  -0.099505   0.001274  -0.000345
     3  C   -0.001127   0.006187  -0.029516  -0.034773   0.017217   0.003655
     4  C    0.014325  -0.099505  -0.034773   0.696293  -0.014175  -0.002624
     5  C   -0.000162   0.001274   0.017217  -0.014175   0.045799  -0.007094
     6  H    0.000070  -0.000345   0.003655  -0.002624  -0.007094   0.011282
     7  H    0.000043  -0.000366   0.004430  -0.004795  -0.007177   0.003752
     8  H    0.012498  -0.032714  -0.000591   0.050998  -0.003390   0.000395
     9  H   -0.000645   0.004482   0.006009  -0.010675   0.001010  -0.000860
    10  H   -0.000231   0.001746   0.003128  -0.005139   0.000430  -0.000521
    11  H    0.000695  -0.001277  -0.003114   0.005524  -0.004210   0.001281
    12  H    0.000033  -0.000057   0.000031   0.000685  -0.004013   0.000918
    13  H    0.000056  -0.000235   0.000729   0.000248  -0.001717   0.000038
    14  H    0.000878  -0.000707  -0.000043   0.000388   0.000015   0.000004
               7          8          9         10         11         12
     1  O    0.000043   0.012498  -0.000645  -0.000231   0.000695   0.000033
     2  O   -0.000366  -0.032714   0.004482   0.001746  -0.001277  -0.000057
     3  C    0.004430  -0.000591   0.006009   0.003128  -0.003114   0.000031
     4  C   -0.004795   0.050998  -0.010675  -0.005139   0.005524   0.000685
     5  C   -0.007177  -0.003390   0.001010   0.000430  -0.004210  -0.004013
     6  H    0.003752   0.000395  -0.000860  -0.000521   0.001281   0.000918
     7  H    0.016669   0.000452  -0.001078  -0.000377   0.000578   0.001068
     8  H    0.000452  -0.060981  -0.000790   0.001972   0.001849   0.000109
     9  H   -0.001078  -0.000790  -0.027760   0.003585  -0.000442  -0.000029
    10  H   -0.000377   0.001972   0.003585  -0.030716  -0.000144  -0.000003
    11  H    0.000578   0.001849  -0.000442  -0.000144  -0.004950   0.002554
    12  H    0.001068   0.000109  -0.000029  -0.000003   0.002554  -0.001056
    13  H    0.000224   0.000098  -0.000020  -0.000044   0.000117   0.000875
    14  H    0.000000   0.000237  -0.000076  -0.000001  -0.000015   0.000001
              13         14
     1  O    0.000056   0.000878
     2  O   -0.000235  -0.000707
     3  C    0.000729  -0.000043
     4  C    0.000248   0.000388
     5  C   -0.001717   0.000015
     6  H    0.000038   0.000004
     7  H    0.000224   0.000000
     8  H    0.000098   0.000237
     9  H   -0.000020  -0.000076
    10  H   -0.000044  -0.000001
    11  H    0.000117  -0.000015
    12  H    0.000875   0.000001
    13  H   -0.002699   0.000001
    14  H    0.000001  -0.005081
 Mulliken charges and spin densities:
               1          2
     1  O   -0.219004   0.091061
     2  O   -0.205375   0.383396
     3  C   -0.174495  -0.027778
     4  C   -0.372782   0.596775
     5  C   -0.351482   0.023807
     6  H    0.111212   0.009950
     7  H    0.114206   0.013424
     8  H    0.232347  -0.029861
     9  H    0.124073  -0.027289
    10  H    0.133557  -0.026318
    11  H    0.110977  -0.001555
    12  H    0.109129   0.001116
    13  H    0.121179  -0.002330
    14  H    0.266458  -0.004400
 Sum of Mulliken charges =  -0.00000   1.00000
 Mulliken charges and spin densities with hydrogens summed into heavy atoms:
               1          2
     1  O    0.047454   0.086661
     2  O    0.026973   0.353535
     3  C    0.050922  -0.004404
     4  C   -0.115152   0.543169
     5  C   -0.010197   0.021039
 Electronic spatial extent (au):  <R**2>=            692.0095
 Charge=             -0.0000 electrons
 Dipole moment (field-independent basis, Debye):
    X=             -0.8546    Y=             -0.3564    Z=              1.7978  Tot=              2.0222
 Quadrupole moment (field-independent basis, Debye-Ang):
   XX=            -31.8737   YY=            -34.1379   ZZ=            -30.7943
   XY=              0.3124   XZ=              5.0108   YZ=              0.4862
 Traceless Quadrupole moment (field-independent basis, Debye-Ang):
   XX=              0.3949   YY=             -1.8693   ZZ=              1.4743
   XY=              0.3124   XZ=              5.0108   YZ=              0.4862
 Octapole moment (field-independent basis, Debye-Ang**2):
  XXX=             23.2394  YYY=             -0.5288  ZZZ=              2.9277  XYY=              3.6539
  XXY=              1.9148  XXZ=             12.4469  XZZ=             10.0936  YZZ=              0.3374
  YYZ=             -0.0730  XYZ=              0.9313
 Hexadecapole moment (field-independent basis, Debye-Ang**3):
 XXXX=           -576.8101 YYYY=           -215.5476 ZZZZ=            -59.8142 XXXY=              2.5363
 XXXZ=             34.7470 YYYX=              3.9279 YYYZ=              3.6064 ZZZX=              7.8575
 ZZZY=              1.2439 XXYY=           -142.1892 XXZZ=            -97.9354 YYZZ=            -42.6117
 XXYZ=              5.3767 YYXZ=              2.1542 ZZXY=              5.6665
 N-N= 1.828131147787D+02 E-N=-9.975553373178D+02  KE= 2.684041338880D+02
                          Isotropic Fermi Contact Couplings
        Atom                 a.u.       MegaHertz       Gauss      10(-4) cm-1
     1  O(17)              0.00584      -3.54175      -1.26378      -1.18140
     2  O(17)              0.12112     -73.42160     -26.19865     -24.49081
     3  C(13)             -0.00551      -6.19341      -2.20996      -2.06590
     4  C(13)              0.21123     237.45977      84.73155      79.20805
     5  C(13)              0.03021      33.96539      12.11969      11.32963
     6  H(1)               0.00441      19.72965       7.04003       6.58110
     7  H(1)               0.00610      27.24652       9.72224       9.08846
     8  H(1)              -0.03614    -161.52142     -57.63486     -53.87775
     9  H(1)              -0.00532     -23.76191      -8.47884      -7.92612
    10  H(1)              -0.00593     -26.48530      -9.45061      -8.83454
    11  H(1)              -0.00038      -1.71626      -0.61241      -0.57248
    12  H(1)              -0.00002      -0.09147      -0.03264      -0.03051
    13  H(1)              -0.00037      -1.66088      -0.59264      -0.55401
    14  H(1)              -0.00222      -9.93051      -3.54345      -3.31246
 --------------------------------------------------------
       Center         ----  Spin Dipole Couplings  ----
                      3XX-RR        3YY-RR        3ZZ-RR
 --------------------------------------------------------
     1   Atom        0.468876     -0.299774     -0.169101
     2   Atom        1.457641     -0.925789     -0.531851
     3   Atom        0.037279     -0.013860     -0.023419
     4   Atom        0.244935      0.057690     -0.302625
     5   Atom       -0.011963      0.027971     -0.016008
     6   Atom        0.006083     -0.006242      0.000158
     7   Atom        0.007883     -0.006366     -0.001517
     8   Atom        0.196389     -0.084594     -0.111795
     9   Atom       -0.014641     -0.007274      0.021915
    10   Atom       -0.017256      0.004698      0.012558
    11   Atom       -0.001130      0.005995     -0.004866
    12   Atom        0.002028      0.001538     -0.003566
    13   Atom       -0.001289      0.003005     -0.001716
    14   Atom       -0.001697     -0.015339      0.017036
 --------------------------------------------------------
                        XY            XZ            YZ
 --------------------------------------------------------
     1   Atom        0.027663     -0.240309     -0.030366
     2   Atom       -0.369197     -1.048773      0.149353
     3   Atom       -0.000377     -0.004356     -0.000974
     4   Atom        0.464141     -0.082479     -0.066557
     5   Atom       -0.008316      0.001103     -0.007439
     6   Atom       -0.003575     -0.005570      0.001658
     7   Atom       -0.002345      0.004997      0.000880
     8   Atom        0.073514     -0.053832     -0.012094
     9   Atom        0.008248      0.012465     -0.035199
    10   Atom        0.012570     -0.009058      0.036926
    11   Atom       -0.002710     -0.000291      0.004120
    12   Atom       -0.004230      0.000001     -0.000233
    13   Atom       -0.003563      0.001184     -0.005565
    14   Atom        0.004202      0.015348     -0.000380
 --------------------------------------------------------


 ---------------------------------------------------------------------------------
              Anisotropic Spin Dipole Couplings in Principal Axis System
 ---------------------------------------------------------------------------------

       Atom             a.u.   MegaHertz   Gauss  10(-4) cm-1        Axes

              Baa    -0.3081    22.295     7.955     7.437  0.0649  0.9456  0.3188
     1 O(17)  Bbb    -0.2427    17.559     6.266     5.857  0.3141 -0.3226  0.8929
              Bcc     0.5508   -39.854   -14.221   -13.294  0.9472  0.0422 -0.3180
 
              Baa    -0.9902    71.648    25.566    23.899  0.3778  0.6597  0.6496
     2 O(17)  Bbb    -0.9731    70.412    25.125    23.487 -0.1691  0.7390 -0.6521
              Bcc     1.9633  -142.060   -50.691   -47.386  0.9103 -0.1365 -0.3908
 
              Baa    -0.0238    -3.198    -1.141    -1.067  0.0714  0.0996  0.9925
     3 C(13)  Bbb    -0.0138    -1.847    -0.659    -0.616 -0.0012  0.9950 -0.0998
              Bcc     0.0376     5.044     1.800     1.683  0.9975 -0.0060 -0.0711
 
              Baa    -0.3222   -43.242   -15.430   -14.424 -0.6387  0.7637 -0.0940
     4 C(13)  Bbb    -0.3145   -42.205   -15.060   -14.078  0.0265  0.1439  0.9892
              Bcc     0.6368    85.447    30.490    28.502  0.7690  0.6293 -0.1121
 
              Baa    -0.0173    -2.315    -0.826    -0.772  0.0694  0.1744  0.9822
     5 C(13)  Bbb    -0.0136    -1.823    -0.651    -0.608  0.9789  0.1778 -0.1007
              Bcc     0.0308     4.138     1.477     1.380 -0.1922  0.9685 -0.1583
 
              Baa    -0.0072    -3.846    -1.372    -1.283  0.2476  0.9684 -0.0308
     6 H(1)   Bbb    -0.0031    -1.679    -0.599    -0.560  0.4865 -0.0968  0.8683
              Bcc     0.0104     5.525     1.972     1.843  0.8379 -0.2300 -0.4951
 
              Baa    -0.0074    -3.933    -1.403    -1.312  0.2539  0.9008 -0.3522
     7 H(1)   Bbb    -0.0029    -1.532    -0.547    -0.511 -0.3055  0.4202  0.8545
              Bcc     0.0102     5.464     1.950     1.823  0.9177 -0.1094  0.3819
 
              Baa    -0.1209   -64.525   -23.024   -21.523  0.1715 -0.0192  0.9850
     8 H(1)   Bbb    -0.1026   -54.743   -19.534   -18.260 -0.2284  0.9718  0.0587
              Bcc     0.2235   119.268    42.558    39.783  0.9583  0.2350 -0.1623
 
              Baa    -0.0388   -20.693    -7.384    -6.903 -0.5017  0.6996  0.5087
     9 H(1)   Bbb    -0.0072    -3.851    -1.374    -1.284  0.8594  0.4704  0.2006
              Bcc     0.0460    24.544     8.758     8.187  0.0989 -0.5378  0.8372
 
              Baa    -0.0393   -20.963    -7.480    -6.993 -0.5735  0.6166 -0.5393
    10 H(1)   Bbb    -0.0065    -3.478    -1.241    -1.160  0.8187  0.4090 -0.4030
              Bcc     0.0458    24.441     8.721     8.153  0.0279  0.6727  0.7394
 
              Baa    -0.0063    -3.375    -1.204    -1.126 -0.1247 -0.3392  0.9324
    11 H(1)   Bbb    -0.0018    -0.972    -0.347    -0.324  0.9529  0.2208  0.2078
              Bcc     0.0081     4.347     1.551     1.450 -0.2764  0.9144  0.2957
 
              Baa    -0.0036    -1.918    -0.684    -0.640  0.0884  0.1178  0.9891
    12 H(1)   Bbb    -0.0024    -1.296    -0.462    -0.432  0.6810  0.7175 -0.1463
              Bcc     0.0060     3.213     1.147     1.072  0.7270 -0.6865  0.0168
 
              Baa    -0.0057    -3.035    -1.083    -1.012  0.2807  0.5965  0.7519
    13 H(1)   Bbb    -0.0024    -1.287    -0.459    -0.429  0.8887  0.1343 -0.4383
              Bcc     0.0081     4.321     1.542     1.441 -0.3624  0.7913 -0.4924
 
              Baa    -0.0175    -9.325    -3.327    -3.111 -0.4298  0.8803  0.2008
    14 H(1)   Bbb    -0.0082    -4.400    -1.570    -1.468  0.7565  0.4725 -0.4522
              Bcc     0.0257    13.725     4.897     4.578  0.4929  0.0424  0.8690
 

 ---------------------------------------------------------------------------------

 No NMR shielding tensors so no spin-rotation constants.
 Leave Link  601 at Thu Sep  5 10:22:16 2019, MaxMem=   671088640 cpu:             123.4 elap:              61.8
 (Enter /shared/centos7/gaussian/g16/l701.exe)
 ... and contract with generalized density number  0.
 Compute integral first derivatives.
 Leave Link  701 at Thu Sep  5 10:22:32 2019, MaxMem=   671088640 cpu:              31.7 elap:              15.9
 (Enter /shared/centos7/gaussian/g16/l702.exe)
 L702 exits ... SP integral derivatives will be done elsewhere.
 Leave Link  702 at Thu Sep  5 10:22:33 2019, MaxMem=   671088640 cpu:               1.5 elap:               0.8
 (Enter /shared/centos7/gaussian/g16/l703.exe)
 Integral derivatives from FoFJK, PRISM(SPDF).
 Compute integral first derivatives, UseDBF=F ICtDFT=           0.
 Calling FoFJK, ICntrl=      2127 FMM=F ISym2X=0 I1Cent= 0 IOpClX= 1 NMat=1 NMatS=1 NMatT=0.
 FoFJK:  IHMeth= 1 ICntrl=    2127 DoSepK=F KAlg= 0 I1Cent=           0 FoldK=F
 IRaf=         0 NMat=       1 IRICut=       1 DoRegI=T DoRafI=F ISym2E= 0 IDoP0=0 IntGTp=1.
 FoFCou: FMM=F IPFlag=           0 FMFlag=      100000 FMFlg1=         800
         NFxFlg=           0 DoJE=F BraDBF=F KetDBF=F FulRan=T
         wScrn=  0.000000 ICntrl=      2127 IOpCl=  1 I1Cent=           0 NGrid=           0
         NMat0=    1 NMatS0=      1 NMatT0=    0 NMatD0=    1 NMtDS0=    0 NMtDT0=    0
 Symmetry not used in FoFCou.
 Leave Link  703 at Thu Sep  5 10:23:54 2019, MaxMem=   671088640 cpu:             162.7 elap:              81.4
 (Enter /shared/centos7/gaussian/g16/l716.exe)
 Dipole        =-3.36232889D-01-1.40229839D-01 7.07302419D-01
 ***** Axes restored to original set *****
 -------------------------------------------------------------------
 Center     Atomic                   Forces (Hartrees/Bohr)
 Number     Number              X              Y              Z
 -------------------------------------------------------------------
      1        8          -0.061275749   -0.009450235    0.026458986
      2        8           0.038322611    0.000155919   -0.029734147
      3        6           0.002667997    0.009262935   -0.004782989
      4        6           0.004672371    0.011743475   -0.015626735
      5        6          -0.001922054   -0.000876362    0.012766075
      6        1           0.007333388   -0.008820681    0.004020578
      7        1          -0.011279747   -0.002910562    0.001011761
      8        1           0.010071956    0.007435751   -0.017985427
      9        1           0.007864305   -0.005896559    0.012156998
     10        1          -0.013663848    0.000056043    0.008002060
     11        1           0.012334777    0.002664068   -0.002045164
     12        1          -0.002328273   -0.012296779   -0.004162699
     13        1          -0.008616836    0.008351219   -0.004968106
     14        1           0.015819104    0.000581769    0.014888809
 -------------------------------------------------------------------
 Cartesian Forces:  Max     0.061275749 RMS     0.015292535
 Leave Link  716 at Thu Sep  5 10:23:55 2019, MaxMem=   671088640 cpu:               1.5 elap:               0.8
 (Enter /shared/centos7/gaussian/g16/l103.exe)

 GradGradGradGradGradGradGradGradGradGradGradGradGradGradGradGradGradGrad
 Berny optimization.
 FormGI is forming the generalized inverse of G from B-inverse, IUseBI=4.
 Internal  Forces:  Max     0.061822489 RMS     0.010601122
 Search for a local minimum.
 Step number   1 out of a maximum of  100
 All quantities printed in internal units (Hartrees-Bohrs-Radians)
 RMS Force = .10423D-01 SwitMx=.10000D-02 MixMth= 1
 Mixed Optimization -- RFO/linear search
 Second derivative matrix not updated -- first step.
 ITU=  0
     Eigenvalues ---    0.00230   0.00230   0.00428   0.00443   0.02406
     Eigenvalues ---    0.03403   0.04484   0.04848   0.04865   0.05578
     Eigenvalues ---    0.05651   0.08724   0.11993   0.12475   0.13961
     Eigenvalues ---    0.16000   0.16000   0.16000   0.16000   0.16000
     Eigenvalues ---    0.16000   0.21969   0.29838   0.29946   0.32486
     Eigenvalues ---    0.32496   0.32497   0.32501   0.32502   0.32504
     Eigenvalues ---    0.32559   0.49447   0.629301000.000001000.00000
     Eigenvalues --- 1000.000001000.000001000.000001000.000001000.00000
     Eigenvalues --- 1000.000001000.000001000.000001000.000001000.00000
     Eigenvalues --- 1000.000001000.000001000.000001000.000001000.00000
     Eigenvalues --- 1000.000001000.000001000.000001000.000001000.00000
     Eigenvalues --- 1000.000001000.00000
 RFO step:  Lambda=-1.35083486D-02 EMin= 2.30000000D-03
 Linear search not attempted -- first point.
 Iteration  1 RMS(Cart)=  0.05760882 RMS(Int)=  0.00242648
 Iteration  2 RMS(Cart)=  0.00302073 RMS(Int)=  0.00066962
 Iteration  3 RMS(Cart)=  0.00001633 RMS(Int)=  0.00066955
 Iteration  4 RMS(Cart)=  0.00000001 RMS(Int)=  0.00066955
 Iteration  1 RMS(Cart)=  0.00000000 RMS(Int)=  0.00000000
 ITry= 1 IFail=0 DXMaxC= 1.50D-01 DCOld= 1.00D+10 DXMaxT= 3.00D-01 DXLimC= 3.00D+00 Rises=F
 Variable       Old X    -DE/DX   Delta X   Delta X   Delta X     New X
                                 (Linear)    (Quad)   (Total)
    R1        2.48694   0.06182   0.00000   0.09618   0.09618   2.58312
    R2        1.87128  -0.02115   0.00000  -0.04164  -0.04164   1.82964
    R3        2.20115   0.01040   0.00000   0.00000   0.00000   2.20115
    R4        2.88071  -0.00335   0.00000  -0.01069  -0.01069   2.87002
    R5        2.88287   0.00174   0.00000   0.00558   0.00558   2.88845
    R6        2.09964  -0.01214   0.00000  -0.03587  -0.03587   2.06377
    R7        2.09945  -0.01166   0.00000  -0.03445  -0.03445   2.06501
    R8        2.58649  -0.00361   0.00000   0.00000  -0.00000   2.58649
    R9        2.09937  -0.01463   0.00000  -0.04322  -0.04322   2.05615
   R10        2.09934  -0.01452   0.00000  -0.04290  -0.04290   2.05644
   R11        2.09944  -0.01273   0.00000  -0.03762  -0.03762   2.06182
   R12        2.09832  -0.01311   0.00000  -0.03865  -0.03865   2.05968
   R13        2.09932  -0.01297   0.00000  -0.03831  -0.03831   2.06100
    A1        1.80730   0.00938   0.00000   0.05404   0.05404   1.86134
    A2        1.82580   0.00718   0.00000   0.04138   0.04138   1.86718
    A3        2.00530  -0.00555   0.00000  -0.02458  -0.02456   1.98075
    A4        1.90982   0.00133   0.00000   0.00332   0.00336   1.91319
    A5        1.90391   0.00143   0.00000   0.00425   0.00429   1.90821
    A6        1.88893   0.00213   0.00000   0.01043   0.01038   1.89931
    A7        1.88688   0.00202   0.00000   0.00984   0.00980   1.89668
    A8        1.86381  -0.00111   0.00000  -0.00182  -0.00190   1.86191
    A9        1.99832  -0.00706   0.00000  -0.05860  -0.05793   1.94039
   A10        1.97393   0.00515   0.00000   0.04178   0.03961   2.01353
   A11        1.97173   0.00544   0.00000   0.04487   0.04274   2.01448
   A12        1.82815  -0.00124   0.00000  -0.02628  -0.02555   1.80260
   A13        1.76094  -0.00172   0.00000  -0.02967  -0.02874   1.73220
   A14        1.91442  -0.00183   0.00000   0.01642   0.01358   1.92800
   A15        1.93753   0.00024   0.00000   0.00041   0.00039   1.93791
   A16        1.92423   0.00204   0.00000   0.01414   0.01410   1.93833
   A17        1.93578   0.00045   0.00000   0.00112   0.00110   1.93688
   A18        1.88785  -0.00078   0.00000  -0.00175  -0.00179   1.88606
   A19        1.88643  -0.00103   0.00000  -0.01051  -0.01051   1.87591
   A20        1.89049  -0.00102   0.00000  -0.00406  -0.00409   1.88640
   A21        2.54164   0.02044   0.00000   0.00000   0.00000   2.54164
    D1        1.70854   0.00033   0.00000   0.00883   0.00883   1.71737
    D2       -2.70145   0.00162   0.00000   0.10268   0.10268  -2.59876
    D3        0.01708   0.00006   0.00000   0.00678   0.00674   0.02382
    D4        2.10962  -0.00294   0.00000  -0.04022  -0.04114   2.06848
    D5       -1.98576   0.00327   0.00000   0.05347   0.05445  -1.93131
    D6       -2.11150   0.00016   0.00000   0.00791   0.00785  -2.10365
    D7       -0.01895  -0.00284   0.00000  -0.03909  -0.04003  -0.05898
    D8        2.16885   0.00337   0.00000   0.05460   0.05556   2.22441
    D9        2.13849  -0.00006   0.00000   0.00582   0.00578   2.14426
   D10       -2.05215  -0.00307   0.00000  -0.04119  -0.04210  -2.09426
   D11        0.13565   0.00314   0.00000   0.05250   0.05349   0.18914
   D12       -1.03410   0.00043   0.00000   0.00409   0.00411  -1.03000
   D13       -3.12583  -0.00008   0.00000  -0.00324  -0.00324  -3.12907
   D14        1.06346  -0.00042   0.00000  -0.00814  -0.00815   1.05532
   D15        1.10575  -0.00004   0.00000  -0.00055  -0.00058   1.10517
   D16       -0.98597  -0.00055   0.00000  -0.00788  -0.00793  -0.99390
   D17       -3.07987  -0.00088   0.00000  -0.01278  -0.01283  -3.09270
   D18        3.11843   0.00082   0.00000   0.00782   0.00787   3.12631
   D19        1.02671   0.00031   0.00000   0.00049   0.00053   1.02724
   D20       -1.06718  -0.00003   0.00000  -0.00441  -0.00438  -1.07156
   D21       -2.95489   0.00001   0.00000   0.01284   0.01282  -2.94207
   D22        1.15621  -0.00115   0.00000   0.01617   0.01548   1.17169
   D23       -0.83203   0.00189   0.00000   0.01804   0.01875  -0.81327
         Item               Value     Threshold  Converged?
 Maximum Force            0.061822     0.002500     NO 
 RMS     Force            0.010423     0.001667     NO 
 Maximum Displacement     0.149564     0.010000     NO 
 RMS     Displacement     0.057286     0.006667     NO 
 Predicted change in Energy=-7.215721D-03
 Lowest energy point so far.  Saving SCF results.
 GradGradGradGradGradGradGradGradGradGradGradGradGradGradGradGradGradGrad

 Leave Link  103 at Thu Sep  5 10:27:03 2019, MaxMem=   671088640 cpu:             356.2 elap:             188.4
 (Enter /shared/centos7/gaussian/g16/l202.exe)
                          Input orientation:                          
 ---------------------------------------------------------------------
 Center     Atomic      Atomic             Coordinates (Angstroms)
 Number     Number       Type             X           Y           Z
 ---------------------------------------------------------------------
      1          8           0       -0.496972   -2.588525    3.978399
      2          8           0        0.523878   -2.443791    3.080952
      3          6           0        1.367054    0.991879    2.890915
      4          6           0        1.129008   -0.300931    2.130275
      5          6           0        1.130817    0.865653    4.395767
      6          1           0        0.715665    1.774662    2.496426
      7          1           0        2.394317    1.325429    2.724816
      8          1           0        0.720444   -1.301006    2.970687
      9          1           0        0.338647   -0.263578    1.383396
     10          1           0        2.019684   -0.771462    1.718542
     11          1           0        0.108343    0.548476    4.606418
     12          1           0        1.300200    1.817009    4.899938
     13          1           0        1.800563    0.125607    4.835377
     14          1           0       -1.305558   -2.714019    3.460848
 ---------------------------------------------------------------------
                    Distance matrix (angstroms):
                    1          2          3          4          5
     1  O    0.000000
     2  O    1.366928   0.000000
     3  C    4.180492   3.542724   0.000000
     4  C    3.360425   2.421119   1.518749   0.000000
     5  C    3.841255   3.612414   1.528503   2.548210   0.000000
     6  H    4.764886   4.263075   1.092099   2.147791   2.146194
     7  H    5.024944   4.222842   1.092754   2.144652   2.144738
     8  H    2.038453   1.164798   2.383651   1.368709   2.625580
     9  H    3.582970   2.769356   2.215041   1.088069   3.313167
    10  H    3.839561   2.624935   2.215797   1.088222   3.261559
    11  H    3.256009   3.384284   2.173457   2.809722   1.091067
    12  H    4.846420   4.697425   2.172898   3.490846   1.089934
    13  H    3.657812   3.362995   2.172393   2.819663   1.090636
    14  H    0.968203   1.887903   4.604493   3.677027   4.429903
                    6          7          8          9         10
     6  H    0.000000
     7  H    1.752668   0.000000
     8  H    3.112022   3.124174   0.000000
     9  H    2.352744   2.924061   1.934300   0.000000
    10  H    2.964510   2.355821   1.880507   1.787779   0.000000
    11  H    2.514844   3.061006   2.543790   3.331718   3.706116
    12  H    2.473934   2.483928   3.712161   4.197558   4.164027
    13  H    3.060569   2.499317   2.584366   3.768930   3.250755
    14  H    5.016344   5.527020   2.518243   3.608860   4.226865
                   11         12         13         14
    11  H    0.000000
    12  H    1.765177   0.000000
    13  H    1.759219   1.765042   0.000000
    14  H    3.735682   5.421361   4.427278   0.000000
 Stoichiometry    C3H9O2(2)
 Framework group  C1[X(C3H9O2)]
 Deg. of freedom    36
 Full point group                 C1      NOp   1
 RotChk:  IX=0 Diff= 5.43D-02
 Largest Abelian subgroup         C1      NOp   1
 Largest concise Abelian subgroup C1      NOp   1
                         Standard orientation:                         
 ---------------------------------------------------------------------
 Center     Atomic      Atomic             Coordinates (Angstroms)
 Number     Number       Type             X           Y           Z
 ---------------------------------------------------------------------
      1          8           0        2.227633    0.653620    0.195928
      2          8           0        1.657230   -0.432904   -0.406232
      3          6           0       -1.841616   -0.302362    0.134074
      4          6           0       -0.594373   -1.168090    0.095369
      5          6           0       -1.563990    1.177981   -0.126372
      6          1           0       -2.328345   -0.403824    1.106432
      7          1           0       -2.554390   -0.661247   -0.612429
      8          1           0        0.523745   -0.414150   -0.138622
      9          1           0       -0.357279   -1.685726    1.022588
     10          1           0       -0.525287   -1.850282   -0.749656
     11          1           0       -0.866078    1.580857    0.609181
     12          1           0       -2.482151    1.763220   -0.077043
     13          1           0       -1.121626    1.324649   -1.112418
     14          1           0        2.632378    0.335606    1.015969
 ---------------------------------------------------------------------
 Rotational constants (GHZ):           7.4109512           2.1542782           1.7825850
 Leave Link  202 at Thu Sep  5 10:27:06 2019, MaxMem=   671088640 cpu:               2.6 elap:               2.6
 (Enter /shared/centos7/gaussian/g16/l301.exe)
 Standard basis: CC-pVTZ (5D, 7F)
 Ernie: Thresh=  0.10000D-02 Tol=  0.10000D-05 Strict=F.
 Ernie:  15 primitive shells out of 202 were deleted.
 There are   310 symmetry adapted cartesian basis functions of A   symmetry.
 There are   276 symmetry adapted basis functions of A   symmetry.
[...]
  Beta virt. eigenvalues --    1.18776   1.19878   1.21166   1.23169   1.24675
  Beta virt. eigenvalues --    1.26772   1.29763   1.32166   1.34269   1.35045
  Beta virt. eigenvalues --    1.36729   1.38382   1.41085   1.43361   1.46557
  Beta virt. eigenvalues --    1.47802   1.50727   1.53463   1.54924   1.56871
  Beta virt. eigenvalues --    1.58419   1.61779   1.62652   1.63317   1.71599
  Beta virt. eigenvalues --    1.77752   1.81622   1.92999   1.95551   2.05752
  Beta virt. eigenvalues --    2.11836   2.18848   2.19672   2.23291   2.28193
  Beta virt. eigenvalues --    2.31076   2.36099   2.38103   2.40920   2.43094
  Beta virt. eigenvalues --    2.47299   2.51092   2.53002   2.54722   2.57890
  Beta virt. eigenvalues --    2.61174   2.63761   2.66115   2.67797   2.71537
  Beta virt. eigenvalues --    2.73889   2.75873   2.81089   2.82557   2.84310
  Beta virt. eigenvalues --    2.88074   2.89829   2.92946   2.96561   3.00157
  Beta virt. eigenvalues --    3.03408   3.04327   3.06054   3.06776   3.08080
  Beta virt. eigenvalues --    3.09669   3.11506   3.13519   3.15581   3.17222
  Beta virt. eigenvalues --    3.20609   3.22539   3.22679   3.24814   3.26563
  Beta virt. eigenvalues --    3.27856   3.32270   3.33909   3.34662   3.35268
  Beta virt. eigenvalues --    3.37628   3.41986   3.44163   3.45875   3.46785
  Beta virt. eigenvalues --    3.48770   3.49709   3.53022   3.53674   3.57480
  Beta virt. eigenvalues --    3.59190   3.63930   3.67366   3.69461   3.71807
  Beta virt. eigenvalues --    3.72699   3.73873   3.75849   3.77948   3.79597
  Beta virt. eigenvalues --    3.80216   3.81406   3.83721   3.85431   3.86373
  Beta virt. eigenvalues --    3.90764   3.91808   3.93045   3.95375   3.97448
  Beta virt. eigenvalues --    3.99812   4.00273   4.03617   4.04774   4.05638
  Beta virt. eigenvalues --    4.08103   4.08895   4.11632   4.13021   4.15159
  Beta virt. eigenvalues --    4.17002   4.19227   4.22842   4.24900   4.26223
  Beta virt. eigenvalues --    4.27524   4.32372   4.33474   4.34653   4.40364
  Beta virt. eigenvalues --    4.44255   4.47886   4.53013   4.57818   4.58958
  Beta virt. eigenvalues --    4.62893   4.71272   4.73284   4.75469   4.79808
  Beta virt. eigenvalues --    4.81949   4.84658   4.86484   4.88995   4.90189
  Beta virt. eigenvalues --    4.94206   4.97793   5.01462   5.03205   5.05061
  Beta virt. eigenvalues --    5.09855   5.11705   5.14519   5.17410   5.19953
  Beta virt. eigenvalues --    5.22985   5.30222   5.31165   5.32488   5.36577
  Beta virt. eigenvalues --    5.39465   5.42637   5.45547   5.48935   5.50353
  Beta virt. eigenvalues --    5.57578   5.59710   5.79540   5.80736   5.82200
  Beta virt. eigenvalues --    5.86362   5.90003   5.95892   6.08899   6.20921
  Beta virt. eigenvalues --    6.34750   6.37142   6.39577   6.48691   6.56140
  Beta virt. eigenvalues --    6.61332   6.63320   6.71496   6.72654   6.86899
  Beta virt. eigenvalues --    6.91607   7.15729   7.20441   7.45875   7.60762
  Beta virt. eigenvalues --    9.97430  11.27518  12.25949  12.84679  13.47119
          Condensed to atoms (all electrons):
               1          2          3          4          5          6
     1  O    7.899074   0.058027  -0.018048   0.006432  -0.000133   0.017538
     2  O    0.058027   8.099630   0.016486  -0.101994  -0.007058  -0.007603
     3  C   -0.018048   0.016486   5.041581   0.284009   0.312358   0.403898
     4  C    0.006432  -0.101994   0.284009   5.347608  -0.057343  -0.040455
     5  C   -0.000133  -0.007058   0.312358  -0.057343   4.942139  -0.034518
     6  H    0.017538  -0.007603   0.403898  -0.040455  -0.034518   0.542735
     7  H   -0.000358   0.000472   0.395448  -0.039122  -0.036145  -0.036323
     8  H   -0.032371   0.195775  -0.023089   0.227403   0.002080  -0.001062
     9  H    0.007751  -0.001945  -0.043782   0.392804   0.006382  -0.003863
    10  H    0.001404   0.000362  -0.036109   0.379400  -0.004514   0.007096
    11  H   -0.000618   0.011777  -0.038059  -0.000733   0.399711  -0.006713
    12  H   -0.000032  -0.000032  -0.036579   0.007792   0.405067  -0.004837
    13  H   -0.000028   0.000208  -0.040426  -0.005303   0.402562   0.006825
    14  H    0.306258  -0.030193   0.001479  -0.002432  -0.000068  -0.001180
               7          8          9         10         11         12
     1  O   -0.000358  -0.032371   0.007751   0.001404  -0.000618  -0.000032
     2  O    0.000472   0.195775  -0.001945   0.000362   0.011777  -0.000032
     3  C    0.395448  -0.023089  -0.043782  -0.036109  -0.038059  -0.036579
     4  C   -0.039122   0.227403   0.392804   0.379400  -0.000733   0.007792
     5  C   -0.036145   0.002080   0.006382  -0.004514   0.399711   0.405067
     6  H   -0.036323  -0.001062  -0.003863   0.007096  -0.006713  -0.004837
     7  H    0.597172   0.002891  -0.003383  -0.004508   0.007863  -0.004810
     8  H    0.002891   0.420338  -0.017299  -0.009831  -0.001496   0.000051
     9  H   -0.003383  -0.017299   0.530622  -0.023185   0.000290  -0.000375
    10  H   -0.004508  -0.009831  -0.023185   0.546421  -0.000126  -0.000193
    11  H    0.007863  -0.001496   0.000290  -0.000126   0.570797  -0.028025
    12  H   -0.004810   0.000051  -0.000375  -0.000193  -0.028025   0.585928
    13  H   -0.006643  -0.000755  -0.000004   0.003720  -0.039797  -0.034332
    14  H    0.000008  -0.004570   0.001457  -0.000049   0.000130   0.000001
              13         14
     1  O   -0.000028   0.306258
     2  O    0.000208  -0.030193
     3  C   -0.040426   0.001479
     4  C   -0.005303  -0.002432
     5  C    0.402562  -0.000068
     6  H    0.006825  -0.001180
     7  H   -0.006643   0.000008
     8  H   -0.000755  -0.004570
     9  H   -0.000004   0.001457
    10  H    0.003720  -0.000049
    11  H   -0.039797   0.000130
    12  H   -0.034332   0.000001
    13  H    0.613382   0.000007
    14  H    0.000007   0.461021
          Atomic-Atomic Spin Densities.
               1          2          3          4          5          6
     1  O    0.047417  -0.037873  -0.002778   0.018758  -0.000170  -0.001450
     2  O   -0.037873   0.535186   0.013178  -0.117144   0.001708   0.002762
     3  C   -0.002778   0.013178  -0.030903  -0.054413   0.007567   0.005511
     4  C    0.018758  -0.117144  -0.054413   0.811219  -0.004391  -0.006561
     5  C   -0.000170   0.001708   0.007567  -0.004391   0.001341   0.001842
     6  H   -0.001450   0.002762   0.005511  -0.006561   0.001842   0.013163
     7  H    0.000381  -0.001135   0.011822  -0.017916  -0.002361  -0.005764
     8  H    0.008700  -0.037308  -0.002882   0.068573  -0.001373  -0.000769
     9  H   -0.002355   0.003869   0.003982  -0.006729  -0.000199   0.000770
    10  H   -0.000346   0.002767   0.004997  -0.006705   0.000516   0.000178
    11  H    0.000159  -0.002695  -0.002558   0.004412  -0.000443  -0.000728
    12  H    0.000007  -0.000041   0.000120   0.000216  -0.000451  -0.000175
    13  H   -0.000010   0.000141   0.000986  -0.000603   0.000304   0.000227
    14  H    0.000619  -0.001200  -0.000079  -0.000133   0.000010   0.000012
               7          8          9         10         11         12
     1  O    0.000381   0.008700  -0.002355  -0.000346   0.000159   0.000007
     2  O   -0.001135  -0.037308   0.003869   0.002767  -0.002695  -0.000041
     3  C    0.011822  -0.002882   0.003982   0.004997  -0.002558   0.000120
     4  C   -0.017916   0.068573  -0.006729  -0.006705   0.004412   0.000216
     5  C   -0.002361  -0.001373  -0.000199   0.000516  -0.000443  -0.000451
     6  H   -0.005764  -0.000769   0.000770   0.000178  -0.000728  -0.000175
     7  H    0.054299   0.000599  -0.001460  -0.001833   0.000796   0.000527
     8  H    0.000599  -0.063699   0.002363  -0.000126   0.001721   0.000053
     9  H   -0.001460   0.002363  -0.036260   0.004071  -0.000182   0.000014
    10  H   -0.001833  -0.000126   0.004071  -0.034558  -0.000463  -0.000040
    11  H    0.000796   0.001721  -0.000182  -0.000463   0.001966   0.000350
    12  H    0.000527   0.000053   0.000014  -0.000040   0.000350   0.000025
    13  H   -0.001087  -0.000179   0.000047   0.000402  -0.001032  -0.000174
    14  H    0.000001   0.000624  -0.000175  -0.000006  -0.000019  -0.000000
              13         14
     1  O   -0.000010   0.000619
     2  O    0.000141  -0.001200
     3  C    0.000986  -0.000079
     4  C   -0.000603  -0.000133
     5  C    0.000304   0.000010
     6  H    0.000227   0.000012
     7  H   -0.001087   0.000001
     8  H   -0.000179   0.000624
     9  H    0.000047  -0.000175
    10  H    0.000402  -0.000006
    11  H   -0.001032  -0.000019
    12  H   -0.000174  -0.000000
    13  H    0.001398   0.000000
    14  H    0.000000  -0.000890
 Mulliken charges and spin densities:
               1          2
     1  O   -0.244896   0.031059
     2  O   -0.233913   0.362215
     3  C   -0.219167  -0.045448
     4  C   -0.398066   0.688584
     5  C   -0.330522   0.003899
     6  H    0.158461   0.009017
     7  H    0.127438   0.036868
     8  H    0.241936  -0.023704
     9  H    0.154531  -0.032244
    10  H    0.140113  -0.031146
    11  H    0.124999   0.001284
    12  H    0.110374   0.000432
    13  H    0.100582   0.000419
    14  H    0.268130  -0.001235
 Sum of Mulliken charges =  -0.00000   1.00000
 Mulliken charges and spin densities with hydrogens summed into heavy atoms:
               1          2
     1  O    0.023234   0.029824
     2  O    0.008023   0.338511
     3  C    0.066732   0.000437
     4  C   -0.103421   0.625194
     5  C    0.005432   0.006034
 Electronic spatial extent (au):  <R**2>=            587.3576
 Charge=             -0.0000 electrons
 Dipole moment (field-independent basis, Debye):
    X=              0.0574    Y=             -1.9128    Z=             -0.1463  Tot=              1.9192
 Quadrupole moment (field-independent basis, Debye-Ang):
   XX=            -27.8332   YY=            -33.2153   ZZ=            -33.5762
   XY=             -2.9915   XZ=              0.1641   YZ=              0.5482
 Traceless Quadrupole moment (field-independent basis, Debye-Ang):
   XX=              3.7084   YY=             -1.6737   ZZ=             -2.0347
   XY=             -2.9915   XZ=              0.1641   YZ=              0.5482
 Octapole moment (field-independent basis, Debye-Ang**2):
  XXX=             36.9555  YYY=              1.5636  ZZZ=             -0.2469  XYY=              4.8125
  XXY=             -6.8444  XXZ=              2.1391  XZZ=              1.9481  YZZ=             -0.0763
  YYZ=              0.6523  XYZ=             -0.8959
 Hexadecapole moment (field-independent basis, Debye-Ang**3):
 XXXX=           -412.7693 YYYY=           -160.3630 ZZZZ=           -104.0824 XXXY=            -12.1049
 XXXZ=              5.9551 YYYX=              1.6324 YYYZ=             -1.6475 ZZZX=              2.7536
 ZZZY=              0.4610 XXYY=           -108.0815 XXZZ=           -100.6233 YYZZ=            -43.4153
 XXYZ=              0.1861 YYXZ=             -0.0443 ZZXY=              0.7978
 N-N= 1.904188649620D+02 E-N=-1.013004375031D+03  KE= 2.685187023276D+02
                          Isotropic Fermi Contact Couplings
        Atom                 a.u.       MegaHertz       Gauss      10(-4) cm-1
     1  O(17)              0.00151      -0.91429      -0.32624      -0.30498
     2  O(17)              0.10851     -65.77927     -23.47168     -21.94160
     3  C(13)             -0.01655     -18.60333      -6.63813      -6.20540
     4  C(13)              0.17431     195.96311      69.92451      65.36626
     5  C(13)              0.00509       5.71991       2.04101       1.90796
     6  H(1)               0.00448      20.01790       7.14289       6.67725
     7  H(1)               0.01898      84.82199      30.26659      28.29357
     8  H(1)              -0.02881    -128.77221     -45.94913     -42.95378
     9  H(1)              -0.00626     -27.97711      -9.98293      -9.33216
    10  H(1)              -0.00425     -19.00418      -6.78116      -6.33911
    11  H(1)              -0.00008      -0.35261      -0.12582      -0.11762
    12  H(1)              -0.00032      -1.44093      -0.51416      -0.48064
    13  H(1)              -0.00011      -0.50802      -0.18127      -0.16946
    14  H(1)              -0.00065      -2.88704      -1.03017      -0.96301
 --------------------------------------------------------
       Center         ----  Spin Dipole Couplings  ----
                      3XX-RR        3YY-RR        3ZZ-RR
 --------------------------------------------------------
     1   Atom        0.059480      0.103295     -0.162774
     2   Atom        0.072928      0.826687     -0.899615
     3   Atom        0.010478     -0.006133     -0.004345
     4   Atom        0.084663      0.155199     -0.239862
     5   Atom        0.004263      0.002079     -0.006341
     6   Atom       -0.005578     -0.003776      0.009355
     7   Atom        0.002197     -0.003145      0.000947
     8   Atom        0.049979      0.043560     -0.093539
     9   Atom        0.014595      0.016055     -0.030650
    10   Atom       -0.010617     -0.022447      0.033064
    11   Atom        0.001678      0.004611     -0.006289
    12   Atom        0.001561      0.000687     -0.002248
    13   Atom        0.005438     -0.001447     -0.003991
    14   Atom        0.012370     -0.003272     -0.009097
 --------------------------------------------------------
                        XY            XZ            YZ
 --------------------------------------------------------
     1   Atom        0.200261      0.034000      0.086983
     2   Atom        1.313543      0.009020      0.001523
     3   Atom        0.009599     -0.017497     -0.004373
     4   Atom        0.488279     -0.238791     -0.260369
     5   Atom       -0.010509      0.000095     -0.001007
     6   Atom        0.000281     -0.004849      0.007123
     7   Atom        0.001988     -0.010634     -0.000827
     8   Atom        0.164144     -0.007618     -0.002540
     9   Atom       -0.022409      0.016138     -0.032872
    10   Atom        0.028828      0.030363      0.008776
    11   Atom       -0.006437     -0.000198     -0.000461
    12   Atom       -0.003342     -0.001876      0.001209
    13   Atom       -0.004559      0.001674     -0.001128
    14   Atom       -0.008356      0.006823     -0.000063
 --------------------------------------------------------


 ---------------------------------------------------------------------------------
              Anisotropic Spin Dipole Couplings in Principal Axis System
 ---------------------------------------------------------------------------------

       Atom             a.u.   MegaHertz   Gauss  10(-4) cm-1        Axes

              Baa    -0.1935    13.998     4.995     4.669  0.1889 -0.3914  0.9006
     1 O(17)  Bbb    -0.1060     7.672     2.738     2.559  0.7406 -0.5455 -0.3924
              Bcc     0.2995   -21.670    -7.733    -7.228  0.6449  0.7411  0.1869
 
              Baa    -0.9188    66.483    23.723    22.176  0.7593 -0.5712 -0.3117
     2 O(17)  Bbb    -0.8976    64.947    23.175    21.664  0.2476 -0.1894  0.9502
              Bcc     1.8164  -131.431   -46.898   -43.841  0.6018  0.7987  0.0024
 
              Baa    -0.0163    -2.188    -0.781    -0.730  0.5874 -0.2194  0.7790
     3 C(13)  Bbb    -0.0092    -1.234    -0.440    -0.412 -0.1313  0.9240  0.3592
              Bcc     0.0255     3.423     1.221     1.142  0.7985  0.3133 -0.5140
 
              Baa    -0.3712   -49.810   -17.774   -16.615 -0.4835  0.7051  0.5188
     4 C(13)  Bbb    -0.3660   -49.117   -17.526   -16.384  0.5972 -0.1676  0.7844
              Bcc     0.7372    98.928    35.300    32.999  0.6400  0.6890 -0.3400
 
              Baa    -0.0077    -1.038    -0.370    -0.346  0.5874  0.6748  0.4469
     5 C(13)  Bbb    -0.0060    -0.809    -0.289    -0.270 -0.3244 -0.3095  0.8938
              Bcc     0.0138     1.847     0.659     0.616  0.7414 -0.6700  0.0371
 
              Baa    -0.0089    -4.744    -1.693    -1.582  0.6647 -0.6191  0.4183
     6 H(1)   Bbb    -0.0046    -2.444    -0.872    -0.815  0.7127  0.6933 -0.1064
              Bcc     0.0135     7.188     2.565     2.398 -0.2242  0.3689  0.9020
 
              Baa    -0.0092    -4.898    -1.748    -1.634  0.6891 -0.1293  0.7131
     7 H(1)   Bbb    -0.0033    -1.764    -0.629    -0.588 -0.0038  0.9833  0.1819
              Bcc     0.0125     6.661     2.377     2.222  0.7247  0.1280 -0.6771
 
              Baa    -0.1179   -62.915   -22.450   -20.986 -0.6951  0.7043 -0.1438
     8 H(1)   Bbb    -0.0932   -49.726   -17.744   -16.587 -0.0840  0.1192  0.9893
              Bcc     0.2111   112.641    40.193    37.573  0.7140  0.6998 -0.0237
 
              Baa    -0.0479   -25.573    -9.125    -8.530 -0.0759  0.4345  0.8975
     9 H(1)   Bbb    -0.0048    -2.542    -0.907    -0.848  0.8081  0.5541 -0.1999
              Bcc     0.0527    28.115    10.032     9.378 -0.5842  0.7100 -0.3932
 
              Baa    -0.0482   -25.736    -9.183    -8.585 -0.6857  0.7053  0.1800
    10 H(1)   Bbb    -0.0065    -3.489    -1.245    -1.164  0.5259  0.6510 -0.5474
              Bcc     0.0548    29.225    10.428     9.748  0.5032  0.2807  0.8173
 
              Baa    -0.0064    -3.394    -1.211    -1.132  0.1086  0.1052  0.9885
    11 H(1)   Bbb    -0.0034    -1.808    -0.645    -0.603  0.7745  0.6144 -0.1505
              Bcc     0.0097     5.202     1.856     1.735 -0.6232  0.7819 -0.0148
 
              Baa    -0.0030    -1.618    -0.577    -0.540  0.4419  0.1075  0.8906
    12 H(1)   Bbb    -0.0021    -1.132    -0.404    -0.378  0.5236  0.7753 -0.3534
              Bcc     0.0052     2.750     0.981     0.917  0.7284 -0.6224 -0.2863
 
              Baa    -0.0044    -2.358    -0.842    -0.787  0.0179  0.3786  0.9254
    13 H(1)   Bbb    -0.0036    -1.932    -0.689    -0.644  0.4721  0.8127 -0.3416
              Bcc     0.0080     4.290     1.531     1.431  0.8814 -0.4430  0.1642
 
              Baa    -0.0119    -6.359    -2.269    -2.121 -0.3616 -0.3431  0.8669
    14 H(1)   Bbb    -0.0056    -2.976    -1.062    -0.993  0.2355  0.8660  0.4410
              Bcc     0.0175     9.335     3.331     3.114  0.9021 -0.3637  0.2323
 

 ---------------------------------------------------------------------------------

 No NMR shielding tensors so no spin-rotation constants.
 Leave Link  601 at Thu Sep  5 17:08:33 2019, MaxMem=   671088640 cpu:              90.8 elap:              72.3
 (Enter /shared/centos7/gaussian/g16/l9999.exe)
 1\1\GINC-C0111\FOpt\UM062X\CC-pVTZ\C3H9O2(2)\HARMS.N\05-Sep-2019\0\\#p
  m062x/cc-pVTZ Opt=(ModRedun,Loose,maxcycles=900) Int(Grid=SG1) scf=(m
 axcycle=900)\\Gaussian input prepared by ASE\\0,2\O,-1.1857290975,-1.5
 748175935,2.9574069216\O,-0.1012619559,-1.9081842323,3.7660413922\C,0.
 9599153101,0.6995949042,2.9964048946\C,1.3970869915,-0.5971149265,2.38
 84108766\C,1.5525618484,0.9253978626,4.3818309231\H,-0.12972998,0.7245
 407866,3.0366798279\H,1.2625010325,1.5132498682,2.3276560373\H,0.83799
 74362,-1.5789393696,3.1609424956\H,0.9375889082,-0.8651317811,1.440724
 5748\H,2.4633326236,-0.8112345255,2.4378039755\H,1.227577804,0.1377132
 281,5.0601135584\H,1.2409029707,1.882297314,4.7955788493\H,2.642654060
 8,0.9125448757,4.3438550981\H,-1.359308142,-2.3945136272,2.4793076567\
 \Version=EM64L-G16RevA.03\State=2-A\HF=-269.9807133\S2=0.759786\S2-1=0
 .\S2A=0.750048\RMSD=5.198e-09\RMSF=2.992e-03\Dipole=0.2698165,-0.09993
 15,-0.6981141\Quadrupole=-0.3644107,0.989364,-0.6249532,1.4938625,1.41
 65261,2.4202551\PG=C01 [X(C3H9O2)]\\@


 THE FIRST MORNING OF CREATION WROTE WHAT THE LAST DAWN OF
 RECKONING SHALL READ. -- OMAR KHAYYAM
 Job cpu time:       0 days 13 hours 45 minutes 17.9 seconds.
 Elapsed time:       0 days  7 hours  1 minutes 37.9 seconds.
 File lengths (MBytes):  RWF=    304 Int=      0 D2E=      0 Chk=     32 Scr=     32
 Normal termination of Gaussian 16 at Thu Sep  5 17:08:34 2019.
