 Entering Gaussian System, Link 0=g16
 Input=med/ts/CCC+[O]O_[CH2]CC+OO/conformers/CCC+[O]O_[CH2]CC+OO_forward_shell_4.com
 Output=med/ts/CCC+[O]O_[CH2]CC+OO/conformers/CCC+[O]O_[CH2]CC+OO_forward_shell_4.log
 Initial command:
 /shared/centos7/gaussian/g16/l1.exe "/scratch/harms.n/gauss_scrdir/Gau-35349.inp" -scrdir="/scratch/harms.n/gauss_scrdir/"
 Entering Link 1 = /shared/centos7/gaussian/g16/l1.exe PID=     35350.
  
 Copyright (c) 1988,1990,1992,1993,1995,1998,2003,2009,2016,
            Gaussian, Inc.  All Rights Reserved.
  
 This is part of the Gaussian(R) 16 program.  It is based on
 the Gaussian(R) 09 system (copyright 2009, Gaussian, Inc.),
 the Gaussian(R) 03 system (copyright 2003, Gaussian, Inc.),
 the Gaussian(R) 98 system (copyright 1998, Gaussian, Inc.),
 the Gaussian(R) 94 system (copyright 1995, Gaussian, Inc.),
 the Gaussian 92(TM) system (copyright 1992, Gaussian, Inc.),
 the Gaussian 90(TM) system (copyright 1990, Gaussian, Inc.),
 the Gaussian 88(TM) system (copyright 1988, Gaussian, Inc.),
 the Gaussian 86(TM) system (copyright 1986, Carnegie Mellon
 University), and the Gaussian 82(TM) system (copyright 1983,
 Carnegie Mellon University). Gaussian is a federally registered
 trademark of Gaussian, Inc.
  
 This software contains proprietary and confidential information,
 including trade secrets, belonging to Gaussian, Inc.
  
 This software is provided under written license and may be
 used, copied, transmitted, or stored only in accord with that
 written license.
  
 The following legend is applicable only to US Government
 contracts under FAR:
  
                    RESTRICTED RIGHTS LEGEND
  
 Use, reproduction and disclosure by the US Government is
 subject to restrictions as set forth in subparagraphs (a)
 and (c) of the Commercial Computer Software - Restricted
 Rights clause in FAR 52.227-19.
  
 Gaussian, Inc.
 340 Quinnipiac St., Bldg. 40, Wallingford CT 06492
  
  
 ---------------------------------------------------------------
 Warning -- This program may not be used in any manner that
 competes with the business of Gaussian, Inc. or will provide
 assistance to any competitor of Gaussian, Inc.  The licensee
 of this program is prohibited from giving any competitor of
 Gaussian, Inc. access to this program.  By using this program,
 the user acknowledges that Gaussian, Inc. is engaged in the
 business of creating and licensing software in the field of
 computational chemistry and represents and warrants to the
 licensee that it is not a competitor of Gaussian, Inc. and that
 it will not use this program in any manner prohibited above.
 ---------------------------------------------------------------
  

 Cite this work as:
 Gaussian 16, Revision A.03,
 M. J. Frisch, G. W. Trucks, H. B. Schlegel, G. E. Scuseria, 
 M. A. Robb, J. R. Cheeseman, G. Scalmani, V. Barone, 
 G. A. Petersson, H. Nakatsuji, X. Li, M. Caricato, A. V. Marenich, 
 J. Bloino, B. G. Janesko, R. Gomperts, B. Mennucci, H. P. Hratchian, 
 J. V. Ortiz, A. F. Izmaylov, J. L. Sonnenberg, D. Williams-Young, 
 F. Ding, F. Lipparini, F. Egidi, J. Goings, B. Peng, A. Petrone, 
 T. Henderson, D. Ranasinghe, V. G. Zakrzewski, J. Gao, N. Rega, 
 G. Zheng, W. Liang, M. Hada, M. Ehara, K. Toyota, R. Fukuda, 
 J. Hasegawa, M. Ishida, T. Nakajima, Y. Honda, O. Kitao, H. Nakai, 
 T. Vreven, K. Throssell, J. A. Montgomery, Jr., J. E. Peralta, 
 F. Ogliaro, M. J. Bearpark, J. J. Heyd, E. N. Brothers, K. N. Kudin, 
 V. N. Staroverov, T. A. Keith, R. Kobayashi, J. Normand, 
 K. Raghavachari, A. P. Rendell, J. C. Burant, S. S. Iyengar, 
 J. Tomasi, M. Cossi, J. M. Millam, M. Klene, C. Adamo, R. Cammi, 
 J. W. Ochterski, R. L. Martin, K. Morokuma, O. Farkas, 
 J. B. Foresman, and D. J. Fox, Gaussian, Inc., Wallingford CT, 2016.
 
 ******************************************
 Gaussian 16:  EM64L-G16RevA.03 25-Dec-2016
                 5-Sep-2019 
 ******************************************
 %nprocshared=20
 Will use up to   20 processors via shared memory.
 %mem=5GB
 ----------------------------------------------------------------------
 #p m062x/cc-pVTZ Opt=(ModRedun,Loose,maxcycles=900) Int(Grid=SG1) scf=
 (maxcycle=900)
 ----------------------------------------------------------------------
 1/6=900,7=-1,18=120,19=15,26=2,38=1/1,3;
 2/9=110,12=2,17=6,18=5,40=1/2;
 3/5=16,6=1,11=2,25=1,30=1,71=1,74=-55,75=1/1,2,3;
 4//1;
 5/5=2,7=900,38=5/2;
 6/7=2,8=2,9=2,10=2,28=1/1;
 7//1,2,3,16;
 1/6=900,7=-1,18=20,19=15,26=2/3(2);
 2/9=110/2;
 99//99;
 2/9=110/2;
 3/5=16,6=1,11=2,25=1,30=1,71=1,74=-55,75=1/1,2,3;
 4/5=5,16=3,69=1/1;
 5/5=2,7=900,38=5/2;
 7//1,2,3,16;
 1/6=900,7=-1,18=20,19=15,26=2/3(-5);
 2/9=110/2;
 6/7=2,8=2,9=2,10=2,19=2,28=1/1;
 99/9=1/99;
 Leave Link    1 at Thu Sep  5 11:07:24 2019, MaxMem=   671088640 cpu:               4.8 elap:               2.4
 (Enter /shared/centos7/gaussian/g16/l101.exe)
 ------------------------------
 Gaussian input prepared by ASE
 ------------------------------
 Symbolic Z-matrix:
 Charge =  0 Multiplicity = 2
 O                     1.46304  -0.92411   5.10151 
 O                     1.86417  -1.73531   4.14601 
 C                     3.39697   0.75757   2.2035 
 C                     2.19709  -0.17479   2.32509 
 C                     4.36905   0.6834    3.3769 
 H                     3.03728   1.80462   2.10958 
 H                     3.95011   0.51484   1.27108 
 H                     2.38335  -1.03766   3.37109 
 H                     1.25501   0.35728   2.57725 
 H                     2.04615  -0.80912   1.42565 
 H                     3.90122   1.05334   4.31421 
 H                     5.26684   1.30382   3.17194 
 H                     4.701    -0.36377   3.54234 
 H                     0.50594  -0.77727   4.89427 
 
 Add virtual bond connecting atoms H8         and O2         Dist= 2.20D+00.
 Add virtual bond connecting atoms H8         and C4         Dist= 2.59D+00.
 The following ModRedundant input section has been read:
 B       4       8 F                                                           
 B       2       8 F                                                           
 A       2       8       4 F                                                   
 
 ITRead=  0  0  0  0  0  0  0  0  0  0  0  0  0  0
 MicOpt= -1 -1 -1 -1 -1 -1 -1 -1 -1 -1 -1 -1 -1 -1
 NAtoms=     14 NQM=       14 NQMF=       0 NMMI=      0 NMMIF=      0
                NMic=       0 NMicF=      0.
                    Isotopes and Nuclear Properties:
 (Nuclear quadrupole moments (NQMom) in fm**2, nuclear magnetic moments (NMagM)
  in nuclear magnetons)

  Atom         1           2           3           4           5           6           7           8           9          10
 IAtWgt=          16          16          12          12          12           1           1           1           1           1
 AtmWgt=  15.9949146  15.9949146  12.0000000  12.0000000  12.0000000   1.0078250   1.0078250   1.0078250   1.0078250   1.0078250
 NucSpn=           0           0           0           0           0           1           1           1           1           1
 AtZEff=  -0.0000000  -0.0000000  -0.0000000  -0.0000000  -0.0000000  -0.0000000  -0.0000000  -0.0000000  -0.0000000  -0.0000000
 NQMom=    0.0000000   0.0000000   0.0000000   0.0000000   0.0000000   0.0000000   0.0000000   0.0000000   0.0000000   0.0000000
 NMagM=    0.0000000   0.0000000   0.0000000   0.0000000   0.0000000   2.7928460   2.7928460   2.7928460   2.7928460   2.7928460
 AtZNuc=   8.0000000   8.0000000   6.0000000   6.0000000   6.0000000   1.0000000   1.0000000   1.0000000   1.0000000   1.0000000

  Atom        11          12          13          14
 IAtWgt=           1           1           1           1
 AtmWgt=   1.0078250   1.0078250   1.0078250   1.0078250
 NucSpn=           1           1           1           1
 AtZEff=  -0.0000000  -0.0000000  -0.0000000  -0.0000000
 NQMom=    0.0000000   0.0000000   0.0000000   0.0000000
 NMagM=    2.7928460   2.7928460   2.7928460   2.7928460
 AtZNuc=   1.0000000   1.0000000   1.0000000   1.0000000
 Leave Link  101 at Thu Sep  5 11:07:28 2019, MaxMem=   671088640 cpu:               8.0 elap:               4.0
 (Enter /shared/centos7/gaussian/g16/l103.exe)

 GradGradGradGradGradGradGradGradGradGradGradGradGradGradGradGradGradGrad
 Berny optimization.
 Initialization pass.
                           ----------------------------
                           !    Initial Parameters    !
                           ! (Angstroms and Degrees)  !
 --------------------------                            --------------------------
 ! Name  Definition              Value          Derivative Info.                !
 --------------------------------------------------------------------------------
 ! R1    R(1,2)                  1.316          estimate D2E/DX2                !
 ! R2    R(1,14)                 0.9902         estimate D2E/DX2                !
 ! R3    R(2,8)                  1.1648         Frozen                          !
 ! R4    R(3,4)                  1.5244         estimate D2E/DX2                !
 ! R5    R(3,5)                  1.5255         estimate D2E/DX2                !
 ! R6    R(3,6)                  1.1111         estimate D2E/DX2                !
 ! R7    R(3,7)                  1.111          estimate D2E/DX2                !
 ! R8    R(4,8)                  1.3687         Frozen                          !
 ! R9    R(4,9)                  1.1109         estimate D2E/DX2                !
 ! R10   R(4,10)                 1.1109         estimate D2E/DX2                !
 ! R11   R(5,11)                 1.111          estimate D2E/DX2                !
 ! R12   R(5,12)                 1.1104         estimate D2E/DX2                !
 ! R13   R(5,13)                 1.1109         estimate D2E/DX2                !
 ! A1    A(2,1,14)             103.5358         estimate D2E/DX2                !
 ! A2    A(1,2,8)              104.4593         estimate D2E/DX2                !
 ! A3    A(4,3,5)              114.2342         estimate D2E/DX2                !
 ! A4    A(4,3,6)              109.1658         estimate D2E/DX2                !
 ! A5    A(4,3,7)              108.9774         estimate D2E/DX2                !
 ! A6    A(5,3,6)              108.4887         estimate D2E/DX2                !
 ! A7    A(5,3,7)              108.5221         estimate D2E/DX2                !
 ! A8    A(6,3,7)              107.2251         estimate D2E/DX2                !
 ! A9    A(3,4,8)              109.8417         estimate D2E/DX2                !
 ! A10   A(3,4,9)              113.1199         estimate D2E/DX2                !
 ! A11   A(3,4,10)             113.0544         estimate D2E/DX2                !
 ! A12   A(8,4,9)              104.1148         estimate D2E/DX2                !
 ! A13   A(8,4,10)             106.0966         estimate D2E/DX2                !
 ! A14   A(9,4,10)             110.0001         estimate D2E/DX2                !
 ! A15   A(3,5,11)             111.3716         estimate D2E/DX2                !
 ! A16   A(3,5,12)             110.2466         estimate D2E/DX2                !
 ! A17   A(3,5,13)             110.5346         estimate D2E/DX2                !
 ! A18   A(11,5,12)            108.0684         estimate D2E/DX2                !
 ! A19   A(11,5,13)            108.3042         estimate D2E/DX2                !
 ! A20   A(12,5,13)            108.2145         estimate D2E/DX2                !
 ! A21   A(2,8,4)              145.6251         Frozen                          !
 ! D1    D(14,1,2,8)            98.8176         estimate D2E/DX2                !
 ! D2    D(1,2,8,4)            -81.449          estimate D2E/DX2                !
 ! D3    D(5,3,4,8)            -10.0798         estimate D2E/DX2                !
 ! D4    D(5,3,4,9)            105.7666         estimate D2E/DX2                !
 ! D5    D(5,3,4,10)          -128.3685         estimate D2E/DX2                !
 ! D6    D(6,3,4,8)           -131.7226         estimate D2E/DX2                !
 ! D7    D(6,3,4,9)            -15.8762         estimate D2E/DX2                !
 ! D8    D(6,3,4,10)           109.9888         estimate D2E/DX2                !
 ! D9    D(7,3,4,8)            111.4666         estimate D2E/DX2                !
 ! D10   D(7,3,4,9)           -132.6871         estimate D2E/DX2                !
 ! D11   D(7,3,4,10)            -6.8221         estimate D2E/DX2                !
 ! D12   D(4,3,5,11)           -66.0534         estimate D2E/DX2                !
 ! D13   D(4,3,5,12)           173.991          estimate D2E/DX2                !
 ! D14   D(4,3,5,13)            54.3919         estimate D2E/DX2                !
 ! D15   D(6,3,5,11)            55.9614         estimate D2E/DX2                !
 ! D16   D(6,3,5,12)           -63.9943         estimate D2E/DX2                !
 ! D17   D(6,3,5,13)           176.4066         estimate D2E/DX2                !
 ! D18   D(7,3,5,11)           172.1497         estimate D2E/DX2                !
 ! D19   D(7,3,5,12)            52.194          estimate D2E/DX2                !
 ! D20   D(7,3,5,13)           -67.4051         estimate D2E/DX2                !
 ! D21   D(3,4,8,2)            157.337          estimate D2E/DX2                !
 ! D22   D(9,4,8,2)             35.9261         estimate D2E/DX2                !
 ! D23   D(10,4,8,2)           -80.1538         estimate D2E/DX2                !
 --------------------------------------------------------------------------------
 Trust Radius=3.00D-01 FncErr=1.00D-05 GrdErr=1.00D-04 EigMax=2.50D+02 EigMin=1.00D-04
 Number of steps in this run=    100 maximum allowed number of steps=    100.
 GradGradGradGradGradGradGradGradGradGradGradGradGradGradGradGradGradGrad

 Leave Link  103 at Thu Sep  5 11:07:29 2019, MaxMem=   671088640 cpu:               1.7 elap:               0.9
 (Enter /shared/centos7/gaussian/g16/l202.exe)
                          Input orientation:                          
 ---------------------------------------------------------------------
 Center     Atomic      Atomic             Coordinates (Angstroms)
 Number     Number       Type             X           Y           Z
 ---------------------------------------------------------------------
      1          8           0        1.463044   -0.924108    5.101515
      2          8           0        1.864174   -1.735310    4.146009
      3          6           0        3.396973    0.757573    2.203500
      4          6           0        2.197086   -0.174787    2.325087
      5          6           0        4.369052    0.683404    3.376897
      6          1           0        3.037284    1.804617    2.109575
      7          1           0        3.950105    0.514836    1.271081
      8          1           0        2.383347   -1.037658    3.371092
      9          1           0        1.255006    0.357275    2.577248
     10          1           0        2.046148   -0.809125    1.425652
     11          1           0        3.901221    1.053342    4.314207
     12          1           0        5.266843    1.303822    3.171938
     13          1           0        4.700998   -0.363765    3.542337
     14          1           0        0.505936   -0.777267    4.894266
 ---------------------------------------------------------------------
                    Distance matrix (angstroms):
                    1          2          3          4          5
     1  O    0.000000
     2  O    1.316034   0.000000
     3  C    3.868672   3.512447   0.000000
     4  C    2.967971   2.421119   1.524404   0.000000
     5  C    3.742096   3.565968   1.525549   2.561295   0.000000
     6  H    4.344637   4.249039   1.111080   2.161116   2.153330
     7  H    4.788346   4.204697   1.110983   2.158607   2.153693
     8  H    1.963215   1.164798   2.369296   1.368709   2.627758
     9  H    2.838511   2.685332   2.210870   1.110941   3.231575
    10  H    3.723601   2.879458   2.210050   1.110923   3.380959
    11  H    3.236490   3.457518   2.190166   2.892918   1.110977
    12  H    4.812050   4.665115   2.175471   3.510962   1.110386
    13  H    3.637219   3.208290   2.179533   2.790517   1.110910
    14  H    0.990238   1.822785   4.237222   3.134270   4.399958
                    6          7          8          9         10
     6  H    0.000000
     7  H    1.788813   0.000000
     8  H    3.177670   3.045491   0.000000
     9  H    2.343081   2.999076   1.961932   0.000000
    10  H    2.877803   2.324181   1.987629   1.820046   0.000000
    11  H    2.484190   3.090792   2.750579   3.240985   3.905615
    12  H    2.519989   2.443268   3.719777   4.164666   4.229296
    13  H    3.085876   2.548408   2.419703   3.650500   3.424461
    14  H    4.563809   5.163265   2.431570   2.686422   3.795333
                   11         12         13         14
    11  H    0.000000
    12  H    1.797900   0.000000
    13  H    1.801005   1.799507   0.000000
    14  H    3.900712   5.473900   4.426877   0.000000
 Stoichiometry    C3H9O2(2)
 Framework group  C1[X(C3H9O2)]
 Deg. of freedom    36
 Full point group                 C1      NOp   1
 Largest Abelian subgroup         C1      NOp   1
 Largest concise Abelian subgroup C1      NOp   1
                         Standard orientation:                         
 ---------------------------------------------------------------------
 Center     Atomic      Atomic             Coordinates (Angstroms)
 Number     Number       Type             X           Y           Z
 ---------------------------------------------------------------------
      1          8           0       -2.013537   -0.547994    0.448393
      2          8           0       -1.675464    0.094539   -0.649243
      3          6           0        1.725521    0.405661    0.171604
      4          6           0        0.395010    1.139061    0.046406
      5          6           0        1.645616   -1.090163   -0.117233
      6          1           0        2.123680    0.545262    1.199455
      7          1           0        2.456883    0.861872   -0.529298
      8          1           0       -0.538881    0.313856   -0.519500
      9          1           0       -0.045763    1.413772    1.028466
     10          1           0        0.451862    2.034667   -0.608429
     11          1           0        1.034628   -1.617808    0.646019
     12          1           0        2.662105   -1.537034   -0.113741
     13          1           0        1.190344   -1.270726   -1.114351
     14          1           0       -2.419731    0.156426    1.013521
 ---------------------------------------------------------------------
 Rotational constants (GHZ):           7.5099934           2.2700876           1.9686128
 Leave Link  202 at Thu Sep  5 11:07:31 2019, MaxMem=   671088640 cpu:               4.9 elap:               2.5
 (Enter /shared/centos7/gaussian/g16/l301.exe)
 Standard basis: CC-pVTZ (5D, 7F)
 Ernie: Thresh=  0.10000D-02 Tol=  0.10000D-05 Strict=F.
 Ernie:  15 primitive shells out of 202 were deleted.
 There are   310 symmetry adapted cartesian basis functions of A   symmetry.
 There are   276 symmetry adapted basis functions of A   symmetry.
   276 basis functions,   413 primitive gaussians,   310 cartesian basis functions
    22 alpha electrons       21 beta electrons
       nuclear repulsion energy       186.0672455473 Hartrees.
 IExCor= 4336 DFT=T Ex+Corr=M062X ExCW=0 ScaHFX=  0.540000
 ScaDFX=  1.000000  1.000000  1.000000  1.000000 ScalE2=  1.000000  1.000000
 IRadAn=      1 IRanWt=     -1 IRanGd=            0 ICorTp=0 IEmpDi=  4
 NAtoms=   14 NActive=   14 NUniq=   14 SFac= 1.00D+00 NAtFMM=   60 NAOKFM=F Big=F
 Integral buffers will be    131072 words long.
 Raffenetti 2 integral format.
 Two-electron integral symmetry is turned on.
 Leave Link  301 at Thu Sep  5 11:07:33 2019, MaxMem=   671088640 cpu:               3.8 elap:               1.9
 (Enter /shared/centos7/gaussian/g16/l302.exe)
 NPDir=0 NMtPBC=     1 NCelOv=     1 NCel=       1 NClECP=     1 NCelD=      1
         NCelK=      1 NCelE2=     1 NClLst=     1 CellRange=     0.0.
 One-electron integrals computed using PRISM.
 One-electron integral symmetry used in STVInt
 NBasis=   276 RedAO= T EigKep=  6.07D-04  NBF=   276
 NBsUse=   276 1.00D-06 EigRej= -1.00D+00 NBFU=   276
 Precomputing XC quadrature grid using
 IXCGrd= 4 IRadAn=           1 IRanWt=          -1 IRanGd=           0 AccXCQ= 0.00D+00.
 Generated NRdTot=       0 NPtTot=           0 NUsed=           0 NTot=          32
 NSgBfM=   310   310   310   310   310 MxSgAt=    14 MxSgA2=    14.
 Leave Link  302 at Thu Sep  5 11:09:13 2019, MaxMem=   671088640 cpu:             199.7 elap:             100.0
 (Enter /shared/centos7/gaussian/g16/l303.exe)
 DipDrv:  MaxL=1.
 Leave Link  303 at Thu Sep  5 11:09:19 2019, MaxMem=   671088640 cpu:              11.4 elap:               6.1
 (Enter /shared/centos7/gaussian/g16/l401.exe)
 ExpMin= 1.03D-01 ExpMax= 1.53D+04 ExpMxC= 5.22D+02 IAcc=1 IRadAn=         1 AccDes= 0.00D+00
 Harris functional with IExCor= 1009 and IRadAn=       1 diagonalized for initial guess.
 HarFok:  IExCor= 1009 AccDes= 0.00D+00 IRadAn=         1 IDoV= 1 UseB2=F ITyADJ=14
 ICtDFT=  3500011 ScaDFX=  1.000000  1.000000  1.000000  1.000000
 FoFCou: FMM=F IPFlag=           0 FMFlag=      100000 FMFlg1=           0
         NFxFlg=           0 DoJE=T BraDBF=F KetDBF=T FulRan=T
         wScrn=  0.000000 ICntrl=       500 IOpCl=  0 I1Cent=   200000004 NGrid=           0
         NMat0=    1 NMatS0=      1 NMatT0=    0 NMatD0=    1 NMtDS0=    0 NMtDT0=    0
 Petite list used in FoFCou.
 Harris En= -269.898486731878    
 JPrj=0 DoOrth=F DoCkMO=F.
 Initial guess <Sx>= 0.0000 <Sy>= 0.0000 <Sz>= 0.5000 <S**2>= 0.7500 S= 0.5000
 Leave Link  401 at Thu Sep  5 11:09:58 2019, MaxMem=   671088640 cpu:              76.2 elap:              39.0
 (Enter /shared/centos7/gaussian/g16/l502.exe)
 Integral symmetry usage will be decided dynamically.
 UHF open shell SCF:
 Using DIIS extrapolation, IDIIS=  1040.
 NGot=   671088640 LenX=   670887394 LenY=   670790853
 Requested convergence on RMS density matrix=1.00D-08 within 900 cycles.
 Requested convergence on MAX density matrix=1.00D-06.
 Requested convergence on             energy=1.00D-06.
 No special actions if energy rises.
 Fock matrices will be formed incrementally for  20 cycles.

 Cycle   1  Pass 1  IDiag  1:
 FoFJK:  IHMeth= 1 ICntrl=       0 DoSepK=F KAlg= 0 I1Cent=           0 FoldK=F
 IRaf= 970000000 NMat=       1 IRICut=       1 DoRegI=T DoRafI=F ISym2E= 0 IDoP0=0 IntGTp=1.
 FoFCou: FMM=F IPFlag=           0 FMFlag=      100000 FMFlg1=           0
         NFxFlg=           0 DoJE=F BraDBF=F KetDBF=F FulRan=T
         wScrn=  0.000000 ICntrl=         0 IOpCl=  1 I1Cent=           0 NGrid=           0
         NMat0=    1 NMatS0=      1 NMatT0=    0 NMatD0=    1 NMtDS0=    0 NMtDT0=    0
 Symmetry not used in FoFCou.
 E= -269.765363852611    
 DIIS: error= 2.71D-02 at cycle   1 NSaved=   1.
 NSaved= 1 IEnMin= 1 EnMin= -269.765363852611     IErMin= 1 ErrMin= 2.71D-02
 ErrMax= 2.71D-02  0.00D+00 EMaxC= 1.00D-01 BMatC= 8.86D-01 BMatP= 8.86D-01
 IDIUse=3 WtCom= 7.29D-01 WtEn= 2.71D-01
 Coeff-Com:  0.100D+01
 Coeff-En:   0.100D+01
 Coeff:      0.100D+01
 Gap=     0.349 Goal=   None    Shift=    0.000
 Gap=     0.340 Goal=   None    Shift=    0.000
 GapD=    0.340 DampG=1.000 DampE=0.500 DampFc=0.5000 IDamp=-1.
 Damping current iteration by 5.00D-01
 RMSDP=2.22D-03 MaxDP=1.21D-01              OVMax= 2.52D-01

 Cycle   2  Pass 1  IDiag  1:
 RMSU=  1.11D-03    CP:  9.98D-01
 E= -269.863268904618     Delta-E=       -0.097905052007 Rises=F Damp=T
 DIIS: error= 5.19D-03 at cycle   2 NSaved=   2.
 NSaved= 2 IEnMin= 2 EnMin= -269.863268904618     IErMin= 2 ErrMin= 5.19D-03
 ErrMax= 5.19D-03  0.00D+00 EMaxC= 1.00D-01 BMatC= 7.38D-02 BMatP= 8.86D-01
 IDIUse=3 WtCom= 9.48D-01 WtEn= 5.19D-02
 Coeff-Com: -0.825D-01 0.108D+01
 Coeff-En:   0.000D+00 0.100D+01
 Coeff:     -0.782D-01 0.108D+01
 Gap=     0.352 Goal=   None    Shift=    0.000
 Gap=     0.337 Goal=   None    Shift=    0.000
 RMSDP=5.88D-04 MaxDP=2.04D-02 DE=-9.79D-02 OVMax= 1.40D-01

 Cycle   3  Pass 1  IDiag  1:
 RMSU=  5.83D-04    CP:  1.00D+00  9.55D-01
 E= -269.960317746203     Delta-E=       -0.097048841585 Rises=F Damp=F
 DIIS: error= 3.60D-03 at cycle   3 NSaved=   3.
 NSaved= 3 IEnMin= 3 EnMin= -269.960317746203     IErMin= 3 ErrMin= 3.60D-03
 ErrMax= 3.60D-03  0.00D+00 EMaxC= 1.00D-01 BMatC= 2.26D-02 BMatP= 7.38D-02
 IDIUse=3 WtCom= 9.64D-01 WtEn= 3.60D-02
 Coeff-Com: -0.802D-01 0.375D+00 0.706D+00
 Coeff-En:   0.000D+00 0.000D+00 0.100D+01
 Coeff:     -0.773D-01 0.361D+00 0.716D+00
 Gap=     0.341 Goal=   None    Shift=    0.000
 Gap=     0.264 Goal=   None    Shift=    0.000
 RMSDP=2.50D-04 MaxDP=8.06D-03 DE=-9.70D-02 OVMax= 7.01D-02

 Cycle   4  Pass 1  IDiag  1:
 RMSU=  2.19D-04    CP:  1.00D+00  1.02D+00  8.44D-01
 E= -269.964978551776     Delta-E=       -0.004660805573 Rises=F Damp=F
 DIIS: error= 1.88D-03 at cycle   4 NSaved=   4.
 NSaved= 4 IEnMin= 4 EnMin= -269.964978551776     IErMin= 4 ErrMin= 1.88D-03
 ErrMax= 1.88D-03  0.00D+00 EMaxC= 1.00D-01 BMatC= 6.40D-03 BMatP= 2.26D-02
 IDIUse=3 WtCom= 9.81D-01 WtEn= 1.88D-02
 Coeff-Com: -0.282D-01 0.674D-01 0.369D+00 0.592D+00
 Coeff-En:   0.000D+00 0.000D+00 0.457D-01 0.954D+00
 Coeff:     -0.276D-01 0.661D-01 0.363D+00 0.599D+00
 Gap=     0.341 Goal=   None    Shift=    0.000
 Gap=     0.267 Goal=   None    Shift=    0.000
 RMSDP=1.04D-04 MaxDP=4.21D-03 DE=-4.66D-03 OVMax= 1.15D-02

 Cycle   5  Pass 1  IDiag  1:
 RMSU=  7.04D-05    CP:  1.00D+00  1.02D+00  9.49D-01  7.99D-01
 E= -269.966312402657     Delta-E=       -0.001333850881 Rises=F Damp=F
 DIIS: error= 4.33D-04 at cycle   5 NSaved=   5.
 NSaved= 5 IEnMin= 5 EnMin= -269.966312402657     IErMin= 5 ErrMin= 4.33D-04
 ErrMax= 4.33D-04  0.00D+00 EMaxC= 1.00D-01 BMatC= 2.87D-04 BMatP= 6.40D-03
 IDIUse=3 WtCom= 9.96D-01 WtEn= 4.33D-03
 Coeff-Com:  0.446D-02-0.245D-01 0.177D-01 0.914D-01 0.911D+00
 Coeff-En:   0.000D+00 0.000D+00 0.000D+00 0.000D+00 0.100D+01
 Coeff:      0.444D-02-0.244D-01 0.176D-01 0.910D-01 0.911D+00
 Gap=     0.342 Goal=   None    Shift=    0.000
 Gap=     0.270 Goal=   None    Shift=    0.000
 RMSDP=5.09D-05 MaxDP=1.72D-03 DE=-1.33D-03 OVMax= 1.49D-02

 Cycle   6  Pass 1  IDiag  1:
 RMSU=  2.74D-05    CP:  1.00D+00  1.01D+00  9.76D-01  9.43D-01  1.34D+00
 E= -269.966519523289     Delta-E=       -0.000207120632 Rises=F Damp=F
 DIIS: error= 3.22D-04 at cycle   6 NSaved=   6.
 NSaved= 6 IEnMin= 6 EnMin= -269.966519523289     IErMin= 6 ErrMin= 3.22D-04
 ErrMax= 3.22D-04  0.00D+00 EMaxC= 1.00D-01 BMatC= 1.12D-04 BMatP= 2.87D-04
 IDIUse=3 WtCom= 9.97D-01 WtEn= 3.22D-03
 Coeff-Com:  0.785D-02-0.198D-01-0.679D-01-0.152D+00 0.220D+00 0.101D+01
 Coeff-En:   0.000D+00 0.000D+00 0.000D+00 0.000D+00 0.000D+00 0.100D+01
 Coeff:      0.783D-02-0.198D-01-0.677D-01-0.151D+00 0.219D+00 0.101D+01
 Gap=     0.344 Goal=   None    Shift=    0.000
 Gap=     0.273 Goal=   None    Shift=    0.000
 RMSDP=3.99D-05 MaxDP=1.26D-03 DE=-2.07D-04 OVMax= 1.06D-02

 Cycle   7  Pass 1  IDiag  1:
 RMSU=  1.52D-05    CP:  1.00D+00  1.01D+00  9.97D-01  9.98D-01  1.77D+00
                    CP:  1.37D+00
 E= -269.966603225822     Delta-E=       -0.000083702533 Rises=F Damp=F
 DIIS: error= 1.60D-04 at cycle   7 NSaved=   7.
 NSaved= 7 IEnMin= 7 EnMin= -269.966603225822     IErMin= 7 ErrMin= 1.60D-04
 ErrMax= 1.60D-04  0.00D+00 EMaxC= 1.00D-01 BMatC= 4.05D-05 BMatP= 1.12D-04
 IDIUse=3 WtCom= 9.98D-01 WtEn= 1.60D-03
 Coeff-Com:  0.311D-02-0.516D-02-0.364D-01-0.110D+00-0.881D-01 0.537D+00
 Coeff-Com:  0.699D+00
 Coeff-En:   0.000D+00 0.000D+00 0.000D+00 0.000D+00 0.000D+00 0.000D+00
 Coeff-En:   0.100D+01
 Coeff:      0.311D-02-0.515D-02-0.363D-01-0.110D+00-0.879D-01 0.536D+00
 Coeff:      0.700D+00
 Gap=     0.344 Goal=   None    Shift=    0.000
 Gap=     0.273 Goal=   None    Shift=    0.000
 RMSDP=1.79D-05 MaxDP=5.98D-04 DE=-8.37D-05 OVMax= 5.10D-03

 Cycle   8  Pass 1  IDiag  1:
 RMSU=  6.90D-06    CP:  1.00D+00  1.01D+00  1.00D+00  1.02D+00  1.95D+00
                    CP:  1.64D+00  1.14D+00
 E= -269.966622440679     Delta-E=       -0.000019214858 Rises=F Damp=F
 DIIS: error= 5.69D-05 at cycle   8 NSaved=   8.
 NSaved= 8 IEnMin= 8 EnMin= -269.966622440679     IErMin= 8 ErrMin= 5.69D-05
 ErrMax= 5.69D-05  0.00D+00 EMaxC= 1.00D-01 BMatC= 5.44D-06 BMatP= 4.05D-05
 IDIUse=1 WtCom= 1.00D+00 WtEn= 0.00D+00
 Coeff-Com: -0.993D-03 0.340D-02 0.106D-01 0.530D-02-0.494D-01-0.894D-01
 Coeff-Com:  0.173D+00 0.947D+00
 Coeff:     -0.993D-03 0.340D-02 0.106D-01 0.530D-02-0.494D-01-0.894D-01
 Coeff:      0.173D+00 0.947D+00
 Gap=     0.344 Goal=   None    Shift=    0.000
 Gap=     0.273 Goal=   None    Shift=    0.000
 RMSDP=8.61D-06 MaxDP=2.92D-04 DE=-1.92D-05 OVMax= 2.74D-03

 Cycle   9  Pass 1  IDiag  1:
 RMSU=  3.51D-06    CP:  1.00D+00  1.01D+00  1.01D+00  1.03D+00  2.02D+00
                    CP:  1.77D+00  1.45D+00  1.36D+00
 E= -269.966626853559     Delta-E=       -0.000004412880 Rises=F Damp=F
 DIIS: error= 2.97D-05 at cycle   9 NSaved=   9.
 NSaved= 9 IEnMin= 9 EnMin= -269.966626853559     IErMin= 9 ErrMin= 2.97D-05
 ErrMax= 2.97D-05  0.00D+00 EMaxC= 1.00D-01 BMatC= 1.78D-06 BMatP= 5.44D-06
 IDIUse=1 WtCom= 1.00D+00 WtEn= 0.00D+00
 Coeff-Com: -0.108D-02 0.219D-02 0.149D-01 0.306D-01 0.996D-02-0.202D+00
 Coeff-Com: -0.137D+00 0.353D+00 0.930D+00
 Coeff:     -0.108D-02 0.219D-02 0.149D-01 0.306D-01 0.996D-02-0.202D+00
 Coeff:     -0.137D+00 0.353D+00 0.930D+00
 Gap=     0.344 Goal=   None    Shift=    0.000
 Gap=     0.273 Goal=   None    Shift=    0.000
 RMSDP=6.45D-06 MaxDP=2.43D-04 DE=-4.41D-06 OVMax= 1.97D-03

 Cycle  10  Pass 1  IDiag  1:
 RMSU=  1.77D-06    CP:  1.00D+00  1.01D+00  1.01D+00  1.03D+00  2.07D+00
                    CP:  1.84D+00  1.66D+00  1.79D+00  1.38D+00
 E= -269.966628758821     Delta-E=       -0.000001905261 Rises=F Damp=F
 DIIS: error= 1.60D-05 at cycle  10 NSaved=  10.
 NSaved=10 IEnMin=10 EnMin= -269.966628758821     IErMin=10 ErrMin= 1.60D-05
 ErrMax= 1.60D-05  0.00D+00 EMaxC= 1.00D-01 BMatC= 2.68D-07 BMatP= 1.78D-06
 IDIUse=1 WtCom= 1.00D+00 WtEn= 0.00D+00
 Coeff-Com:  0.163D-03-0.531D-03-0.564D-04 0.122D-02 0.134D-01-0.667D-02
 Coeff-Com: -0.451D-01-0.161D+00 0.738D-01 0.112D+01
 Coeff:      0.163D-03-0.531D-03-0.564D-04 0.122D-02 0.134D-01-0.667D-02
 Coeff:     -0.451D-01-0.161D+00 0.738D-01 0.112D+01
 Gap=     0.344 Goal=   None    Shift=    0.000
 Gap=     0.273 Goal=   None    Shift=    0.000
 RMSDP=3.39D-06 MaxDP=1.47D-04 DE=-1.91D-06 OVMax= 9.79D-04

 Cycle  11  Pass 1  IDiag  1:
 RMSU=  9.21D-07    CP:  1.00D+00  1.01D+00  1.01D+00  1.03D+00  2.09D+00
                    CP:  1.87D+00  1.75D+00  2.01D+00  1.84D+00  1.55D+00
 E= -269.966629236932     Delta-E=       -0.000000478111 Rises=F Damp=F
 DIIS: error= 8.99D-06 at cycle  11 NSaved=  11.
 NSaved=11 IEnMin=11 EnMin= -269.966629236932     IErMin=11 ErrMin= 8.99D-06
 ErrMax= 8.99D-06  0.00D+00 EMaxC= 1.00D-01 BMatC= 5.71D-08 BMatP= 2.68D-07
 IDIUse=1 WtCom= 1.00D+00 WtEn= 0.00D+00
 Coeff-Com:  0.274D-03-0.589D-03-0.364D-02-0.721D-02-0.170D-02 0.467D-01
 Coeff-Com:  0.312D-01-0.105D+00-0.227D+00 0.109D+00 0.116D+01
 Coeff:      0.274D-03-0.589D-03-0.364D-02-0.721D-02-0.170D-02 0.467D-01
 Coeff:      0.312D-01-0.105D+00-0.227D+00 0.109D+00 0.116D+01
 Gap=     0.344 Goal=   None    Shift=    0.000
 Gap=     0.273 Goal=   None    Shift=    0.000
 RMSDP=1.88D-06 MaxDP=8.65D-05 DE=-4.78D-07 OVMax= 5.58D-04

 Cycle  12  Pass 1  IDiag  1:
 RMSU=  4.30D-07    CP:  1.00D+00  1.01D+00  1.01D+00  1.03D+00  2.09D+00
                    CP:  1.88D+00  1.79D+00  2.11D+00  2.09D+00  2.10D+00
                    CP:  1.51D+00
 E= -269.966629362924     Delta-E=       -0.000000125992 Rises=F Damp=F
 DIIS: error= 3.48D-06 at cycle  12 NSaved=  12.
 NSaved=12 IEnMin=12 EnMin= -269.966629362924     IErMin=12 ErrMin= 3.48D-06
 ErrMax= 3.48D-06  0.00D+00 EMaxC= 1.00D-01 BMatC= 1.16D-08 BMatP= 5.71D-08
 IDIUse=1 WtCom= 1.00D+00 WtEn= 0.00D+00
 Coeff-Com: -0.129D-03 0.307D-03 0.813D-03 0.180D-02-0.237D-02-0.904D-02
 Coeff-Com:  0.388D-02 0.537D-01 0.492D-01-0.273D+00-0.270D+00 0.144D+01
 Coeff:     -0.129D-03 0.307D-03 0.813D-03 0.180D-02-0.237D-02-0.904D-02
 Coeff:      0.388D-02 0.537D-01 0.492D-01-0.273D+00-0.270D+00 0.144D+01
 Gap=     0.344 Goal=   None    Shift=    0.000
 Gap=     0.273 Goal=   None    Shift=    0.000
 RMSDP=8.80D-07 MaxDP=3.69D-05 DE=-1.26D-07 OVMax= 3.13D-04

 Cycle  13  Pass 1  IDiag  1:
 RMSU=  1.52D-07    CP:  1.00D+00  1.01D+00  1.01D+00  1.03D+00  2.09D+00
                    CP:  1.88D+00  1.80D+00  2.15D+00  2.19D+00  2.36D+00
                    CP:  1.95D+00  1.80D+00
 E= -269.966629386776     Delta-E=       -0.000000023852 Rises=F Damp=F
 DIIS: error= 1.17D-06 at cycle  13 NSaved=  13.
 NSaved=13 IEnMin=13 EnMin= -269.966629386776     IErMin=13 ErrMin= 1.17D-06
 ErrMax= 1.17D-06  0.00D+00 EMaxC= 1.00D-01 BMatC= 1.07D-09 BMatP= 1.16D-08
 IDIUse=1 WtCom= 1.00D+00 WtEn= 0.00D+00
 Coeff-Com: -0.265D-04 0.597D-04 0.382D-03 0.819D-03 0.392D-05-0.548D-02
 Coeff-Com: -0.490D-02 0.125D-01 0.257D-01-0.273D-02-0.134D+00-0.129D+00
 Coeff-Com:  0.124D+01
 Coeff:     -0.265D-04 0.597D-04 0.382D-03 0.819D-03 0.392D-05-0.548D-02
 Coeff:     -0.490D-02 0.125D-01 0.257D-01-0.273D-02-0.134D+00-0.129D+00
 Coeff:      0.124D+01
 Gap=     0.344 Goal=   None    Shift=    0.000
 Gap=     0.273 Goal=   None    Shift=    0.000
 RMSDP=2.93D-07 MaxDP=1.50D-05 DE=-2.39D-08 OVMax= 1.04D-04

 Cycle  14  Pass 1  IDiag  1:
 RMSU=  5.58D-08    CP:  1.00D+00  1.01D+00  1.01D+00  1.03D+00  2.09D+00
                    CP:  1.89D+00  1.80D+00  2.16D+00  2.22D+00  2.44D+00
                    CP:  2.08D+00  2.13D+00  1.56D+00
 E= -269.966629388929     Delta-E=       -0.000000002153 Rises=F Damp=F
 DIIS: error= 2.81D-07 at cycle  14 NSaved=  14.
 NSaved=14 IEnMin=14 EnMin= -269.966629388929     IErMin=14 ErrMin= 2.81D-07
 ErrMax= 2.81D-07  0.00D+00 EMaxC= 1.00D-01 BMatC= 1.16D-10 BMatP= 1.07D-09
 IDIUse=1 WtCom= 1.00D+00 WtEn= 0.00D+00
 Coeff-Com:  0.165D-04-0.368D-04-0.126D-03-0.219D-03 0.111D-03 0.150D-02
 Coeff-Com:  0.143D-03-0.627D-02-0.735D-02 0.303D-01 0.408D-01-0.158D+00
 Coeff-Com: -0.475D-01 0.115D+01
 Coeff:      0.165D-04-0.368D-04-0.126D-03-0.219D-03 0.111D-03 0.150D-02
 Coeff:      0.143D-03-0.627D-02-0.735D-02 0.303D-01 0.408D-01-0.158D+00
 Coeff:     -0.475D-01 0.115D+01
 Gap=     0.344 Goal=   None    Shift=    0.000
 Gap=     0.273 Goal=   None    Shift=    0.000
 RMSDP=6.09D-08 MaxDP=2.69D-06 DE=-2.15D-09 OVMax= 1.66D-05

 Cycle  15  Pass 1  IDiag  1:
 RMSU=  1.60D-08    CP:  1.00D+00  1.01D+00  1.01D+00  1.03D+00  2.09D+00
                    CP:  1.89D+00  1.80D+00  2.16D+00  2.22D+00  2.45D+00
                    CP:  2.10D+00  2.19D+00  1.78D+00  1.43D+00
 E= -269.966629389044     Delta-E=       -0.000000000115 Rises=F Damp=F
 DIIS: error= 8.03D-08 at cycle  15 NSaved=  15.
 NSaved=15 IEnMin=15 EnMin= -269.966629389044     IErMin=15 ErrMin= 8.03D-08
 ErrMax= 8.03D-08  0.00D+00 EMaxC= 1.00D-01 BMatC= 1.13D-11 BMatP= 1.16D-10
 IDIUse=1 WtCom= 1.00D+00 WtEn= 0.00D+00
 Coeff-Com: -0.280D-06 0.187D-06-0.175D-04-0.179D-04-0.864D-05 0.261D-03
 Coeff-Com:  0.283D-03-0.701D-03-0.965D-03-0.141D-02 0.810D-02 0.106D-01
 Coeff-Com: -0.704D-01-0.940D-01 0.115D+01
 Coeff:     -0.280D-06 0.187D-06-0.175D-04-0.179D-04-0.864D-05 0.261D-03
 Coeff:      0.283D-03-0.701D-03-0.965D-03-0.141D-02 0.810D-02 0.106D-01
 Coeff:     -0.704D-01-0.940D-01 0.115D+01
 Gap=     0.344 Goal=   None    Shift=    0.000
 Gap=     0.273 Goal=   None    Shift=    0.000
 RMSDP=1.64D-08 MaxDP=5.69D-07 DE=-1.15D-10 OVMax= 3.50D-06

 Cycle  16  Pass 1  IDiag  1:
 RMSU=  4.70D-09    CP:  1.00D+00  1.01D+00  1.01D+00  1.03D+00  2.09D+00
                    CP:  1.89D+00  1.80D+00  2.16D+00  2.23D+00  2.45D+00
                    CP:  2.11D+00  2.20D+00  1.82D+00  1.57D+00  1.37D+00
 E= -269.966629389052     Delta-E=       -0.000000000008 Rises=F Damp=F
 DIIS: error= 2.53D-08 at cycle  16 NSaved=  16.
 NSaved=16 IEnMin=16 EnMin= -269.966629389052     IErMin=16 ErrMin= 2.53D-08
 ErrMax= 2.53D-08  0.00D+00 EMaxC= 1.00D-01 BMatC= 1.46D-12 BMatP= 1.13D-11
 IDIUse=1 WtCom= 1.00D+00 WtEn= 0.00D+00
 Coeff-Com: -0.164D-05 0.346D-05 0.621D-05 0.141D-04-0.116D-04-0.676D-04
 Coeff-Com:  0.434D-04 0.404D-03 0.401D-03-0.315D-02-0.153D-02 0.163D-01
 Coeff-Com: -0.103D-01-0.138D+00 0.279D+00 0.856D+00
 Coeff:     -0.164D-05 0.346D-05 0.621D-05 0.141D-04-0.116D-04-0.676D-04
 Coeff:      0.434D-04 0.404D-03 0.401D-03-0.315D-02-0.153D-02 0.163D-01
 Coeff:     -0.103D-01-0.138D+00 0.279D+00 0.856D+00
 Gap=     0.344 Goal=   None    Shift=    0.000
 Gap=     0.273 Goal=   None    Shift=    0.000
 RMSDP=3.90D-09 MaxDP=1.14D-07 DE=-8.47D-12 OVMax= 7.98D-07

 SCF Done:  E(UM062X) =  -269.966629389     A.U. after   16 cycles
            NFock= 16  Conv=0.39D-08     -V/T= 2.0059
 <Sx>= 0.0000 <Sy>= 0.0000 <Sz>= 0.5000 <S**2>= 0.7599 S= 0.5049
 <L.S>= 0.000000000000E+00
 KE= 2.683958814447D+02 PE=-1.004018932692D+03 EE= 2.795891763112D+02
 Annihilation of the first spin contaminant:
 S**2 before annihilation     0.7599,   after     0.7500
 Leave Link  502 at Thu Sep  5 11:29:18 2019, MaxMem=   671088640 cpu:            2314.8 elap:            1159.7
 (Enter /shared/centos7/gaussian/g16/l601.exe)
 Copying SCF densities to generalized density rwf, IOpCl= 1 IROHF=0.

 **********************************************************************

            Population analysis using the SCF density.

 **********************************************************************

 Orbital symmetries:
 Alpha Orbitals:
       Occupied  (A) (A) (A) (A) (A) (A) (A) (A) (A) (A) (A) (A)
                 (A) (A) (A) (A) (A) (A) (A) (A) (A) (A)
       Virtual   (A) (A) (A) (A) (A) (A) (A) (A) (A) (A) (A) (A)
                 (A) (A) (A) (A) (A) (A) (A) (A) (A) (A) (A) (A)
                 (A) (A) (A) (A) (A) (A) (A) (A) (A) (A) (A) (A)
                 (A) (A) (A) (A) (A) (A) (A) (A) (A) (A) (A) (A)
                 (A) (A) (A) (A) (A) (A) (A) (A) (A) (A) (A) (A)
                 (A) (A) (A) (A) (A) (A) (A) (A) (A) (A) (A) (A)
                 (A) (A) (A) (A) (A) (A) (A) (A) (A) (A) (A) (A)
                 (A) (A) (A) (A) (A) (A) (A) (A) (A) (A) (A) (A)
                 (A) (A) (A) (A) (A) (A) (A) (A) (A) (A) (A) (A)
                 (A) (A) (A) (A) (A) (A) (A) (A) (A) (A) (A) (A)
                 (A) (A) (A) (A) (A) (A) (A) (A) (A) (A) (A) (A)
                 (A) (A) (A) (A) (A) (A) (A) (A) (A) (A) (A) (A)
                 (A) (A) (A) (A) (A) (A) (A) (A) (A) (A) (A) (A)
                 (A) (A) (A) (A) (A) (A) (A) (A) (A) (A) (A) (A)
                 (A) (A) (A) (A) (A) (A) (A) (A) (A) (A) (A) (A)
                 (A) (A) (A) (A) (A) (A) (A) (A) (A) (A) (A) (A)
                 (A) (A) (A) (A) (A) (A) (A) (A) (A) (A) (A) (A)
                 (A) (A) (A) (A) (A) (A) (A) (A) (A) (A) (A) (A)
                 (A) (A) (A) (A) (A) (A) (A) (A) (A) (A) (A) (A)
                 (A) (A) (A) (A) (A) (A) (A) (A) (A) (A) (A) (A)
                 (A) (A) (A) (A) (A) (A) (A) (A) (A) (A) (A) (A)
                 (A) (A)
 Beta  Orbitals:
       Occupied  (A) (A) (A) (A) (A) (A) (A) (A) (A) (A) (A) (A)
                 (A) (A) (A) (A) (A) (A) (A) (A) (A)
       Virtual   (A) (A) (A) (A) (A) (A) (A) (A) (A) (A) (A) (A)
                 (A) (A) (A) (A) (A) (A) (A) (A) (A) (A) (A) (A)
                 (A) (A) (A) (A) (A) (A) (A) (A) (A) (A) (A) (A)
                 (A) (A) (A) (A) (A) (A) (A) (A) (A) (A) (A) (A)
                 (A) (A) (A) (A) (A) (A) (A) (A) (A) (A) (A) (A)
                 (A) (A) (A) (A) (A) (A) (A) (A) (A) (A) (A) (A)
                 (A) (A) (A) (A) (A) (A) (A) (A) (A) (A) (A) (A)
                 (A) (A) (A) (A) (A) (A) (A) (A) (A) (A) (A) (A)
                 (A) (A) (A) (A) (A) (A) (A) (A) (A) (A) (A) (A)
                 (A) (A) (A) (A) (A) (A) (A) (A) (A) (A) (A) (A)
                 (A) (A) (A) (A) (A) (A) (A) (A) (A) (A) (A) (A)
                 (A) (A) (A) (A) (A) (A) (A) (A) (A) (A) (A) (A)
                 (A) (A) (A) (A) (A) (A) (A) (A) (A) (A) (A) (A)
                 (A) (A) (A) (A) (A) (A) (A) (A) (A) (A) (A) (A)
                 (A) (A) (A) (A) (A) (A) (A) (A) (A) (A) (A) (A)
                 (A) (A) (A) (A) (A) (A) (A) (A) (A) (A) (A) (A)
                 (A) (A) (A) (A) (A) (A) (A) (A) (A) (A) (A) (A)
                 (A) (A) (A) (A) (A) (A) (A) (A) (A) (A) (A) (A)
                 (A) (A) (A) (A) (A) (A) (A) (A) (A) (A) (A) (A)
                 (A) (A) (A) (A) (A) (A) (A) (A) (A) (A) (A) (A)
                 (A) (A) (A) (A) (A) (A) (A) (A) (A) (A) (A) (A)
                 (A) (A) (A)
 The electronic state is 2-A.
 Alpha  occ. eigenvalues --  -19.69680 -19.68779 -10.55360 -10.54546 -10.53239
 Alpha  occ. eigenvalues --   -1.31472  -0.97933  -0.88598  -0.77557  -0.67943
 Alpha  occ. eigenvalues --   -0.63056  -0.59859  -0.54890  -0.53461  -0.50726
 Alpha  occ. eigenvalues --   -0.45918  -0.44209  -0.40787  -0.39589  -0.38803
 Alpha  occ. eigenvalues --   -0.37111  -0.29156
 Alpha virt. eigenvalues --    0.05256   0.07441   0.10695   0.10927   0.12471
 Alpha virt. eigenvalues --    0.14781   0.14959   0.17463   0.18814   0.20293
 Alpha virt. eigenvalues --    0.25132   0.27232   0.29033   0.30251   0.30857
 Alpha virt. eigenvalues --    0.31765   0.34598   0.37994   0.41206   0.42701
 Alpha virt. eigenvalues --    0.44946   0.45413   0.47106   0.47958   0.48808
 Alpha virt. eigenvalues --    0.49444   0.51248   0.52147   0.53204   0.54029
 Alpha virt. eigenvalues --    0.55160   0.57365   0.58415   0.59303   0.63628
 Alpha virt. eigenvalues --    0.67638   0.69239   0.72333   0.73176   0.75971
 Alpha virt. eigenvalues --    0.77407   0.82001   0.83459   0.85257   0.86123
 Alpha virt. eigenvalues --    0.91277   0.93633   0.96279   0.97306   0.99669
 Alpha virt. eigenvalues --    1.00817   1.02938   1.06740   1.08000   1.09685
 Alpha virt. eigenvalues --    1.10912   1.12906   1.13535   1.15766   1.17268
 Alpha virt. eigenvalues --    1.18570   1.20306   1.21023   1.22718   1.24807
 Alpha virt. eigenvalues --    1.26615   1.30256   1.31539   1.34386   1.35650
 Alpha virt. eigenvalues --    1.37687   1.38881   1.40904   1.44001   1.44337
 Alpha virt. eigenvalues --    1.47815   1.50169   1.52139   1.53713   1.54911
 Alpha virt. eigenvalues --    1.56521   1.60323   1.65024   1.69851   1.73624
 Alpha virt. eigenvalues --    1.78949   1.94077   1.97360   2.02522   2.08509
 Alpha virt. eigenvalues --    2.18973   2.20600   2.22009   2.26048   2.28326
 Alpha virt. eigenvalues --    2.29475   2.33826   2.35873   2.39999   2.44597
 Alpha virt. eigenvalues --    2.51700   2.53601   2.54890   2.56425   2.60285
 Alpha virt. eigenvalues --    2.64332   2.64998   2.67716   2.68129   2.74322
 Alpha virt. eigenvalues --    2.77516   2.79381   2.80453   2.83639   2.84427
 Alpha virt. eigenvalues --    2.87695   2.91655   2.92743   2.93945   2.96134
 Alpha virt. eigenvalues --    3.00197   3.01742   3.04497   3.05821   3.07606
 Alpha virt. eigenvalues --    3.09562   3.10752   3.14963   3.15582   3.16427
 Alpha virt. eigenvalues --    3.20523   3.22387   3.23310   3.24914   3.25602
 Alpha virt. eigenvalues --    3.28974   3.30583   3.33291   3.33488   3.38091
 Alpha virt. eigenvalues --    3.39588   3.41171   3.43782   3.44258   3.46307
 Alpha virt. eigenvalues --    3.47871   3.50944   3.53347   3.54656   3.57415
 Alpha virt. eigenvalues --    3.60876   3.62246   3.67638   3.68961   3.69929
 Alpha virt. eigenvalues --    3.71780   3.74206   3.75480   3.76608   3.77423
 Alpha virt. eigenvalues --    3.80448   3.81504   3.82650   3.83568   3.87154
 Alpha virt. eigenvalues --    3.87643   3.89812   3.90378   3.93458   3.94568
 Alpha virt. eigenvalues --    3.98103   4.00206   4.00600   4.01824   4.03558
 Alpha virt. eigenvalues --    4.05424   4.06603   4.08459   4.09434   4.14054
 Alpha virt. eigenvalues --    4.15805   4.18155   4.20944   4.23146   4.25751
 Alpha virt. eigenvalues --    4.28851   4.30923   4.32526   4.32800   4.34643
 Alpha virt. eigenvalues --    4.39460   4.45391   4.50249   4.56530   4.61930
 Alpha virt. eigenvalues --    4.65187   4.67046   4.72479   4.73594   4.77571
 Alpha virt. eigenvalues --    4.79049   4.83800   4.84836   4.86947   4.87704
 Alpha virt. eigenvalues --    4.88995   4.94859   4.97576   5.01562   5.03660
 Alpha virt. eigenvalues --    5.05627   5.08041   5.10606   5.12502   5.15426
 Alpha virt. eigenvalues --    5.15954   5.23258   5.23589   5.25539   5.31495
 Alpha virt. eigenvalues --    5.34937   5.37394   5.39623   5.45608   5.56663
 Alpha virt. eigenvalues --    5.64449   5.68913   5.78041   5.81091   5.84351
 Alpha virt. eigenvalues --    5.88885   6.03443   6.17752   6.24271   6.30244
 Alpha virt. eigenvalues --    6.35463   6.42230   6.44348   6.51005   6.57393
 Alpha virt. eigenvalues --    6.60930   6.64975   6.76153   6.85417   6.88930
 Alpha virt. eigenvalues --    7.21647   7.27974   7.49832   7.66499  10.05381
 Alpha virt. eigenvalues --   11.07088  11.64313  12.67390  13.14479
  Beta  occ. eigenvalues --  -19.69462 -19.67789 -10.54829 -10.54553 -10.53198
  Beta  occ. eigenvalues --   -1.29665  -0.95432  -0.87817  -0.76344  -0.66594
  Beta  occ. eigenvalues --   -0.61847  -0.56790  -0.53438  -0.51969  -0.50031
  Beta  occ. eigenvalues --   -0.45403  -0.43134  -0.40163  -0.38809  -0.36195
  Beta  occ. eigenvalues --   -0.34528
  Beta virt. eigenvalues --   -0.07211   0.05472   0.07445   0.10800   0.10974
  Beta virt. eigenvalues --    0.12363   0.14850   0.14984   0.17982   0.19177
  Beta virt. eigenvalues --    0.20921   0.25707   0.27291   0.29266   0.30529
  Beta virt. eigenvalues --    0.31062   0.31858   0.34674   0.38342   0.41959
  Beta virt. eigenvalues --    0.42869   0.45160   0.45826   0.47962   0.48336
  Beta virt. eigenvalues --    0.49141   0.50168   0.51573   0.52597   0.53479
  Beta virt. eigenvalues --    0.54360   0.55465   0.57726   0.58614   0.59965
  Beta virt. eigenvalues --    0.63928   0.67757   0.69584   0.72624   0.73437
  Beta virt. eigenvalues --    0.76732   0.77566   0.82114   0.83527   0.85403
  Beta virt. eigenvalues --    0.86299   0.91462   0.93701   0.96499   0.97409
  Beta virt. eigenvalues --    0.99909   1.01064   1.03234   1.06760   1.08200
  Beta virt. eigenvalues --    1.09844   1.10953   1.12930   1.13676   1.16083
  Beta virt. eigenvalues --    1.17613   1.18709   1.20313   1.21149   1.22982
  Beta virt. eigenvalues --    1.25237   1.26934   1.30386   1.31805   1.34737
  Beta virt. eigenvalues --    1.36072   1.37962   1.39327   1.41293   1.44118
  Beta virt. eigenvalues --    1.44879   1.48264   1.50447   1.52338   1.54074
  Beta virt. eigenvalues --    1.55335   1.57202   1.60523   1.65492   1.70185
  Beta virt. eigenvalues --    1.74744   1.79833   1.95114   1.97659   2.02901
  Beta virt. eigenvalues --    2.09647   2.19560   2.20987   2.22168   2.26576
  Beta virt. eigenvalues --    2.28741   2.29979   2.34279   2.36415   2.40666
  Beta virt. eigenvalues --    2.44939   2.52190   2.53827   2.55152   2.56572
  Beta virt. eigenvalues --    2.61483   2.64924   2.65744   2.68024   2.68873
  Beta virt. eigenvalues --    2.74406   2.77941   2.80247   2.81280   2.84083
  Beta virt. eigenvalues --    2.85393   2.88512   2.92628   2.93792   2.95317
  Beta virt. eigenvalues --    2.96943   3.01360   3.03071   3.05792   3.06646
  Beta virt. eigenvalues --    3.08542   3.10753   3.11300   3.15196   3.16027
  Beta virt. eigenvalues --    3.16911   3.21429   3.22895   3.23632   3.24922
  Beta virt. eigenvalues --    3.25798   3.29164   3.30766   3.34175   3.34358
  Beta virt. eigenvalues --    3.38695   3.40520   3.42537   3.44177   3.44930
  Beta virt. eigenvalues --    3.46963   3.48238   3.51233   3.53677   3.55035
  Beta virt. eigenvalues --    3.58166   3.61084   3.62614   3.68114   3.69214
  Beta virt. eigenvalues --    3.70352   3.71897   3.74684   3.75543   3.76795
  Beta virt. eigenvalues --    3.77502   3.80756   3.82041   3.82802   3.83804
  Beta virt. eigenvalues --    3.87562   3.88213   3.89909   3.90762   3.93823
  Beta virt. eigenvalues --    3.94811   3.98281   4.00393   4.01037   4.02152
  Beta virt. eigenvalues --    4.03983   4.05835   4.07142   4.09177   4.09745
  Beta virt. eigenvalues --    4.14263   4.16294   4.18404   4.21159   4.23406
  Beta virt. eigenvalues --    4.26056   4.29626   4.31133   4.32956   4.33555
  Beta virt. eigenvalues --    4.35467   4.40197   4.46050   4.50999   4.57419
  Beta virt. eigenvalues --    4.62663   4.65672   4.67616   4.72677   4.73977
  Beta virt. eigenvalues --    4.78070   4.79352   4.84613   4.85478   4.87536
  Beta virt. eigenvalues --    4.88417   4.89694   4.95987   4.98458   5.02307
  Beta virt. eigenvalues --    5.04661   5.06656   5.08468   5.11282   5.12923
  Beta virt. eigenvalues --    5.15667   5.17130   5.23489   5.23765   5.25953
  Beta virt. eigenvalues --    5.32703   5.36146   5.38365   5.40463   5.46162
  Beta virt. eigenvalues --    5.58567   5.65320   5.72002   5.78464   5.81340
  Beta virt. eigenvalues --    5.84739   5.90791   6.04093   6.19432   6.25094
  Beta virt. eigenvalues --    6.30873   6.35634   6.43156   6.45014   6.52002
  Beta virt. eigenvalues --    6.57910   6.64241   6.67139   6.77683   6.86194
  Beta virt. eigenvalues --    6.89968   7.21720   7.28740   7.50030   7.66866
  Beta virt. eigenvalues --   10.06104  11.07769  11.64634  12.68157  13.14551
          Condensed to atoms (all electrons):
               1          2          3          4          5          6
     1  O    7.907415   0.026211  -0.000578   0.006093  -0.002283  -0.000158
     2  O    0.026211   8.101737   0.003276  -0.093650   0.002966  -0.000210
     3  C   -0.000578   0.003276   5.047304   0.234276   0.309474   0.396989
     4  C    0.006093  -0.093650   0.234276   5.357695  -0.049969  -0.035848
     5  C   -0.002283   0.002966   0.309474  -0.049969   4.966676  -0.040325
     6  H   -0.000158  -0.000210   0.396989  -0.035848  -0.040325   0.611505
     7  H   -0.000058  -0.000163   0.404612  -0.035955  -0.040754  -0.036956
     8  H   -0.038479   0.203617  -0.023785   0.244921  -0.001808   0.002885
     9  H    0.003825  -0.005401  -0.043085   0.379140   0.002639  -0.011973
    10  H    0.001172   0.000660  -0.034654   0.381769   0.004871   0.003155
    11  H    0.005063  -0.002381  -0.040399  -0.000581   0.399252  -0.007490
    12  H   -0.000008   0.000026  -0.038291   0.009303   0.399398  -0.003434
    13  H   -0.000737   0.002156  -0.041220  -0.005416   0.401524   0.007546
    14  H    0.312216  -0.042991  -0.000243  -0.005570   0.000079  -0.000044
               7          8          9         10         11         12
     1  O   -0.000058  -0.038479   0.003825   0.001172   0.005063  -0.000008
     2  O   -0.000163   0.203617  -0.005401   0.000660  -0.002381   0.000026
     3  C    0.404612  -0.023785  -0.043085  -0.034654  -0.040399  -0.038291
     4  C   -0.035955   0.244921   0.379140   0.381769  -0.000581   0.009303
     5  C   -0.040754  -0.001808   0.002639   0.004871   0.399252   0.399398
     6  H   -0.036956   0.002885  -0.011973   0.003155  -0.007490  -0.003434
     7  H    0.607170   0.000869   0.005479  -0.012072   0.007569  -0.006720
     8  H    0.000869   0.401221  -0.014285  -0.010048  -0.001020   0.000426
     9  H    0.005479  -0.014285   0.584534  -0.029376   0.000314  -0.000491
    10  H   -0.012072  -0.010048  -0.029376   0.566014   0.000118  -0.000432
    11  H    0.007569  -0.001020   0.000314   0.000118   0.582690  -0.029149
    12  H   -0.006720   0.000426  -0.000491  -0.000432  -0.029149   0.590291
    13  H   -0.004762   0.002502   0.000440   0.000242  -0.037911  -0.030848
    14  H    0.000010   0.002382   0.003374  -0.000080  -0.000273  -0.000005
              13         14
     1  O   -0.000737   0.312216
     2  O    0.002156  -0.042991
     3  C   -0.041220  -0.000243
     4  C   -0.005416  -0.005570
     5  C    0.401524   0.000079
     6  H    0.007546  -0.000044
     7  H   -0.004762   0.000010
     8  H    0.002502   0.002382
     9  H    0.000440   0.003374
    10  H    0.000242  -0.000080
    11  H   -0.037911  -0.000273
    12  H   -0.030848  -0.000005
    13  H    0.592207   0.000097
    14  H    0.000097   0.462409
          Atomic-Atomic Spin Densities.
               1          2          3          4          5          6
     1  O    0.109258  -0.063242  -0.002297   0.022928  -0.000358   0.000255
     2  O   -0.063242   0.591583   0.007951  -0.114113   0.002093  -0.000561
     3  C   -0.002297   0.007951  -0.018888  -0.044692   0.018076   0.003763
     4  C    0.022928  -0.114113  -0.044692   0.724743  -0.016494  -0.004699
     5  C   -0.000358   0.002093   0.018076  -0.016494   0.041927  -0.009119
     6  H    0.000255  -0.000561   0.003763  -0.004699  -0.009119   0.024186
     7  H    0.000042  -0.000300   0.001422  -0.001497  -0.004620   0.003373
     8  H    0.011024  -0.030608  -0.002336   0.049439  -0.003509   0.000421
     9  H   -0.002170   0.003634   0.005090  -0.007647   0.000815  -0.000501
    10  H   -0.000193   0.001600   0.004179  -0.002851   0.000362  -0.000679
    11  H    0.000280  -0.000683  -0.002872   0.003543  -0.002095   0.001195
    12  H    0.000028  -0.000060   0.000261   0.000559  -0.002522   0.000941
    13  H    0.000151  -0.000855  -0.000354   0.002474  -0.003177   0.000322
    14  H    0.001526  -0.001306  -0.000072   0.001105   0.000011   0.000016
               7          8          9         10         11         12
     1  O    0.000042   0.011024  -0.002170  -0.000193   0.000280   0.000028
     2  O   -0.000300  -0.030608   0.003634   0.001600  -0.000683  -0.000060
     3  C    0.001422  -0.002336   0.005090   0.004179  -0.002872   0.000261
     4  C   -0.001497   0.049439  -0.007647  -0.002851   0.003543   0.000559
     5  C   -0.004620  -0.003509   0.000815   0.000362  -0.002095  -0.002522
     6  H    0.003373   0.000421  -0.000501  -0.000679   0.001195   0.000941
     7  H    0.006847   0.000317  -0.000515   0.000185   0.000206   0.000578
     8  H    0.000317  -0.063902   0.001224   0.002410   0.000965   0.000067
     9  H   -0.000515   0.001224  -0.034319   0.003073  -0.000353   0.000013
    10  H    0.000185   0.002410   0.003073  -0.037612  -0.000023   0.000007
    11  H    0.000206   0.000965  -0.000353  -0.000023  -0.004057   0.001799
    12  H    0.000578   0.000067   0.000013   0.000007   0.001799  -0.002424
    13  H    0.000389   0.000603  -0.000080  -0.000111   0.000126   0.001053
    14  H    0.000001   0.000372  -0.000415  -0.000032   0.000003   0.000001
              13         14
     1  O    0.000151   0.001526
     2  O   -0.000855  -0.001306
     3  C   -0.000354  -0.000072
     4  C    0.002474   0.001105
     5  C   -0.003177   0.000011
     6  H    0.000322   0.000016
     7  H    0.000389   0.000001
     8  H    0.000603   0.000372
     9  H   -0.000080  -0.000415
    10  H   -0.000111  -0.000032
    11  H    0.000126   0.000003
    12  H    0.001053   0.000001
    13  H   -0.001087   0.000001
    14  H    0.000001  -0.004768
 Mulliken charges and spin densities:
               1          2
     1  O   -0.219695   0.077232
     2  O   -0.195852   0.395133
     3  C   -0.173675  -0.030769
     4  C   -0.386208   0.612797
     5  C   -0.351741   0.021390
     6  H    0.114358   0.018913
     7  H    0.111733   0.006425
     8  H    0.230601  -0.033514
     9  H    0.124868  -0.032151
    10  H    0.128661  -0.029685
    11  H    0.124197  -0.001968
    12  H    0.109933   0.000300
    13  H    0.114180  -0.000545
    14  H    0.268639  -0.003558
 Sum of Mulliken charges =  -0.00000   1.00000
 Mulliken charges and spin densities with hydrogens summed into heavy atoms:
               1          2
     1  O    0.048945   0.073674
     2  O    0.034749   0.361620
     3  C    0.052416  -0.005431
     4  C   -0.132678   0.550961
     5  C   -0.003430   0.019177
 Electronic spatial extent (au):  <R**2>=            643.8781
 Charge=              0.0000 electrons
 Dipole moment (field-independent basis, Debye):
    X=              0.7548    Y=              1.3410    Z=              1.4484  Tot=              2.1132
 Quadrupole moment (field-independent basis, Debye-Ang):
   XX=            -31.8226   YY=            -33.7163   ZZ=            -31.7226
   XY=             -2.2330   XZ=             -4.1444   YZ=              0.7260
 Traceless Quadrupole moment (field-independent basis, Debye-Ang):
   XX=              0.5979   YY=             -1.2958   ZZ=              0.6979
   XY=             -2.2330   XZ=             -4.1444   YZ=              0.7260
 Octapole moment (field-independent basis, Debye-Ang**2):
  XXX=            -21.8530  YYY=             -0.0809  ZZZ=              3.0154  XYY=             -4.1050
  XXY=              4.1992  XXZ=              9.7085  XZZ=             -7.9549  YZZ=              0.8256
  YYZ=             -0.8611  XYZ=             -2.8641
 Hexadecapole moment (field-independent basis, Debye-Ang**3):
 XXXX=           -522.3790 YYYY=           -194.6934 ZZZZ=            -76.5962 XXXY=            -11.6635
 XXXZ=            -27.0732 YYYX=              3.9266 YYYZ=             -4.3538 ZZZX=             -6.9663
 ZZZY=             -0.1485 XXYY=           -127.6521 XXZZ=            -96.9089 YYZZ=            -43.9083
 XXYZ=              3.8669 YYXZ=             -1.6850 ZZXY=              0.9065
 N-N= 1.860672455473D+02 E-N=-1.004018933598D+03  KE= 2.683958814447D+02
                          Isotropic Fermi Contact Couplings
        Atom                 a.u.       MegaHertz       Gauss      10(-4) cm-1
     1  O(17)              0.00407      -2.46914      -0.88105      -0.82362
     2  O(17)              0.11044     -66.94829     -23.88881     -22.33155
     3  C(13)             -0.00483      -5.42634      -1.93625      -1.81003
     4  C(13)              0.20586     231.43123      82.58042      77.19715
     5  C(13)              0.02853      32.07236      11.44421      10.69819
     6  H(1)               0.00878      39.23762      14.00096      13.08826
     7  H(1)               0.00246      10.98836       3.92092       3.66532
     8  H(1)              -0.03469    -155.06941     -55.33262     -51.72559
     9  H(1)              -0.00627     -28.02393      -9.99963      -9.34778
    10  H(1)              -0.00556     -24.83150      -8.86050      -8.28290
    11  H(1)              -0.00035      -1.56314      -0.55777      -0.52141
    12  H(1)              -0.00007      -0.32559      -0.11618      -0.10861
    13  H(1)              -0.00044      -1.98321      -0.70766      -0.66153
    14  H(1)              -0.00193      -8.64117      -3.08338      -2.88238
 --------------------------------------------------------
       Center         ----  Spin Dipole Couplings  ----
                      3XX-RR        3YY-RR        3ZZ-RR
 --------------------------------------------------------
     1   Atom        0.365975     -0.155626     -0.210349
     2   Atom        1.375423     -0.776569     -0.598853
     3   Atom        0.032804     -0.014443     -0.018361
     4   Atom        0.092901      0.040426     -0.133327
     5   Atom       -0.010817      0.027591     -0.016774
     6   Atom        0.004713     -0.006625      0.001912
     7   Atom        0.009857     -0.006942     -0.002916
     8   Atom        0.154897     -0.062026     -0.092871
     9   Atom       -0.007509     -0.021017      0.028526
    10   Atom       -0.024241      0.024546     -0.000306
    11   Atom       -0.000959      0.005225     -0.004266
    12   Atom        0.002540      0.000965     -0.003505
    13   Atom       -0.000529      0.003076     -0.002547
    14   Atom        0.000140     -0.006754      0.006614
 --------------------------------------------------------
                        XY            XZ            YZ
 --------------------------------------------------------
     1   Atom        0.204124      0.141482      0.079458
     2   Atom        0.742868      1.015813      0.312054
     3   Atom        0.000410      0.016716      0.002277
     4   Atom        0.388712      0.274345      0.256047
     5   Atom       -0.010178     -0.000604      0.005939
     6   Atom       -0.003131      0.005943     -0.001367
     7   Atom       -0.001163     -0.003730     -0.000729
     8   Atom        0.104918      0.059543      0.035711
     9   Atom        0.008087     -0.021708      0.024544
    10   Atom        0.015296      0.008651     -0.031276
    11   Atom       -0.002997      0.000970     -0.004124
    12   Atom       -0.004229      0.000021      0.000382
    13   Atom       -0.004773     -0.001383      0.005529
    14   Atom       -0.003402     -0.015090      0.011921
 --------------------------------------------------------


 ---------------------------------------------------------------------------------
              Anisotropic Spin Dipole Couplings in Principal Axis System
 ---------------------------------------------------------------------------------

       Atom             a.u.   MegaHertz   Gauss  10(-4) cm-1        Axes

              Baa    -0.2671    19.325     6.896     6.446  0.0126 -0.5957  0.8031
     1 O(17)  Bbb    -0.2066    14.951     5.335     4.987 -0.3977  0.7339  0.5506
              Bcc     0.4737   -34.276   -12.230   -11.433  0.9174  0.3263  0.2277
 
              Baa    -1.0283    74.407    26.550    24.819 -0.4083  0.0773  0.9096
     2 O(17)  Bbb    -1.0073    72.887    26.008    24.313 -0.2216  0.9582 -0.1809
              Bcc     2.0356  -147.294   -52.558   -49.132  0.8855  0.2754  0.3741
 
              Baa    -0.0238    -3.193    -1.139    -1.065 -0.2751 -0.2160  0.9368
     3 C(13)  Bbb    -0.0140    -1.880    -0.671    -0.627 -0.0805  0.9762  0.2015
              Bcc     0.0378     5.073     1.810     1.692  0.9580  0.0200  0.2860
 
              Baa    -0.3229   -43.336   -15.463   -14.455 -0.6941  0.7191  0.0333
     4 C(13)  Bbb    -0.3157   -42.368   -15.118   -14.133 -0.2939 -0.3253  0.8988
              Bcc     0.6387    85.704    30.581    28.588  0.6571  0.6141  0.4372
 
              Baa    -0.0177    -2.371    -0.846    -0.791 -0.1561 -0.1629  0.9742
     5 C(13)  Bbb    -0.0132    -1.769    -0.631    -0.590  0.9589  0.2118  0.1890
              Bcc     0.0309     4.140     1.477     1.381 -0.2371  0.9636  0.1232
 
              Baa    -0.0074    -3.967    -1.416    -1.323  0.2608  0.9651 -0.0247
     6 H(1)   Bbb    -0.0026    -1.407    -0.502    -0.469 -0.5727  0.1753  0.8008
              Bcc     0.0101     5.375     1.918     1.793  0.7771 -0.1947  0.5985
 
              Baa    -0.0073    -3.890    -1.388    -1.298  0.1222  0.9568  0.2636
     7 H(1)   Bbb    -0.0036    -1.934    -0.690    -0.645  0.2326 -0.2858  0.9296
              Bcc     0.0109     5.824     2.078     1.943  0.9649 -0.0523 -0.2575
 
              Baa    -0.1171   -62.457   -22.286   -20.833  0.0890 -0.6560  0.7495
     8 H(1)   Bbb    -0.0957   -51.056   -18.218   -17.031 -0.4232  0.6563  0.6246
              Bcc     0.2127   113.513    40.504    37.864  0.9017  0.3728  0.2192
 
              Baa    -0.0398   -21.226    -7.574    -7.080 -0.4797  0.7661 -0.4277
     9 H(1)   Bbb    -0.0048    -2.543    -0.907    -0.848  0.8137  0.5708  0.1098
              Bcc     0.0445    23.768     8.481     7.928 -0.3283  0.2954  0.8972
 
              Baa    -0.0391   -20.855    -7.441    -6.956  0.7426 -0.4306 -0.5129
    10 H(1)   Bbb    -0.0076    -4.051    -1.445    -1.351  0.6598  0.3388  0.6708
              Bcc     0.0467    24.905     8.887     8.308  0.1151  0.8365 -0.5357
 
              Baa    -0.0058    -3.101    -1.107    -1.034  0.0345  0.3580  0.9331
    11 H(1)   Bbb    -0.0021    -1.107    -0.395    -0.369  0.9415  0.3015 -0.1505
              Bcc     0.0079     4.208     1.501     1.403 -0.3352  0.8837 -0.3267
 
              Baa    -0.0036    -1.921    -0.685    -0.641 -0.1620 -0.2304  0.9595
    12 H(1)   Bbb    -0.0025    -1.312    -0.468    -0.438  0.6192  0.7334  0.2806
              Bcc     0.0061     3.233     1.154     1.078  0.7683 -0.6396 -0.0239
 
              Baa    -0.0064    -3.397    -1.212    -1.133 -0.3072 -0.5917  0.7453
    13 H(1)   Bbb    -0.0026    -1.366    -0.487    -0.456  0.8352  0.2078  0.5092
              Bcc     0.0089     4.763     1.699     1.589 -0.4561  0.7789  0.4304
 
              Baa    -0.0162    -8.631    -3.080    -2.879 -0.4499  0.6337 -0.6293
    14 H(1)   Bbb    -0.0071    -3.773    -1.346    -1.258  0.7064  0.6836  0.1834
              Bcc     0.0232    12.404     4.426     4.137 -0.5465  0.3620  0.7552
 

 ---------------------------------------------------------------------------------

 No NMR shielding tensors so no spin-rotation constants.
 Leave Link  601 at Thu Sep  5 11:30:25 2019, MaxMem=   671088640 cpu:             133.7 elap:              67.0
 (Enter /shared/centos7/gaussian/g16/l701.exe)
 ... and contract with generalized density number  0.
 Compute integral first derivatives.
 Leave Link  701 at Thu Sep  5 11:30:56 2019, MaxMem=   671088640 cpu:              60.4 elap:              30.5
 (Enter /shared/centos7/gaussian/g16/l702.exe)
 L702 exits ... SP integral derivatives will be done elsewhere.
 Leave Link  702 at Thu Sep  5 11:30:57 2019, MaxMem=   671088640 cpu:               2.3 elap:               1.2
 (Enter /shared/centos7/gaussian/g16/l703.exe)
 Integral derivatives from FoFJK, PRISM(SPDF).
 Compute integral first derivatives, UseDBF=F ICtDFT=           0.
 Calling FoFJK, ICntrl=      2127 FMM=F ISym2X=0 I1Cent= 0 IOpClX= 1 NMat=1 NMatS=1 NMatT=0.
 FoFJK:  IHMeth= 1 ICntrl=    2127 DoSepK=F KAlg= 0 I1Cent=           0 FoldK=F
 IRaf=         0 NMat=       1 IRICut=       1 DoRegI=T DoRafI=F ISym2E= 0 IDoP0=0 IntGTp=1.
 FoFCou: FMM=F IPFlag=           0 FMFlag=      100000 FMFlg1=         800
         NFxFlg=           0 DoJE=F BraDBF=F KetDBF=F FulRan=T
         wScrn=  0.000000 ICntrl=      2127 IOpCl=  1 I1Cent=           0 NGrid=           0
         NMat0=    1 NMatS0=      1 NMatT0=    0 NMatD0=    1 NMtDS0=    0 NMtDT0=    0
 Symmetry not used in FoFCou.
 Leave Link  703 at Thu Sep  5 11:32:40 2019, MaxMem=   671088640 cpu:             205.6 elap:             103.5
 (Enter /shared/centos7/gaussian/g16/l716.exe)
 Dipole        = 2.96949661D-01 5.27591464D-01 5.69843427D-01
 ***** Axes restored to original set *****
 -------------------------------------------------------------------
 Center     Atomic                   Forces (Hartrees/Bohr)
 Number     Number              X              Y              Z
 -------------------------------------------------------------------
      1        8          -0.042279693    0.035009568    0.034620279
      2        8           0.024240668   -0.038935718   -0.031072268
      3        6           0.002002348    0.004277500   -0.010043112
      4        6          -0.004313971    0.009154229   -0.015424441
      5        6           0.009061205    0.000735441    0.009911185
      6        1           0.004063779   -0.010994024   -0.000620420
      7        1          -0.006145047    0.003438680    0.010240240
      8        1          -0.010141135    0.005539293   -0.015194643
      9        1           0.011042603   -0.010655579    0.001699211
     10        1           0.000703276    0.004085479    0.015428671
     11        1           0.005085309   -0.006144674   -0.010604428
     12        1          -0.010093310   -0.007279193    0.003764640
     13        1          -0.003339431    0.012589405   -0.001026622
     14        1           0.020113399   -0.000820408    0.008321708
 -------------------------------------------------------------------
 Cartesian Forces:  Max     0.042279693 RMS     0.015480986
 Leave Link  716 at Thu Sep  5 11:32:42 2019, MaxMem=   671088640 cpu:               2.4 elap:               1.3
 (Enter /shared/centos7/gaussian/g16/l103.exe)

 GradGradGradGradGradGradGradGradGradGradGradGradGradGradGradGradGradGrad
 Berny optimization.
 FormGI is forming the generalized inverse of G from B-inverse, IUseBI=4.
 Internal  Forces:  Max     0.058992006 RMS     0.010154957
 Search for a local minimum.
 Step number   1 out of a maximum of  100
 All quantities printed in internal units (Hartrees-Bohrs-Radians)
 RMS Force = .10028D-01 SwitMx=.10000D-02 MixMth= 1
 Mixed Optimization -- RFO/linear search
 Second derivative matrix not updated -- first step.
 ITU=  0
     Eigenvalues ---    0.00230   0.00230   0.00428   0.00443   0.02406
     Eigenvalues ---    0.03476   0.04874   0.04887   0.05048   0.05558
     Eigenvalues ---    0.05674   0.08599   0.11455   0.12388   0.13622
     Eigenvalues ---    0.16000   0.16000   0.16000   0.16000   0.16000
     Eigenvalues ---    0.16000   0.21972   0.29838   0.29946   0.32486
     Eigenvalues ---    0.32496   0.32497   0.32501   0.32502   0.32504
     Eigenvalues ---    0.32559   0.49447   0.629301000.000001000.00000
     Eigenvalues --- 1000.000001000.000001000.000001000.000001000.00000
     Eigenvalues --- 1000.000001000.000001000.000001000.000001000.00000
     Eigenvalues --- 1000.000001000.000001000.000001000.000001000.00000
     Eigenvalues --- 1000.000001000.000001000.000001000.000001000.00000
     Eigenvalues --- 1000.000001000.00000
 RFO step:  Lambda=-1.23727218D-02 EMin= 2.30000000D-03
 Linear search not attempted -- first point.
 Iteration  1 RMS(Cart)=  0.04709071 RMS(Int)=  0.00123159
 Iteration  2 RMS(Cart)=  0.00149885 RMS(Int)=  0.00048623
 Iteration  3 RMS(Cart)=  0.00000206 RMS(Int)=  0.00048623
 Iteration  4 RMS(Cart)=  0.00000000 RMS(Int)=  0.00048623
 Iteration  1 RMS(Cart)=  0.00000000 RMS(Int)=  0.00000000
 ITry= 1 IFail=0 DXMaxC= 1.82D-01 DCOld= 1.00D+10 DXMaxT= 3.00D-01 DXLimC= 3.00D+00 Rises=F
 Variable       Old X    -DE/DX   Delta X   Delta X   Delta X     New X
                                 (Linear)    (Quad)   (Total)
    R1        2.48694   0.05899   0.00000   0.09193   0.09193   2.57888
    R2        1.87128  -0.02128   0.00000  -0.04199  -0.04199   1.82929
    R3        2.20115   0.00981   0.00000   0.00000   0.00000   2.20115
    R4        2.88071  -0.00169   0.00000  -0.00541  -0.00541   2.87530
    R5        2.88287   0.00207   0.00000   0.00666   0.00666   2.88953
    R6        2.09964  -0.01163   0.00000  -0.03448  -0.03448   2.06516
    R7        2.09945  -0.01240   0.00000  -0.03677  -0.03677   2.06268
    R8        2.58649  -0.00418   0.00000   0.00000  -0.00000   2.58649
    R9        2.09937  -0.01409   0.00000  -0.04177  -0.04177   2.05761
   R10        2.09934  -0.01491   0.00000  -0.04420  -0.04420   2.05514
   R11        2.09944  -0.01312   0.00000  -0.03889  -0.03889   2.06055
   R12        2.09832  -0.01293   0.00000  -0.03825  -0.03825   2.06007
   R13        2.09932  -0.01302   0.00000  -0.03858  -0.03858   2.06073
    A1        1.80704   0.00842   0.00000   0.04884   0.04884   1.85589
    A2        1.82316   0.00721   0.00000   0.04182   0.04182   1.86498
    A3        1.99376  -0.00322   0.00000  -0.01291  -0.01293   1.98083
    A4        1.90530   0.00038   0.00000  -0.00443  -0.00447   1.90083
    A5        1.90202   0.00168   0.00000   0.01370   0.01374   1.91576
    A6        1.89348   0.00121   0.00000   0.00189   0.00181   1.89529
    A7        1.89407   0.00113   0.00000   0.00990   0.00993   1.90400
    A8        1.87143  -0.00110   0.00000  -0.00806  -0.00805   1.86338
    A9        1.91710  -0.00221   0.00000  -0.02712  -0.02659   1.89051
   A10        1.97432   0.00376   0.00000   0.03346   0.03197   2.00629
   A11        1.97317   0.00483   0.00000   0.04258   0.04124   2.01441
   A12        1.81715  -0.00300   0.00000  -0.03762  -0.03721   1.77994
   A13        1.85173  -0.00318   0.00000  -0.03517  -0.03460   1.81713
   A14        1.91986  -0.00136   0.00000   0.01182   0.00938   1.92924
   A15        1.94380  -0.00048   0.00000  -0.00437  -0.00438   1.93943
   A16        1.92417   0.00209   0.00000   0.01532   0.01528   1.93944
   A17        1.92919   0.00110   0.00000   0.00470   0.00466   1.93385
   A18        1.88615  -0.00041   0.00000   0.00069   0.00068   1.88683
   A19        1.89026  -0.00120   0.00000  -0.01301  -0.01301   1.87725
   A20        1.88870  -0.00120   0.00000  -0.00390  -0.00399   1.88471
   A21        2.54164   0.01828   0.00000   0.00000  -0.00000   2.54164
    D1        1.72469   0.00083   0.00000   0.02268   0.02268   1.74738
    D2       -1.42155   0.00025   0.00000   0.01726   0.01726  -1.40429
    D3       -0.17593  -0.00051   0.00000  -0.02733  -0.02733  -0.20326
    D4        1.84597  -0.00340   0.00000  -0.07146  -0.07209   1.77389
    D5       -2.24045   0.00191   0.00000   0.00817   0.00888  -2.23157
    D6       -2.29899  -0.00015   0.00000  -0.01763  -0.01769  -2.31668
    D7       -0.27709  -0.00304   0.00000  -0.06176  -0.06244  -0.33954
    D8        1.91967   0.00227   0.00000   0.01787   0.01853   1.93819
    D9        1.94546   0.00001   0.00000  -0.01321  -0.01324   1.93222
   D10       -2.31583  -0.00288   0.00000  -0.05733  -0.05799  -2.37381
   D11       -0.11907   0.00243   0.00000   0.02230   0.02298  -0.09609
   D12       -1.15285   0.00156   0.00000   0.04600   0.04600  -1.10685
   D13        3.03672   0.00101   0.00000   0.03780   0.03781   3.07453
   D14        0.94932   0.00046   0.00000   0.02984   0.02982   0.97914
   D15        0.97671   0.00077   0.00000   0.03297   0.03297   1.00968
   D16       -1.11691   0.00022   0.00000   0.02477   0.02479  -1.09212
   D17        3.07888  -0.00033   0.00000   0.01681   0.01679   3.09567
   D18        3.00458   0.00073   0.00000   0.02976   0.02977   3.03435
   D19        0.91096   0.00017   0.00000   0.02156   0.02159   0.93254
   D20       -1.17644  -0.00037   0.00000   0.01361   0.01359  -1.16285
   D21        2.74605  -0.00055   0.00000  -0.01689  -0.01683   2.72921
   D22        0.62703  -0.00212   0.00000  -0.02077  -0.02079   0.60624
   D23       -1.39895   0.00208   0.00000  -0.00251  -0.00255  -1.40149
         Item               Value     Threshold  Converged?
 Maximum Force            0.058992     0.002500     NO 
 RMS     Force            0.010028     0.001667     NO 
 Maximum Displacement     0.182128     0.010000     NO 
 RMS     Displacement     0.047057     0.006667     NO 
 Predicted change in Energy=-6.560883D-03
 Lowest energy point so far.  Saving SCF results.
 GradGradGradGradGradGradGradGradGradGradGradGradGradGradGradGradGradGrad

 Leave Link  103 at Thu Sep  5 11:35:37 2019, MaxMem=   671088640 cpu:             325.0 elap:             175.2
 (Enter /shared/centos7/gaussian/g16/l202.exe)
                          Input orientation:                          
 ---------------------------------------------------------------------
 Center     Atomic      Atomic             Coordinates (Angstroms)
 Number     Number       Type             X           Y           Z
 ---------------------------------------------------------------------
      1          8           0        1.470504   -0.907670    5.130976
      2          8           0        1.895765   -1.711938    4.113789
      3          6           0        3.408626    0.759695    2.177723
      4          6           0        2.198800   -0.157013    2.282888
      5          6           0        4.346218    0.672242    3.382435
      6          1           0        3.063379    1.791861    2.079104
      7          1           0        3.969967    0.527477    1.270863
      8          1           0        2.402403   -1.020116    3.325464
      9          1           0        1.272961    0.335979    2.575038
     10          1           0        2.031004   -0.808347    1.428293
     11          1           0        3.846949    1.002837    4.293698
     12          1           0        5.231320    1.291845    3.237169
     13          1           0        4.676572   -0.354635    3.542321
     14          1           0        0.522751   -0.769367    4.990644
 ---------------------------------------------------------------------
                    Distance matrix (angstroms):
                    1          2          3          4          5
     1  O    0.000000
     2  O    1.364684   0.000000
     3  C    3.906165   3.485121   0.000000
     4  C    3.034057   2.421119   1.521543   0.000000
     5  C    3.717963   3.496271   1.529071   2.551093   0.000000
     6  H    4.374773   4.216619   1.092835   2.141760   2.144270
     7  H    4.817410   4.171274   1.091524   2.151687   2.149711
     8  H    2.034933   1.164798   2.344680   1.368709   2.577933
     9  H    2.849299   2.636210   2.213246   1.088839   3.195289
    10  H    3.746183   2.836663   2.217711   1.087531   3.372096
    11  H    3.162050   3.348057   2.174534   2.846929   1.090396
    12  H    4.750590   4.573522   2.174356   3.493712   1.090145
    13  H    3.620573   3.146702   2.170610   2.786500   1.090492
    14  H    0.968017   1.882149   4.310317   3.242847   4.391295
                    6          7          8          9         10
     6  H    0.000000
     7  H    1.753232   0.000000
     8  H    3.146033   3.012257   0.000000
     9  H    2.360326   3.001897   1.917752   0.000000
    10  H    2.872357   2.359828   1.944747   1.788612   0.000000
    11  H    2.478098   3.062456   2.667683   3.166055   3.845593
    12  H    2.508207   2.457972   3.654550   4.125616   4.233776
    13  H    3.057915   2.537111   2.379441   3.605156   3.416723
    14  H    4.635919   5.234680   2.523647   2.760391   3.868681
                   11         12         13         14
    11  H    0.000000
    12  H    1.765294   0.000000
    13  H    1.759424   1.764017   0.000000
    14  H    3.831022   5.430828   4.418583   0.000000
 Stoichiometry    C3H9O2(2)
 Framework group  C1[X(C3H9O2)]
 Deg. of freedom    36
 Full point group                 C1      NOp   1
 RotChk:  IX=0 Diff= 3.72D-02
 Largest Abelian subgroup         C1      NOp   1
 Largest concise Abelian subgroup C1      NOp   1
                         Standard orientation:                         
 ---------------------------------------------------------------------
 Center     Atomic      Atomic             Coordinates (Angstroms)
 Number     Number       Type             X           Y           Z
 ---------------------------------------------------------------------
      1          8           0       -2.041687   -0.546603    0.443000
      2          8           0       -1.630657    0.139967   -0.662459
      3          6           0        1.743695    0.379438    0.175676
      4          6           0        0.440555    1.157703    0.069738
      5          6           0        1.589041   -1.112000   -0.123913
      6          1           0        2.142344    0.492187    1.186940
      7          1           0        2.484179    0.805180   -0.503920
      8          1           0       -0.493903    0.353183   -0.524317
      9          1           0       -0.034020    1.390657    1.021621
     10          1           0        0.473868    2.039520   -0.565880
     11          1           0        0.937482   -1.593815    0.605669
     12          1           0        2.553932   -1.618931   -0.103361
     13          1           0        1.149024   -1.265367   -1.109833
     14          1           0       -2.473898    0.099631    1.019743
 ---------------------------------------------------------------------
 Rotational constants (GHZ):           7.3908594           2.2886085           1.9756866
 Leave Link  202 at Thu Sep  5 11:35:39 2019, MaxMem=   671088640 cpu:               4.9 elap:               2.5
 (Enter /shared/centos7/gaussian/g16/l301.exe)
 Standard basis: CC-pVTZ (5D, 7F)
 Ernie: Thresh=  0.10000D-02 Tol=  0.10000D-05 Strict=F.
 Ernie:  15 primitive shells out of 202 were deleted.
 There are   310 symmetry adapted cartesian basis functions of A   symmetry.
 There are   276 symmetry adapted basis functions of A   symmetry.
[...]
  Beta virt. eigenvalues --    1.27249   1.29984   1.31225   1.32549   1.34322
  Beta virt. eigenvalues --    1.35702   1.39762   1.41908   1.44126   1.45650
  Beta virt. eigenvalues --    1.46451   1.47817   1.50958   1.53277   1.54853
  Beta virt. eigenvalues --    1.58531   1.60977   1.62133   1.68347   1.71697
  Beta virt. eigenvalues --    1.73168   1.83289   1.92054   1.93217   2.01381
  Beta virt. eigenvalues --    2.10425   2.16229   2.22063   2.24267   2.26538
  Beta virt. eigenvalues --    2.28546   2.35488   2.37985   2.39059   2.41588
  Beta virt. eigenvalues --    2.48603   2.50114   2.52422   2.54084   2.57657
  Beta virt. eigenvalues --    2.58042   2.62940   2.65394   2.66839   2.68407
  Beta virt. eigenvalues --    2.72249   2.78769   2.81110   2.82124   2.85579
  Beta virt. eigenvalues --    2.86529   2.89417   2.91766   2.94741   2.96754
  Beta virt. eigenvalues --    3.02584   3.03716   3.04286   3.05428   3.07407
  Beta virt. eigenvalues --    3.09887   3.11210   3.12961   3.16241   3.16693
  Beta virt. eigenvalues --    3.20032   3.21578   3.23494   3.24425   3.25673
  Beta virt. eigenvalues --    3.26713   3.30077   3.31896   3.33970   3.35598
  Beta virt. eigenvalues --    3.37265   3.38290   3.42907   3.44237   3.46621
  Beta virt. eigenvalues --    3.49238   3.50070   3.52599   3.54270   3.55739
  Beta virt. eigenvalues --    3.59837   3.64426   3.66790   3.69738   3.70880
  Beta virt. eigenvalues --    3.72927   3.73863   3.74916   3.76568   3.77550
  Beta virt. eigenvalues --    3.80240   3.81192   3.82963   3.84753   3.87746
  Beta virt. eigenvalues --    3.88458   3.89237   3.91817   3.92081   3.95485
  Beta virt. eigenvalues --    3.97538   3.98481   4.03817   4.04995   4.06616
  Beta virt. eigenvalues --    4.07227   4.08899   4.09234   4.10877   4.12612
  Beta virt. eigenvalues --    4.16943   4.20779   4.22115   4.23594   4.24877
  Beta virt. eigenvalues --    4.28754   4.30311   4.32925   4.36357   4.38635
  Beta virt. eigenvalues --    4.42370   4.44429   4.50402   4.53874   4.57136
  Beta virt. eigenvalues --    4.62795   4.70328   4.73143   4.76991   4.78958
  Beta virt. eigenvalues --    4.82042   4.84687   4.86321   4.89279   4.90044
  Beta virt. eigenvalues --    4.93377   4.98011   4.98229   5.03188   5.05571
  Beta virt. eigenvalues --    5.08331   5.11278   5.13517   5.17593   5.20301
  Beta virt. eigenvalues --    5.22483   5.29035   5.29846   5.31615   5.33049
  Beta virt. eigenvalues --    5.38725   5.39787   5.44597   5.45866   5.48861
  Beta virt. eigenvalues --    5.54191   5.59935   5.77450   5.81007   5.83509
  Beta virt. eigenvalues --    5.85683   5.88287   5.95569   6.13299   6.21449
  Beta virt. eigenvalues --    6.32435   6.36680   6.38020   6.48389   6.55205
  Beta virt. eigenvalues --    6.60800   6.64202   6.71831   6.73288   6.84733
  Beta virt. eigenvalues --    6.88759   7.13573   7.20964   7.43942   7.59793
  Beta virt. eigenvalues --    9.94023  11.21628  12.24058  12.78537  13.46042
          Condensed to atoms (all electrons):
               1          2          3          4          5          6
     1  O    7.905884   0.051722  -0.005559   0.003581   0.004686  -0.000149
     2  O    0.051722   8.091858   0.009281  -0.090982  -0.002834  -0.000159
     3  C   -0.005559   0.009281   5.019358   0.282557   0.313099   0.388474
     4  C    0.003581  -0.090982   0.282557   5.323060  -0.056188  -0.038560
     5  C    0.004686  -0.002834   0.313099  -0.056188   4.960927  -0.039628
     6  H   -0.000149  -0.000159   0.388474  -0.038560  -0.039628   0.616648
     7  H   -0.000249   0.000333   0.409688  -0.042459  -0.035971  -0.042091
     8  H   -0.034649   0.199132  -0.015220   0.227707  -0.004672   0.004015
     9  H    0.007367  -0.006270  -0.044600   0.383986  -0.005350  -0.005003
    10  H    0.000898   0.001010  -0.036455   0.394472   0.007337  -0.004613
    11  H    0.001173  -0.000106  -0.041863  -0.003448   0.401559  -0.007270
    12  H    0.000315  -0.000109  -0.036359   0.007866   0.404260  -0.004999
    13  H    0.001011   0.000746  -0.037416  -0.002430   0.403869   0.007493
    14  H    0.308213  -0.029429   0.000142  -0.004859  -0.000249  -0.000002
               7          8          9         10         11         12
     1  O   -0.000249  -0.034649   0.007367   0.000898   0.001173   0.000315
     2  O    0.000333   0.199132  -0.006270   0.001010  -0.000106  -0.000109
     3  C    0.409688  -0.015220  -0.044600  -0.036455  -0.041863  -0.036359
     4  C   -0.042459   0.227707   0.383986   0.394472  -0.003448   0.007866
     5  C   -0.035971  -0.004672  -0.005350   0.007337   0.401559   0.404260
     6  H   -0.042091   0.004015  -0.005003  -0.004613  -0.007270  -0.004999
     7  H    0.586113  -0.003755   0.006611  -0.003621   0.007680  -0.005645
     8  H   -0.003755   0.405419  -0.016505  -0.009446  -0.001077   0.000148
     9  H    0.006611  -0.016505   0.558064  -0.024309   0.003977  -0.000206
    10  H   -0.003621  -0.009446  -0.024309   0.528397   0.000143  -0.000330
    11  H    0.007680  -0.001077   0.003977   0.000143   0.598505  -0.031449
    12  H   -0.005645   0.000148  -0.000206  -0.000330  -0.031449   0.579560
    13  H   -0.005385   0.004232  -0.000840  -0.000029  -0.039716  -0.029594
    14  H    0.000014   0.003147   0.002972   0.000002   0.000082  -0.000023
              13         14
     1  O    0.001011   0.308213
     2  O    0.000746  -0.029429
     3  C   -0.037416   0.000142
     4  C   -0.002430  -0.004859
     5  C    0.403869  -0.000249
     6  H    0.007493  -0.000002
     7  H   -0.005385   0.000014
     8  H    0.004232   0.003147
     9  H   -0.000840   0.002972
    10  H   -0.000029   0.000002
    11  H   -0.039716   0.000082
    12  H   -0.029594  -0.000023
    13  H    0.565759  -0.000162
    14  H   -0.000162   0.455037
          Atomic-Atomic Spin Densities.
               1          2          3          4          5          6
     1  O    0.049670  -0.039672  -0.002618   0.018602   0.001138   0.000163
     2  O   -0.039672   0.553278   0.009818  -0.116497  -0.000186  -0.000704
     3  C   -0.002618   0.009818  -0.017774  -0.053630   0.004704   0.005094
     4  C    0.018602  -0.116497  -0.053630   0.790429  -0.001051  -0.015894
     5  C    0.001138  -0.000186   0.004704  -0.001051   0.012199  -0.004639
     6  H    0.000163  -0.000704   0.005094  -0.015894  -0.004639   0.070252
     7  H   -0.000106   0.000940   0.005736  -0.008323   0.003144  -0.007617
     8  H    0.008584  -0.038492  -0.007850   0.068423   0.000635   0.000799
     9  H   -0.002426   0.004403   0.006728  -0.008659   0.000246  -0.001216
    10  H   -0.000239   0.002841   0.006901  -0.008314  -0.000252  -0.001810
    11  H   -0.000313   0.000084   0.000180  -0.000181   0.000364  -0.000757
    12  H    0.000053  -0.000051   0.000368   0.000416  -0.001394   0.001343
    13  H    0.000293  -0.000849  -0.001296   0.002369  -0.000523   0.000458
    14  H    0.001108  -0.001473   0.000009   0.000291  -0.000033   0.000007
               7          8          9         10         11         12
     1  O   -0.000106   0.008584  -0.002426  -0.000239  -0.000313   0.000053
     2  O    0.000940  -0.038492   0.004403   0.002841   0.000084  -0.000051
     3  C    0.005736  -0.007850   0.006728   0.006901   0.000180   0.000368
     4  C   -0.008323   0.068423  -0.008659  -0.008314  -0.000181   0.000416
     5  C    0.003144   0.000635   0.000246  -0.000252   0.000364  -0.001394
     6  H   -0.007617   0.000799  -0.001216  -0.001810  -0.000757   0.001343
     7  H    0.014334  -0.001202   0.000114   0.001095   0.000136  -0.000380
     8  H   -0.001202  -0.055774   0.001584   0.000482  -0.000055   0.000167
     9  H    0.000114   0.001584  -0.042936   0.003776  -0.000167  -0.000022
    10  H    0.001095   0.000482   0.003776  -0.036017   0.000047  -0.000020
    11  H    0.000136  -0.000055  -0.000167   0.000047  -0.001156   0.000690
    12  H   -0.000380   0.000167  -0.000022  -0.000020   0.000690  -0.002551
    13  H   -0.000501  -0.000008  -0.000233  -0.000000  -0.001387   0.001037
    14  H   -0.000002   0.000249  -0.000222  -0.000024  -0.000003  -0.000001
              13         14
     1  O    0.000293   0.001108
     2  O   -0.000849  -0.001473
     3  C   -0.001296   0.000009
     4  C    0.002369   0.000291
     5  C   -0.000523  -0.000033
     6  H    0.000458   0.000007
     7  H   -0.000501  -0.000002
     8  H   -0.000008   0.000249
     9  H   -0.000233  -0.000222
    10  H   -0.000000  -0.000024
    11  H   -0.001387  -0.000003
    12  H    0.001037  -0.000001
    13  H   -0.000743   0.000016
    14  H    0.000016  -0.001895
 Mulliken charges and spin densities:
               1          2
     1  O   -0.244243   0.034237
     2  O   -0.224191   0.373439
     3  C   -0.205127  -0.043630
     4  C   -0.384303   0.667981
     5  C   -0.350845   0.014353
     6  H    0.125844   0.045481
     7  H    0.128736   0.007366
     8  H    0.241522  -0.022461
     9  H    0.140105  -0.039029
    10  H    0.146544  -0.031534
    11  H    0.111810  -0.002518
    12  H    0.116567  -0.000344
    13  H    0.132465  -0.001368
    14  H    0.265115  -0.001972
 Sum of Mulliken charges =  -0.00000   1.00000
 Mulliken charges and spin densities with hydrogens summed into heavy atoms:
               1          2
     1  O    0.020872   0.032265
     2  O    0.017331   0.350978
     3  C    0.049454   0.009217
     4  C   -0.097654   0.597417
     5  C    0.009996   0.010123
 Electronic spatial extent (au):  <R**2>=            617.0408
 Charge=             -0.0000 electrons
 Dipole moment (field-independent basis, Debye):
    X=              1.2628    Y=              0.7463    Z=              1.7559  Tot=              2.2880
 Quadrupole moment (field-independent basis, Debye-Ang):
   XX=            -32.8574   YY=            -33.4892   ZZ=            -31.0387
   XY=              0.2077   XZ=             -4.7140   YZ=             -0.4362
 Traceless Quadrupole moment (field-independent basis, Debye-Ang):
   XX=             -0.3956   YY=             -1.0274   ZZ=              1.4231
   XY=              0.2077   XZ=             -4.7140   YZ=             -0.4362
 Octapole moment (field-independent basis, Debye-Ang**2):
  XXX=            -15.6373  YYY=              2.0823  ZZZ=              2.8492  XYY=             -2.6182
  XXY=             -1.7360  XXZ=             10.2701  XZZ=             -8.7513  YZZ=             -1.6401
  YYZ=             -0.6214  XYZ=              0.9538
 Hexadecapole moment (field-independent basis, Debye-Ang**3):
 XXXX=           -493.2635 YYYY=           -199.0540 ZZZZ=            -70.1024 XXXY=              5.3145
 XXXZ=            -25.5800 YYYX=              3.2494 YYYZ=             -3.1709 ZZZX=             -8.1300
 ZZZY=             -4.6792 XXYY=           -123.6129 XXZZ=            -87.2524 YYZZ=            -45.6377
 XXYZ=             -1.9006 YYXZ=             -1.2604 ZZXY=              3.7807
 N-N= 1.873400722840D+02 E-N=-1.006755655708D+03  KE= 2.685129525307D+02
                          Isotropic Fermi Contact Couplings
        Atom                 a.u.       MegaHertz       Gauss      10(-4) cm-1
     1  O(17)             -0.00043       0.25812       0.09210       0.08610
     2  O(17)              0.11745     -71.19789     -25.40518     -23.74906
     3  C(13)             -0.00930     -10.45055      -3.72902      -3.48593
     4  C(13)              0.18140     203.93007      72.76732      68.02375
     5  C(13)              0.00835       9.38432       3.34856       3.13027
     6  H(1)               0.02213      98.93501      35.30247      33.00117
     7  H(1)               0.00380      16.96421       6.05325       5.65865
     8  H(1)              -0.02948    -131.78027     -47.02248     -43.95717
     9  H(1)              -0.00834     -37.27038     -13.29900     -12.43206
    10  H(1)              -0.00705     -31.49341     -11.23763     -10.50507
    11  H(1)              -0.00016      -0.70580      -0.25185      -0.23543
    12  H(1)              -0.00038      -1.71661      -0.61253      -0.57260
    13  H(1)              -0.00024      -1.08788      -0.38818      -0.36288
    14  H(1)              -0.00095      -4.22491      -1.50755      -1.40928
 --------------------------------------------------------
       Center         ----  Spin Dipole Couplings  ----
                      3XX-RR        3YY-RR        3ZZ-RR
 --------------------------------------------------------
     1   Atom        0.231664     -0.118825     -0.112839
     2   Atom        1.485359     -0.860565     -0.624793
     3   Atom        0.033272     -0.017708     -0.015564
     4   Atom        0.198314     -0.252559      0.054245
     5   Atom       -0.002783      0.011658     -0.008875
     6   Atom        0.010720     -0.005900     -0.004820
     7   Atom        0.005634     -0.007980      0.002346
     8   Atom        0.157933     -0.089814     -0.068119
     9   Atom       -0.011037     -0.031783      0.042820
    10   Atom       -0.024311      0.052525     -0.028214
    11   Atom       -0.001140      0.004814     -0.003674
    12   Atom        0.000761      0.001995     -0.002756
    13   Atom       -0.001409      0.006530     -0.005121
    14   Atom       -0.002032     -0.007985      0.010018
 --------------------------------------------------------
                        XY            XZ            YZ
 --------------------------------------------------------
     1   Atom        0.154312      0.077824      0.074114
     2   Atom        0.412674      0.896177      0.139174
     3   Atom       -0.006629      0.011580      0.000995
     4   Atom        0.246174      0.481625      0.207712
     5   Atom       -0.007741     -0.000347     -0.000104
     6   Atom       -0.000917      0.004058      0.003715
     7   Atom       -0.000985     -0.010714      0.001642
     8   Atom        0.086532      0.081031      0.029576
     9   Atom        0.021824     -0.011249     -0.017184
    10   Atom        0.003194      0.019172     -0.005839
    11   Atom       -0.003846      0.001841     -0.003360
    12   Atom       -0.003450     -0.000601      0.001325
    13   Atom       -0.004201     -0.001158      0.004197
    14   Atom        0.006737     -0.009969     -0.004148
 --------------------------------------------------------


 ---------------------------------------------------------------------------------
              Anisotropic Spin Dipole Couplings in Principal Axis System
 ---------------------------------------------------------------------------------

       Atom             a.u.   MegaHertz   Gauss  10(-4) cm-1        Axes

              Baa    -0.2023    14.636     5.223     4.882 -0.2045  0.8337 -0.5130
     1 O(17)  Bbb    -0.1108     8.021     2.862     2.675 -0.3759  0.4170  0.8275
              Bcc     0.3131   -22.657    -8.085    -7.558  0.9038  0.3620  0.2281
 
              Baa    -0.9586    69.365    24.751    23.138 -0.3742  0.3651  0.8524
     2 O(17)  Bbb    -0.9250    66.936    23.884    22.327 -0.0094  0.9177 -0.3972
              Bcc     1.8837  -136.300   -48.635   -45.465  0.9273  0.1567  0.3400
 
              Baa    -0.0207    -2.780    -0.992    -0.927  0.2288  0.7211 -0.6539
     3 C(13)  Bbb    -0.0159    -2.132    -0.761    -0.711 -0.0789  0.6833  0.7259
              Bcc     0.0366     4.911     1.752     1.638  0.9703 -0.1145  0.2132
 
              Baa    -0.3632   -48.738   -17.391   -16.257  0.6589 -0.5900 -0.4666
     4 C(13)  Bbb    -0.3567   -47.870   -17.081   -15.968  0.2185  0.7436 -0.6319
              Bcc     0.7199    96.608    34.472    32.225  0.7198  0.3144  0.6189
 
              Baa    -0.0089    -1.197    -0.427    -0.399  0.1188  0.0497  0.9917
     5 C(13)  Bbb    -0.0061    -0.819    -0.292    -0.273  0.9093  0.3956 -0.1287
              Bcc     0.0150     2.016     0.719     0.672 -0.3987  0.9171  0.0018
 
              Baa    -0.0097    -5.167    -1.844    -1.724  0.1678  0.7110 -0.6829
     6 H(1)   Bbb    -0.0020    -1.084    -0.387    -0.362 -0.1692  0.7032  0.6905
              Bcc     0.0117     6.251     2.231     2.085  0.9712 -0.0003  0.2383
 
              Baa    -0.0084    -4.462    -1.592    -1.488 -0.1857  0.9263 -0.3278
     7 H(1)   Bbb    -0.0066    -3.527    -1.258    -1.176  0.6288  0.3683  0.6848
              Bcc     0.0150     7.989     2.851     2.665  0.7550 -0.0790 -0.6509
 
              Baa    -0.1176   -62.772   -22.399   -20.938 -0.2547  0.9548 -0.1535
     8 H(1)   Bbb    -0.0941   -50.184   -17.907   -16.740 -0.3256  0.0648  0.9433
              Bcc     0.2117   112.956    40.305    37.678  0.9106  0.2902  0.2944
 
              Baa    -0.0465   -24.787    -8.845    -8.268 -0.4979  0.8611  0.1030
     9 H(1)   Bbb    -0.0044    -2.337    -0.834    -0.780  0.8269  0.4356  0.3557
              Bcc     0.0508    27.124     9.679     9.048 -0.2614 -0.2623  0.9289
 
              Baa    -0.0460   -24.522    -8.750    -8.180 -0.6670  0.0656  0.7422
    10 H(1)   Bbb    -0.0070    -3.752    -1.339    -1.251  0.7447  0.0255  0.6670
              Bcc     0.0530    28.273    10.089     9.431  0.0249  0.9975 -0.0659
 
              Baa    -0.0049    -2.640    -0.942    -0.881 -0.2135  0.2417  0.9466
    11 H(1)   Bbb    -0.0030    -1.608    -0.574    -0.536  0.8807  0.4669  0.0794
              Bcc     0.0080     4.247     1.516     1.417 -0.4228  0.8506 -0.3126
 
              Baa    -0.0031    -1.680    -0.599    -0.560 -0.1658 -0.3488  0.9224
    12 H(1)   Bbb    -0.0020    -1.058    -0.378    -0.353  0.7631  0.5472  0.3440
              Bcc     0.0051     2.738     0.977     0.913 -0.6247  0.7609  0.1754
 
              Baa    -0.0065    -3.460    -1.235    -1.154 -0.0500 -0.3211  0.9457
    13 H(1)   Bbb    -0.0031    -1.665    -0.594    -0.555  0.9286  0.3336  0.1624
              Bcc     0.0096     5.125     1.829     1.710 -0.3677  0.8863  0.2815
 
              Baa    -0.0126    -6.738    -2.404    -2.248 -0.6152  0.7778 -0.1283
    14 H(1)   Bbb    -0.0049    -2.631    -0.939    -0.878  0.6025  0.5689  0.5597
              Bcc     0.0176     9.370     3.343     3.125 -0.5084 -0.2670  0.8187
 

 ---------------------------------------------------------------------------------

 No NMR shielding tensors so no spin-rotation constants.
 Leave Link  601 at Thu Sep  5 16:54:55 2019, MaxMem=   671088640 cpu:             129.3 elap:              65.5
 (Enter /shared/centos7/gaussian/g16/l9999.exe)
 1\1\GINC-C0105\FOpt\UM062X\CC-pVTZ\C3H9O2(2)\HARMS.N\05-Sep-2019\0\\#p
  m062x/cc-pVTZ Opt=(ModRedun,Loose,maxcycles=900) Int(Grid=SG1) scf=(m
 axcycle=900)\\Gaussian input prepared by ASE\\0,2\O,1.8805719017,-1.22
 35238531,4.981885276\O,1.8190515553,-1.9036509315,3.7675140712\C,3.486
 6374338,0.5954117431,2.1512906844\C,2.1121671371,0.0095359776,2.312997
 9192\C,4.1790592462,0.8478417724,3.4861002927\H,3.4030607587,1.5371922
 536,1.595204477\H,4.0950228778,-0.0637140499,1.529257246\H,2.281101406
 5,-1.1658979355,2.9935725281\H,1.458765792,0.5332921925,3.0059964313\H
 ,1.6055088908,-0.3110602722,1.4068759448\H,3.6014761285,1.5424727792,4
 .0963264543\H,5.171304643,1.2710467804,3.3410481279\H,4.2752013878,-0.
 0783104501,4.0515861816\H,0.9682891518,-0.937786279,5.1107477066\\Vers
 ion=EM64L-G16RevA.03\State=2-A\HF=-269.9787975\S2=0.759912\S2-1=0.\S2A
 =0.750049\RMSD=5.101e-09\RMSF=3.054e-03\Dipole=-0.3105799,0.7761559,-0
 .3337994\Quadrupole=2.3435415,-2.8800466,0.536505,-0.6789791,-2.157315
 1,1.0745401\PG=C01 [X(C3H9O2)]\\@


    WHAT WE HAVE LEARNED
 IS LIKE A HANDFUL OF EARTH;
  WHAT WE HAVE YET TO LEARN
   IS LIKE THE WHOLE WORLD.

         -- AVVAYIAR
 Job cpu time:       0 days 11 hours 22 minutes 55.6 seconds.
 Elapsed time:       0 days  5 hours 47 minutes 33.6 seconds.
 File lengths (MBytes):  RWF=    304 Int=      0 D2E=      0 Chk=     32 Scr=     32
 Normal termination of Gaussian 16 at Thu Sep  5 16:54:57 2019.
