 Entering Gaussian System, Link 0=g16
 Input=med/ts/CCC+[O]O_[CH2]CC+OO/conformers/CCC+[O]O_[CH2]CC+OO_forward_8.com
 Output=med/ts/CCC+[O]O_[CH2]CC+OO/conformers/CCC+[O]O_[CH2]CC+OO_forward_8.log
 Initial command:
 /shared/centos7/gaussian/g16/l1.exe "/scratch/harms.n/gauss_scrdir/Gau-31295.inp" -scrdir="/scratch/harms.n/gauss_scrdir/"
 Entering Link 1 = /shared/centos7/gaussian/g16/l1.exe PID=     31296.
  
 Copyright (c) 1988,1990,1992,1993,1995,1998,2003,2009,2016,
            Gaussian, Inc.  All Rights Reserved.
  
 This is part of the Gaussian(R) 16 program.  It is based on
 the Gaussian(R) 09 system (copyright 2009, Gaussian, Inc.),
 the Gaussian(R) 03 system (copyright 2003, Gaussian, Inc.),
 the Gaussian(R) 98 system (copyright 1998, Gaussian, Inc.),
 the Gaussian(R) 94 system (copyright 1995, Gaussian, Inc.),
 the Gaussian 92(TM) system (copyright 1992, Gaussian, Inc.),
 the Gaussian 90(TM) system (copyright 1990, Gaussian, Inc.),
 the Gaussian 88(TM) system (copyright 1988, Gaussian, Inc.),
 the Gaussian 86(TM) system (copyright 1986, Carnegie Mellon
 University), and the Gaussian 82(TM) system (copyright 1983,
 Carnegie Mellon University). Gaussian is a federally registered
 trademark of Gaussian, Inc.
  
 This software contains proprietary and confidential information,
 including trade secrets, belonging to Gaussian, Inc.
  
 This software is provided under written license and may be
 used, copied, transmitted, or stored only in accord with that
 written license.
  
 The following legend is applicable only to US Government
 contracts under FAR:
  
                    RESTRICTED RIGHTS LEGEND
  
 Use, reproduction and disclosure by the US Government is
 subject to restrictions as set forth in subparagraphs (a)
 and (c) of the Commercial Computer Software - Restricted
 Rights clause in FAR 52.227-19.
  
 Gaussian, Inc.
 340 Quinnipiac St., Bldg. 40, Wallingford CT 06492
  
  
 ---------------------------------------------------------------
 Warning -- This program may not be used in any manner that
 competes with the business of Gaussian, Inc. or will provide
 assistance to any competitor of Gaussian, Inc.  The licensee
 of this program is prohibited from giving any competitor of
 Gaussian, Inc. access to this program.  By using this program,
 the user acknowledges that Gaussian, Inc. is engaged in the
 business of creating and licensing software in the field of
 computational chemistry and represents and warrants to the
 licensee that it is not a competitor of Gaussian, Inc. and that
 it will not use this program in any manner prohibited above.
 ---------------------------------------------------------------
  

 Cite this work as:
 Gaussian 16, Revision A.03,
 M. J. Frisch, G. W. Trucks, H. B. Schlegel, G. E. Scuseria, 
 M. A. Robb, J. R. Cheeseman, G. Scalmani, V. Barone, 
 G. A. Petersson, H. Nakatsuji, X. Li, M. Caricato, A. V. Marenich, 
 J. Bloino, B. G. Janesko, R. Gomperts, B. Mennucci, H. P. Hratchian, 
 J. V. Ortiz, A. F. Izmaylov, J. L. Sonnenberg, D. Williams-Young, 
 F. Ding, F. Lipparini, F. Egidi, J. Goings, B. Peng, A. Petrone, 
 T. Henderson, D. Ranasinghe, V. G. Zakrzewski, J. Gao, N. Rega, 
 G. Zheng, W. Liang, M. Hada, M. Ehara, K. Toyota, R. Fukuda, 
 J. Hasegawa, M. Ishida, T. Nakajima, Y. Honda, O. Kitao, H. Nakai, 
 T. Vreven, K. Throssell, J. A. Montgomery, Jr., J. E. Peralta, 
 F. Ogliaro, M. J. Bearpark, J. J. Heyd, E. N. Brothers, K. N. Kudin, 
 V. N. Staroverov, T. A. Keith, R. Kobayashi, J. Normand, 
 K. Raghavachari, A. P. Rendell, J. C. Burant, S. S. Iyengar, 
 J. Tomasi, M. Cossi, J. M. Millam, M. Klene, C. Adamo, R. Cammi, 
 J. W. Ochterski, R. L. Martin, K. Morokuma, O. Farkas, 
 J. B. Foresman, and D. J. Fox, Gaussian, Inc., Wallingford CT, 2016.
 
 ******************************************
 Gaussian 16:  EM64L-G16RevA.03 25-Dec-2016
                 5-Sep-2019 
 ******************************************
 %nprocshared=20
 Will use up to   20 processors via shared memory.
 %mem=5GB
 ----------------------------------------------------------------------
 #p m062x/cc-pVTZ opt=(ts,calcfc,noeigentest,maxcycles=900) freq scf=(m
 axcycle=900) IOP(7/33=1,2/16=3)
 ----------------------------------------------------------------------
 1/5=1,6=900,10=4,11=1,18=20,26=3,38=1/1,3;
 2/9=110,12=2,16=3,17=6,18=5,40=1/2;
 3/5=16,6=1,11=2,25=1,30=1,71=2,74=-55,140=1/1,2,3;
 4//1;
 5/5=2,7=900,38=5/2;
 8/6=4,10=90,11=11/1;
 11/6=1,8=1,9=11,15=111,16=1/1,2,10;
 10/6=1,13=1/2;
 6/7=2,8=2,9=2,10=2,28=1/1;
 7/10=1,18=20,25=1,33=1/1,2,3,16;
 1/5=1,6=900,10=4,11=1,18=20,26=3/3(2);
 2/9=110,16=3/2;
 99//99;
 2/9=110,16=3/2;
 3/5=16,6=1,11=2,25=1,30=1,71=1,74=-55/1,2,3;
 4/5=5,16=3,69=1/1;
 5/5=2,7=900,38=5/2;
 7/33=1/1,2,3,16;
 1/5=1,6=900,11=1,18=20,26=3/3(-5);
 2/9=110,16=3/2;
 6/7=2,8=2,9=2,10=2,19=2,28=1/1;
 99/9=1/99;
 Leave Link    1 at Thu Sep  5 19:06:37 2019, MaxMem=   671088640 cpu:               2.9 elap:               1.5
 (Enter /shared/centos7/gaussian/g16/l101.exe)
 ------------------------------
 Gaussian input prepared by ASE
 ------------------------------
 Symbolic Z-matrix:
 Charge =  0 Multiplicity = 2
 O                     1.79482   0.54883   0.45987 
 O                     1.65381  -0.34251  -0.59908 
 C                    -1.65404  -0.36802  -0.06465 
 C                    -0.43544  -1.16722   0.30462 
 C                    -1.38177   1.13401  -0.09571 
 H                    -2.43989  -0.57601   0.67111 
 H                    -2.04712  -0.69762  -1.02708 
 H                     0.5697   -0.76316  -0.53191 
 H                     0.03855  -0.8951    1.24157 
 H                    -0.48621  -2.23919   0.13516 
 H                    -0.96254   1.46605   0.85464 
 H                    -2.29086   1.70134  -0.2876 
 H                    -0.66476   1.3693   -0.88392 
 H                     1.52157   1.39126   0.07617 
 
 Add virtual bond connecting atoms H8         and O2         Dist= 2.20D+00.
 Add virtual bond connecting atoms H8         and C4         Dist= 2.59D+00.
 ITRead=  0  0  0  0  0  0  0  0  0  0  0  0  0  0
 MicOpt= -1 -1 -1 -1 -1 -1 -1 -1 -1 -1 -1 -1 -1 -1
 NAtoms=     14 NQM=       14 NQMF=       0 NMMI=      0 NMMIF=      0
                NMic=       0 NMicF=      0.
                    Isotopes and Nuclear Properties:
 (Nuclear quadrupole moments (NQMom) in fm**2, nuclear magnetic moments (NMagM)
  in nuclear magnetons)

  Atom         1           2           3           4           5           6           7           8           9          10
 IAtWgt=          16          16          12          12          12           1           1           1           1           1
 AtmWgt=  15.9949146  15.9949146  12.0000000  12.0000000  12.0000000   1.0078250   1.0078250   1.0078250   1.0078250   1.0078250
 NucSpn=           0           0           0           0           0           1           1           1           1           1
 AtZEff=  -0.0000000  -0.0000000  -0.0000000  -0.0000000  -0.0000000  -0.0000000  -0.0000000  -0.0000000  -0.0000000  -0.0000000
 NQMom=    0.0000000   0.0000000   0.0000000   0.0000000   0.0000000   0.0000000   0.0000000   0.0000000   0.0000000   0.0000000
 NMagM=    0.0000000   0.0000000   0.0000000   0.0000000   0.0000000   2.7928460   2.7928460   2.7928460   2.7928460   2.7928460
 AtZNuc=   8.0000000   8.0000000   6.0000000   6.0000000   6.0000000   1.0000000   1.0000000   1.0000000   1.0000000   1.0000000

  Atom        11          12          13          14
 IAtWgt=           1           1           1           1
 AtmWgt=   1.0078250   1.0078250   1.0078250   1.0078250
 NucSpn=           1           1           1           1
 AtZEff=  -0.0000000  -0.0000000  -0.0000000  -0.0000000
 NQMom=    0.0000000   0.0000000   0.0000000   0.0000000
 NMagM=    2.7928460   2.7928460   2.7928460   2.7928460
 AtZNuc=   1.0000000   1.0000000   1.0000000   1.0000000
 Leave Link  101 at Thu Sep  5 19:06:39 2019, MaxMem=   671088640 cpu:               3.1 elap:               1.6
 (Enter /shared/centos7/gaussian/g16/l103.exe)

 GradGradGradGradGradGradGradGradGradGradGradGradGradGradGradGradGradGrad
 Berny optimization.
 Initialization pass.
                           ----------------------------
                           !    Initial Parameters    !
                           ! (Angstroms and Degrees)  !
 --------------------------                            --------------------------
 ! Name  Definition              Value          Derivative Info.                !
 --------------------------------------------------------------------------------
 ! R1    R(1,2)                  1.3913         calculate D2E/DX2 analytically  !
 ! R2    R(1,14)                 0.9652         calculate D2E/DX2 analytically  !
 ! R3    R(2,8)                  1.1648         calculate D2E/DX2 analytically  !
 ! R4    R(3,4)                  1.5033         calculate D2E/DX2 analytically  !
 ! R5    R(3,5)                  1.5268         calculate D2E/DX2 analytically  !
 ! R6    R(3,6)                  1.0964         calculate D2E/DX2 analytically  !
 ! R7    R(3,7)                  1.0906         calculate D2E/DX2 analytically  !
 ! R8    R(4,8)                  1.3687         calculate D2E/DX2 analytically  !
 ! R9    R(4,9)                  1.0847         calculate D2E/DX2 analytically  !
 ! R10   R(4,10)                 1.0865         calculate D2E/DX2 analytically  !
 ! R11   R(5,11)                 1.0905         calculate D2E/DX2 analytically  !
 ! R12   R(5,12)                 1.0886         calculate D2E/DX2 analytically  !
 ! R13   R(5,13)                 1.0912         calculate D2E/DX2 analytically  !
 ! A1    A(2,1,14)             103.174          calculate D2E/DX2 analytically  !
 ! A2    A(1,2,8)              106.3673         calculate D2E/DX2 analytically  !
 ! A3    A(4,3,5)              112.5463         calculate D2E/DX2 analytically  !
 ! A4    A(4,3,6)              108.3794         calculate D2E/DX2 analytically  !
 ! A5    A(4,3,7)              110.3809         calculate D2E/DX2 analytically  !
 ! A6    A(5,3,6)              109.152          calculate D2E/DX2 analytically  !
 ! A7    A(5,3,7)              110.0976         calculate D2E/DX2 analytically  !
 ! A8    A(6,3,7)              106.053          calculate D2E/DX2 analytically  !
 ! A9    A(3,4,8)              106.751          calculate D2E/DX2 analytically  !
 ! A10   A(3,4,9)              115.6587         calculate D2E/DX2 analytically  !
 ! A11   A(3,4,10)             116.6365         calculate D2E/DX2 analytically  !
 ! A12   A(8,4,9)               97.6409         calculate D2E/DX2 analytically  !
 ! A13   A(8,4,10)             103.3127         calculate D2E/DX2 analytically  !
 ! A14   A(9,4,10)             113.7449         calculate D2E/DX2 analytically  !
 ! A15   A(3,5,11)             110.5099         calculate D2E/DX2 analytically  !
 ! A16   A(3,5,12)             111.5521         calculate D2E/DX2 analytically  !
 ! A17   A(3,5,13)             110.1203         calculate D2E/DX2 analytically  !
 ! A18   A(11,5,12)            108.4194         calculate D2E/DX2 analytically  !
 ! A19   A(11,5,13)            108.1333         calculate D2E/DX2 analytically  !
 ! A20   A(12,5,13)            108.0003         calculate D2E/DX2 analytically  !
 ! A21   A(2,8,4)              145.6251         calculate D2E/DX2 analytically  !
 ! D1    D(14,1,2,8)           -90.6388         calculate D2E/DX2 analytically  !
 ! D2    D(1,2,8,4)            -36.7237         calculate D2E/DX2 analytically  !
 ! D3    D(5,3,4,8)            -52.0129         calculate D2E/DX2 analytically  !
 ! D4    D(5,3,4,9)             55.3627         calculate D2E/DX2 analytically  !
 ! D5    D(5,3,4,10)          -166.8465         calculate D2E/DX2 analytically  !
 ! D6    D(6,3,4,8)           -172.8274         calculate D2E/DX2 analytically  !
 ! D7    D(6,3,4,9)            -65.4518         calculate D2E/DX2 analytically  !
 ! D8    D(6,3,4,10)            72.339          calculate D2E/DX2 analytically  !
 ! D9    D(7,3,4,8)             71.4325         calculate D2E/DX2 analytically  !
 ! D10   D(7,3,4,9)            178.8082         calculate D2E/DX2 analytically  !
 ! D11   D(7,3,4,10)           -43.401          calculate D2E/DX2 analytically  !
 ! D12   D(4,3,5,11)           -54.8381         calculate D2E/DX2 analytically  !
 ! D13   D(4,3,5,12)          -175.5327         calculate D2E/DX2 analytically  !
 ! D14   D(4,3,5,13)            64.5639         calculate D2E/DX2 analytically  !
 ! D15   D(6,3,5,11)            65.5323         calculate D2E/DX2 analytically  !
 ! D16   D(6,3,5,12)           -55.1623         calculate D2E/DX2 analytically  !
 ! D17   D(6,3,5,13)          -175.0657         calculate D2E/DX2 analytically  !
 ! D18   D(7,3,5,11)          -178.4412         calculate D2E/DX2 analytically  !
 ! D19   D(7,3,5,12)            60.8642         calculate D2E/DX2 analytically  !
 ! D20   D(7,3,5,13)           -59.0392         calculate D2E/DX2 analytically  !
 ! D21   D(3,4,8,2)            125.0399         calculate D2E/DX2 analytically  !
 ! D22   D(9,4,8,2)              5.2627         calculate D2E/DX2 analytically  !
 ! D23   D(10,4,8,2)          -111.432          calculate D2E/DX2 analytically  !
 --------------------------------------------------------------------------------
 Trust Radius=3.00D-01 FncErr=1.00D-07 GrdErr=1.00D-06 EigMax=2.50D+02 EigMin=1.00D-04
 Number of steps in this run=    100 maximum allowed number of steps=    100.
 Search for a saddle point of order  1.
 GradGradGradGradGradGradGradGradGradGradGradGradGradGradGradGradGradGrad

 Leave Link  103 at Thu Sep  5 19:06:40 2019, MaxMem=   671088640 cpu:               1.5 elap:               0.8
 (Enter /shared/centos7/gaussian/g16/l202.exe)
                          Input orientation:                          
 ---------------------------------------------------------------------
 Center     Atomic      Atomic             Coordinates (Angstroms)
 Number     Number       Type             X           Y           Z
 ---------------------------------------------------------------------
      1          8           0        1.794819    0.548830    0.459867
      2          8           0        1.653814   -0.342512   -0.599083
      3          6           0       -1.654039   -0.368024   -0.064645
      4          6           0       -0.435443   -1.167221    0.304619
      5          6           0       -1.381770    1.134009   -0.095711
      6          1           0       -2.439886   -0.576007    0.671110
      7          1           0       -2.047124   -0.697619   -1.027083
      8          1           0        0.569702   -0.763160   -0.531911
      9          1           0        0.038549   -0.895099    1.241574
     10          1           0       -0.486214   -2.239191    0.135163
     11          1           0       -0.962537    1.466053    0.854640
     12          1           0       -2.290862    1.701337   -0.287600
     13          1           0       -0.664756    1.369299   -0.883917
     14          1           0        1.521573    1.391262    0.076171
 ---------------------------------------------------------------------
                    Distance matrix (angstroms):
                    1          2          3          4          5
     1  O    0.000000
     2  O    1.391312   0.000000
     3  C    3.606987   3.350846   0.000000
     4  C    2.818333   2.421119   1.503346   0.000000
     5  C    3.277471   3.412956   1.526826   2.520210   0.000000
     6  H    4.386640   4.292585   1.096425   2.121707   2.152157
     7  H    4.304089   3.742489   1.090612   2.142772   2.159864
     8  H    2.050818   1.164799   2.306403   1.368709   2.756404
     9  H    2.404263   2.510468   2.202015   1.084714   2.814768
    10  H    3.616850   2.952326   2.214724   1.086468   3.497685
    11  H    2.932602   3.497072   2.164971   2.741256   1.090494
    12  H    4.310426   4.453629   2.176582   3.467265   1.088637
    13  H    2.920348   2.896065   2.160597   2.810540   1.091210
    14  H    0.965183   1.865322   3.633102   3.229231   2.919781
                    6          7          8          9         10
     6  H    0.000000
     7  H    1.747258   0.000000
     8  H    3.246522   2.664070   0.000000
     9  H    2.563179   3.088015   1.856012   0.000000
    10  H    2.621117   2.482680   1.933550   1.818270   0.000000
    11  H    2.527104   3.065728   3.039683   2.593633   3.804387
    12  H    2.475405   2.522149   3.783683   3.808675   4.354681
    13  H    3.058335   2.490700   2.489011   3.184313   3.753878
    14  H    4.462875   4.279742   2.432562   2.963945   4.149082
                   11         12         13         14
    11  H    0.000000
    12  H    1.767631   0.000000
    13  H    1.766526   1.763537   0.000000
    14  H    2.604306   3.842283   2.387946   0.000000
 Stoichiometry    C3H9O2(2)
 Framework group  C1[X(C3H9O2)]
 Deg. of freedom    36
 Full point group                 C1      NOp   1
 Largest Abelian subgroup         C1      NOp   1
 Largest concise Abelian subgroup C1      NOp   1
                         Standard orientation:                         
 ---------------------------------------------------------------------
 Center     Atomic      Atomic             Coordinates (Angstroms)
 Number     Number       Type             X           Y           Z
 ---------------------------------------------------------------------
      1          8           0        1.794819    0.548830    0.459867
      2          8           0        1.653814   -0.342512   -0.599083
      3          6           0       -1.654039   -0.368024   -0.064645
      4          6           0       -0.435443   -1.167221    0.304619
      5          6           0       -1.381770    1.134009   -0.095711
      6          1           0       -2.439886   -0.576007    0.671110
      7          1           0       -2.047124   -0.697619   -1.027083
      8          1           0        0.569702   -0.763160   -0.531911
      9          1           0        0.038549   -0.895099    1.241574
     10          1           0       -0.486214   -2.239191    0.135163
     11          1           0       -0.962537    1.466053    0.854640
     12          1           0       -2.290862    1.701337   -0.287600
     13          1           0       -0.664756    1.369299   -0.883917
     14          1           0        1.521573    1.391262    0.076171
 ---------------------------------------------------------------------
 Rotational constants (GHZ):           7.0519616           2.6901461           2.2086555
 Leave Link  202 at Thu Sep  5 19:06:41 2019, MaxMem=   671088640 cpu:               3.5 elap:               1.8
 (Enter /shared/centos7/gaussian/g16/l301.exe)
 Standard basis: CC-pVTZ (5D, 7F)
 Ernie: Thresh=  0.10000D-02 Tol=  0.10000D-05 Strict=F.
 Ernie:  15 primitive shells out of 202 were deleted.
 There are   310 symmetry adapted cartesian basis functions of A   symmetry.
 There are   276 symmetry adapted basis functions of A   symmetry.
   276 basis functions,   413 primitive gaussians,   310 cartesian basis functions
    22 alpha electrons       21 beta electrons
       nuclear repulsion energy       190.1223740470 Hartrees.
 IExCor= 4336 DFT=T Ex+Corr=M062X ExCW=0 ScaHFX=  0.540000
 ScaDFX=  1.000000  1.000000  1.000000  1.000000 ScalE2=  1.000000  1.000000
 IRadAn=      5 IRanWt=     -1 IRanGd=            0 ICorTp=0 IEmpDi=  4
 NAtoms=   14 NActive=   14 NUniq=   14 SFac= 1.00D+00 NAtFMM=   60 NAOKFM=F Big=F
 Integral buffers will be    131072 words long.
 Raffenetti 2 integral format.
 Two-electron integral symmetry is turned on.
 Leave Link  301 at Thu Sep  5 19:06:42 2019, MaxMem=   671088640 cpu:               1.9 elap:               1.0
 (Enter /shared/centos7/gaussian/g16/l302.exe)
 NPDir=0 NMtPBC=     1 NCelOv=     1 NCel=       1 NClECP=     1 NCelD=      1
         NCelK=      1 NCelE2=     1 NClLst=     1 CellRange=     0.0.
 One-electron integrals computed using PRISM.
 One-electron integral symmetry used in STVInt
 NBasis=   276 RedAO= T EigKep=  6.51D-04  NBF=   276
 NBsUse=   276 1.00D-06 EigRej= -1.00D+00 NBFU=   276
 Precomputing XC quadrature grid using
 IXCGrd= 4 IRadAn=           5 IRanWt=          -1 IRanGd=           0 AccXCQ= 0.00D+00.
 Generated NRdTot=       0 NPtTot=           0 NUsed=           0 NTot=          32
 NSgBfM=   310   310   310   310   310 MxSgAt=    14 MxSgA2=    14.
 Leave Link  302 at Thu Sep  5 19:07:59 2019, MaxMem=   671088640 cpu:             153.4 elap:              76.7
 (Enter /shared/centos7/gaussian/g16/l303.exe)
 DipDrv:  MaxL=1.
 Leave Link  303 at Thu Sep  5 19:08:03 2019, MaxMem=   671088640 cpu:               7.7 elap:               3.9
 (Enter /shared/centos7/gaussian/g16/l401.exe)
 ExpMin= 1.03D-01 ExpMax= 1.53D+04 ExpMxC= 5.22D+02 IAcc=3 IRadAn=         5 AccDes= 0.00D+00
 Harris functional with IExCor= 1009 and IRadAn=       5 diagonalized for initial guess.
 HarFok:  IExCor= 1009 AccDes= 0.00D+00 IRadAn=         5 IDoV= 1 UseB2=F ITyADJ=14
 ICtDFT=  3500011 ScaDFX=  1.000000  1.000000  1.000000  1.000000
 FoFCou: FMM=F IPFlag=           0 FMFlag=      100000 FMFlg1=           0
         NFxFlg=           0 DoJE=T BraDBF=F KetDBF=T FulRan=T
         wScrn=  0.000000 ICntrl=       500 IOpCl=  0 I1Cent=   200000004 NGrid=           0
         NMat0=    1 NMatS0=      1 NMatT0=    0 NMatD0=    1 NMtDS0=    0 NMtDT0=    0
 Petite list used in FoFCou.
 Harris En= -269.911093421548    
 JPrj=0 DoOrth=F DoCkMO=F.
 Initial guess <Sx>= 0.0000 <Sy>= 0.0000 <Sz>= 0.5000 <S**2>= 0.7500 S= 0.5000
 Leave Link  401 at Thu Sep  5 19:08:34 2019, MaxMem=   671088640 cpu:              60.8 elap:              30.5
 (Enter /shared/centos7/gaussian/g16/l502.exe)
 Integral symmetry usage will be decided dynamically.
 UHF open shell SCF:
 Using DIIS extrapolation, IDIIS=  1040.
 NGot=   671088640 LenX=   670887394 LenY=   670790853
 Requested convergence on RMS density matrix=1.00D-08 within 900 cycles.
 Requested convergence on MAX density matrix=1.00D-06.
 Requested convergence on             energy=1.00D-06.
 No special actions if energy rises.
 Fock matrices will be formed incrementally for  20 cycles.
 Integral accuracy reduced to 1.0D-05 until final iterations.

 Cycle   1  Pass 0  IDiag  1:
 FoFJK:  IHMeth= 1 ICntrl=       0 DoSepK=F KAlg= 0 I1Cent=           0 FoldK=F
 IRaf= 980000000 NMat=       1 IRICut=       1 DoRegI=T DoRafI=F ISym2E= 0 IDoP0=0 IntGTp=1.
 FoFCou: FMM=F IPFlag=           0 FMFlag=      100000 FMFlg1=           0
         NFxFlg=           0 DoJE=F BraDBF=F KetDBF=F FulRan=T
         wScrn=  0.000000 ICntrl=         0 IOpCl=  1 I1Cent=           0 NGrid=           0
         NMat0=    1 NMatS0=      1 NMatT0=    0 NMatD0=    1 NMtDS0=    0 NMtDT0=    0
 Symmetry not used in FoFCou.
 E= -269.784348179321    
 DIIS: error= 3.17D-02 at cycle   1 NSaved=   1.
 NSaved= 1 IEnMin= 1 EnMin= -269.784348179321     IErMin= 1 ErrMin= 3.17D-02
 ErrMax= 3.17D-02  0.00D+00 EMaxC= 1.00D-01 BMatC= 8.81D-01 BMatP= 8.81D-01
 IDIUse=3 WtCom= 6.83D-01 WtEn= 3.17D-01
 Coeff-Com:  0.100D+01
 Coeff-En:   0.100D+01
 Coeff:      0.100D+01
 Gap=     0.326 Goal=   None    Shift=    0.000
 Gap=     0.357 Goal=   None    Shift=    0.000
 GapD=    0.326 DampG=1.000 DampE=0.500 DampFc=0.5000 IDamp=-1.
 Damping current iteration by 5.00D-01
 RMSDP=2.04D-03 MaxDP=9.72D-02              OVMax= 2.03D-01

 Cycle   2  Pass 0  IDiag  1:
 RMSU=  1.02D-03    CP:  9.97D-01
 E= -269.881687313132     Delta-E=       -0.097339133811 Rises=F Damp=T
 DIIS: error= 5.38D-03 at cycle   2 NSaved=   2.
 NSaved= 2 IEnMin= 2 EnMin= -269.881687313132     IErMin= 2 ErrMin= 5.38D-03
 ErrMax= 5.38D-03  0.00D+00 EMaxC= 1.00D-01 BMatC= 7.09D-02 BMatP= 8.81D-01
 IDIUse=3 WtCom= 9.46D-01 WtEn= 5.38D-02
 Coeff-Com: -0.116D+00 0.112D+01
 Coeff-En:   0.000D+00 0.100D+01
 Coeff:     -0.110D+00 0.111D+01
 Gap=     0.352 Goal=   None    Shift=    0.000
 Gap=     0.358 Goal=   None    Shift=    0.000
 RMSDP=5.47D-04 MaxDP=2.09D-02 DE=-9.73D-02 OVMax= 9.07D-02

 Cycle   3  Pass 0  IDiag  1:
 RMSU=  5.43D-04    CP:  1.00D+00  1.02D+00
 E= -269.974120651023     Delta-E=       -0.092433337892 Rises=F Damp=F
 DIIS: error= 3.25D-03 at cycle   3 NSaved=   3.
 NSaved= 3 IEnMin= 3 EnMin= -269.974120651023     IErMin= 3 ErrMin= 3.25D-03
 ErrMax= 3.25D-03  0.00D+00 EMaxC= 1.00D-01 BMatC= 1.76D-02 BMatP= 7.09D-02
 IDIUse=3 WtCom= 9.68D-01 WtEn= 3.25D-02
 Coeff-Com: -0.840D-01 0.354D+00 0.730D+00
 Coeff-En:   0.000D+00 0.000D+00 0.100D+01
 Coeff:     -0.812D-01 0.343D+00 0.739D+00
 Gap=     0.346 Goal=   None    Shift=    0.000
 Gap=     0.280 Goal=   None    Shift=    0.000
 RMSDP=2.17D-04 MaxDP=7.13D-03 DE=-9.24D-02 OVMax= 5.25D-02

 Cycle   4  Pass 0  IDiag  1:
 RMSU=  1.90D-04    CP:  1.00D+00  1.08D+00  8.35D-01
 E= -269.977412457181     Delta-E=       -0.003291806158 Rises=F Damp=F
 DIIS: error= 1.90D-03 at cycle   4 NSaved=   4.
 NSaved= 4 IEnMin= 4 EnMin= -269.977412457181     IErMin= 4 ErrMin= 1.90D-03
 ErrMax= 1.90D-03  0.00D+00 EMaxC= 1.00D-01 BMatC= 6.54D-03 BMatP= 1.76D-02
 IDIUse=3 WtCom= 9.81D-01 WtEn= 1.90D-02
 Coeff-Com: -0.311D-01 0.777D-01 0.401D+00 0.553D+00
 Coeff-En:   0.000D+00 0.000D+00 0.112D+00 0.888D+00
 Coeff:     -0.305D-01 0.762D-01 0.395D+00 0.559D+00
 Gap=     0.344 Goal=   None    Shift=    0.000
 Gap=     0.284 Goal=   None    Shift=    0.000
 RMSDP=9.68D-05 MaxDP=4.33D-03 DE=-3.29D-03 OVMax= 1.12D-02

 Cycle   5  Pass 0  IDiag  1:
 RMSU=  6.72D-05    CP:  1.00D+00  1.08D+00  9.32D-01  7.60D-01
 E= -269.978648130261     Delta-E=       -0.001235673079 Rises=F Damp=F
 DIIS: error= 4.77D-04 at cycle   5 NSaved=   5.
 NSaved= 5 IEnMin= 5 EnMin= -269.978648130261     IErMin= 5 ErrMin= 4.77D-04
 ErrMax= 4.77D-04  0.00D+00 EMaxC= 1.00D-01 BMatC= 4.02D-04 BMatP= 6.54D-03
 IDIUse=3 WtCom= 9.95D-01 WtEn= 4.77D-03
 Coeff-Com: -0.192D-02-0.876D-02 0.803D-01 0.197D+00 0.734D+00
 Coeff-En:   0.000D+00 0.000D+00 0.000D+00 0.000D+00 0.100D+01
 Coeff:     -0.191D-02-0.871D-02 0.800D-01 0.196D+00 0.735D+00
 Gap=     0.346 Goal=   None    Shift=    0.000
 Gap=     0.285 Goal=   None    Shift=    0.000
 RMSDP=4.10D-05 MaxDP=1.42D-03 DE=-1.24D-03 OVMax= 9.54D-03

 Cycle   6  Pass 0  IDiag  1:
 RMSU=  2.82D-05    CP:  1.00D+00  1.07D+00  9.65D-01  8.73D-01  1.14D+00
 E= -269.978801979314     Delta-E=       -0.000153849054 Rises=F Damp=F
 DIIS: error= 4.14D-04 at cycle   6 NSaved=   6.
 NSaved= 6 IEnMin= 6 EnMin= -269.978801979314     IErMin= 6 ErrMin= 4.14D-04
 ErrMax= 4.14D-04  0.00D+00 EMaxC= 1.00D-01 BMatC= 1.12D-04 BMatP= 4.02D-04
 IDIUse=3 WtCom= 9.96D-01 WtEn= 4.14D-03
 Coeff-Com:  0.744D-02-0.219D-01-0.634D-01-0.856D-01 0.273D+00 0.891D+00
 Coeff-En:   0.000D+00 0.000D+00 0.000D+00 0.000D+00 0.000D+00 0.100D+01
 Coeff:      0.741D-02-0.219D-01-0.631D-01-0.852D-01 0.271D+00 0.891D+00
 Gap=     0.346 Goal=   None    Shift=    0.000
 Gap=     0.289 Goal=   None    Shift=    0.000
 RMSDP=3.07D-05 MaxDP=1.25D-03 DE=-1.54D-04 OVMax= 9.48D-03

 Cycle   7  Pass 0  IDiag  1:
 RMSU=  1.41D-05    CP:  1.00D+00  1.07D+00  9.80D-01  9.42D-01  1.46D+00
                    CP:  1.18D+00
 E= -269.978866082519     Delta-E=       -0.000064103205 Rises=F Damp=F
 DIIS: error= 1.17D-04 at cycle   7 NSaved=   7.
 NSaved= 7 IEnMin= 7 EnMin= -269.978866082519     IErMin= 7 ErrMin= 1.17D-04
 ErrMax= 1.17D-04  0.00D+00 EMaxC= 1.00D-01 BMatC= 3.22D-05 BMatP= 1.12D-04
 IDIUse=3 WtCom= 9.99D-01 WtEn= 1.17D-03
 Coeff-Com:  0.326D-02-0.620D-02-0.444D-01-0.997D-01-0.902D-01 0.407D+00
 Coeff-Com:  0.831D+00
 Coeff-En:   0.000D+00 0.000D+00 0.000D+00 0.000D+00 0.000D+00 0.000D+00
 Coeff-En:   0.100D+01
 Coeff:      0.326D-02-0.620D-02-0.444D-01-0.996D-01-0.901D-01 0.406D+00
 Coeff:      0.831D+00
 Gap=     0.347 Goal=   None    Shift=    0.000
 Gap=     0.289 Goal=   None    Shift=    0.000
 RMSDP=1.81D-05 MaxDP=5.71D-04 DE=-6.41D-05 OVMax= 4.27D-03

 Cycle   8  Pass 0  IDiag  1:
 RMSU=  5.81D-06    CP:  1.00D+00  1.07D+00  9.92D-01  9.71D-01  1.64D+00
                    CP:  1.47D+00  1.08D+00
 E= -269.978881697050     Delta-E=       -0.000015614530 Rises=F Damp=F
 DIIS: error= 3.37D-05 at cycle   8 NSaved=   8.
 NSaved= 8 IEnMin= 8 EnMin= -269.978881697050     IErMin= 8 ErrMin= 3.37D-05
 ErrMax= 3.37D-05  0.00D+00 EMaxC= 1.00D-01 BMatC= 2.01D-06 BMatP= 3.22D-05
 IDIUse=1 WtCom= 1.00D+00 WtEn= 0.00D+00
 Coeff-Com: -0.683D-03 0.232D-02 0.603D-02-0.870D-03-0.306D-01-0.522D-01
 Coeff-Com:  0.780D-01 0.998D+00
 Coeff:     -0.683D-03 0.232D-02 0.603D-02-0.870D-03-0.306D-01-0.522D-01
 Coeff:      0.780D-01 0.998D+00
 Gap=     0.347 Goal=   None    Shift=    0.000
 Gap=     0.289 Goal=   None    Shift=    0.000
 RMSDP=5.00D-06 MaxDP=1.39D-04 DE=-1.56D-05 OVMax= 1.53D-03

 Initial convergence to 1.0D-05 achieved.  Increase integral accuracy.
 Cycle   9  Pass 1  IDiag  1:
 E= -269.978882164396     Delta-E=       -0.000000467347 Rises=F Damp=F
 DIIS: error= 2.63D-05 at cycle   1 NSaved=   1.
 NSaved= 1 IEnMin= 1 EnMin= -269.978882164396     IErMin= 1 ErrMin= 2.63D-05
 ErrMax= 2.63D-05  0.00D+00 EMaxC= 1.00D-01 BMatC= 1.93D-06 BMatP= 1.93D-06
 IDIUse=1 WtCom= 1.00D+00 WtEn= 0.00D+00
 Coeff-Com:  0.100D+01
 Coeff:      0.100D+01
 Gap=     0.347 Goal=   None    Shift=    0.000
 Gap=     0.289 Goal=   None    Shift=    0.000
 RMSDP=5.00D-06 MaxDP=1.39D-04 DE=-4.67D-07 OVMax= 3.68D-04

 Cycle  10  Pass 1  IDiag  1:
 RMSU=  7.08D-06    CP:  1.00D+00
 E= -269.978882657315     Delta-E=       -0.000000492919 Rises=F Damp=F
 DIIS: error= 1.74D-05 at cycle   2 NSaved=   2.
 NSaved= 2 IEnMin= 2 EnMin= -269.978882657315     IErMin= 2 ErrMin= 1.74D-05
 ErrMax= 1.74D-05  0.00D+00 EMaxC= 1.00D-01 BMatC= 4.45D-07 BMatP= 1.93D-06
 IDIUse=1 WtCom= 1.00D+00 WtEn= 0.00D+00
 Coeff-Com:  0.227D+00 0.773D+00
 Coeff:      0.227D+00 0.773D+00
 Gap=     0.347 Goal=   None    Shift=    0.000
 Gap=     0.289 Goal=   None    Shift=    0.000
 RMSDP=1.45D-06 MaxDP=7.73D-05 DE=-4.93D-07 OVMax= 3.69D-04

 Cycle  11  Pass 1  IDiag  1:
 RMSU=  1.32D-06    CP:  1.00D+00  1.08D+00
 E= -269.978882803353     Delta-E=       -0.000000146038 Rises=F Damp=F
 DIIS: error= 1.20D-05 at cycle   3 NSaved=   3.
 NSaved= 3 IEnMin= 3 EnMin= -269.978882803353     IErMin= 3 ErrMin= 1.20D-05
 ErrMax= 1.20D-05  0.00D+00 EMaxC= 1.00D-01 BMatC= 2.23D-07 BMatP= 4.45D-07
 IDIUse=1 WtCom= 1.00D+00 WtEn= 0.00D+00
 Coeff-Com: -0.643D-01 0.380D+00 0.684D+00
 Coeff:     -0.643D-01 0.380D+00 0.684D+00
 Gap=     0.347 Goal=   None    Shift=    0.000
 Gap=     0.289 Goal=   None    Shift=    0.000
 RMSDP=9.80D-07 MaxDP=3.16D-05 DE=-1.46D-07 OVMax= 1.54D-04

 Cycle  12  Pass 1  IDiag  1:
 RMSU=  8.61D-07    CP:  1.00D+00  1.15D+00  1.10D+00
 E= -269.978882886194     Delta-E=       -0.000000082841 Rises=F Damp=F
 DIIS: error= 4.26D-06 at cycle   4 NSaved=   4.
 NSaved= 4 IEnMin= 4 EnMin= -269.978882886194     IErMin= 4 ErrMin= 4.26D-06
 ErrMax= 4.26D-06  0.00D+00 EMaxC= 1.00D-01 BMatC= 2.62D-08 BMatP= 2.23D-07
 IDIUse=1 WtCom= 1.00D+00 WtEn= 0.00D+00
 Coeff-Com: -0.435D-01 0.131D-01 0.111D+00 0.920D+00
 Coeff:     -0.435D-01 0.131D-01 0.111D+00 0.920D+00
 Gap=     0.347 Goal=   None    Shift=    0.000
 Gap=     0.289 Goal=   None    Shift=    0.000
 RMSDP=5.92D-07 MaxDP=1.97D-05 DE=-8.28D-08 OVMax= 1.69D-04

 Cycle  13  Pass 1  IDiag  1:
 RMSU=  3.08D-07    CP:  1.00D+00  1.18D+00  1.33D+00  1.40D+00
 E= -269.978882912144     Delta-E=       -0.000000025951 Rises=F Damp=F
 DIIS: error= 3.14D-06 at cycle   5 NSaved=   5.
 NSaved= 5 IEnMin= 5 EnMin= -269.978882912144     IErMin= 5 ErrMin= 3.14D-06
 ErrMax= 3.14D-06  0.00D+00 EMaxC= 1.00D-01 BMatC= 2.03D-08 BMatP= 2.62D-08
 IDIUse=1 WtCom= 1.00D+00 WtEn= 0.00D+00
 Coeff-Com:  0.119D-01-0.209D+00-0.380D+00 0.605D+00 0.972D+00
 Coeff:      0.119D-01-0.209D+00-0.380D+00 0.605D+00 0.972D+00
 Gap=     0.347 Goal=   None    Shift=    0.000
 Gap=     0.289 Goal=   None    Shift=    0.000
 RMSDP=6.85D-07 MaxDP=2.18D-05 DE=-2.60D-08 OVMax= 1.72D-04

 Cycle  14  Pass 1  IDiag  1:
 RMSU=  2.01D-07    CP:  1.00D+00  1.21D+00  1.57D+00  2.00D+00  1.35D+00
 E= -269.978882928836     Delta-E=       -0.000000016691 Rises=F Damp=F
 DIIS: error= 9.71D-07 at cycle   6 NSaved=   6.
 NSaved= 6 IEnMin= 6 EnMin= -269.978882928836     IErMin= 6 ErrMin= 9.71D-07
 ErrMax= 9.71D-07  0.00D+00 EMaxC= 1.00D-01 BMatC= 2.01D-09 BMatP= 2.03D-08
 IDIUse=1 WtCom= 1.00D+00 WtEn= 0.00D+00
 Coeff-Com:  0.970D-02-0.943D-01-0.188D+00 0.173D+00 0.427D+00 0.672D+00
 Coeff:      0.970D-02-0.943D-01-0.188D+00 0.173D+00 0.427D+00 0.672D+00
 Gap=     0.347 Goal=   None    Shift=    0.000
 Gap=     0.289 Goal=   None    Shift=    0.000
 RMSDP=1.52D-07 MaxDP=4.89D-06 DE=-1.67D-08 OVMax= 4.46D-05

 Cycle  15  Pass 1  IDiag  1:
 RMSU=  6.62D-08    CP:  1.00D+00  1.21D+00  1.61D+00  2.12D+00  1.55D+00
                    CP:  1.27D+00
 E= -269.978882930218     Delta-E=       -0.000000001382 Rises=F Damp=F
 DIIS: error= 5.65D-07 at cycle   7 NSaved=   7.
 NSaved= 7 IEnMin= 7 EnMin= -269.978882930218     IErMin= 7 ErrMin= 5.65D-07
 ErrMax= 5.65D-07  0.00D+00 EMaxC= 1.00D-01 BMatC= 4.18D-10 BMatP= 2.01D-09
 IDIUse=1 WtCom= 1.00D+00 WtEn= 0.00D+00
 Coeff-Com: -0.101D-02 0.430D-01 0.708D-01-0.151D+00-0.191D+00 0.199D+00
 Coeff-Com:  0.103D+01
 Coeff:     -0.101D-02 0.430D-01 0.708D-01-0.151D+00-0.191D+00 0.199D+00
 Coeff:      0.103D+01
 Gap=     0.347 Goal=   None    Shift=    0.000
 Gap=     0.289 Goal=   None    Shift=    0.000
 RMSDP=1.13D-07 MaxDP=4.37D-06 DE=-1.38D-09 OVMax= 3.64D-05

 Cycle  16  Pass 1  IDiag  1:
 RMSU=  3.75D-08    CP:  1.00D+00  1.21D+00  1.62D+00  2.16D+00  1.72D+00
                    CP:  1.68D+00  1.40D+00
 E= -269.978882930767     Delta-E=       -0.000000000549 Rises=F Damp=F
 DIIS: error= 2.41D-07 at cycle   8 NSaved=   8.
 NSaved= 8 IEnMin= 8 EnMin= -269.978882930767     IErMin= 8 ErrMin= 2.41D-07
 ErrMax= 2.41D-07  0.00D+00 EMaxC= 1.00D-01 BMatC= 7.79D-11 BMatP= 4.18D-10
 IDIUse=1 WtCom= 1.00D+00 WtEn= 0.00D+00
 Coeff-Com: -0.239D-02 0.267D-01 0.549D-01-0.638D-01-0.120D+00-0.112D+00
 Coeff-Com:  0.637D-01 0.115D+01
 Coeff:     -0.239D-02 0.267D-01 0.549D-01-0.638D-01-0.120D+00-0.112D+00
 Coeff:      0.637D-01 0.115D+01
 Gap=     0.347 Goal=   None    Shift=    0.000
 Gap=     0.289 Goal=   None    Shift=    0.000
 RMSDP=6.23D-08 MaxDP=3.01D-06 DE=-5.49D-10 OVMax= 2.24D-05

 Cycle  17  Pass 1  IDiag  1:
 RMSU=  1.54D-08    CP:  1.00D+00  1.21D+00  1.62D+00  2.17D+00  1.79D+00
                    CP:  1.88D+00  1.77D+00  1.69D+00
 E= -269.978882930912     Delta-E=       -0.000000000145 Rises=F Damp=F
 DIIS: error= 1.03D-07 at cycle   9 NSaved=   9.
 NSaved= 9 IEnMin= 9 EnMin= -269.978882930912     IErMin= 9 ErrMin= 1.03D-07
 ErrMax= 1.03D-07  0.00D+00 EMaxC= 1.00D-01 BMatC= 1.91D-11 BMatP= 7.79D-11
 IDIUse=1 WtCom= 1.00D+00 WtEn= 0.00D+00
 Coeff-Com: -0.181D-03-0.608D-02-0.562D-02 0.207D-01 0.282D-01-0.512D-01
 Coeff-Com: -0.260D+00 0.212D+00 0.106D+01
 Coeff:     -0.181D-03-0.608D-02-0.562D-02 0.207D-01 0.282D-01-0.512D-01
 Coeff:     -0.260D+00 0.212D+00 0.106D+01
 Gap=     0.347 Goal=   None    Shift=    0.000
 Gap=     0.289 Goal=   None    Shift=    0.000
 RMSDP=2.69D-08 MaxDP=1.33D-06 DE=-1.45D-10 OVMax= 9.81D-06

 Cycle  18  Pass 1  IDiag  1:
 RMSU=  7.20D-09    CP:  1.00D+00  1.21D+00  1.62D+00  2.17D+00  1.81D+00
                    CP:  1.94D+00  1.91D+00  2.17D+00  1.41D+00
 E= -269.978882930931     Delta-E=       -0.000000000020 Rises=F Damp=F
 DIIS: error= 4.87D-08 at cycle  10 NSaved=  10.
 NSaved=10 IEnMin=10 EnMin= -269.978882930931     IErMin=10 ErrMin= 4.87D-08
 ErrMax= 4.87D-08  0.00D+00 EMaxC= 1.00D-01 BMatC= 2.61D-12 BMatP= 1.91D-11
 IDIUse=1 WtCom= 1.00D+00 WtEn= 0.00D+00
 Coeff-Com:  0.367D-03-0.647D-02-0.106D-01 0.162D-01 0.286D-01 0.703D-02
 Coeff-Com: -0.909D-01-0.132D+00 0.302D+00 0.886D+00
 Coeff:      0.367D-03-0.647D-02-0.106D-01 0.162D-01 0.286D-01 0.703D-02
 Coeff:     -0.909D-01-0.132D+00 0.302D+00 0.886D+00
 Gap=     0.347 Goal=   None    Shift=    0.000
 Gap=     0.289 Goal=   None    Shift=    0.000
 RMSDP=8.53D-09 MaxDP=3.77D-07 DE=-1.96D-11 OVMax= 2.92D-06

 SCF Done:  E(UM062X) =  -269.978882931     A.U. after   18 cycles
            NFock= 18  Conv=0.85D-08     -V/T= 2.0054
 <Sx>= 0.0000 <Sy>= 0.0000 <Sz>= 0.5000 <S**2>= 0.7600 S= 0.5050
 <L.S>= 0.000000000000E+00
 KE= 2.685266678543D+02 PE=-1.012226302415D+03 EE= 2.835983775828D+02
 Annihilation of the first spin contaminant:
 S**2 before annihilation     0.7600,   after     0.7500
 Leave Link  502 at Thu Sep  5 19:25:57 2019, MaxMem=   671088640 cpu:            2085.9 elap:            1043.2
 (Enter /shared/centos7/gaussian/g16/l801.exe)
 DoSCS=F DFT=T ScalE2(SS,OS)=  1.000000  1.000000
 Range of M.O.s used for correlation:     1   276
 NBasis=   276 NAE=    22 NBE=    21 NFC=     0 NFV=     0
 NROrb=    276 NOA=    22 NOB=    21 NVA=   254 NVB=   255

 **** Warning!!: The largest alpha MO coefficient is  0.12105402D+02


 **** Warning!!: The largest beta MO coefficient is  0.12104469D+02

 Leave Link  801 at Thu Sep  5 19:25:58 2019, MaxMem=   671088640 cpu:               1.6 elap:               0.8
 (Enter /shared/centos7/gaussian/g16/l1101.exe)
 Using compressed storage, NAtomX=    14.
 Will process     15 centers per pass.
 Leave Link 1101 at Thu Sep  5 19:26:24 2019, MaxMem=   671088640 cpu:              51.4 elap:              25.7
 (Enter /shared/centos7/gaussian/g16/l1102.exe)
 Symmetrizing basis deriv contribution to polar:
 IMax=3 JMax=2 DiffMx= 0.00D+00
 Leave Link 1102 at Thu Sep  5 19:26:26 2019, MaxMem=   671088640 cpu:               5.4 elap:               2.7
 (Enter /shared/centos7/gaussian/g16/l1110.exe)
 Forming Gx(P) for the SCF density, NAtomX=    14.
 Integral derivatives from FoFJK, PRISM(SPDF).
 Do as many integral derivatives as possible in FoFJK.
 G2DrvN: MDV=     671087496.
 G2DrvN: will do    15 centers at a time, making    1 passes.
 Calling FoFCou, ICntrl=  3107 FMM=F I1Cent=   0 AccDes= 0.00D+00.
 FoFJK:  IHMeth= 1 ICntrl=    3107 DoSepK=F KAlg= 0 I1Cent=           0 FoldK=F
 IRaf=         0 NMat=       1 IRICut=       1 DoRegI=T DoRafI=F ISym2E= 0 IDoP0=0 IntGTp=1.
 FoFCou: FMM=F IPFlag=           0 FMFlag=      100000 FMFlg1=           0
         NFxFlg=           0 DoJE=F BraDBF=F KetDBF=F FulRan=T
         wScrn=  0.000000 ICntrl=      3107 IOpCl=  1 I1Cent=           0 NGrid=           0
         NMat0=    1 NMatS0=      1 NMatT0=    0 NMatD0=    1 NMtDS0=    0 NMtDT0=    0
 Symmetry not used in FoFCou.
 End of G2Drv F.D. properties file   721 does not exist.
 End of G2Drv F.D. properties file   722 does not exist.
 End of G2Drv F.D. properties file   788 does not exist.
 Leave Link 1110 at Thu Sep  5 19:45:00 2019, MaxMem=   671088640 cpu:            2225.9 elap:            1113.3
 (Enter /shared/centos7/gaussian/g16/l1002.exe)
 Minotr:  UHF open shell wavefunction.
          IDoAtm=11111111111111
          Direct CPHF calculation.
          Differentiating once with respect to nuclear coordinates.
          Requested convergence is 1.0D-08 RMS, and 1.0D-07 maximum.
          Secondary convergence is 1.0D-12 RMS, and 1.0D-12 maximum.
          NewPWx=T KeepS1=F KeepF1=F KeepIn=T MapXYZ=F SortEE=F KeepMc=T.
         4166 words used for storage of precomputed grid.
 Two-electron integrals replicated using symmetry.
          MDV=     671088640 using IRadAn=       1.
          Solving linear equations simultaneously, MaxMat=     380.
 FoF2E skips out because all densities are zero.
 CalDSu exits because no D1Ps are significant.
 FoFJK:  IHMeth= 1 ICntrl=       0 DoSepK=F KAlg= 0 I1Cent=           0 FoldK=F
 IRaf= 970000000 NMat=      42 IRICut=     105 DoRegI=T DoRafI=T ISym2E= 2 IDoP0=3 IntGTp=3.
 FoFCou: FMM=F IPFlag=           0 FMFlag=      100000 FMFlg1=           0
         NFxFlg=           0 DoJE=F BraDBF=F KetDBF=F FulRan=T
         wScrn=  0.000000 ICntrl=         0 IOpCl=  1 I1Cent=           0 NGrid=           0
         NMat0=   42 NMatS0=     42 NMatT0=    0 NMatD0=   42 NMtDS0=    0 NMtDT0=    0
 Integrals replicated using symmetry in FoFCou.
 Raff kept on since  95.70% of shell-pairs survive, threshold=   0.20 IRatSp=96.
          There are    45 degrees of freedom in the 1st order CPHF.  IDoFFX=6 NUNeed=     0.
     39 vectors produced by pass  0 Test12= 2.43D-14 2.22D-09 XBig12= 1.36D-01 1.68D-01.
 AX will form    39 AO Fock derivatives at one time.
     39 vectors produced by pass  1 Test12= 2.43D-14 2.22D-09 XBig12= 1.45D-02 3.00D-02.
     39 vectors produced by pass  2 Test12= 2.43D-14 2.22D-09 XBig12= 7.99D-04 6.58D-03.
     39 vectors produced by pass  3 Test12= 2.43D-14 2.22D-09 XBig12= 2.00D-05 5.06D-04.
     39 vectors produced by pass  4 Test12= 2.43D-14 2.22D-09 XBig12= 3.32D-07 7.06D-05.
     39 vectors produced by pass  5 Test12= 2.43D-14 2.22D-09 XBig12= 4.64D-09 8.41D-06.
     38 vectors produced by pass  6 Test12= 2.43D-14 2.22D-09 XBig12= 3.66D-11 6.68D-07.
     17 vectors produced by pass  7 Test12= 2.43D-14 2.22D-09 XBig12= 2.69D-13 6.99D-08.
      3 vectors produced by pass  8 Test12= 2.43D-14 2.22D-09 XBig12= 1.84D-15 5.95D-09.
 InvSVY:  IOpt=1 It=  1 EMax= 2.11D-15
 Solved reduced A of dimension   292 with    39 vectors.
 End of Minotr F.D. properties file   721 does not exist.
 End of Minotr F.D. properties file   722 does not exist.
 End of Minotr F.D. properties file   788 does not exist.
 Leave Link 1002 at Thu Sep  5 20:19:20 2019, MaxMem=   671088640 cpu:            4116.4 elap:            2060.0
 (Enter /shared/centos7/gaussian/g16/l601.exe)
 Copying SCF densities to generalized density rwf, IOpCl= 1 IROHF=0.

 **********************************************************************

            Population analysis using the SCF density.

 **********************************************************************

 Orbital symmetries:
 Alpha Orbitals:
       Occupied  (A) (A) (A) (A) (A) (A) (A) (A) (A) (A) (A) (A)
                 (A) (A) (A) (A) (A) (A) (A) (A) (A) (A)
       Virtual   (A) (A) (A) (A) (A) (A) (A) (A) (A) (A) (A) (A)
                 (A) (A) (A) (A) (A) (A) (A) (A) (A) (A) (A) (A)
                 (A) (A) (A) (A) (A) (A) (A) (A) (A) (A) (A) (A)
                 (A) (A) (A) (A) (A) (A) (A) (A) (A) (A) (A) (A)
                 (A) (A) (A) (A) (A) (A) (A) (A) (A) (A) (A) (A)
                 (A) (A) (A) (A) (A) (A) (A) (A) (A) (A) (A) (A)
                 (A) (A) (A) (A) (A) (A) (A) (A) (A) (A) (A) (A)
                 (A) (A) (A) (A) (A) (A) (A) (A) (A) (A) (A) (A)
                 (A) (A) (A) (A) (A) (A) (A) (A) (A) (A) (A) (A)
                 (A) (A) (A) (A) (A) (A) (A) (A) (A) (A) (A) (A)
                 (A) (A) (A) (A) (A) (A) (A) (A) (A) (A) (A) (A)
                 (A) (A) (A) (A) (A) (A) (A) (A) (A) (A) (A) (A)
                 (A) (A) (A) (A) (A) (A) (A) (A) (A) (A) (A) (A)
                 (A) (A) (A) (A) (A) (A) (A) (A) (A) (A) (A) (A)
                 (A) (A) (A) (A) (A) (A) (A) (A) (A) (A) (A) (A)
                 (A) (A) (A) (A) (A) (A) (A) (A) (A) (A) (A) (A)
                 (A) (A) (A) (A) (A) (A) (A) (A) (A) (A) (A) (A)
                 (A) (A) (A) (A) (A) (A) (A) (A) (A) (A) (A) (A)
                 (A) (A) (A) (A) (A) (A) (A) (A) (A) (A) (A) (A)
                 (A) (A) (A) (A) (A) (A) (A) (A) (A) (A) (A) (A)
                 (A) (A) (A) (A) (A) (A) (A) (A) (A) (A) (A) (A)
                 (A) (A)
 Beta  Orbitals:
       Occupied  (A) (A) (A) (A) (A) (A) (A) (A) (A) (A) (A) (A)
                 (A) (A) (A) (A) (A) (A) (A) (A) (A)
       Virtual   (A) (A) (A) (A) (A) (A) (A) (A) (A) (A) (A) (A)
                 (A) (A) (A) (A) (A) (A) (A) (A) (A) (A) (A) (A)
                 (A) (A) (A) (A) (A) (A) (A) (A) (A) (A) (A) (A)
                 (A) (A) (A) (A) (A) (A) (A) (A) (A) (A) (A) (A)
                 (A) (A) (A) (A) (A) (A) (A) (A) (A) (A) (A) (A)
                 (A) (A) (A) (A) (A) (A) (A) (A) (A) (A) (A) (A)
                 (A) (A) (A) (A) (A) (A) (A) (A) (A) (A) (A) (A)
                 (A) (A) (A) (A) (A) (A) (A) (A) (A) (A) (A) (A)
                 (A) (A) (A) (A) (A) (A) (A) (A) (A) (A) (A) (A)
                 (A) (A) (A) (A) (A) (A) (A) (A) (A) (A) (A) (A)
                 (A) (A) (A) (A) (A) (A) (A) (A) (A) (A) (A) (A)
                 (A) (A) (A) (A) (A) (A) (A) (A) (A) (A) (A) (A)
                 (A) (A) (A) (A) (A) (A) (A) (A) (A) (A) (A) (A)
                 (A) (A) (A) (A) (A) (A) (A) (A) (A) (A) (A) (A)
                 (A) (A) (A) (A) (A) (A) (A) (A) (A) (A) (A) (A)
                 (A) (A) (A) (A) (A) (A) (A) (A) (A) (A) (A) (A)
                 (A) (A) (A) (A) (A) (A) (A) (A) (A) (A) (A) (A)
                 (A) (A) (A) (A) (A) (A) (A) (A) (A) (A) (A) (A)
                 (A) (A) (A) (A) (A) (A) (A) (A) (A) (A) (A) (A)
                 (A) (A) (A) (A) (A) (A) (A) (A) (A) (A) (A) (A)
                 (A) (A) (A) (A) (A) (A) (A) (A) (A) (A) (A) (A)
                 (A) (A) (A)
 The electronic state is 2-A.
 Alpha  occ. eigenvalues --  -19.68556 -19.68257 -10.55180 -10.54868 -10.53669
 Alpha  occ. eigenvalues --   -1.26551  -0.98935  -0.90112  -0.78714  -0.69063
 Alpha  occ. eigenvalues --   -0.62162  -0.57638  -0.54414  -0.53036  -0.51284
 Alpha  occ. eigenvalues --   -0.47787  -0.44360  -0.42395  -0.41330  -0.39062
 Alpha  occ. eigenvalues --   -0.37477  -0.28943
 Alpha virt. eigenvalues --    0.05755   0.07219   0.10775   0.11148   0.12057
 Alpha virt. eigenvalues --    0.13482   0.14291   0.16737   0.17274   0.20756
 Alpha virt. eigenvalues --    0.22765   0.25686   0.28039   0.28822   0.30914
 Alpha virt. eigenvalues --    0.32563   0.33037   0.36870   0.41223   0.43797
 Alpha virt. eigenvalues --    0.45069   0.46216   0.47360   0.48813   0.49282
 Alpha virt. eigenvalues --    0.50118   0.51076   0.51924   0.53064   0.53473
 Alpha virt. eigenvalues --    0.55610   0.58483   0.60331   0.61811   0.65495
 Alpha virt. eigenvalues --    0.66691   0.68502   0.70816   0.75681   0.77603
 Alpha virt. eigenvalues --    0.78678   0.79959   0.83242   0.86014   0.89182
 Alpha virt. eigenvalues --    0.90782   0.94687   0.97030   0.98343   0.99892
 Alpha virt. eigenvalues --    1.01008   1.03251   1.05104   1.07365   1.09468
 Alpha virt. eigenvalues --    1.11235   1.12809   1.14845   1.16337   1.17428
 Alpha virt. eigenvalues --    1.18418   1.19908   1.21574   1.22460   1.27548
 Alpha virt. eigenvalues --    1.29095   1.30851   1.32569   1.34936   1.36076
 Alpha virt. eigenvalues --    1.39739   1.40895   1.43144   1.45212   1.46090
 Alpha virt. eigenvalues --    1.47183   1.52305   1.53143   1.54620   1.57167
 Alpha virt. eigenvalues --    1.58830   1.62806   1.67030   1.70400   1.72985
 Alpha virt. eigenvalues --    1.77942   1.92928   1.95976   1.99203   2.09609
 Alpha virt. eigenvalues --    2.18376   2.22265   2.23081   2.26406   2.30190
 Alpha virt. eigenvalues --    2.35019   2.37505   2.38506   2.38911   2.46915
 Alpha virt. eigenvalues --    2.49775   2.51148   2.53270   2.56371   2.58794
 Alpha virt. eigenvalues --    2.63469   2.64256   2.66152   2.69777   2.71317
 Alpha virt. eigenvalues --    2.78568   2.80104   2.81763   2.84711   2.85956
 Alpha virt. eigenvalues --    2.89224   2.90353   2.93614   2.96320   2.98758
 Alpha virt. eigenvalues --    3.02130   3.02874   3.04359   3.06067   3.08492
 Alpha virt. eigenvalues --    3.10242   3.12555   3.14219   3.16272   3.18899
 Alpha virt. eigenvalues --    3.20727   3.23140   3.23973   3.25691   3.25918
 Alpha virt. eigenvalues --    3.28469   3.31642   3.32884   3.35424   3.37804
 Alpha virt. eigenvalues --    3.38803   3.41660   3.45133   3.47137   3.47619
 Alpha virt. eigenvalues --    3.51854   3.52950   3.55085   3.59876   3.63875
 Alpha virt. eigenvalues --    3.64795   3.65914   3.67335   3.71953   3.72347
 Alpha virt. eigenvalues --    3.73236   3.74246   3.76851   3.78851   3.78920
 Alpha virt. eigenvalues --    3.79963   3.81138   3.83624   3.86206   3.86761
 Alpha virt. eigenvalues --    3.90516   3.91491   3.92839   3.95380   3.97376
 Alpha virt. eigenvalues --    3.98417   4.01478   4.03622   4.04921   4.07317
 Alpha virt. eigenvalues --    4.10105   4.10396   4.13312   4.14318   4.16425
 Alpha virt. eigenvalues --    4.19614   4.21253   4.22670   4.23699   4.28019
 Alpha virt. eigenvalues --    4.30699   4.32056   4.36172   4.36966   4.43405
 Alpha virt. eigenvalues --    4.43657   4.50277   4.53450   4.55347   4.62489
 Alpha virt. eigenvalues --    4.70449   4.73400   4.76166   4.77025   4.81282
 Alpha virt. eigenvalues --    4.84529   4.85634   4.86986   4.89305   4.91809
 Alpha virt. eigenvalues --    4.95459   4.98862   5.02598   5.07216   5.07242
 Alpha virt. eigenvalues --    5.11405   5.12810   5.14207   5.16171   5.23469
 Alpha virt. eigenvalues --    5.28633   5.28870   5.30002   5.32407   5.35873
 Alpha virt. eigenvalues --    5.39954   5.44868   5.45569   5.48618   5.54573
 Alpha virt. eigenvalues --    5.58358   5.75304   5.79321   5.79897   5.85563
 Alpha virt. eigenvalues --    5.87843   5.95958   6.09141   6.21847   6.34165
 Alpha virt. eigenvalues --    6.36838   6.39477   6.47093   6.56290   6.57445
 Alpha virt. eigenvalues --    6.65201   6.68691   6.73193   6.85907   6.88647
 Alpha virt. eigenvalues --    7.14892   7.19413   7.43983   7.60206   9.93939
 Alpha virt. eigenvalues --   11.26822  12.17982  12.80513  13.45541
  Beta  occ. eigenvalues --  -19.68449 -19.67330 -10.54893 -10.54640 -10.53653
  Beta  occ. eigenvalues --   -1.25003  -0.96650  -0.89301  -0.77447  -0.67872
  Beta  occ. eigenvalues --   -0.61014  -0.54355  -0.53707  -0.52245  -0.49618
  Beta  occ. eigenvalues --   -0.46960  -0.43418  -0.41790  -0.40875  -0.36104
  Beta  occ. eigenvalues --   -0.35892
  Beta virt. eigenvalues --   -0.06973   0.05843   0.07125   0.10810   0.11134
  Beta virt. eigenvalues --    0.12367   0.13512   0.14291   0.16960   0.17587
  Beta virt. eigenvalues --    0.20986   0.23491   0.26122   0.27977   0.28801
  Beta virt. eigenvalues --    0.31021   0.32876   0.33352   0.37040   0.41354
  Beta virt. eigenvalues --    0.44162   0.45293   0.46638   0.48294   0.49197
  Beta virt. eigenvalues --    0.50110   0.50442   0.51712   0.52335   0.53486
  Beta virt. eigenvalues --    0.54051   0.55920   0.58906   0.60828   0.62104
  Beta virt. eigenvalues --    0.65692   0.67306   0.68620   0.70952   0.75728
  Beta virt. eigenvalues --    0.77767   0.78907   0.80327   0.83341   0.86245
  Beta virt. eigenvalues --    0.89434   0.91017   0.94987   0.97173   0.98543
  Beta virt. eigenvalues --    1.00038   1.00975   1.03400   1.05155   1.07445
  Beta virt. eigenvalues --    1.09553   1.11561   1.13203   1.14921   1.16544
  Beta virt. eigenvalues --    1.18178   1.18562   1.20074   1.22383   1.22690
  Beta virt. eigenvalues --    1.27784   1.29678   1.30880   1.32956   1.35267
  Beta virt. eigenvalues --    1.36410   1.40204   1.41307   1.43298   1.45405
  Beta virt. eigenvalues --    1.46355   1.47486   1.52634   1.53389   1.54976
  Beta virt. eigenvalues --    1.57476   1.59923   1.63090   1.67810   1.71306
  Beta virt. eigenvalues --    1.73649   1.78656   1.93314   1.96782   1.99504
  Beta virt. eigenvalues --    2.10682   2.18513   2.22582   2.23646   2.26905
  Beta virt. eigenvalues --    2.30999   2.35824   2.38088   2.39041   2.39607
  Beta virt. eigenvalues --    2.47540   2.49874   2.51455   2.54147   2.56675
  Beta virt. eigenvalues --    2.58649   2.64046   2.65752   2.68056   2.70533
  Beta virt. eigenvalues --    2.72131   2.79061   2.80818   2.82618   2.85430
  Beta virt. eigenvalues --    2.87749   2.90234   2.91480   2.94361   2.97766
  Beta virt. eigenvalues --    3.00402   3.03054   3.04128   3.05525   3.07043
  Beta virt. eigenvalues --    3.09738   3.10794   3.12866   3.16168   3.16497
  Beta virt. eigenvalues --    3.20356   3.21261   3.23907   3.24204   3.26026
  Beta virt. eigenvalues --    3.27294   3.29369   3.31863   3.33796   3.36022
  Beta virt. eigenvalues --    3.38460   3.39363   3.42197   3.46354   3.47548
  Beta virt. eigenvalues --    3.47910   3.52539   3.53424   3.55761   3.60136
  Beta virt. eigenvalues --    3.64295   3.65455   3.66383   3.67888   3.72102
  Beta virt. eigenvalues --    3.72633   3.73448   3.74610   3.77228   3.79215
  Beta virt. eigenvalues --    3.79427   3.80452   3.81566   3.84140   3.86557
  Beta virt. eigenvalues --    3.87337   3.90748   3.91791   3.93254   3.95512
  Beta virt. eigenvalues --    3.97840   3.98704   4.01838   4.04147   4.05391
  Beta virt. eigenvalues --    4.07518   4.10409   4.10574   4.14192   4.14813
  Beta virt. eigenvalues --    4.17047   4.20384   4.21717   4.22883   4.24046
  Beta virt. eigenvalues --    4.28642   4.31024   4.32266   4.37520   4.38029
  Beta virt. eigenvalues --    4.43963   4.44736   4.50839   4.54365   4.56287
  Beta virt. eigenvalues --    4.63385   4.70946   4.74024   4.76859   4.78288
  Beta virt. eigenvalues --    4.81714   4.84957   4.86204   4.87249   4.90173
  Beta virt. eigenvalues --    4.93179   4.96837   4.99890   5.03506   5.07580
  Beta virt. eigenvalues --    5.09444   5.11916   5.13425   5.15080   5.17539
  Beta virt. eigenvalues --    5.25361   5.28881   5.29072   5.30551   5.33504
  Beta virt. eigenvalues --    5.37439   5.41124   5.45843   5.46571   5.50003
  Beta virt. eigenvalues --    5.56612   5.58925   5.76602   5.79772   5.84562
  Beta virt. eigenvalues --    5.85966   5.88006   5.96366   6.10472   6.23119
  Beta virt. eigenvalues --    6.34730   6.37385   6.39799   6.48045   6.58202
  Beta virt. eigenvalues --    6.58970   6.66530   6.70017   6.73410   6.86205
  Beta virt. eigenvalues --    6.89851   7.14934   7.20519   7.44275   7.60468
  Beta virt. eigenvalues --    9.94740  11.26990  12.18720  12.81351  13.45563
          Condensed to atoms (all electrons):
               1          2          3          4          5          6
     1  O    7.897586   0.063791  -0.008355  -0.000718   0.008402  -0.000300
     2  O    0.063791   8.089303   0.005605  -0.089496  -0.003540  -0.000141
     3  C   -0.008355   0.005605   5.044045   0.280473   0.288112   0.390225
     4  C   -0.000718  -0.089496   0.280473   5.314620  -0.055191  -0.038854
     5  C    0.008402  -0.003540   0.288112  -0.055191   5.037621  -0.040421
     6  H   -0.000300  -0.000141   0.390225  -0.038854  -0.040421   0.607861
     7  H   -0.000165  -0.000024   0.410053  -0.038683  -0.037498  -0.040036
     8  H   -0.033241   0.197673  -0.016994   0.223145  -0.004885   0.004388
     9  H    0.009014  -0.006788  -0.044386   0.399923  -0.004142  -0.004779
    10  H    0.001414   0.000137  -0.040238   0.387934   0.008412  -0.003873
    11  H    0.003005  -0.001014  -0.042157  -0.001808   0.399603  -0.006997
    12  H    0.000570  -0.000043  -0.036415   0.007860   0.404307  -0.005022
    13  H   -0.003579   0.006868  -0.041206  -0.003987   0.397549   0.008164
    14  H    0.308317  -0.037052   0.000999  -0.000272   0.002959  -0.000047
               7          8          9         10         11         12
     1  O   -0.000165  -0.033241   0.009014   0.001414   0.003005   0.000570
     2  O   -0.000024   0.197673  -0.006788   0.000137  -0.001014  -0.000043
     3  C    0.410053  -0.016994  -0.044386  -0.040238  -0.042157  -0.036415
     4  C   -0.038683   0.223145   0.399923   0.387934  -0.001808   0.007860
     5  C   -0.037498  -0.004885  -0.004142   0.008412   0.399603   0.404307
     6  H   -0.040036   0.004388  -0.004779  -0.003873  -0.006997  -0.005022
     7  H    0.584427  -0.003814   0.005761  -0.005125   0.007560  -0.004479
     8  H   -0.003814   0.418693  -0.011485  -0.007178  -0.002031   0.000033
     9  H    0.005761  -0.011485   0.508079  -0.022655   0.003143  -0.000145
    10  H   -0.005125  -0.007178  -0.022655   0.539869   0.000217  -0.000293
    11  H    0.007560  -0.002031   0.003143   0.000217   0.585514  -0.023339
    12  H   -0.004479   0.000033  -0.000145  -0.000293  -0.023339   0.554983
    13  H   -0.006653   0.004942   0.000022  -0.000123  -0.052655  -0.026723
    14  H    0.000131  -0.002106  -0.001368  -0.000121   0.000251  -0.000027
              13         14
     1  O   -0.003579   0.308317
     2  O    0.006868  -0.037052
     3  C   -0.041206   0.000999
     4  C   -0.003987  -0.000272
     5  C    0.397549   0.002959
     6  H    0.008164  -0.000047
     7  H   -0.006653   0.000131
     8  H    0.004942  -0.002106
     9  H    0.000022  -0.001368
    10  H   -0.000123  -0.000121
    11  H   -0.052655   0.000251
    12  H   -0.026723  -0.000027
    13  H    0.603091  -0.000646
    14  H   -0.000646   0.459002
          Atomic-Atomic Spin Densities.
               1          2          3          4          5          6
     1  O    0.047693  -0.038223  -0.002389   0.017282   0.000586   0.000272
     2  O   -0.038223   0.541886   0.010426  -0.112605  -0.000203  -0.000784
     3  C   -0.002389   0.010426  -0.027434  -0.049654   0.007462   0.007362
     4  C    0.017282  -0.112605  -0.049654   0.787406  -0.003410  -0.015853
     5  C    0.000586  -0.000203   0.007462  -0.003410   0.013766  -0.007564
     6  H    0.000272  -0.000784   0.007362  -0.015853  -0.007564   0.067156
     7  H   -0.000084   0.000679   0.003954  -0.006408   0.003160  -0.005900
     8  H    0.008380  -0.037017  -0.007606   0.073045   0.000602   0.000655
     9  H   -0.002382   0.004660   0.006847  -0.011986   0.000443  -0.001077
    10  H   -0.000357   0.002963   0.007587  -0.008987  -0.000168  -0.002032
    11  H   -0.000426   0.000099   0.000290  -0.000292   0.000183  -0.000378
    12  H    0.000063  -0.000110   0.000120   0.000640  -0.002283   0.001823
    13  H    0.000315  -0.001464  -0.000315   0.002136  -0.000906   0.000500
    14  H    0.001070  -0.000481  -0.000070  -0.000427   0.000081   0.000003
               7          8          9         10         11         12
     1  O   -0.000084   0.008380  -0.002382  -0.000357  -0.000426   0.000063
     2  O    0.000679  -0.037017   0.004660   0.002963   0.000099  -0.000110
     3  C    0.003954  -0.007606   0.006847   0.007587   0.000290   0.000120
     4  C   -0.006408   0.073045  -0.011986  -0.008987  -0.000292   0.000640
     5  C    0.003160   0.000602   0.000443  -0.000168   0.000183  -0.002283
     6  H   -0.005900   0.000655  -0.001077  -0.002032  -0.000378   0.001823
     7  H    0.011054  -0.000666  -0.000013   0.001017   0.000068  -0.000397
     8  H   -0.000666  -0.059420   0.001527  -0.000480   0.000235   0.000227
     9  H   -0.000013   0.001527  -0.037339   0.003624  -0.000257  -0.000065
    10  H    0.001017  -0.000480   0.003624  -0.034951   0.000013  -0.000027
    11  H    0.000068   0.000235  -0.000257   0.000013  -0.000373   0.000300
    12  H   -0.000397   0.000227  -0.000065  -0.000027   0.000300  -0.000356
    13  H   -0.000458  -0.000053  -0.000142  -0.000056  -0.000844   0.000583
    14  H   -0.000001   0.000070  -0.000081   0.000011  -0.000135   0.000011
              13         14
     1  O    0.000315   0.001070
     2  O   -0.001464  -0.000481
     3  C   -0.000315  -0.000070
     4  C    0.002136  -0.000427
     5  C   -0.000906   0.000081
     6  H    0.000500   0.000003
     7  H   -0.000458  -0.000001
     8  H   -0.000053   0.000070
     9  H   -0.000142  -0.000081
    10  H   -0.000056   0.000011
    11  H   -0.000844  -0.000135
    12  H    0.000583   0.000011
    13  H    0.001105   0.000176
    14  H    0.000176  -0.002266
 Mulliken charges and spin densities:
               1          2
     1  O   -0.245743   0.031801
     2  O   -0.225278   0.369825
     3  C   -0.189762  -0.043419
     4  C   -0.384948   0.670888
     5  C   -0.401290   0.011749
     6  H    0.129832   0.044183
     7  H    0.128544   0.006004
     8  H    0.232860  -0.020501
     9  H    0.169806  -0.036241
    10  H    0.141622  -0.031842
    11  H    0.130708  -0.001516
    12  H    0.128732   0.000530
    13  H    0.114936   0.000579
    14  H    0.269980  -0.002040
 Sum of Mulliken charges =  -0.00000   1.00000
 Mulliken charges and spin densities with hydrogens summed into heavy atoms:
               1          2
     1  O    0.024237   0.029761
     2  O    0.007582   0.349324
     3  C    0.068614   0.006769
     4  C   -0.073519   0.602805
     5  C   -0.026913   0.011341
 APT charges:
               1
     1  O   -0.359491
     2  O   -0.178030
     3  C   -0.767013
     4  C   -0.760652
     5  C   -0.965536
     6  H    0.429189
     7  H    0.392209
     8  H    0.172715
     9  H    0.277074
    10  H    0.437790
    11  H    0.236570
    12  H    0.507508
    13  H    0.197099
    14  H    0.380569
 Sum of APT charges =  -0.00000
 APT charges with hydrogens summed into heavy atoms:
               1
     1  O    0.021078
     2  O   -0.005316
     3  C    0.054385
     4  C   -0.045788
     5  C   -0.024359
 Electronic spatial extent (au):  <R**2>=            583.4219
 Charge=             -0.0000 electrons
 Dipole moment (field-independent basis, Debye):
    X=             -2.4476    Y=              0.9003    Z=             -0.0601  Tot=              2.6086
 Quadrupole moment (field-independent basis, Debye-Ang):
   XX=            -36.9876   YY=            -29.3538   ZZ=            -33.5987
   XY=              2.4723   XZ=             -0.0188   YZ=             -0.3095
 Traceless Quadrupole moment (field-independent basis, Debye-Ang):
   XX=             -3.6742   YY=              3.9596   ZZ=             -0.2854
   XY=              2.4723   XZ=             -0.0188   YZ=             -0.3095
 Octapole moment (field-independent basis, Debye-Ang**2):
  XXX=              0.7087  YYY=              3.7262  ZZZ=              0.1043  XYY=              8.2475
  XXY=              4.6562  XXZ=             -0.5444  XZZ=              2.4147  YZZ=              0.1765
  YYZ=             -0.6791  XYZ=             -1.1457
 Hexadecapole moment (field-independent basis, Debye-Ang**3):
 XXXX=           -480.2086 YYYY=           -192.1769 ZZZZ=            -75.8753 XXXY=              5.3799
 XXXZ=             -2.0962 YYYX=             12.5806 YYYZ=              3.6184 ZZZX=              0.6622
 ZZZY=              3.0928 XXYY=           -105.3296 XXZZ=            -92.8124 YYZZ=            -46.7170
 XXYZ=             -2.3953 YYXZ=              0.5725 ZZXY=              1.3875
 N-N= 1.901223740470D+02 E-N=-1.012226312026D+03  KE= 2.685266678543D+02
  Exact polarizability:   0.000   0.000   0.000   0.000   0.000   0.000
 Approx polarizability:  70.391   6.898  60.552  -2.533   2.076  55.981
                          Isotropic Fermi Contact Couplings
        Atom                 a.u.       MegaHertz       Gauss      10(-4) cm-1
     1  O(17)              0.00022      -0.13604      -0.04854      -0.04538
     2  O(17)              0.10465     -63.44122     -22.63741     -21.16171
     3  C(13)             -0.01203     -13.52142      -4.82478      -4.51026
     4  C(13)              0.17831     200.45285      71.52656      66.86387
     5  C(13)              0.01237      13.91011       4.96347       4.63991
     6  H(1)               0.02171      97.02280      34.62015      32.36332
     7  H(1)               0.00259      11.59139       4.13610       3.86647
     8  H(1)              -0.02976    -133.02573     -47.46689     -44.37261
     9  H(1)              -0.00831     -37.15781     -13.25883     -12.39451
    10  H(1)              -0.00628     -28.07505     -10.01788      -9.36483
    11  H(1)              -0.00011      -0.48534      -0.17318      -0.16189
    12  H(1)              -0.00031      -1.39961      -0.49941      -0.46686
    13  H(1)              -0.00024      -1.07541      -0.38373      -0.35872
    14  H(1)              -0.00086      -3.82675      -1.36548      -1.27647
 --------------------------------------------------------
       Center         ----  Spin Dipole Couplings  ----
                      3XX-RR        3YY-RR        3ZZ-RR
 --------------------------------------------------------
     1   Atom        0.240819     -0.071535     -0.169284
     2   Atom        1.415585     -0.741905     -0.673680
     3   Atom        0.027038     -0.014864     -0.012174
     4   Atom        0.151334     -0.270413      0.119079
     5   Atom       -0.004751      0.015684     -0.010933
     6   Atom        0.009287     -0.005995     -0.003292
     7   Atom        0.007549     -0.007556      0.000007
     8   Atom        0.141843     -0.075635     -0.066208
     9   Atom       -0.005020     -0.035323      0.040344
    10   Atom       -0.027128      0.051607     -0.024479
    11   Atom       -0.001948      0.005913     -0.003965
    12   Atom        0.000532      0.002503     -0.003036
    13   Atom       -0.001365      0.005907     -0.004542
    14   Atom       -0.004934      0.017079     -0.012146
 --------------------------------------------------------
                        XY            XZ            YZ
 --------------------------------------------------------
     1   Atom        0.143355     -0.045522     -0.057218
     2   Atom        0.672688     -0.762224     -0.207325
     3   Atom       -0.009041     -0.014407      0.000195
     4   Atom        0.222398     -0.499250     -0.209791
     5   Atom       -0.005542      0.000387     -0.001479
     6   Atom       -0.003528     -0.005723     -0.002636
     7   Atom       -0.002157      0.009534     -0.002275
     8   Atom        0.106988     -0.082759     -0.031518
     9   Atom        0.022650      0.017521      0.012234
    10   Atom        0.009399     -0.018903      0.011161
    11   Atom       -0.002977     -0.001587      0.003997
    12   Atom       -0.003568      0.000299     -0.001147
    13   Atom       -0.004117      0.001045     -0.004969
    14   Atom       -0.000240      0.001045      0.002130
 --------------------------------------------------------


 ---------------------------------------------------------------------------------
              Anisotropic Spin Dipole Couplings in Principal Axis System
 ---------------------------------------------------------------------------------

       Atom             a.u.   MegaHertz   Gauss  10(-4) cm-1        Axes

              Baa    -0.1969    14.245     5.083     4.751 -0.0639  0.4741  0.8782
     1 O(17)  Bbb    -0.1082     7.833     2.795     2.613 -0.3880  0.7989 -0.4595
              Bcc     0.3051   -22.077    -7.878    -7.364  0.9194  0.3701 -0.1329
 
              Baa    -0.9396    67.991    24.261    22.679 -0.3753  0.8160 -0.4396
     2 O(17)  Bbb    -0.9152    66.226    23.631    22.091  0.1283  0.5154  0.8473
              Bcc     1.8549  -134.217   -47.892   -44.770  0.9180  0.2616 -0.2982
 
              Baa    -0.0193    -2.585    -0.922    -0.862  0.3373  0.6639  0.6675
     3 C(13)  Bbb    -0.0141    -1.886    -0.673    -0.629 -0.0794  0.7266 -0.6825
              Bcc     0.0333     4.471     1.595     1.491  0.9380 -0.1772 -0.2978
 
              Baa    -0.3680   -49.376   -17.619   -16.470 -0.6470  0.6623 -0.3779
     4 C(13)  Bbb    -0.3603   -48.354   -17.254   -16.129  0.3294  0.6897  0.6448
              Bcc     0.7283    97.730    34.873    32.599  0.6877  0.2927 -0.6644
 
              Baa    -0.0110    -1.478    -0.527    -0.493 -0.0157  0.0521  0.9985
     5 C(13)  Bbb    -0.0062    -0.826    -0.295    -0.276  0.9692  0.2461  0.0024
              Bcc     0.0172     2.305     0.822     0.769 -0.2456  0.9678 -0.0543
 
              Baa    -0.0096    -5.138    -1.834    -1.714  0.3176  0.7390  0.5941
     6 H(1)   Bbb    -0.0022    -1.170    -0.417    -0.390  0.1630 -0.6598  0.7336
              Bcc     0.0118     6.308     2.251     2.104  0.9341 -0.1361 -0.3300
 
              Baa    -0.0082    -4.392    -1.567    -1.465 -0.0928  0.9270  0.3633
     7 H(1)   Bbb    -0.0062    -3.322    -1.185    -1.108 -0.5697 -0.3487  0.7442
              Bcc     0.0145     7.714     2.752     2.573  0.8166 -0.1379  0.5605
 
              Baa    -0.1196   -63.822   -22.773   -21.289 -0.3988  0.9136 -0.0788
     8 H(1)   Bbb    -0.0940   -50.176   -17.904   -16.737  0.2473  0.1899  0.9502
              Bcc     0.2137   113.998    40.677    38.026  0.8831  0.3594 -0.3016
 
              Baa    -0.0475   -25.346    -9.044    -8.454 -0.4600  0.8874 -0.0318
     9 H(1)   Bbb    -0.0032    -1.719    -0.613    -0.573  0.8050  0.4016 -0.4366
              Bcc     0.0507    27.064     9.657     9.028  0.3746  0.2264  0.8991
 
              Baa    -0.0469   -25.016    -8.926    -8.344  0.7192 -0.1456  0.6793
    10 H(1)   Bbb    -0.0069    -3.682    -1.314    -1.228 -0.6893 -0.0274  0.7239
              Bcc     0.0538    28.698    10.240     9.573  0.0868  0.9890  0.1201
 
              Baa    -0.0055    -2.921    -1.042    -0.974  0.1857 -0.2819  0.9413
    11 H(1)   Bbb    -0.0029    -1.563    -0.558    -0.521  0.9334  0.3501 -0.0793
              Bcc     0.0084     4.484     1.600     1.496 -0.3072  0.8933  0.3281
 
              Baa    -0.0034    -1.789    -0.638    -0.597  0.2160  0.3127  0.9250
    12 H(1)   Bbb    -0.0020    -1.072    -0.383    -0.358  0.7746  0.5218 -0.3573
              Bcc     0.0054     2.861     1.021     0.954 -0.5944  0.7937 -0.1296
 
              Baa    -0.0066    -3.524    -1.258    -1.176  0.1374  0.4043  0.9042
    13 H(1)   Bbb    -0.0029    -1.557    -0.556    -0.519  0.9223  0.2807 -0.2656
              Bcc     0.0095     5.082     1.813     1.695 -0.3612  0.8705 -0.3343
 
              Baa    -0.0124    -6.642    -2.370    -2.216 -0.1396 -0.0724  0.9876
    14 H(1)   Bbb    -0.0048    -2.553    -0.911    -0.852  0.9902 -0.0027  0.1398
              Bcc     0.0172     9.196     3.281     3.067 -0.0074  0.9974  0.0720
 

 ---------------------------------------------------------------------------------

 No NMR shielding tensors so no spin-rotation constants.
 Leave Link  601 at Thu Sep  5 20:20:05 2019, MaxMem=   671088640 cpu:              90.2 elap:              45.1
 (Enter /shared/centos7/gaussian/g16/l701.exe)
 SCFChk:  SCF convergence  8.53D-09 required  1.00D-08
 ... and contract with generalized density number  0.
 Compute integral second derivatives.
 Entering OneElI...
 Calculate overlap and kinetic energy integrals
    NBasis = 310  MinDer = 2  MaxDer = 2
 Requested accuracy = 0.1000D-12
 PrmmSu-InSpLW:  IPartL=    0 NPrtUS=   20 NPrtUL=    1 DoSpLW=F IThBeg=    0 IThEnd=   19 NThAct=   20.
 PrsmSu:  NPrtUS=  20 ThrOK=T IAlg=1 NPAlg=1 LenDen=           0 ISkipM=0 DoSpLW=F IThBeg=    0 IThEnd=   19.
 Prism:   IPart=     0 DynPar=F LinDyn=F Incr=           2.
 PRISM was handed    33401310 working-precision words and  5455 shell-pairs
 PRISM was handed    33401310 working-precision words and  5455 shell-pairs
 PRISM was handed    33401310 working-precision words and  5455 shell-pairs
 PRISM was handed    33401310 working-precision words and  5455 shell-pairs
 PRISM was handed    33401310 working-precision words and  5455 shell-pairs
 PRISM was handed    33401310 working-precision words and  5455 shell-pairs
 PRISM was handed    33401310 working-precision words and  5455 shell-pairs
 PRISM was handed    33401310 working-precision words and  5455 shell-pairs
 PRISM was handed    33401310 working-precision words and  5455 shell-pairs
 PRISM was handed    33401310 working-precision words and  5455 shell-pairs
 PRISM was handed    33401310 working-precision words and  5455 shell-pairs
 PRISM was handed    33401310 working-precision words and  5455 shell-pairs
 PRISM was handed    33401310 working-precision words and  5455 shell-pairs
 PRISM was handed    33401310 working-precision words and  5455 shell-pairs
 PRISM was handed    33401310 working-precision words and  5455 shell-pairs
 IPart=  0 NShTot=         317 NBatch=          73 AvBLen=         4.3
 PRISM was handed    33401310 working-precision words and  5455 shell-pairs
 IPart= 18 NShTot=         251 NBatch=          27 AvBLen=         9.3
 IPart= 16 NShTot=         253 NBatch=          29 AvBLen=         8.7
 PRISM was handed    33401310 working-precision words and  5455 shell-pairs
 PRISM was handed    33401310 working-precision words and  5455 shell-pairs
 PRISM was handed    33401310 working-precision words and  5455 shell-pairs
 IPart= 15 NShTot=         253 NBatch=          29 AvBLen=         8.7
 IPart=  1 NShTot=         306 NBatch=          62 AvBLen=         4.9
 IPart= 19 NShTot=         250 NBatch=          27 AvBLen=         9.3
 PRISM was handed    33401310 working-precision words and  5455 shell-pairs
 IPart=  8 NShTot=         273 NBatch=          37 AvBLen=         7.4
 IPart=  7 NShTot=         276 NBatch=          38 AvBLen=         7.3
 IPart= 13 NShTot=         258 NBatch=          31 AvBLen=         8.3
 IPart=  2 NShTot=         300 NBatch=          57 AvBLen=         5.3
 IPart= 10 NShTot=         270 NBatch=          36 AvBLen=         7.5
 IPart= 17 NShTot=         252 NBatch=          28 AvBLen=         9.0
 IPart=  9 NShTot=         272 NBatch=          36 AvBLen=         7.6
 IPart= 14 NShTot=         257 NBatch=          31 AvBLen=         8.3
 IPart= 12 NShTot=         259 NBatch=          31 AvBLen=         8.4
 IPart=  5 NShTot=         282 NBatch=          44 AvBLen=         6.4
 IPart= 11 NShTot=         264 NBatch=          33 AvBLen=         8.0
 IPart=  3 NShTot=         293 NBatch=          51 AvBLen=         5.7
 IPart=  6 NShTot=         278 NBatch=          40 AvBLen=         7.0
 IPart=  4 NShTot=         291 NBatch=          50 AvBLen=         5.8
 PrSmSu:  NxtVal=             41.
 Entering OneElI...
 Calculate potential energy integrals
    NBasis = 310  MinDer = 2  MaxDer = 2
 Requested accuracy = 0.1000D-12
 PrmmSu-InSpLW:  IPartL=    0 NPrtUS=   20 NPrtUL=    1 DoSpLW=F IThBeg=    0 IThEnd=   19 NThAct=   20.
 PrsmSu:  NPrtUS=  20 ThrOK=T IAlg=1 NPAlg=1 LenDen=           0 ISkipM=0 DoSpLW=F IThBeg=    0 IThEnd=   19.
 Prism:   IPart=     0 DynPar=F LinDyn=F Incr=          36.
 PRISM was handed    33423546 working-precision words and  5193 shell-pairs
 PRISM was handed    33423546 working-precision words and  5193 shell-pairs
 PRISM was handed    33423546 working-precision words and  5193 shell-pairs
 PRISM was handed    33423546 working-precision words and  5193 shell-pairs
 PRISM was handed    33423546 working-precision words and  5193 shell-pairs
 PRISM was handed    33423546 working-precision words and  5193 shell-pairs
 PRISM was handed    33423546 working-precision words and  5193 shell-pairs
 PRISM was handed    33423546 working-precision words and  5193 shell-pairs
 PRISM was handed    33423546 working-precision words and  5193 shell-pairs
 PRISM was handed    33423546 working-precision words and  5193 shell-pairs
 PRISM was handed    33423546 working-precision words and  5193 shell-pairs
 PRISM was handed    33423546 working-precision words and  5193 shell-pairs
 PRISM was handed    33423546 working-precision words and  5193 shell-pairs
 PRISM was handed    33423546 working-precision words and  5193 shell-pairs
 PRISM was handed    33423546 working-precision words and  5193 shell-pairs
 PRISM was handed    33423546 working-precision words and  5193 shell-pairs
 PRISM was handed    33423546 working-precision words and  5193 shell-pairs
 PRISM was handed    33423546 working-precision words and  5193 shell-pairs
 PRISM was handed    33423546 working-precision words and  5193 shell-pairs
 PRISM was handed    33423546 working-precision words and  5193 shell-pairs
 IPart=  0 NShTot=        4172 NBatch=         298 AvBLen=        14.0
 IPart=  1 NShTot=        4088 NBatch=         292 AvBLen=        14.0
 IPart= 18 NShTot=        3360 NBatch=         240 AvBLen=        14.0
 IPart= 19 NShTot=        3332 NBatch=         238 AvBLen=        14.0
 IPart= 15 NShTot=        3430 NBatch=         245 AvBLen=        14.0
 IPart= 16 NShTot=        3430 NBatch=         245 AvBLen=        14.0
 IPart=  3 NShTot=        3836 NBatch=         274 AvBLen=        14.0
 IPart= 10 NShTot=        3570 NBatch=         255 AvBLen=        14.0
 IPart=  6 NShTot=        3654 NBatch=         261 AvBLen=        14.0
 IPart=  7 NShTot=        3640 NBatch=         260 AvBLen=        14.0
 IPart= 12 NShTot=        3570 NBatch=         255 AvBLen=        14.0
 IPart=  5 NShTot=        3668 NBatch=         262 AvBLen=        14.0
 IPart= 13 NShTot=        3528 NBatch=         252 AvBLen=        14.0
 IPart= 11 NShTot=        3570 NBatch=         255 AvBLen=        14.0
 IPart= 17 NShTot=        3374 NBatch=         241 AvBLen=        14.0
 IPart= 14 NShTot=        3514 NBatch=         251 AvBLen=        14.0
 IPart=  9 NShTot=        3612 NBatch=         258 AvBLen=        14.0
 IPart=  8 NShTot=        3626 NBatch=         259 AvBLen=        14.0
 IPart=  2 NShTot=        3920 NBatch=         280 AvBLen=        14.0
 IPart=  4 NShTot=        3808 NBatch=         272 AvBLen=        14.0
 PrSmSu:  NxtVal=            721.
 Polarizability after L701:
                1             2             3 
      1  0.000000D+00
      2  0.000000D+00  0.000000D+00
      3  0.000000D+00  0.000000D+00  0.000000D+00
 Dipole Derivatives after L701:
                 1             2             3             4             5 
      1   0.406788D-01 -0.767386D+00  0.229575D-01 -0.503887D-01  0.215952D+00
      2   0.259656D+00 -0.903060D+00  0.252728D+00 -0.933423D-01 -0.209102D+00
      3   0.343727D-01  0.168288D-01 -0.216091D+00 -0.165219D+00 -0.100981D+00
                 6             7             8             9            10 
      1   0.220363D+00 -0.132351D+01 -0.620949D+00 -0.486549D-01 -0.222658D+00
      2  -0.239947D-01 -0.283142D+00 -0.197502D+00 -0.102115D+00  0.344151D+00
      3  -0.274600D+00  0.839620D-01 -0.805341D-01 -0.780028D+00 -0.267771D+00
                11            12            13            14            15 
      1  -0.189078D+00 -0.919386D-01 -0.755668D+00  0.852373D+00 -0.348975D-01
      2  -0.121834D+01  0.304440D-01 -0.541308D-01 -0.112580D+01  0.150857D-01
      3  -0.879206D-01 -0.840960D+00 -0.585740D-02  0.407171D-01 -0.101514D+01
                16            17            18            19            20 
      1   0.754000D+00  0.189373D+00 -0.574687D+00  0.431884D+00  0.230850D+00
      2   0.130312D+00  0.195416D+00 -0.137605D+00  0.939608D-01  0.225944D+00
      3  -0.191961D+00 -0.618579D-01  0.338152D+00  0.152736D+00  0.128670D+00
                21            22            23            24            25 
      1   0.638924D+00  0.453663D-01 -0.732281D-01  0.261790D-01  0.152715D+00
      2   0.228273D+00 -0.133325D-01  0.224827D+00  0.124064D+00 -0.177540D+00
      3   0.518799D+00  0.108378D+00  0.612335D-01  0.247951D+00  0.240675D+00
                26            27            28            29            30 
      1  -0.109580D-01  0.268104D-01  0.125529D+00  0.208784D+00  0.524042D-01
      2   0.567918D-01 -0.278387D+00  0.115802D-01  0.108612D+01  0.171757D+00
      3   0.143080D+00  0.621714D+00  0.177823D-01 -0.438368D-01  0.101723D+00
                31            32            33            34            35 
      1  -0.621322D-01 -0.102403D+00 -0.228641D+00  0.920958D+00 -0.479619D+00
      2   0.259421D+00  0.292444D+00  0.385986D+00 -0.579155D+00  0.474271D+00
      3   0.149467D+00  0.114265D+00  0.479397D+00  0.105440D+00 -0.629552D-01
                36            37            38            39            40 
      1   0.177428D+00 -0.308593D-01 -0.496857D-01  0.754514D-01 -0.259154D-01
      2  -0.129732D+00  0.327767D+00  0.233747D+00 -0.270785D+00 -0.226206D+00
      3   0.127294D+00 -0.249190D+00 -0.802349D-01  0.388410D+00 -0.128163D-01
                41            42 
      1   0.595976D+00 -0.261699D+00
      2   0.864245D+00 -0.265720D+00
      3   0.135250D-01  0.303377D+00
 Hessian after L701:
                1             2             3             4             5 
      1  0.106622D+02
      2  0.199563D+00  0.507863D+01
      3 -0.151756D+01 -0.319457D+01  0.716685D+01
      4 -0.624643D+01  0.576815D+00  0.822654D+00  0.533121D+01
      5  0.610389D+00 -0.216480D+01  0.450424D+01 -0.181195D+01  0.506066D+01
[...]
 ! A19   A(11,5,13)            108.4515         -DE/DX =    0.0                 !
 ! A20   A(12,5,13)            107.864          -DE/DX =    0.0                 !
 ! A21   A(2,8,4)              170.2677         -DE/DX =    0.0                 !
 ! D1    D(14,1,2,8)           -94.4522         -DE/DX =    0.0                 !
 ! D2    D(1,2,8,4)             29.1289         -DE/DX =    0.0                 !
 ! D3    D(5,3,4,8)            -51.9619         -DE/DX =    0.0                 !
 ! D4    D(5,3,4,9)             56.0085         -DE/DX =    0.0                 !
 ! D5    D(5,3,4,10)          -167.3384         -DE/DX =    0.0                 !
 ! D6    D(6,3,4,8)           -173.3041         -DE/DX =    0.0                 !
 ! D7    D(6,3,4,9)            -65.3338         -DE/DX =    0.0                 !
 ! D8    D(6,3,4,10)            71.3194         -DE/DX =    0.0                 !
 ! D9    D(7,3,4,8)             71.0524         -DE/DX =    0.0                 !
 ! D10   D(7,3,4,9)            179.0228         -DE/DX =    0.0                 !
 ! D11   D(7,3,4,10)           -44.3241         -DE/DX =    0.0                 !
 ! D12   D(4,3,5,11)           -53.333          -DE/DX =    0.0                 !
 ! D13   D(4,3,5,12)          -173.7215         -DE/DX =    0.0                 !
 ! D14   D(4,3,5,13)            66.6242         -DE/DX =    0.0                 !
 ! D15   D(6,3,5,11)            67.5121         -DE/DX =    0.0                 !
 ! D16   D(6,3,5,12)           -52.8764         -DE/DX =    0.0                 !
 ! D17   D(6,3,5,13)          -172.5307         -DE/DX =    0.0                 !
 ! D18   D(7,3,5,11)          -176.4084         -DE/DX =    0.0                 !
 ! D19   D(7,3,5,12)            63.2031         -DE/DX =    0.0                 !
 ! D20   D(7,3,5,13)           -56.4513         -DE/DX =    0.0                 !
 ! D21   D(3,4,8,2)             70.5785         -DE/DX =    0.0                 !
 ! D22   D(9,4,8,2)            -49.2607         -DE/DX =    0.0                 !
 ! D23   D(10,4,8,2)          -165.5961         -DE/DX =    0.0                 !
 --------------------------------------------------------------------------------
 GradGradGradGradGradGradGradGradGradGradGradGradGradGradGradGradGradGrad

 Leave Link  103 at Fri Sep  6 02:17:08 2019, MaxMem=   671088640 cpu:             151.5 elap:              76.0
 (Enter /shared/centos7/gaussian/g16/l9999.exe)

 ----------------------------------------------------------------------

 Electric dipole moment (input orientation):
 (Debye = 10**-18 statcoulomb cm , SI units = C m)
                  (au)            (Debye)         (10**-30 SI)
   Tot        0.104835D+01      0.266464D+01      0.888828D+01
   x         -0.977128D+00     -0.248361D+01     -0.828444D+01
   y          0.320312D+00      0.814151D+00      0.271572D+01
   z          0.204103D+00      0.518779D+00      0.173046D+01

 Dipole polarizability, Alpha (input orientation).
 (esu units = cm**3 , SI units = C**2 m**2 J**-1)
 Alpha(0;0):
               (au)            (10**-24 esu)      (10**-40 SI)
   iso        0.569891D+02      0.844492D+01      0.939624D+01
   aniso      0.276370D+02      0.409538D+01      0.455673D+01
   xx         0.699060D+02      0.103590D+02      0.115259D+02
   yx         0.911123D+01      0.135015D+01      0.150224D+01
   yy         0.559236D+02      0.828702D+01      0.922055D+01
   zx        -0.389586D+01     -0.577306D+00     -0.642340D+00
   zy        -0.148033D+01     -0.219362D+00     -0.244073D+00
   zz         0.451378D+02      0.668873D+01      0.744222D+01

 ----------------------------------------------------------------------

 Dipole orientation:
     8          1.68070664          1.79425131         -3.10298413
     8         -0.70881532          0.71024969         -3.11779575
     6         -1.19090875         -1.34169849          2.64266897
     6         -0.10214294         -2.51190424          0.29720231
     6         -0.29861482          1.36917842          3.05284604
     1         -0.64374093         -2.50009530          4.27120750
     1         -3.25045045         -1.39822272          2.56781438
     1         -0.56155800         -0.91673240         -1.60587483
     1          1.95228410         -2.51553781          0.18210145
     1         -0.95025054         -4.27155106         -0.33292722
     1          1.76070249          1.47586952          3.01270373
     1         -0.94111840          2.10730763          4.86277689
     1         -1.04433451          2.59227783          1.57043112
     1          1.49958568          3.18338508         -1.93328791

 Electric dipole moment (dipole orientation):
 (Debye = 10**-18 statcoulomb cm , SI units = C m)
                  (au)            (Debye)         (10**-30 SI)
   Tot        0.104835D+01      0.266464D+01      0.888828D+01
   x          0.000000D+00      0.000000D+00      0.000000D+00
   y          0.000000D+00      0.000000D+00      0.000000D+00
   z          0.104835D+01      0.266464D+01      0.888828D+01

 Dipole polarizability, Alpha (dipole orientation).
 (esu units = cm**3 , SI units = C**2 m**2 J**-1)
 Alpha(0;0):
               (au)            (10**-24 esu)      (10**-40 SI)
   iso        0.569891D+02      0.844492D+01      0.939624D+01
   aniso      0.276370D+02      0.409538D+01      0.455673D+01
   xx         0.461402D+02      0.683728D+01      0.760750D+01
   yx         0.508530D+01      0.753563D+00      0.838452D+00
   yy         0.611169D+02      0.905659D+01      0.100768D+02
   zx        -0.409042D+01     -0.606138D+00     -0.674420D+00
   zy        -0.110478D+02     -0.163712D+01     -0.182154D+01
   zz         0.637103D+02      0.944089D+01      0.105044D+02

 ----------------------------------------------------------------------

 Test job not archived.
 1\1\GINC-C0131\Freq\UM062X\CC-pVTZ\C3H9O2(2)\HARMS.N\06-Sep-2019\0\\#P
  Geom=AllCheck Guess=TCheck SCRF=Check Test GenChk UM062X/CC-pVTZ Freq
 \\Gaussian input prepared by ASE\\0,2\O,1.9994573234,0.5855868499,0.21
 91801009\O,1.5250357159,-0.2470309253,-0.7856554558\C,-1.6446169357,-0
 .3774613514,-0.0981937161\C,-0.4781904343,-1.1902057868,0.3863754091\C
 ,-1.3761472827,1.1238516448,-0.0541382799\H,-2.5149794209,-0.610228647
 6,0.5267597073\H,-1.9121749984,-0.6769318892,-1.1125872125\H,0.5953466
 262,-0.7776872419,-0.2942002025\H,-0.1252681278,-0.9514398304,1.388402
 5228\H,-0.5118046544,-2.2574723597,0.1876541044\H,-1.0455739729,1.4291
 734231,0.9401857256\H,-2.2685065656,1.6955219816,-0.3039128882\H,-0.59
 83612799,1.3867628703,-0.7724296859\H,1.5716100071,1.4295182627,0.0257
 538707\\Version=EM64L-G16RevA.03\State=2-A\HF=-269.9837861\S2=0.759948
 \S2-1=0.\S2A=0.750048\RMSD=6.036e-10\RMSF=9.455e-06\ZeroPoint=0.114669
 6\Thermal=0.1221107\Dipole=-0.9771281,0.3203118,0.2041033\DipoleDeriv=
 -0.4367776,-0.1106244,0.1213367,-0.5955057,-0.4726494,0.032766,-0.5023
 27,-0.32057,-0.1373298,0.4462645,0.373652,-0.1895767,0.8287289,0.20946
 09,-0.0869092,0.3914941,0.2419383,-0.2255334,-0.1784744,-0.0323266,0.0
 213264,-0.0684556,0.0587924,0.0025398,0.1843674,0.0461503,0.0632509,0.
 8216214,0.3163285,-0.1606763,0.1756411,0.135238,-0.0164752,-0.3834058,
 -0.1817034,0.150203,0.0504202,-0.0009892,0.0037322,-0.0496618,-0.01529
 39,0.0218666,-0.0380481,0.0093486,0.0746493,-0.1229588,-0.0503693,0.07
 5508,0.0640306,0.0363951,0.0152359,0.0186477,0.0244151,0.0238581,0.049
 5504,0.000464,-0.0415565,0.0131531,-0.0056054,-0.0411866,-0.0856166,-0
 .0524661,-0.0920615,-0.7445481,-0.4413733,0.2343902,-0.5178235,-0.1013
 667,0.1246458,0.4469713,0.1996591,-0.0310051,-0.0814602,-0.0373344,-0.
 0030264,-0.0505279,0.0093639,-0.0348224,-0.0063781,0.0148281,-0.064828
 8,-0.0373729,-0.0462311,0.0029179,0.0258877,-0.106438,-0.0097111,0.061
 2429,0.0302909,0.0449755,0.0447426,-0.0456839,-0.0628489,-0.0165067,0.
 016149,-0.0165332,-0.0494857,-0.0559078,-0.0965616,-0.0672442,0.104908
 4,-0.0403913,0.084913,-0.022586,0.0181979,-0.0394288,0.0279994,0.06874
 77,-0.0294697,-0.0786192,0.0836827,-0.0226572,0.0183486,-0.0021837,0.0
 792612,0.022585,-0.0076312,0.2857069,0.0481985,-0.0448179,0.1287839,0.
 2401913,-0.0074306,-0.0772945,-0.0065676,0.2292669\Polar=69.9060236,9.
 1112326,55.9235524,-3.8958561,-1.4803288,45.1377939\Quadrupole=-2.8694
 179,3.1256282,-0.2562103,1.6545518,0.4164391,-0.2122583\PG=C01 [X(C3H9
 O2)]\NImag=1\\0.19997794,-0.13468126,0.53705482,0.15394736,0.01956745,
 0.22053065,-0.05669561,-0.04908759,-0.05742028,0.07157758,-0.03167025,
 -0.13282450,-0.08351045,0.04296743,0.15845577,-0.05482487,-0.13001580,
 -0.17966128,0.01247538,0.12742417,0.24586854,-0.00137240,-0.00430996,-
 0.00545363,0.01032624,0.00854067,0.00245685,0.51038554,-0.00080043,-0.
 00241238,-0.00226139,0.00193454,0.00205336,0.00220424,0.01743110,0.471
 62010,0.00151171,0.00434779,0.00491451,-0.00621707,-0.00681375,-0.0029
 3940,0.00123906,0.01845610,0.58062375,0.00450651,0.02050404,0.02781526
 ,-0.10519569,-0.07575647,0.02185438,-0.14810033,0.06160158,-0.04896695
 ,0.29624930,0.00042097,0.00506570,0.00816996,-0.03843380,-0.02264812,0
 .01015761,0.06594020,-0.11684442,0.01459628,-0.05735582,0.54743362,-0.
 00577085,-0.01461051,-0.01572699,0.06688352,0.04680775,-0.01131908,-0.
 05351562,0.01855818,-0.08790691,0.15843361,0.08871561,0.44648564,-0.00
 044402,-0.00021067,0.00024610,0.00044740,0.00044633,0.00012656,-0.0807
 0063,-0.02515401,-0.00386897,0.00444834,0.03043897,0.00200007,0.575461
 54,0.00028678,-0.00172590,-0.00189648,0.00368201,0.00143476,0.00112783
 ,-0.02488878,-0.19302722,-0.00333854,0.00504369,-0.02525813,-0.0015650
 3,-0.02653486,0.48138574,-0.00024155,0.00061819,-0.00058636,-0.0007956
 3,0.00048343,-0.00015484,-0.00282964,-0.00394550,-0.08033967,0.0030330
 9,0.01023912,0.00107481,0.00255982,-0.00498319,0.57395276,-0.00043214,
 -0.00124548,-0.00124975,0.00091833,0.00111618,0.00135742,-0.19968381,-
 0.04494638,0.11795165,-0.02599532,-0.00003639,0.01133205,-0.00395690,-
 0.00176272,0.00314076,0.22202449,0.00035216,0.00173654,0.00177176,-0.0
 0198228,-0.00221978,-0.00154503,-0.03790722,-0.05215354,0.02708177,0.0
 1342675,0.00137434,-0.00831764,-0.02687859,-0.01034309,0.02035555,0.04
 387913,0.06320568,-0.00029172,-0.00132260,-0.00149389,0.00170809,0.002
 02919,0.00095698,0.11165522,0.02987444,-0.13009493,-0.00667091,-0.0018
 0515,0.00524827,-0.00112683,-0.00060417,0.00064547,-0.12600334,-0.0336
 4960,0.13913447,0.00005215,0.00018050,0.00040172,-0.00041578,-0.000498
 55,0.00022321,-0.06091969,-0.01642072,-0.05608853,-0.00962491,-0.00699
 515,-0.02663000,-0.00194305,-0.00235119,-0.00540968,0.00609630,0.00689
 981,0.02426465,0.06745988,-0.00002876,0.00030223,0.00040404,-0.0003244
 2,-0.00029668,-0.00034461,-0.01653097,-0.06767679,-0.06633670,0.003820
 43,0.00502847,0.01863097,-0.00837087,-0.01076700,-0.03154236,0.0017117
 9,0.00134205,0.00604735,0.01671447,0.07654252,-0.00008759,-0.00027179,
 -0.00024578,-0.00013174,0.00021144,0.00035497,-0.05821702,-0.06659915,
 -0.27850660,-0.00236976,-0.00178979,-0.00930098,0.00059856,-0.00022182
 ,0.00112843,-0.00378687,-0.00483706,-0.01838745,0.06506831,0.07197322,
 0.30082196,-0.01720130,-0.03902441,-0.04272452,0.06044230,0.06287326,0
 .01647283,-0.02828808,-0.00360781,0.01522191,0.07252836,0.03032392,-0.
 05308461,-0.00026694,-0.00363693,0.00009820,-0.00205977,0.00391372,-0.
 00378526,0.00111040,0.00032336,-0.00018146,-0.06352364,-0.01727049,-0.
 02829980,-0.02170254,0.03969983,0.01944696,-0.00082986,-0.00168148,-0.
 00009019,0.00153968,0.05241187,-0.00529612,-0.03093647,0.00095464,-0.0
 0125889,-0.00080565,0.00133379,0.00105148,-0.00124096,0.00026746,0.000
 33237,-0.00007601,-0.05001029,0.02356859,-0.01463646,-0.00004512,0.023
 89065,-0.01835564,-0.02891165,-0.04502565,0.00422520,-0.00021240,-0.00
 292888,-0.04414983,-0.01513442,0.00269159,-0.00007946,0.00153490,0.000
 49228,-0.00079807,-0.00072793,0.00192137,-0.00100682,-0.00024996,0.000
 13488,0.05490731,0.04066335,0.03725702,0.00076427,-0.00174877,-0.00438
 940,0.00739668,0.00673632,0.00189205,-0.00670467,-0.00616713,-0.026008
 38,-0.05606802,-0.00954905,-0.08300225,0.00030827,-0.00111049,0.000529
 57,0.00127625,-0.00050241,0.00069176,-0.00333861,0.00380406,-0.0011263
 5,-0.01152006,-0.00528593,0.01681093,0.06632221,0.00069001,-0.00067001
 ,-0.00202372,0.00344131,0.00263842,0.00087301,0.00343215,0.00503724,0.
 01509895,-0.00980922,-0.06324567,-0.05925270,-0.00039170,0.00192163,0.
 00121152,0.00010239,0.00042929,-0.00019394,0.00330994,-0.00117786,0.00
 149443,-0.00579333,-0.00249284,0.00641579,0.01310107,0.06047719,-0.000
 35192,0.00181291,0.00336091,-0.00437146,-0.00432341,-0.00087660,-0.000
 19715,-0.00253695,-0.00584520,-0.09480226,-0.06398199,-0.28019201,0.00
 055172,-0.00034558,0.00040933,-0.00061673,0.00011558,0.00034339,-0.001
 58143,0.00075171,0.00106384,0.00525984,0.00159043,-0.01451173,0.095826
 45,0.06475636,0.29739245,-0.00173534,-0.00337242,-0.00279532,0.0066171
 4,0.00592548,0.00050207,0.00595224,0.02637520,0.00495453,-0.03694271,-
 0.01397429,-0.01618275,-0.00478751,0.00084354,-0.00187957,0.00042584,-
 0.00109983,0.00053369,0.00081898,-0.00089847,-0.00009938,-0.00966980,-
 0.01556152,0.00223674,0.00165086,-0.00752869,-0.00023600,0.03775290,-0
 .00014834,-0.00004078,-0.00011523,-0.00018416,0.00078516,0.00058228,-0
 .00433019,-0.01042368,-0.00288595,-0.00501401,-0.32195068,-0.05768536,
 0.00371575,-0.00040234,0.00100140,0.00036921,-0.00012441,-0.00011371,-
 0.00011138,0.00056157,0.00038572,-0.00093411,-0.00623880,-0.00104981,-
 0.00006608,-0.00271053,0.00125167,0.00697798,0.34091916,0.00037219,0.0
 0232858,0.00311262,-0.00580149,-0.00492273,-0.00097204,0.00115266,0.00
 847982,0.00285292,-0.01519824,-0.05065305,-0.05191578,-0.00189377,0.00
 162015,0.00002349,-0.00049177,0.00044896,0.00006112,0.00108240,-0.0000
 2395,0.00052133,0.00882956,0.01136400,-0.00318858,-0.00176067,-0.02761
 920,-0.00129516,0.01317400,0.05860558,0.05018140,0.00033066,-0.0001977
 7,-0.00039739,-0.00007169,0.00023136,0.00000370,-0.00282362,-0.0018678
 9,-0.00629580,0.00054588,0.00063609,0.00098990,-0.07195573,-0.02123808
 ,-0.07216311,-0.00021158,0.00023818,-0.00030498,0.00056469,-0.00114846
 ,0.00041753,-0.00001859,-0.00002697,0.00011603,0.00034694,-0.00005811,
 -0.00002728,-0.00007845,-0.00005140,0.00005548,0.07295800,-0.00002153,
 0.00007179,0.00025524,-0.00015018,-0.00018626,-0.00008443,-0.00953553,
 -0.01072007,-0.03229697,-0.00096056,0.00196477,-0.00102235,-0.02093551
 ,-0.06486503,-0.06348408,0.00000878,0.00118450,0.00037983,-0.00121836,
 -0.00662316,0.00050980,0.00019392,0.00011468,-0.00019685,0.00060326,-0
 .00021873,0.00077890,-0.00009261,0.00030815,0.00035916,0.02473837,0.07
 318517,-0.00055247,0.00046707,0.00075529,-0.00011554,-0.00074421,-0.00
 022954,0.00004881,-0.00034303,-0.00027158,-0.00028279,0.00040749,0.001
 10044,-0.07245437,-0.06475367,-0.27024502,-0.00009066,-0.00050874,0.00
 050619,-0.00021100,0.00028432,0.00167550,0.00047742,0.00021807,-0.0004
 7681,0.00046322,-0.00059365,-0.00003193,0.00021552,0.00001734,0.000195
 36,0.08034149,0.07183545,0.29180544,-0.00036797,0.00039695,0.00046671,
 -0.00059595,-0.00003372,-0.00044274,0.00724597,-0.00541747,0.00272142,
 -0.00003458,-0.00139591,0.00012503,-0.23363990,0.11657201,-0.05215056,
 0.00073098,0.00053847,0.00002698,0.00010330,0.00068117,0.00007002,0.00
 043697,-0.00022341,-0.00012774,0.00002986,-0.00010797,0.00010961,0.000
 52393,-0.00030973,-0.00004886,-0.00749678,0.00376053,-0.00122695,0.250
 60946,-0.00027780,0.00078526,0.00073201,-0.00080669,-0.00064917,-0.000
 59296,0.02757490,-0.01565430,0.00861357,-0.00349569,-0.00654929,-0.001
 20772,0.11474298,-0.11826132,0.03174984,0.00000620,0.00154704,0.000501
 97,0.00011625,0.00092538,-0.00059430,0.00052283,0.00026559,-0.00036785
 ,-0.00002484,0.00016238,0.00005290,0.00176162,-0.00096610,0.00060464,-
 0.00828140,0.00449633,-0.00121024,-0.12577287,0.13023907,-0.00023369,-
 0.00021434,0.00001211,0.00052791,-0.00030767,0.00026555,0.00156709,-0.
 00069474,-0.00095349,0.00023970,0.00032682,0.00046655,-0.05192199,0.03
 210360,-0.06193257,-0.00019699,0.00026055,-0.00001950,0.00038971,0.000
 15170,0.00005856,-0.00020741,0.00007956,-0.00012477,0.00024995,-0.0002
 9373,0.00029987,-0.00012815,0.00001586,0.00040222,-0.02483811,0.015991
 02,-0.00586625,0.05677299,-0.03540752,0.06214761,-0.00054747,0.0012378
 6,0.00027101,-0.00149727,0.00000459,-0.00042130,-0.00509470,-0.0021618
 1,0.00360140,0.00025587,0.00029413,-0.00036325,-0.18275483,-0.04397087
 ,0.12494130,0.00090876,-0.00140920,-0.00045790,-0.00000845,-0.00000736
 ,-0.00015342,0.00058190,0.00031900,-0.00010007,0.00001032,-0.00004913,
 -0.00000577,0.00007236,-0.00009584,-0.00001794,0.00840524,0.00350975,-
 0.00736412,-0.01834039,-0.00660547,0.01799927,0.19810886,0.00014927,0.
 00043009,0.00061691,-0.00052911,-0.00009981,-0.00106170,-0.02399250,-0
 .01001586,0.02251595,-0.00226933,0.00167314,0.00034684,-0.04215880,-0.
 05858678,0.03917013,-0.00076804,-0.00677524,-0.00002475,0.00013802,0.0
 0159133,-0.00025372,0.00094671,-0.00047806,0.00014278,0.00008841,-0.00
 008984,0.00003461,0.00020955,0.00016005,-0.00039664,0.00719558,0.00109
 947,-0.00513784,0.01104635,0.00365851,-0.01207011,0.04966263,0.0669157
 2,0.00033980,-0.00120215,-0.00098997,0.00160964,0.00041920,0.00068212,
 -0.00203632,-0.00088990,0.00146326,0.00089131,0.00021016,-0.00059307,0
 .12592214,0.04146802,-0.16587711,-0.00046138,-0.00068987,0.00123031,-0
 .00044173,0.00036830,0.00070000,-0.00097966,0.00004239,0.00035029,-0.0
 0002040,-0.00004185,-0.00001978,-0.00028951,0.00000090,0.00016842,0.02
 157421,0.00703177,-0.01818862,-0.00631722,-0.00284824,0.00567351,-0.13
 761447,-0.04399959,0.17568975,-0.12683530,0.21155898,-0.06871784,0.006
 74633,-0.02088264,-0.00167556,-0.00022206,-0.00079878,0.00024402,0.003
 42730,-0.00031386,-0.00121486,-0.00021606,-0.00093410,0.00116699,-0.00
 004143,0.00053133,-0.00023945,0.00004481,0.00025401,-0.00000082,-0.002
 55175,-0.00492650,0.00095789,-0.00047433,-0.00033872,0.00044237,-0.000
 60044,0.00018228,0.00054645,-0.00049499,0.00009968,0.00075145,0.000795
 10,0.00053997,-0.00022027,-0.00010020,0.00028127,-0.00217640,0.1205230
 2,0.18299969,-0.37947307,0.07999246,-0.00022688,-0.02589012,-0.0078947
 6,0.00025762,0.00030775,-0.00057819,-0.00214726,-0.00074762,0.00153843
 ,0.00033632,-0.00024641,-0.00006840,0.00023153,-0.00025487,0.00012210,
 -0.00003109,-0.00008443,0.00006904,0.00390916,-0.00062499,-0.00186083,
 0.00012158,-0.00006066,0.00004286,0.00043447,0.00012324,-0.00019533,-0
 .00016951,0.00018839,0.00006164,0.00026559,0.00000063,0.00005901,-0.00
 072830,0.00051728,0.00013088,-0.18525292,0.40624489,-0.07917995,0.1185
 4031,-0.05787247,0.01000431,-0.04784130,-0.00694972,-0.00009551,-0.000
 08972,-0.00006777,0.00017339,0.00054135,-0.00011249,-0.00065957,-0.000
 14602,0.00140901,-0.00008632,0.00024171,-0.00005179,-0.00006081,-0.000
 11403,-0.00001865,-0.00030416,0.00009401,-0.00048165,-0.00015646,0.000
 16874,-0.00009738,-0.00000587,-0.00001068,-0.00014732,0.00052834,-0.00
 005648,-0.00072848,0.00002131,-0.00002610,-0.00042940,-0.00031474,0.00
 011712,-0.00028911,0.07013603,-0.07141891,0.06583720\\0.00000413,0.000
 01561,0.00000290,0.00001692,-0.00000267,0.00000777,0.00000055,0.000002
 07,-0.00000026,0.00000229,-0.00000807,0.00002859,-0.00000339,-0.000001
 65,0.00000249,-0.00000069,-0.00000175,-0.00000124,0.00000081,-0.000001
 32,-0.00000008,-0.00002569,0.00000601,-0.00003665,-0.00000323,-0.00000
 448,0.00000130,-0.00000078,-0.00000026,0.00000296,0.00000024,-0.000000
 87,-0.00000593,-0.00000173,-0.00000145,-0.00000141,0.00000709,0.000002
 54,0.00000133,0.00000348,-0.00000370,-0.00000178\\\@


 THERE IS NO CURE FOR BIRTH AND DEATH SAVE TO ENJOY THE INTERVAL.

                               -- GEORGE SANTAYANA
 Job cpu time:       0 days  2 hours 39 minutes 39.3 seconds.
 Elapsed time:       0 days  1 hours 19 minutes 50.2 seconds.
 File lengths (MBytes):  RWF=   1392 Int=      0 D2E=      0 Chk=     32 Scr=     32
 Normal termination of Gaussian 16 at Fri Sep  6 02:17:09 2019.
