 Entering Gaussian System, Link 0=g16
 Input=med/ts/CCC+[O]O_[CH2]CC+OO/conformers/CCC+[O]O_[CH2]CC+OO_forward_3.com
 Output=med/ts/CCC+[O]O_[CH2]CC+OO/conformers/CCC+[O]O_[CH2]CC+OO_forward_3.log
 Initial command:
 /shared/centos7/gaussian/g16/l1.exe "/scratch/harms.n/gauss_scrdir/Gau-32551.inp" -scrdir="/scratch/harms.n/gauss_scrdir/"
 Entering Link 1 = /shared/centos7/gaussian/g16/l1.exe PID=     32552.
  
 Copyright (c) 1988,1990,1992,1993,1995,1998,2003,2009,2016,
            Gaussian, Inc.  All Rights Reserved.
  
 This is part of the Gaussian(R) 16 program.  It is based on
 the Gaussian(R) 09 system (copyright 2009, Gaussian, Inc.),
 the Gaussian(R) 03 system (copyright 2003, Gaussian, Inc.),
 the Gaussian(R) 98 system (copyright 1998, Gaussian, Inc.),
 the Gaussian(R) 94 system (copyright 1995, Gaussian, Inc.),
 the Gaussian 92(TM) system (copyright 1992, Gaussian, Inc.),
 the Gaussian 90(TM) system (copyright 1990, Gaussian, Inc.),
 the Gaussian 88(TM) system (copyright 1988, Gaussian, Inc.),
 the Gaussian 86(TM) system (copyright 1986, Carnegie Mellon
 University), and the Gaussian 82(TM) system (copyright 1983,
 Carnegie Mellon University). Gaussian is a federally registered
 trademark of Gaussian, Inc.
  
 This software contains proprietary and confidential information,
 including trade secrets, belonging to Gaussian, Inc.
  
 This software is provided under written license and may be
 used, copied, transmitted, or stored only in accord with that
 written license.
  
 The following legend is applicable only to US Government
 contracts under FAR:
  
                    RESTRICTED RIGHTS LEGEND
  
 Use, reproduction and disclosure by the US Government is
 subject to restrictions as set forth in subparagraphs (a)
 and (c) of the Commercial Computer Software - Restricted
 Rights clause in FAR 52.227-19.
  
 Gaussian, Inc.
 340 Quinnipiac St., Bldg. 40, Wallingford CT 06492
  
  
 ---------------------------------------------------------------
 Warning -- This program may not be used in any manner that
 competes with the business of Gaussian, Inc. or will provide
 assistance to any competitor of Gaussian, Inc.  The licensee
 of this program is prohibited from giving any competitor of
 Gaussian, Inc. access to this program.  By using this program,
 the user acknowledges that Gaussian, Inc. is engaged in the
 business of creating and licensing software in the field of
 computational chemistry and represents and warrants to the
 licensee that it is not a competitor of Gaussian, Inc. and that
 it will not use this program in any manner prohibited above.
 ---------------------------------------------------------------
  

 Cite this work as:
 Gaussian 16, Revision A.03,
 M. J. Frisch, G. W. Trucks, H. B. Schlegel, G. E. Scuseria, 
 M. A. Robb, J. R. Cheeseman, G. Scalmani, V. Barone, 
 G. A. Petersson, H. Nakatsuji, X. Li, M. Caricato, A. V. Marenich, 
 J. Bloino, B. G. Janesko, R. Gomperts, B. Mennucci, H. P. Hratchian, 
 J. V. Ortiz, A. F. Izmaylov, J. L. Sonnenberg, D. Williams-Young, 
 F. Ding, F. Lipparini, F. Egidi, J. Goings, B. Peng, A. Petrone, 
 T. Henderson, D. Ranasinghe, V. G. Zakrzewski, J. Gao, N. Rega, 
 G. Zheng, W. Liang, M. Hada, M. Ehara, K. Toyota, R. Fukuda, 
 J. Hasegawa, M. Ishida, T. Nakajima, Y. Honda, O. Kitao, H. Nakai, 
 T. Vreven, K. Throssell, J. A. Montgomery, Jr., J. E. Peralta, 
 F. Ogliaro, M. J. Bearpark, J. J. Heyd, E. N. Brothers, K. N. Kudin, 
 V. N. Staroverov, T. A. Keith, R. Kobayashi, J. Normand, 
 K. Raghavachari, A. P. Rendell, J. C. Burant, S. S. Iyengar, 
 J. Tomasi, M. Cossi, J. M. Millam, M. Klene, C. Adamo, R. Cammi, 
 J. W. Ochterski, R. L. Martin, K. Morokuma, O. Farkas, 
 J. B. Foresman, and D. J. Fox, Gaussian, Inc., Wallingford CT, 2016.
 
 ******************************************
 Gaussian 16:  EM64L-G16RevA.03 25-Dec-2016
                 6-Sep-2019 
 ******************************************
 %nprocshared=20
 Will use up to   20 processors via shared memory.
 %mem=5GB
 ----------------------------------------------------------------------
 #p m062x/cc-pVTZ opt=(ts,calcfc,noeigentest,maxcycles=900) freq scf=(m
 axcycle=900) IOP(7/33=1,2/16=3)
 ----------------------------------------------------------------------
 1/5=1,6=900,10=4,11=1,18=20,26=3,38=1/1,3;
 2/9=110,12=2,16=3,17=6,18=5,40=1/2;
 3/5=16,6=1,11=2,25=1,30=1,71=2,74=-55,140=1/1,2,3;
 4//1;
 5/5=2,7=900,38=5/2;
 8/6=4,10=90,11=11/1;
 11/6=1,8=1,9=11,15=111,16=1/1,2,10;
 10/6=1,13=1/2;
 6/7=2,8=2,9=2,10=2,28=1/1;
 7/10=1,18=20,25=1,33=1/1,2,3,16;
 1/5=1,6=900,10=4,11=1,18=20,26=3/3(2);
 2/9=110,16=3/2;
 99//99;
 2/9=110,16=3/2;
 3/5=16,6=1,11=2,25=1,30=1,71=1,74=-55/1,2,3;
 4/5=5,16=3,69=1/1;
 5/5=2,7=900,38=5/2;
 7/33=1/1,2,3,16;
 1/5=1,6=900,11=1,18=20,26=3/3(-5);
 2/9=110,16=3/2;
 6/7=2,8=2,9=2,10=2,19=2,28=1/1;
 99/9=1/99;
 Leave Link    1 at Fri Sep  6 01:44:03 2019, MaxMem=   671088640 cpu:               6.7 elap:               3.4
 (Enter /shared/centos7/gaussian/g16/l101.exe)
 ------------------------------
 Gaussian input prepared by ASE
 ------------------------------
 Symbolic Z-matrix:
 Charge =  0 Multiplicity = 2
 O                     1.86756  -0.43012  -0.57068 
 O                     1.6436   -0.01825   0.74079 
 C                    -1.227     0.18418  -0.61995 
 C                    -0.34579   1.18542   0.066 
 C                    -1.91606  -0.75979   0.35948 
 H                    -0.63544  -0.38025  -1.34246 
 H                    -1.97978   0.72153  -1.20878 
 H                     0.5682    0.4292    0.74873 
 H                     0.31485   1.76976  -0.56327 
 H                    -0.81531   1.75789   0.86451 
 H                    -1.17689  -1.31503   0.93886 
 H                    -2.5514   -1.47707  -0.15629 
 H                    -2.53756  -0.20608   1.06354 
 H                     1.65725  -1.37184  -0.53892 
 
 Add virtual bond connecting atoms H8         and O2         Dist= 2.20D+00.
 Add virtual bond connecting atoms H8         and C4         Dist= 2.59D+00.
 ITRead=  0  0  0  0  0  0  0  0  0  0  0  0  0  0
 MicOpt= -1 -1 -1 -1 -1 -1 -1 -1 -1 -1 -1 -1 -1 -1
 NAtoms=     14 NQM=       14 NQMF=       0 NMMI=      0 NMMIF=      0
                NMic=       0 NMicF=      0.
                    Isotopes and Nuclear Properties:
 (Nuclear quadrupole moments (NQMom) in fm**2, nuclear magnetic moments (NMagM)
  in nuclear magnetons)

  Atom         1           2           3           4           5           6           7           8           9          10
 IAtWgt=          16          16          12          12          12           1           1           1           1           1
 AtmWgt=  15.9949146  15.9949146  12.0000000  12.0000000  12.0000000   1.0078250   1.0078250   1.0078250   1.0078250   1.0078250
 NucSpn=           0           0           0           0           0           1           1           1           1           1
 AtZEff=  -0.0000000  -0.0000000  -0.0000000  -0.0000000  -0.0000000  -0.0000000  -0.0000000  -0.0000000  -0.0000000  -0.0000000
 NQMom=    0.0000000   0.0000000   0.0000000   0.0000000   0.0000000   0.0000000   0.0000000   0.0000000   0.0000000   0.0000000
 NMagM=    0.0000000   0.0000000   0.0000000   0.0000000   0.0000000   2.7928460   2.7928460   2.7928460   2.7928460   2.7928460
 AtZNuc=   8.0000000   8.0000000   6.0000000   6.0000000   6.0000000   1.0000000   1.0000000   1.0000000   1.0000000   1.0000000

  Atom        11          12          13          14
 IAtWgt=           1           1           1           1
 AtmWgt=   1.0078250   1.0078250   1.0078250   1.0078250
 NucSpn=           1           1           1           1
 AtZEff=  -0.0000000  -0.0000000  -0.0000000  -0.0000000
 NQMom=    0.0000000   0.0000000   0.0000000   0.0000000
 NMagM=    2.7928460   2.7928460   2.7928460   2.7928460
 AtZNuc=   1.0000000   1.0000000   1.0000000   1.0000000
 Leave Link  101 at Fri Sep  6 01:44:08 2019, MaxMem=   671088640 cpu:               8.2 elap:               4.2
 (Enter /shared/centos7/gaussian/g16/l103.exe)

 GradGradGradGradGradGradGradGradGradGradGradGradGradGradGradGradGradGrad
 Berny optimization.
 Initialization pass.
                           ----------------------------
                           !    Initial Parameters    !
                           ! (Angstroms and Degrees)  !
 --------------------------                            --------------------------
 ! Name  Definition              Value          Derivative Info.                !
 --------------------------------------------------------------------------------
 ! R1    R(1,2)                  1.3928         calculate D2E/DX2 analytically  !
 ! R2    R(1,14)                 0.9654         calculate D2E/DX2 analytically  !
 ! R3    R(2,8)                  1.1648         calculate D2E/DX2 analytically  !
 ! R4    R(3,4)                  1.4999         calculate D2E/DX2 analytically  !
 ! R5    R(3,5)                  1.5248         calculate D2E/DX2 analytically  !
 ! R6    R(3,6)                  1.0911         calculate D2E/DX2 analytically  !
 ! R7    R(3,7)                  1.0964         calculate D2E/DX2 analytically  !
 ! R8    R(4,8)                  1.3687         calculate D2E/DX2 analytically  !
 ! R9    R(4,9)                  1.0835         calculate D2E/DX2 analytically  !
 ! R10   R(4,10)                 1.0889         calculate D2E/DX2 analytically  !
 ! R11   R(5,11)                 1.091          calculate D2E/DX2 analytically  !
 ! R12   R(5,12)                 1.0882         calculate D2E/DX2 analytically  !
 ! R13   R(5,13)                 1.0902         calculate D2E/DX2 analytically  !
 ! A1    A(2,1,14)             102.8533         calculate D2E/DX2 analytically  !
 ! A2    A(1,2,8)              105.5741         calculate D2E/DX2 analytically  !
 ! A3    A(4,3,5)              112.6435         calculate D2E/DX2 analytically  !
 ! A4    A(4,3,6)              109.2461         calculate D2E/DX2 analytically  !
 ! A5    A(4,3,7)              108.7734         calculate D2E/DX2 analytically  !
 ! A6    A(5,3,6)              110.4925         calculate D2E/DX2 analytically  !
 ! A7    A(5,3,7)              109.7611         calculate D2E/DX2 analytically  !
 ! A8    A(6,3,7)              105.6731         calculate D2E/DX2 analytically  !
 ! A9    A(3,4,8)              104.5743         calculate D2E/DX2 analytically  !
 ! A10   A(3,4,9)              116.9145         calculate D2E/DX2 analytically  !
 ! A11   A(3,4,10)             115.6571         calculate D2E/DX2 analytically  !
 ! A12   A(8,4,9)              100.4            calculate D2E/DX2 analytically  !
 ! A13   A(8,4,10)             102.2749         calculate D2E/DX2 analytically  !
 ! A14   A(9,4,10)             113.9083         calculate D2E/DX2 analytically  !
 ! A15   A(3,5,11)             110.4868         calculate D2E/DX2 analytically  !
 ! A16   A(3,5,12)             111.5579         calculate D2E/DX2 analytically  !
 ! A17   A(3,5,13)             110.9775         calculate D2E/DX2 analytically  !
 ! A18   A(11,5,12)            108.168          calculate D2E/DX2 analytically  !
 ! A19   A(11,5,13)            107.5625         calculate D2E/DX2 analytically  !
 ! A20   A(12,5,13)            107.9408         calculate D2E/DX2 analytically  !
 ! A21   A(2,8,4)              145.6251         calculate D2E/DX2 analytically  !
 ! D1    D(14,1,2,8)           -96.9498         calculate D2E/DX2 analytically  !
 ! D2    D(1,2,8,4)            -39.3575         calculate D2E/DX2 analytically  !
 ! D3    D(5,3,4,8)             59.1863         calculate D2E/DX2 analytically  !
 ! D4    D(5,3,4,9)            169.1343         calculate D2E/DX2 analytically  !
 ! D5    D(5,3,4,10)           -52.4424         calculate D2E/DX2 analytically  !
 ! D6    D(6,3,4,8)            -64.004          calculate D2E/DX2 analytically  !
 ! D7    D(6,3,4,9)             45.944          calculate D2E/DX2 analytically  !
 ! D8    D(6,3,4,10)          -175.6327         calculate D2E/DX2 analytically  !
 ! D9    D(7,3,4,8)           -178.895          calculate D2E/DX2 analytically  !
 ! D10   D(7,3,4,9)            -68.947          calculate D2E/DX2 analytically  !
 ! D11   D(7,3,4,10)            69.4763         calculate D2E/DX2 analytically  !
 ! D12   D(4,3,5,11)           -59.7195         calculate D2E/DX2 analytically  !
 ! D13   D(4,3,5,12)           179.9157         calculate D2E/DX2 analytically  !
 ! D14   D(4,3,5,13)            59.5052         calculate D2E/DX2 analytically  !
 ! D15   D(6,3,5,11)            62.7729         calculate D2E/DX2 analytically  !
 ! D16   D(6,3,5,12)           -57.5918         calculate D2E/DX2 analytically  !
 ! D17   D(6,3,5,13)          -178.0023         calculate D2E/DX2 analytically  !
 ! D18   D(7,3,5,11)           178.9222         calculate D2E/DX2 analytically  !
 ! D19   D(7,3,5,12)            58.5574         calculate D2E/DX2 analytically  !
 ! D20   D(7,3,5,13)           -61.8531         calculate D2E/DX2 analytically  !
 ! D21   D(3,4,8,2)             97.9091         calculate D2E/DX2 analytically  !
 ! D22   D(9,4,8,2)            -23.6409         calculate D2E/DX2 analytically  !
 ! D23   D(10,4,8,2)          -141.1323         calculate D2E/DX2 analytically  !
 --------------------------------------------------------------------------------
 Trust Radius=3.00D-01 FncErr=1.00D-07 GrdErr=1.00D-06 EigMax=2.50D+02 EigMin=1.00D-04
 Number of steps in this run=    100 maximum allowed number of steps=    100.
 Search for a saddle point of order  1.
 GradGradGradGradGradGradGradGradGradGradGradGradGradGradGradGradGradGrad

 Leave Link  103 at Fri Sep  6 01:44:09 2019, MaxMem=   671088640 cpu:               2.1 elap:               1.1
 (Enter /shared/centos7/gaussian/g16/l202.exe)
                          Input orientation:                          
 ---------------------------------------------------------------------
 Center     Atomic      Atomic             Coordinates (Angstroms)
 Number     Number       Type             X           Y           Z
 ---------------------------------------------------------------------
      1          8           0        1.867556   -0.430124   -0.570680
      2          8           0        1.643595   -0.018247    0.740791
      3          6           0       -1.227004    0.184176   -0.619953
      4          6           0       -0.345789    1.185424    0.066000
      5          6           0       -1.916062   -0.759790    0.359482
      6          1           0       -0.635437   -0.380253   -1.342459
      7          1           0       -1.979776    0.721532   -1.208778
      8          1           0        0.568197    0.429202    0.748732
      9          1           0        0.314848    1.769763   -0.563266
     10          1           0       -0.815308    1.757885    0.864513
     11          1           0       -1.176894   -1.315032    0.938864
     12          1           0       -2.551401   -1.477065   -0.156288
     13          1           0       -2.537555   -0.206080    1.063542
     14          1           0        1.657247   -1.371844   -0.538918
 ---------------------------------------------------------------------
                    Distance matrix (angstroms):
                    1          2          3          4          5
     1  O    0.000000
     2  O    1.392752   0.000000
     3  C    3.155328   3.183228   0.000000
     4  C    2.813228   2.421119   1.499856   0.000000
     5  C    3.910198   3.656014   1.524849   2.517091   0.000000
     6  H    2.619753   3.108853   1.091122   2.125793   2.163481
     7  H    4.066380   4.180539   1.096418   2.123716   2.158197
     8  H    2.041476   1.164798   2.270701   1.368709   2.781503
     9  H    2.692668   2.581301   2.212376   1.083452   3.496722
    10  H    3.747655   3.035812   2.202202   1.088936   2.793815
    11  H    3.511476   3.110634   2.163341   2.775771   1.091030
    12  H    4.560152   4.531103   2.174565   3.464532   1.088190
    13  H    4.703815   4.197793   2.168870   2.781225   1.090206
    14  H    0.965440   1.862811   3.278211   3.304194   3.735006
                    6          7          8          9         10
     6  H    0.000000
     7  H    1.743287   0.000000
     8  H    2.545001   3.226371   0.000000
     9  H    2.476439   2.603992   1.892783   0.000000
    10  H    3.078102   2.593945   1.921689   1.820974   0.000000
    11  H    2.524168   3.066689   2.474640   3.741343   3.095011
    12  H    2.506176   2.503661   3.766272   4.350047   3.810637
    13  H    3.072007   2.516946   3.185653   3.832318   2.619715
    14  H    2.623991   4.249573   2.467355   3.416478   4.228280
                   11         12         13         14
    11  H    0.000000
    12  H    1.764903   0.000000
    13  H    1.759749   1.761698   0.000000
    14  H    3.196783   4.227315   4.639315   0.000000
 Stoichiometry    C3H9O2(2)
 Framework group  C1[X(C3H9O2)]
 Deg. of freedom    36
 Full point group                 C1      NOp   1
 Largest Abelian subgroup         C1      NOp   1
 Largest concise Abelian subgroup C1      NOp   1
                         Standard orientation:                         
 ---------------------------------------------------------------------
 Center     Atomic      Atomic             Coordinates (Angstroms)
 Number     Number       Type             X           Y           Z
 ---------------------------------------------------------------------
      1          8           0       -1.867556   -0.430124    0.570680
      2          8           0       -1.643595   -0.018247   -0.740791
      3          6           0        1.227004    0.184176    0.619953
      4          6           0        0.345789    1.185424   -0.066000
      5          6           0        1.916062   -0.759790   -0.359482
      6          1           0        0.635437   -0.380253    1.342459
      7          1           0        1.979776    0.721532    1.208778
      8          1           0       -0.568197    0.429202   -0.748732
      9          1           0       -0.314848    1.769763    0.563266
     10          1           0        0.815308    1.757885   -0.864513
     11          1           0        1.176894   -1.315032   -0.938864
     12          1           0        2.551401   -1.477064    0.156288
     13          1           0        2.537555   -0.206079   -1.063542
     14          1           0       -1.657247   -1.371844    0.538918
 ---------------------------------------------------------------------
 Rotational constants (GHZ):           7.4750527           2.3831639           2.2486157
 Leave Link  202 at Fri Sep  6 01:44:11 2019, MaxMem=   671088640 cpu:               5.0 elap:               2.6
 (Enter /shared/centos7/gaussian/g16/l301.exe)
 Standard basis: CC-pVTZ (5D, 7F)
 Ernie: Thresh=  0.10000D-02 Tol=  0.10000D-05 Strict=F.
 Ernie:  15 primitive shells out of 202 were deleted.
 There are   310 symmetry adapted cartesian basis functions of A   symmetry.
 There are   276 symmetry adapted basis functions of A   symmetry.
   276 basis functions,   413 primitive gaussians,   310 cartesian basis functions
    22 alpha electrons       21 beta electrons
       nuclear repulsion energy       189.0790697952 Hartrees.
 IExCor= 4336 DFT=T Ex+Corr=M062X ExCW=0 ScaHFX=  0.540000
 ScaDFX=  1.000000  1.000000  1.000000  1.000000 ScalE2=  1.000000  1.000000
 IRadAn=      5 IRanWt=     -1 IRanGd=            0 ICorTp=0 IEmpDi=  4
 NAtoms=   14 NActive=   14 NUniq=   14 SFac= 1.00D+00 NAtFMM=   60 NAOKFM=F Big=F
 Integral buffers will be    131072 words long.
 Raffenetti 2 integral format.
 Two-electron integral symmetry is turned on.
 Leave Link  301 at Fri Sep  6 01:44:13 2019, MaxMem=   671088640 cpu:               3.9 elap:               2.0
 (Enter /shared/centos7/gaussian/g16/l302.exe)
 NPDir=0 NMtPBC=     1 NCelOv=     1 NCel=       1 NClECP=     1 NCelD=      1
         NCelK=      1 NCelE2=     1 NClLst=     1 CellRange=     0.0.
 One-electron integrals computed using PRISM.
 One-electron integral symmetry used in STVInt
 NBasis=   276 RedAO= T EigKep=  7.14D-04  NBF=   276
 NBsUse=   276 1.00D-06 EigRej= -1.00D+00 NBFU=   276
 Precomputing XC quadrature grid using
 IXCGrd= 4 IRadAn=           5 IRanWt=          -1 IRanGd=           0 AccXCQ= 0.00D+00.
 Generated NRdTot=       0 NPtTot=           0 NUsed=           0 NTot=          32
 NSgBfM=   310   310   310   310   310 MxSgAt=    14 MxSgA2=    14.
 Leave Link  302 at Fri Sep  6 01:45:58 2019, MaxMem=   671088640 cpu:             210.1 elap:             105.1
 (Enter /shared/centos7/gaussian/g16/l303.exe)
 DipDrv:  MaxL=1.
 Leave Link  303 at Fri Sep  6 01:46:06 2019, MaxMem=   671088640 cpu:              14.6 elap:               7.4
 (Enter /shared/centos7/gaussian/g16/l401.exe)
 ExpMin= 1.03D-01 ExpMax= 1.53D+04 ExpMxC= 5.22D+02 IAcc=3 IRadAn=         5 AccDes= 0.00D+00
 Harris functional with IExCor= 1009 and IRadAn=       5 diagonalized for initial guess.
 HarFok:  IExCor= 1009 AccDes= 0.00D+00 IRadAn=         5 IDoV= 1 UseB2=F ITyADJ=14
 ICtDFT=  3500011 ScaDFX=  1.000000  1.000000  1.000000  1.000000
 FoFCou: FMM=F IPFlag=           0 FMFlag=      100000 FMFlg1=           0
         NFxFlg=           0 DoJE=T BraDBF=F KetDBF=T FulRan=T
         wScrn=  0.000000 ICntrl=       500 IOpCl=  0 I1Cent=   200000004 NGrid=           0
         NMat0=    1 NMatS0=      1 NMatT0=    0 NMatD0=    1 NMtDS0=    0 NMtDT0=    0
 Petite list used in FoFCou.
 Harris En= -269.913512857281    
 JPrj=0 DoOrth=F DoCkMO=F.
 Initial guess <Sx>= 0.0000 <Sy>= 0.0000 <Sz>= 0.5000 <S**2>= 0.7500 S= 0.5000
 Leave Link  401 at Fri Sep  6 01:46:55 2019, MaxMem=   671088640 cpu:              98.8 elap:              49.5
 (Enter /shared/centos7/gaussian/g16/l502.exe)
 Integral symmetry usage will be decided dynamically.
 UHF open shell SCF:
 Using DIIS extrapolation, IDIIS=  1040.
 NGot=   671088640 LenX=   670887394 LenY=   670790853
 Requested convergence on RMS density matrix=1.00D-08 within 900 cycles.
 Requested convergence on MAX density matrix=1.00D-06.
 Requested convergence on             energy=1.00D-06.
 No special actions if energy rises.
 Fock matrices will be formed incrementally for  20 cycles.
 Integral accuracy reduced to 1.0D-05 until final iterations.

 Cycle   1  Pass 0  IDiag  1:
 FoFJK:  IHMeth= 1 ICntrl=       0 DoSepK=F KAlg= 0 I1Cent=           0 FoldK=F
 IRaf= 980000000 NMat=       1 IRICut=       1 DoRegI=T DoRafI=F ISym2E= 0 IDoP0=0 IntGTp=1.
 FoFCou: FMM=F IPFlag=           0 FMFlag=      100000 FMFlg1=           0
         NFxFlg=           0 DoJE=F BraDBF=F KetDBF=F FulRan=T
         wScrn=  0.000000 ICntrl=         0 IOpCl=  1 I1Cent=           0 NGrid=           0
         NMat0=    1 NMatS0=      1 NMatT0=    0 NMatD0=    1 NMtDS0=    0 NMtDT0=    0
 Symmetry not used in FoFCou.
 E= -269.783993932345    
 DIIS: error= 2.87D-02 at cycle   1 NSaved=   1.
 NSaved= 1 IEnMin= 1 EnMin= -269.783993932345     IErMin= 1 ErrMin= 2.87D-02
 ErrMax= 2.87D-02  0.00D+00 EMaxC= 1.00D-01 BMatC= 8.85D-01 BMatP= 8.85D-01
 IDIUse=3 WtCom= 7.13D-01 WtEn= 2.87D-01
 Coeff-Com:  0.100D+01
 Coeff-En:   0.100D+01
 Coeff:      0.100D+01
 Gap=     0.321 Goal=   None    Shift=    0.000
 Gap=     0.355 Goal=   None    Shift=    0.000
 GapD=    0.321 DampG=1.000 DampE=0.500 DampFc=0.5000 IDamp=-1.
 Damping current iteration by 5.00D-01
 RMSDP=2.05D-03 MaxDP=1.02D-01              OVMax= 2.01D-01

 Cycle   2  Pass 0  IDiag  1:
 RMSU=  1.02D-03    CP:  9.97D-01
 E= -269.882003292549     Delta-E=       -0.098009360204 Rises=F Damp=T
 DIIS: error= 4.40D-03 at cycle   2 NSaved=   2.
 NSaved= 2 IEnMin= 2 EnMin= -269.882003292549     IErMin= 2 ErrMin= 4.40D-03
 ErrMax= 4.40D-03  0.00D+00 EMaxC= 1.00D-01 BMatC= 7.09D-02 BMatP= 8.85D-01
 IDIUse=3 WtCom= 9.56D-01 WtEn= 4.40D-02
 Coeff-Com: -0.116D+00 0.112D+01
 Coeff-En:   0.000D+00 0.100D+01
 Coeff:     -0.111D+00 0.111D+01
 Gap=     0.342 Goal=   None    Shift=    0.000
 Gap=     0.355 Goal=   None    Shift=    0.000
 RMSDP=5.25D-04 MaxDP=2.05D-02 DE=-9.80D-02 OVMax= 8.92D-02

 Cycle   3  Pass 0  IDiag  1:
 RMSU=  5.22D-04    CP:  1.00D+00  1.01D+00
 E= -269.974919348138     Delta-E=       -0.092916055589 Rises=F Damp=F
 DIIS: error= 3.78D-03 at cycle   3 NSaved=   3.
 NSaved= 3 IEnMin= 3 EnMin= -269.974919348138     IErMin= 3 ErrMin= 3.78D-03
 ErrMax= 3.78D-03  0.00D+00 EMaxC= 1.00D-01 BMatC= 1.72D-02 BMatP= 7.09D-02
 IDIUse=3 WtCom= 9.62D-01 WtEn= 3.78D-02
 Coeff-Com: -0.837D-01 0.350D+00 0.733D+00
 Coeff-En:   0.000D+00 0.000D+00 0.100D+01
 Coeff:     -0.806D-01 0.337D+00 0.744D+00
 Gap=     0.337 Goal=   None    Shift=    0.000
 Gap=     0.288 Goal=   None    Shift=    0.000
 RMSDP=2.07D-04 MaxDP=8.32D-03 DE=-9.29D-02 OVMax= 5.12D-02

 Cycle   4  Pass 0  IDiag  1:
 RMSU=  1.85D-04    CP:  1.00D+00  1.07D+00  8.60D-01
 E= -269.978122128055     Delta-E=       -0.003202779917 Rises=F Damp=F
 DIIS: error= 2.34D-03 at cycle   4 NSaved=   4.
 NSaved= 4 IEnMin= 4 EnMin= -269.978122128055     IErMin= 4 ErrMin= 2.34D-03
 ErrMax= 2.34D-03  0.00D+00 EMaxC= 1.00D-01 BMatC= 6.55D-03 BMatP= 1.72D-02
 IDIUse=3 WtCom= 9.77D-01 WtEn= 2.34D-02
 Coeff-Com: -0.311D-01 0.781D-01 0.405D+00 0.548D+00
 Coeff-En:   0.000D+00 0.000D+00 0.118D+00 0.882D+00
 Coeff:     -0.304D-01 0.763D-01 0.398D+00 0.556D+00
 Gap=     0.335 Goal=   None    Shift=    0.000
 Gap=     0.287 Goal=   None    Shift=    0.000
 RMSDP=9.28D-05 MaxDP=4.39D-03 DE=-3.20D-03 OVMax= 1.19D-02

 Cycle   5  Pass 0  IDiag  1:
 RMSU=  6.62D-05    CP:  1.00D+00  1.07D+00  9.54D-01  7.71D-01
 E= -269.979355501870     Delta-E=       -0.001233373815 Rises=F Damp=F
 DIIS: error= 4.65D-04 at cycle   5 NSaved=   5.
 NSaved= 5 IEnMin= 5 EnMin= -269.979355501870     IErMin= 5 ErrMin= 4.65D-04
 ErrMax= 4.65D-04  0.00D+00 EMaxC= 1.00D-01 BMatC= 4.02D-04 BMatP= 6.55D-03
 IDIUse=3 WtCom= 9.95D-01 WtEn= 4.65D-03
 Coeff-Com: -0.156D-02-0.959D-02 0.779D-01 0.196D+00 0.737D+00
 Coeff-En:   0.000D+00 0.000D+00 0.000D+00 0.000D+00 0.100D+01
 Coeff:     -0.155D-02-0.954D-02 0.776D-01 0.195D+00 0.738D+00
 Gap=     0.337 Goal=   None    Shift=    0.000
 Gap=     0.287 Goal=   None    Shift=    0.000
 RMSDP=3.91D-05 MaxDP=1.46D-03 DE=-1.23D-03 OVMax= 7.19D-03

 Cycle   6  Pass 0  IDiag  1:
 RMSU=  2.62D-05    CP:  1.00D+00  1.06D+00  9.81D-01  8.89D-01  1.17D+00
 E= -269.979506150488     Delta-E=       -0.000150648618 Rises=F Damp=F
 DIIS: error= 3.43D-04 at cycle   6 NSaved=   6.
 NSaved= 6 IEnMin= 6 EnMin= -269.979506150488     IErMin= 6 ErrMin= 3.43D-04
 ErrMax= 3.43D-04  0.00D+00 EMaxC= 1.00D-01 BMatC= 1.09D-04 BMatP= 4.02D-04
 IDIUse=3 WtCom= 9.97D-01 WtEn= 3.43D-03
 Coeff-Com:  0.719D-02-0.215D-01-0.613D-01-0.775D-01 0.275D+00 0.878D+00
 Coeff-En:   0.000D+00 0.000D+00 0.000D+00 0.000D+00 0.000D+00 0.100D+01
 Coeff:      0.717D-02-0.214D-01-0.611D-01-0.772D-01 0.274D+00 0.878D+00
 Gap=     0.338 Goal=   None    Shift=    0.000
 Gap=     0.290 Goal=   None    Shift=    0.000
 RMSDP=3.04D-05 MaxDP=1.29D-03 DE=-1.51D-04 OVMax= 6.66D-03

 Cycle   7  Pass 0  IDiag  1:
 RMSU=  1.41D-05    CP:  1.00D+00  1.06D+00  9.96D-01  9.65D-01  1.49D+00
                    CP:  1.15D+00
 E= -269.979566610634     Delta-E=       -0.000060460146 Rises=F Damp=F
 DIIS: error= 1.38D-04 at cycle   7 NSaved=   7.
 NSaved= 7 IEnMin= 7 EnMin= -269.979566610634     IErMin= 7 ErrMin= 1.38D-04
 ErrMax= 1.38D-04  0.00D+00 EMaxC= 1.00D-01 BMatC= 3.15D-05 BMatP= 1.09D-04
 IDIUse=3 WtCom= 9.99D-01 WtEn= 1.38D-03
 Coeff-Com:  0.300D-02-0.553D-02-0.431D-01-0.974D-01-0.102D+00 0.399D+00
 Coeff-Com:  0.846D+00
 Coeff-En:   0.000D+00 0.000D+00 0.000D+00 0.000D+00 0.000D+00 0.000D+00
 Coeff-En:   0.100D+01
 Coeff:      0.300D-02-0.552D-02-0.430D-01-0.972D-01-0.102D+00 0.399D+00
 Coeff:      0.846D+00
 Gap=     0.339 Goal=   None    Shift=    0.000
 Gap=     0.289 Goal=   None    Shift=    0.000
 RMSDP=1.80D-05 MaxDP=6.43D-04 DE=-6.05D-05 OVMax= 3.21D-03

 Cycle   8  Pass 0  IDiag  1:
 RMSU=  5.45D-06    CP:  1.00D+00  1.05D+00  1.01D+00  9.98D-01  1.67D+00
                    CP:  1.45D+00  1.11D+00
 E= -269.979581404541     Delta-E=       -0.000014793907 Rises=F Damp=F
 DIIS: error= 2.96D-05 at cycle   8 NSaved=   8.
 NSaved= 8 IEnMin= 8 EnMin= -269.979581404541     IErMin= 8 ErrMin= 2.96D-05
 ErrMax= 2.96D-05  0.00D+00 EMaxC= 1.00D-01 BMatC= 1.64D-06 BMatP= 3.15D-05
 IDIUse=1 WtCom= 1.00D+00 WtEn= 0.00D+00
 Coeff-Com: -0.590D-03 0.203D-02 0.497D-02-0.210D-02-0.292D-01-0.383D-01
 Coeff-Com:  0.683D-01 0.995D+00
 Coeff:     -0.590D-03 0.203D-02 0.497D-02-0.210D-02-0.292D-01-0.383D-01
 Coeff:      0.683D-01 0.995D+00
 Gap=     0.339 Goal=   None    Shift=    0.000
 Gap=     0.289 Goal=   None    Shift=    0.000
 RMSDP=4.21D-06 MaxDP=1.42D-04 DE=-1.48D-05 OVMax= 9.66D-04

 Initial convergence to 1.0D-05 achieved.  Increase integral accuracy.
 Cycle   9  Pass 1  IDiag  1:
 E= -269.979590286892     Delta-E=       -0.000008882351 Rises=F Damp=F
 DIIS: error= 2.49D-05 at cycle   1 NSaved=   1.
 NSaved= 1 IEnMin= 1 EnMin= -269.979590286892     IErMin= 1 ErrMin= 2.49D-05
 ErrMax= 2.49D-05  0.00D+00 EMaxC= 1.00D-01 BMatC= 1.71D-06 BMatP= 1.71D-06
 IDIUse=1 WtCom= 1.00D+00 WtEn= 0.00D+00
 Coeff-Com:  0.100D+01
 Coeff:      0.100D+01
 Gap=     0.339 Goal=   None    Shift=    0.000
 Gap=     0.289 Goal=   None    Shift=    0.000
 RMSDP=4.21D-06 MaxDP=1.42D-04 DE=-8.88D-06 OVMax= 2.96D-04

 Cycle  10  Pass 1  IDiag  1:
 RMSU=  5.22D-06    CP:  1.00D+00
 E= -269.979590631552     Delta-E=       -0.000000344661 Rises=F Damp=F
 DIIS: error= 1.64D-05 at cycle   2 NSaved=   2.
 NSaved= 2 IEnMin= 2 EnMin= -269.979590631552     IErMin= 2 ErrMin= 1.64D-05
 ErrMax= 1.64D-05  0.00D+00 EMaxC= 1.00D-01 BMatC= 4.20D-07 BMatP= 1.71D-06
 IDIUse=1 WtCom= 1.00D+00 WtEn= 0.00D+00
 Coeff-Com:  0.246D+00 0.754D+00
 Coeff:      0.246D+00 0.754D+00
 Gap=     0.339 Goal=   None    Shift=    0.000
 Gap=     0.289 Goal=   None    Shift=    0.000
 RMSDP=1.11D-06 MaxDP=5.07D-05 DE=-3.45D-07 OVMax= 2.42D-04

 Cycle  11  Pass 1  IDiag  1:
 RMSU=  1.10D-06    CP:  1.00D+00  1.03D+00
 E= -269.979590740329     Delta-E=       -0.000000108776 Rises=F Damp=F
 DIIS: error= 1.06D-05 at cycle   3 NSaved=   3.
 NSaved= 3 IEnMin= 3 EnMin= -269.979590740329     IErMin= 3 ErrMin= 1.06D-05
 ErrMax= 1.06D-05  0.00D+00 EMaxC= 1.00D-01 BMatC= 1.96D-07 BMatP= 4.20D-07
 IDIUse=1 WtCom= 1.00D+00 WtEn= 0.00D+00
 Coeff-Com: -0.573D-01 0.377D+00 0.680D+00
 Coeff:     -0.573D-01 0.377D+00 0.680D+00
 Gap=     0.339 Goal=   None    Shift=    0.000
 Gap=     0.289 Goal=   None    Shift=    0.000
 RMSDP=7.49D-07 MaxDP=3.11D-05 DE=-1.09D-07 OVMax= 9.85D-05

 Cycle  12  Pass 1  IDiag  1:
 RMSU=  6.35D-07    CP:  1.00D+00  1.10D+00  9.36D-01
 E= -269.979590795814     Delta-E=       -0.000000055485 Rises=F Damp=F
 DIIS: error= 4.35D-06 at cycle   4 NSaved=   4.
 NSaved= 4 IEnMin= 4 EnMin= -269.979590795814     IErMin= 4 ErrMin= 4.35D-06
 ErrMax= 4.35D-06  0.00D+00 EMaxC= 1.00D-01 BMatC= 2.01D-08 BMatP= 1.96D-07
 IDIUse=1 WtCom= 1.00D+00 WtEn= 0.00D+00
 Coeff-Com: -0.459D-01 0.673D-01 0.179D+00 0.799D+00
 Coeff:     -0.459D-01 0.673D-01 0.179D+00 0.799D+00
 Gap=     0.339 Goal=   None    Shift=    0.000
 Gap=     0.289 Goal=   None    Shift=    0.000
 RMSDP=3.61D-07 MaxDP=1.81D-05 DE=-5.55D-08 OVMax= 7.49D-05

 Cycle  13  Pass 1  IDiag  1:
 RMSU=  2.33D-07    CP:  1.00D+00  1.13D+00  1.07D+00  1.31D+00
 E= -269.979590807040     Delta-E=       -0.000000011226 Rises=F Damp=F
 DIIS: error= 2.66D-06 at cycle   5 NSaved=   5.
 NSaved= 5 IEnMin= 5 EnMin= -269.979590807040     IErMin= 5 ErrMin= 2.66D-06
 ErrMax= 2.66D-06  0.00D+00 EMaxC= 1.00D-01 BMatC= 1.25D-08 BMatP= 2.01D-08
 IDIUse=1 WtCom= 1.00D+00 WtEn= 0.00D+00
 Coeff-Com:  0.896D-02-0.164D+00-0.340D+00 0.467D+00 0.103D+01
 Coeff:      0.896D-02-0.164D+00-0.340D+00 0.467D+00 0.103D+01
 Gap=     0.339 Goal=   None    Shift=    0.000
 Gap=     0.289 Goal=   None    Shift=    0.000
 RMSDP=4.41D-07 MaxDP=1.47D-05 DE=-1.12D-08 OVMax= 8.08D-05

 Cycle  14  Pass 1  IDiag  1:
 RMSU=  1.03D-07    CP:  1.00D+00  1.15D+00  1.22D+00  1.88D+00  1.22D+00
 E= -269.979590814020     Delta-E=       -0.000000006981 Rises=F Damp=F
 DIIS: error= 7.69D-07 at cycle   6 NSaved=   6.
 NSaved= 6 IEnMin= 6 EnMin= -269.979590814020     IErMin= 6 ErrMin= 7.69D-07
 ErrMax= 7.69D-07  0.00D+00 EMaxC= 1.00D-01 BMatC= 1.11D-09 BMatP= 1.25D-08
 IDIUse=1 WtCom= 1.00D+00 WtEn= 0.00D+00
 Coeff-Com:  0.825D-02-0.893D-01-0.194D+00 0.174D+00 0.518D+00 0.583D+00
 Coeff:      0.825D-02-0.893D-01-0.194D+00 0.174D+00 0.518D+00 0.583D+00
 Gap=     0.339 Goal=   None    Shift=    0.000
 Gap=     0.289 Goal=   None    Shift=    0.000
 RMSDP=7.37D-08 MaxDP=3.00D-06 DE=-6.98D-09 OVMax= 1.22D-05

 Cycle  15  Pass 1  IDiag  1:
 RMSU=  3.63D-08    CP:  1.00D+00  1.16D+00  1.23D+00  1.97D+00  1.30D+00
                    CP:  1.01D+00
 E= -269.979590814360     Delta-E=       -0.000000000340 Rises=F Damp=F
 DIIS: error= 1.65D-07 at cycle   7 NSaved=   7.
 NSaved= 7 IEnMin= 7 EnMin= -269.979590814360     IErMin= 7 ErrMin= 1.65D-07
 ErrMax= 1.65D-07  0.00D+00 EMaxC= 1.00D-01 BMatC= 5.44D-11 BMatP= 1.11D-09
 IDIUse=1 WtCom= 1.00D+00 WtEn= 0.00D+00
 Coeff-Com:  0.322D-03 0.958D-02 0.132D-01-0.404D-01-0.568D-01 0.989D-01
 Coeff-Com:  0.975D+00
 Coeff:      0.322D-03 0.958D-02 0.132D-01-0.404D-01-0.568D-01 0.989D-01
 Coeff:      0.975D+00
 Gap=     0.339 Goal=   None    Shift=    0.000
 Gap=     0.289 Goal=   None    Shift=    0.000
 RMSDP=3.07D-08 MaxDP=1.08D-06 DE=-3.40D-10 OVMax= 9.27D-06

 Cycle  16  Pass 1  IDiag  1:
 RMSU=  1.35D-08    CP:  1.00D+00  1.16D+00  1.24D+00  2.00D+00  1.35D+00
                    CP:  1.17D+00  1.17D+00
 E= -269.979590814405     Delta-E=       -0.000000000045 Rises=F Damp=F
 DIIS: error= 8.64D-08 at cycle   8 NSaved=   8.
 NSaved= 8 IEnMin= 8 EnMin= -269.979590814405     IErMin= 8 ErrMin= 8.64D-08
 ErrMax= 8.64D-08  0.00D+00 EMaxC= 1.00D-01 BMatC= 1.09D-11 BMatP= 5.44D-11
 IDIUse=1 WtCom= 1.00D+00 WtEn= 0.00D+00
 Coeff-Com: -0.880D-03 0.128D-01 0.251D-01-0.300D-01-0.740D-01-0.570D-01
 Coeff-Com:  0.230D+00 0.894D+00
 Coeff:     -0.880D-03 0.128D-01 0.251D-01-0.300D-01-0.740D-01-0.570D-01
 Coeff:      0.230D+00 0.894D+00
 Gap=     0.339 Goal=   None    Shift=    0.000
 Gap=     0.289 Goal=   None    Shift=    0.000
 RMSDP=1.27D-08 MaxDP=3.82D-07 DE=-4.46D-11 OVMax= 3.95D-06

 Cycle  17  Pass 1  IDiag  1:
 RMSU=  5.92D-09    CP:  1.00D+00  1.16D+00  1.24D+00  2.00D+00  1.37D+00
                    CP:  1.22D+00  1.31D+00  1.38D+00
 E= -269.979590814417     Delta-E=       -0.000000000012 Rises=F Damp=F
 DIIS: error= 5.93D-08 at cycle   9 NSaved=   9.
 NSaved= 9 IEnMin= 9 EnMin= -269.979590814417     IErMin= 9 ErrMin= 5.93D-08
 ErrMax= 5.93D-08  0.00D+00 EMaxC= 1.00D-01 BMatC= 2.16D-12 BMatP= 1.09D-11
 IDIUse=1 WtCom= 1.00D+00 WtEn= 0.00D+00
 Coeff-Com: -0.153D-03-0.228D-03 0.482D-03 0.283D-02 0.305D-02-0.239D-01
 Coeff-Com: -0.141D+00 0.852D-01 0.107D+01
 Coeff:     -0.153D-03-0.228D-03 0.482D-03 0.283D-02 0.305D-02-0.239D-01
 Coeff:     -0.141D+00 0.852D-01 0.107D+01
 Gap=     0.339 Goal=   None    Shift=    0.000
 Gap=     0.289 Goal=   None    Shift=    0.000
 RMSDP=7.31D-09 MaxDP=2.67D-07 DE=-1.17D-11 OVMax= 2.62D-06

 SCF Done:  E(UM062X) =  -269.979590814     A.U. after   17 cycles
            NFock= 17  Conv=0.73D-08     -V/T= 2.0054
 <Sx>= 0.0000 <Sy>= 0.0000 <Sz>= 0.5000 <S**2>= 0.7599 S= 0.5049
 <L.S>= 0.000000000000E+00
 KE= 2.685246533418D+02 PE=-1.010187144395D+03 EE= 2.826038304431D+02
 Annihilation of the first spin contaminant:
 S**2 before annihilation     0.7599,   after     0.7500
 Leave Link  502 at Fri Sep  6 02:10:31 2019, MaxMem=   671088640 cpu:            2824.3 elap:            1415.6
 (Enter /shared/centos7/gaussian/g16/l801.exe)
 DoSCS=F DFT=T ScalE2(SS,OS)=  1.000000  1.000000
 Range of M.O.s used for correlation:     1   276
 NBasis=   276 NAE=    22 NBE=    21 NFC=     0 NFV=     0
 NROrb=    276 NOA=    22 NOB=    21 NVA=   254 NVB=   255

 **** Warning!!: The largest alpha MO coefficient is  0.12108979D+02


 **** Warning!!: The largest beta MO coefficient is  0.12106977D+02

 Leave Link  801 at Fri Sep  6 02:10:32 2019, MaxMem=   671088640 cpu:               2.6 elap:               1.3
 (Enter /shared/centos7/gaussian/g16/l1101.exe)
 Using compressed storage, NAtomX=    14.
 Will process     15 centers per pass.
 Leave Link 1101 at Fri Sep  6 02:11:23 2019, MaxMem=   671088640 cpu:              99.8 elap:              50.5
 (Enter /shared/centos7/gaussian/g16/l1102.exe)
 Symmetrizing basis deriv contribution to polar:
 IMax=3 JMax=2 DiffMx= 0.00D+00
 Leave Link 1102 at Fri Sep  6 02:11:27 2019, MaxMem=   671088640 cpu:               8.4 elap:               4.3
 (Enter /shared/centos7/gaussian/g16/l1110.exe)
 Forming Gx(P) for the SCF density, NAtomX=    14.
 Integral derivatives from FoFJK, PRISM(SPDF).
 Do as many integral derivatives as possible in FoFJK.
 G2DrvN: MDV=     671087496.
 G2DrvN: will do    15 centers at a time, making    1 passes.
 Calling FoFCou, ICntrl=  3107 FMM=F I1Cent=   0 AccDes= 0.00D+00.
 FoFJK:  IHMeth= 1 ICntrl=    3107 DoSepK=F KAlg= 0 I1Cent=           0 FoldK=F
 IRaf=         0 NMat=       1 IRICut=       1 DoRegI=T DoRafI=F ISym2E= 0 IDoP0=0 IntGTp=1.
 FoFCou: FMM=F IPFlag=           0 FMFlag=      100000 FMFlg1=           0
         NFxFlg=           0 DoJE=F BraDBF=F KetDBF=F FulRan=T
         wScrn=  0.000000 ICntrl=      3107 IOpCl=  1 I1Cent=           0 NGrid=           0
         NMat0=    1 NMatS0=      1 NMatT0=    0 NMatD0=    1 NMtDS0=    0 NMtDT0=    0
 Symmetry not used in FoFCou.
 End of G2Drv F.D. properties file   721 does not exist.
 End of G2Drv F.D. properties file   722 does not exist.
 End of G2Drv F.D. properties file   788 does not exist.
 Leave Link 1110 at Fri Sep  6 02:31:18 2019, MaxMem=   671088640 cpu:            2379.8 elap:            1190.8
 (Enter /shared/centos7/gaussian/g16/l1002.exe)
 Minotr:  UHF open shell wavefunction.
          IDoAtm=11111111111111
          Direct CPHF calculation.
          Differentiating once with respect to nuclear coordinates.
          Requested convergence is 1.0D-08 RMS, and 1.0D-07 maximum.
          Secondary convergence is 1.0D-12 RMS, and 1.0D-12 maximum.
          NewPWx=T KeepS1=F KeepF1=F KeepIn=T MapXYZ=F SortEE=F KeepMc=T.
         4166 words used for storage of precomputed grid.
 Two-electron integrals replicated using symmetry.
          MDV=     671088640 using IRadAn=       1.
          Solving linear equations simultaneously, MaxMat=     380.
 FoF2E skips out because all densities are zero.
 CalDSu exits because no D1Ps are significant.
 FoFJK:  IHMeth= 1 ICntrl=       0 DoSepK=F KAlg= 0 I1Cent=           0 FoldK=F
 IRaf= 970000000 NMat=      42 IRICut=     105 DoRegI=T DoRafI=T ISym2E= 2 IDoP0=3 IntGTp=3.
 FoFCou: FMM=F IPFlag=           0 FMFlag=      100000 FMFlg1=           0
         NFxFlg=           0 DoJE=F BraDBF=F KetDBF=F FulRan=T
         wScrn=  0.000000 ICntrl=         0 IOpCl=  1 I1Cent=           0 NGrid=           0
         NMat0=   42 NMatS0=     42 NMatT0=    0 NMatD0=   42 NMtDS0=    0 NMtDT0=    0
 Integrals replicated using symmetry in FoFCou.
 Raff kept on since  95.02% of shell-pairs survive, threshold=   0.20 IRatSp=95.
          There are    45 degrees of freedom in the 1st order CPHF.  IDoFFX=6 NUNeed=     0.
     39 vectors produced by pass  0 Test12= 2.43D-14 2.22D-09 XBig12= 1.24D-01 1.43D-01.
 AX will form    39 AO Fock derivatives at one time.
     39 vectors produced by pass  1 Test12= 2.43D-14 2.22D-09 XBig12= 1.54D-02 2.74D-02.
     39 vectors produced by pass  2 Test12= 2.43D-14 2.22D-09 XBig12= 9.01D-04 6.23D-03.
     39 vectors produced by pass  3 Test12= 2.43D-14 2.22D-09 XBig12= 2.30D-05 5.92D-04.
     39 vectors produced by pass  4 Test12= 2.43D-14 2.22D-09 XBig12= 3.99D-07 6.96D-05.
     39 vectors produced by pass  5 Test12= 2.43D-14 2.22D-09 XBig12= 6.30D-09 7.10D-06.
     35 vectors produced by pass  6 Test12= 2.43D-14 2.22D-09 XBig12= 4.79D-11 6.09D-07.
     15 vectors produced by pass  7 Test12= 2.43D-14 2.22D-09 XBig12= 3.38D-13 7.27D-08.
      4 vectors produced by pass  8 Test12= 2.43D-14 2.22D-09 XBig12= 2.07D-15 5.21D-09.
 InvSVY:  IOpt=1 It=  1 EMax= 2.22D-15
 Solved reduced A of dimension   288 with    39 vectors.
 End of Minotr F.D. properties file   721 does not exist.
 End of Minotr F.D. properties file   722 does not exist.
 End of Minotr F.D. properties file   788 does not exist.
 Leave Link 1002 at Fri Sep  6 03:14:09 2019, MaxMem=   671088640 cpu:            5114.4 elap:            2571.0
 (Enter /shared/centos7/gaussian/g16/l601.exe)
 Copying SCF densities to generalized density rwf, IOpCl= 1 IROHF=0.

 **********************************************************************

            Population analysis using the SCF density.

 **********************************************************************

 Orbital symmetries:
 Alpha Orbitals:
       Occupied  (A) (A) (A) (A) (A) (A) (A) (A) (A) (A) (A) (A)
                 (A) (A) (A) (A) (A) (A) (A) (A) (A) (A)
       Virtual   (A) (A) (A) (A) (A) (A) (A) (A) (A) (A) (A) (A)
                 (A) (A) (A) (A) (A) (A) (A) (A) (A) (A) (A) (A)
                 (A) (A) (A) (A) (A) (A) (A) (A) (A) (A) (A) (A)
                 (A) (A) (A) (A) (A) (A) (A) (A) (A) (A) (A) (A)
                 (A) (A) (A) (A) (A) (A) (A) (A) (A) (A) (A) (A)
                 (A) (A) (A) (A) (A) (A) (A) (A) (A) (A) (A) (A)
                 (A) (A) (A) (A) (A) (A) (A) (A) (A) (A) (A) (A)
                 (A) (A) (A) (A) (A) (A) (A) (A) (A) (A) (A) (A)
                 (A) (A) (A) (A) (A) (A) (A) (A) (A) (A) (A) (A)
                 (A) (A) (A) (A) (A) (A) (A) (A) (A) (A) (A) (A)
                 (A) (A) (A) (A) (A) (A) (A) (A) (A) (A) (A) (A)
                 (A) (A) (A) (A) (A) (A) (A) (A) (A) (A) (A) (A)
                 (A) (A) (A) (A) (A) (A) (A) (A) (A) (A) (A) (A)
                 (A) (A) (A) (A) (A) (A) (A) (A) (A) (A) (A) (A)
                 (A) (A) (A) (A) (A) (A) (A) (A) (A) (A) (A) (A)
                 (A) (A) (A) (A) (A) (A) (A) (A) (A) (A) (A) (A)
                 (A) (A) (A) (A) (A) (A) (A) (A) (A) (A) (A) (A)
                 (A) (A) (A) (A) (A) (A) (A) (A) (A) (A) (A) (A)
                 (A) (A) (A) (A) (A) (A) (A) (A) (A) (A) (A) (A)
                 (A) (A) (A) (A) (A) (A) (A) (A) (A) (A) (A) (A)
                 (A) (A) (A) (A) (A) (A) (A) (A) (A) (A) (A) (A)
                 (A) (A)
 Beta  Orbitals:
       Occupied  (A) (A) (A) (A) (A) (A) (A) (A) (A) (A) (A) (A)
                 (A) (A) (A) (A) (A) (A) (A) (A) (A)
       Virtual   (A) (A) (A) (A) (A) (A) (A) (A) (A) (A) (A) (A)
                 (A) (A) (A) (A) (A) (A) (A) (A) (A) (A) (A) (A)
                 (A) (A) (A) (A) (A) (A) (A) (A) (A) (A) (A) (A)
                 (A) (A) (A) (A) (A) (A) (A) (A) (A) (A) (A) (A)
                 (A) (A) (A) (A) (A) (A) (A) (A) (A) (A) (A) (A)
                 (A) (A) (A) (A) (A) (A) (A) (A) (A) (A) (A) (A)
                 (A) (A) (A) (A) (A) (A) (A) (A) (A) (A) (A) (A)
                 (A) (A) (A) (A) (A) (A) (A) (A) (A) (A) (A) (A)
                 (A) (A) (A) (A) (A) (A) (A) (A) (A) (A) (A) (A)
                 (A) (A) (A) (A) (A) (A) (A) (A) (A) (A) (A) (A)
                 (A) (A) (A) (A) (A) (A) (A) (A) (A) (A) (A) (A)
                 (A) (A) (A) (A) (A) (A) (A) (A) (A) (A) (A) (A)
                 (A) (A) (A) (A) (A) (A) (A) (A) (A) (A) (A) (A)
                 (A) (A) (A) (A) (A) (A) (A) (A) (A) (A) (A) (A)
                 (A) (A) (A) (A) (A) (A) (A) (A) (A) (A) (A) (A)
                 (A) (A) (A) (A) (A) (A) (A) (A) (A) (A) (A) (A)
                 (A) (A) (A) (A) (A) (A) (A) (A) (A) (A) (A) (A)
                 (A) (A) (A) (A) (A) (A) (A) (A) (A) (A) (A) (A)
                 (A) (A) (A) (A) (A) (A) (A) (A) (A) (A) (A) (A)
                 (A) (A) (A) (A) (A) (A) (A) (A) (A) (A) (A) (A)
                 (A) (A) (A) (A) (A) (A) (A) (A) (A) (A) (A) (A)
                 (A) (A) (A)
 The electronic state is 2-A.
 Alpha  occ. eigenvalues --  -19.68659 -19.68227 -10.55208 -10.54542 -10.53275
 Alpha  occ. eigenvalues --   -1.26549  -0.98995  -0.89956  -0.78558  -0.68474
 Alpha  occ. eigenvalues --   -0.62071  -0.58773  -0.53127  -0.52833  -0.51384
 Alpha  occ. eigenvalues --   -0.48195  -0.43403  -0.42122  -0.41183  -0.39772
 Alpha  occ. eigenvalues --   -0.37302  -0.28803
 Alpha virt. eigenvalues --    0.05076   0.08068   0.10623   0.11136   0.12054
 Alpha virt. eigenvalues --    0.13643   0.15536   0.16322   0.17197   0.19840
 Alpha virt. eigenvalues --    0.23393   0.26308   0.27935   0.29006   0.29955
 Alpha virt. eigenvalues --    0.32149   0.34885   0.37454   0.43238   0.44024
 Alpha virt. eigenvalues --    0.44382   0.45706   0.47420   0.48879   0.49492
 Alpha virt. eigenvalues --    0.50497   0.51287   0.51859   0.52790   0.53505
 Alpha virt. eigenvalues --    0.56071   0.57799   0.60994   0.62675   0.65199
 Alpha virt. eigenvalues --    0.67802   0.69544   0.71625   0.72765   0.75217
 Alpha virt. eigenvalues --    0.78072   0.79550   0.83974   0.86634   0.86966
 Alpha virt. eigenvalues --    0.89509   0.92083   0.95207   0.97183   0.99424
 Alpha virt. eigenvalues --    1.01959   1.04048   1.05547   1.07319   1.10116
 Alpha virt. eigenvalues --    1.12059   1.13570   1.14590   1.16578   1.17471
 Alpha virt. eigenvalues --    1.20576   1.21687   1.22031   1.22831   1.26692
 Alpha virt. eigenvalues --    1.27901   1.30064   1.31363   1.34700   1.36574
 Alpha virt. eigenvalues --    1.37502   1.41267   1.42817   1.44699   1.45965
 Alpha virt. eigenvalues --    1.48573   1.52765   1.53856   1.54579   1.58072
 Alpha virt. eigenvalues --    1.60725   1.61169   1.64905   1.68253   1.77615
 Alpha virt. eigenvalues --    1.82611   1.92860   1.94628   2.01227   2.10327
 Alpha virt. eigenvalues --    2.17513   2.20758   2.23862   2.25753   2.29450
 Alpha virt. eigenvalues --    2.34365   2.36782   2.37615   2.43143   2.45311
 Alpha virt. eigenvalues --    2.48979   2.50882   2.54085   2.55586   2.61085
 Alpha virt. eigenvalues --    2.62476   2.64690   2.66158   2.69872   2.71170
 Alpha virt. eigenvalues --    2.78352   2.79249   2.80255   2.83218   2.85751
 Alpha virt. eigenvalues --    2.88049   2.90172   2.94775   2.99066   2.99571
 Alpha virt. eigenvalues --    3.01784   3.03367   3.04855   3.05973   3.08210
 Alpha virt. eigenvalues --    3.09363   3.13255   3.13751   3.16207   3.19032
 Alpha virt. eigenvalues --    3.21035   3.22635   3.23413   3.25816   3.28724
 Alpha virt. eigenvalues --    3.30115   3.32588   3.33545   3.33790   3.38752
 Alpha virt. eigenvalues --    3.40938   3.41744   3.43200   3.47342   3.49171
 Alpha virt. eigenvalues --    3.51135   3.52348   3.54763   3.55946   3.58192
 Alpha virt. eigenvalues --    3.62397   3.66134   3.69114   3.70592   3.73060
 Alpha virt. eigenvalues --    3.74473   3.75138   3.75818   3.77512   3.78485
 Alpha virt. eigenvalues --    3.80322   3.82678   3.84358   3.86692   3.87915
 Alpha virt. eigenvalues --    3.89051   3.92338   3.96104   3.97142   3.98367
 Alpha virt. eigenvalues --    3.98669   4.00778   4.02358   4.05358   4.07078
 Alpha virt. eigenvalues --    4.08676   4.11434   4.12716   4.14255   4.15562
 Alpha virt. eigenvalues --    4.18534   4.22194   4.23410   4.23825   4.28442
 Alpha virt. eigenvalues --    4.29184   4.31540   4.34077   4.38550   4.42484
 Alpha virt. eigenvalues --    4.44995   4.51273   4.53629   4.57968   4.62757
 Alpha virt. eigenvalues --    4.70621   4.71126   4.75695   4.79578   4.80984
 Alpha virt. eigenvalues --    4.84809   4.86479   4.86886   4.89149   4.91169
 Alpha virt. eigenvalues --    4.95879   4.99052   5.01666   5.06053   5.09811
 Alpha virt. eigenvalues --    5.12990   5.13658   5.15073   5.16068   5.21332
 Alpha virt. eigenvalues --    5.28996   5.30217   5.30960   5.32104   5.36028
 Alpha virt. eigenvalues --    5.39827   5.43628   5.46084   5.48583   5.55975
 Alpha virt. eigenvalues --    5.57125   5.78191   5.79286   5.80632   5.82209
 Alpha virt. eigenvalues --    5.90590   5.95680   6.08827   6.19656   6.33814
 Alpha virt. eigenvalues --    6.37035   6.39142   6.48335   6.56418   6.59106
 Alpha virt. eigenvalues --    6.62749   6.69564   6.73104   6.85376   6.88552
 Alpha virt. eigenvalues --    7.14335   7.19308   7.43931   7.59476   9.93019
 Alpha virt. eigenvalues --   11.23392  12.27789  12.81419  13.43438
  Beta  occ. eigenvalues --  -19.68545 -19.67302 -10.54672 -10.54560 -10.53264
  Beta  occ. eigenvalues --   -1.25001  -0.96710  -0.89124  -0.77312  -0.67343
  Beta  occ. eigenvalues --   -0.60874  -0.55911  -0.52149  -0.52011  -0.49390
  Beta  occ. eigenvalues --   -0.47576  -0.42547  -0.41555  -0.40825  -0.36488
  Beta  occ. eigenvalues --   -0.35752
  Beta virt. eigenvalues --   -0.06853   0.05134   0.08014   0.10520   0.11110
  Beta virt. eigenvalues --    0.12378   0.13905   0.15609   0.16427   0.17434
  Beta virt. eigenvalues --    0.20057   0.24123   0.26543   0.28048   0.28988
  Beta virt. eigenvalues --    0.29971   0.32528   0.35157   0.37526   0.43527
  Beta virt. eigenvalues --    0.44136   0.45006   0.45882   0.47883   0.49329
  Beta virt. eigenvalues --    0.50296   0.51244   0.51679   0.52450   0.53036
  Beta virt. eigenvalues --    0.54193   0.56516   0.58196   0.61510   0.63186
  Beta virt. eigenvalues --    0.65402   0.68033   0.69698   0.71745   0.72977
  Beta virt. eigenvalues --    0.75474   0.78259   0.79574   0.84209   0.86848
  Beta virt. eigenvalues --    0.87113   0.89739   0.92449   0.95336   0.97285
  Beta virt. eigenvalues --    0.99658   1.02069   1.04172   1.05882   1.07426
  Beta virt. eigenvalues --    1.10110   1.12145   1.13859   1.14776   1.16710
  Beta virt. eigenvalues --    1.18031   1.20611   1.21851   1.22645   1.23203
  Beta virt. eigenvalues --    1.27175   1.28135   1.30297   1.31522   1.35131
  Beta virt. eigenvalues --    1.36844   1.38087   1.41366   1.43131   1.45022
  Beta virt. eigenvalues --    1.46344   1.48759   1.53037   1.54148   1.54843
  Beta virt. eigenvalues --    1.58592   1.60854   1.62278   1.65123   1.69792
  Beta virt. eigenvalues --    1.78162   1.83247   1.93295   1.95490   2.01343
  Beta virt. eigenvalues --    2.11461   2.17587   2.20960   2.24394   2.26137
  Beta virt. eigenvalues --    2.29994   2.35390   2.37145   2.38042   2.43609
  Beta virt. eigenvalues --    2.45860   2.48956   2.51649   2.55398   2.56567
  Beta virt. eigenvalues --    2.61163   2.63094   2.65497   2.67737   2.70606
  Beta virt. eigenvalues --    2.72270   2.79720   2.79988   2.80725   2.83707
  Beta virt. eigenvalues --    2.86420   2.89397   2.91750   2.95533   3.00234
  Beta virt. eigenvalues --    3.01444   3.03072   3.04545   3.05569   3.06958
  Beta virt. eigenvalues --    3.08922   3.10369   3.13391   3.15909   3.16746
  Beta virt. eigenvalues --    3.19503   3.22899   3.23431   3.24284   3.26151
  Beta virt. eigenvalues --    3.29144   3.30299   3.33154   3.34011   3.34469
  Beta virt. eigenvalues --    3.39734   3.41266   3.42632   3.44053   3.47628
  Beta virt. eigenvalues --    3.49337   3.51892   3.52684   3.55205   3.56531
  Beta virt. eigenvalues --    3.58461   3.62970   3.66812   3.69728   3.70774
  Beta virt. eigenvalues --    3.73322   3.74813   3.75290   3.76127   3.77945
  Beta virt. eigenvalues --    3.78918   3.80528   3.82802   3.85241   3.87266
  Beta virt. eigenvalues --    3.88622   3.89537   3.92598   3.96127   3.97192
  Beta virt. eigenvalues --    3.98577   3.99013   4.01319   4.02737   4.05750
  Beta virt. eigenvalues --    4.07189   4.09407   4.11682   4.12976   4.15013
  Beta virt. eigenvalues --    4.15962   4.18995   4.22592   4.23956   4.24181
  Beta virt. eigenvalues --    4.29033   4.29772   4.32308   4.34658   4.39347
  Beta virt. eigenvalues --    4.43099   4.45979   4.51798   4.54463   4.59458
  Beta virt. eigenvalues --    4.63254   4.71363   4.71716   4.76611   4.80296
  Beta virt. eigenvalues --    4.81194   4.85486   4.86775   4.87947   4.89836
  Beta virt. eigenvalues --    4.92461   4.96858   5.00288   5.02491   5.07249
  Beta virt. eigenvalues --    5.10508   5.13408   5.14587   5.16833   5.17348
  Beta virt. eigenvalues --    5.22628   5.29366   5.30564   5.31399   5.33349
  Beta virt. eigenvalues --    5.37731   5.41008   5.44309   5.47013   5.50113
  Beta virt. eigenvalues --    5.57630   5.58182   5.78975   5.80276   5.81141
  Beta virt. eigenvalues --    5.86707   5.90382   5.96006   6.10178   6.21037
  Beta virt. eigenvalues --    6.34341   6.37603   6.39419   6.49265   6.58545
  Beta virt. eigenvalues --    6.60005   6.64173   6.70872   6.73547   6.85699
  Beta virt. eigenvalues --    6.89859   7.14405   7.20258   7.44189   7.59709
  Beta virt. eigenvalues --    9.93814  11.23541  12.28589  12.82219  13.43434
          Condensed to atoms (all electrons):
               1          2          3          4          5          6
     1  O    7.898849   0.058676   0.000972  -0.004351  -0.001662   0.014787
     2  O    0.058676   8.093576   0.006413  -0.096137  -0.001770  -0.002854
     3  C    0.000972   0.006413   5.100219   0.264779   0.306425   0.408842
     4  C   -0.004351  -0.096137   0.264779   5.344061  -0.056264  -0.049412
     5  C   -0.001662  -0.001770   0.306425  -0.056264   4.963060  -0.043563
     6  H    0.014787  -0.002854   0.408842  -0.049412  -0.043563   0.569920
     7  H    0.000596  -0.000197   0.385804  -0.037717  -0.033388  -0.037089
     8  H   -0.031081   0.199406  -0.025119   0.234963  -0.000962  -0.006621
     9  H    0.002293  -0.000945  -0.042483   0.403502   0.006370  -0.003720
    10  H    0.000967   0.000495  -0.032985   0.377450  -0.005251   0.008030
    11  H    0.000285   0.005153  -0.040345  -0.004007   0.398077  -0.007787
    12  H   -0.000044  -0.000034  -0.037092   0.008193   0.405633  -0.004902
    13  H   -0.000002  -0.000023  -0.037085  -0.003870   0.402900   0.007640
    14  H    0.307964  -0.033137   0.001964  -0.003305   0.000617   0.000008
               7          8          9         10         11         12
     1  O    0.000596  -0.031081   0.002293   0.000967   0.000285  -0.000044
     2  O   -0.000197   0.199406  -0.000945   0.000495   0.005153  -0.000034
     3  C    0.385804  -0.025119  -0.042483  -0.032985  -0.040345  -0.037092
     4  C   -0.037717   0.234963   0.403502   0.377450  -0.004007   0.008193
     5  C   -0.033388  -0.000962   0.006370  -0.005251   0.398077   0.405633
     6  H   -0.037089  -0.006621  -0.003720   0.008030  -0.007787  -0.004902
     7  H    0.590200   0.003610  -0.002631  -0.005127   0.008501  -0.004644
     8  H    0.003610   0.405752  -0.008037  -0.011329   0.004888   0.000214
     9  H   -0.002631  -0.008037   0.496936  -0.023062   0.000038  -0.000334
    10  H   -0.005127  -0.011329  -0.023062   0.546217  -0.000163  -0.000267
    11  H    0.008501   0.004888   0.000038  -0.000163   0.594478  -0.031834
    12  H   -0.004644   0.000214  -0.000334  -0.000267  -0.031834   0.578153
    13  H   -0.007468  -0.001222  -0.000044   0.003484  -0.039654  -0.031509
    14  H   -0.000065  -0.001583  -0.000208  -0.000067  -0.000711  -0.000018
              13         14
     1  O   -0.000002   0.307964
     2  O   -0.000023  -0.033137
     3  C   -0.037085   0.001964
     4  C   -0.003870  -0.003305
     5  C    0.402900   0.000617
     6  H    0.007640   0.000008
     7  H   -0.007468  -0.000065
     8  H   -0.001222  -0.001583
     9  H   -0.000044  -0.000208
    10  H    0.003484  -0.000067
    11  H   -0.039654  -0.000711
    12  H   -0.031509  -0.000018
    13  H    0.590892   0.000029
    14  H    0.000029   0.458108
          Atomic-Atomic Spin Densities.
               1          2          3          4          5          6
     1  O    0.049846  -0.037726  -0.003607   0.018593  -0.000400  -0.002372
     2  O   -0.037726   0.541370   0.009403  -0.113088   0.001111   0.001650
     3  C   -0.003607   0.009403  -0.035768  -0.044004   0.009401   0.005898
     4  C    0.018593  -0.113088  -0.044004   0.783625  -0.005006  -0.005332
     5  C   -0.000400   0.001111   0.009401  -0.005006   0.003250   0.002004
     6  H   -0.002372   0.001650   0.005898  -0.005332   0.002004   0.010715
     7  H    0.000500  -0.001037   0.005965  -0.018410  -0.003433  -0.005790
     8  H    0.008917  -0.040643  -0.004221   0.072388  -0.000920   0.000693
     9  H   -0.001518   0.004480   0.005588  -0.010992  -0.000234   0.000523
    10  H   -0.000374   0.003391   0.006436  -0.008506   0.000446  -0.000034
    11  H    0.000237  -0.001447  -0.001170   0.003209  -0.000986  -0.000444
    12  H    0.000031  -0.000052   0.000053   0.000248  -0.000512  -0.000178
    13  H   -0.000021   0.000151   0.001257  -0.000921   0.000206   0.000228
    14  H    0.000707  -0.000832   0.000241  -0.000765   0.000009  -0.000181
               7          8          9         10         11         12
     1  O    0.000500   0.008917  -0.001518  -0.000374   0.000237   0.000031
     2  O   -0.001037  -0.040643   0.004480   0.003391  -0.001447  -0.000052
     3  C    0.005965  -0.004221   0.005588   0.006436  -0.001170   0.000053
     4  C   -0.018410   0.072388  -0.010992  -0.008506   0.003209   0.000248
     5  C   -0.003433  -0.000920  -0.000234   0.000446  -0.000986  -0.000512
     6  H   -0.005790   0.000693   0.000523  -0.000034  -0.000444  -0.000178
     7  H    0.071006   0.001042  -0.001756  -0.002685   0.000707   0.001005
     8  H    0.001042  -0.054893  -0.000218  -0.001180   0.000401   0.000084
     9  H   -0.001756  -0.000218  -0.036081   0.004644  -0.000085   0.000002
    10  H   -0.002685  -0.001180   0.004644  -0.032134  -0.000290  -0.000062
    11  H    0.000707   0.000401  -0.000085  -0.000290   0.002126   0.000246
    12  H    0.001005   0.000084   0.000002  -0.000062   0.000246   0.000109
    13  H   -0.001516  -0.000312   0.000070   0.000473  -0.000913  -0.000257
    14  H   -0.000009  -0.000068   0.000016   0.000006   0.000073  -0.000004
              13         14
     1  O   -0.000021   0.000707
     2  O    0.000151  -0.000832
     3  C    0.001257   0.000241
     4  C   -0.000921  -0.000765
     5  C    0.000206   0.000009
     6  H    0.000228  -0.000181
     7  H   -0.001516  -0.000009
     8  H   -0.000312  -0.000068
     9  H    0.000070   0.000016
    10  H    0.000473   0.000006
    11  H   -0.000913   0.000073
    12  H   -0.000257  -0.000004
    13  H    0.001659   0.000002
    14  H    0.000002  -0.001276
 Mulliken charges and spin densities:
               1          2
     1  O   -0.248247   0.032813
     2  O   -0.228623   0.366731
     3  C   -0.260309  -0.044527
     4  C   -0.377885   0.671040
     5  C   -0.340224   0.004935
     6  H    0.146719   0.007379
     7  H    0.139615   0.045588
     8  H    0.237121  -0.018932
     9  H    0.172325  -0.035560
    10  H    0.141609  -0.029870
    11  H    0.113080   0.001664
    12  H    0.118484   0.000714
    13  H    0.115932   0.000105
    14  H    0.270403  -0.002080
 Sum of Mulliken charges =  -0.00000   1.00000
 Mulliken charges and spin densities with hydrogens summed into heavy atoms:
               1          2
     1  O    0.022155   0.030732
     2  O    0.008498   0.347799
     3  C    0.026026   0.008441
     4  C   -0.063951   0.605610
     5  C    0.007272   0.007418
 APT charges:
               1
     1  O   -0.417608
     2  O   -0.169278
     3  C   -0.616645
     4  C   -0.794191
     5  C   -1.092420
     6  H    0.261966
     7  H    0.441051
     8  H    0.164469
     9  H    0.367704
    10  H    0.386237
    11  H    0.198812
    12  H    0.452975
    13  H    0.383017
    14  H    0.433912
 Sum of APT charges =  -0.00000
 APT charges with hydrogens summed into heavy atoms:
               1
     1  O    0.016304
     2  O   -0.004810
     3  C    0.086372
     4  C   -0.040251
     5  C   -0.057616
 Electronic spatial extent (au):  <R**2>=            601.1163
 Charge=             -0.0000 electrons
 Dipole moment (field-independent basis, Debye):
    X=              2.1512    Y=             -0.8635    Z=              0.5608  Tot=              2.3849
 Quadrupole moment (field-independent basis, Debye-Ang):
   XX=            -36.8865   YY=            -29.1567   ZZ=            -33.5753
   XY=              2.5435   XZ=             -0.9781   YZ=             -1.3288
 Traceless Quadrupole moment (field-independent basis, Debye-Ang):
   XX=             -3.6803   YY=              4.0494   ZZ=             -0.3691
   XY=              2.5435   XZ=             -0.9781   YZ=             -1.3288
 Octapole moment (field-independent basis, Debye-Ang**2):
  XXX=             -2.9066  YYY=             -7.0076  ZZZ=              0.2528  XYY=             -9.9795
  XXY=             -4.2088  XXZ=              2.0501  XZZ=             -2.4683  YZZ=             -0.3386
  YYZ=              2.2079  XYZ=              0.5178
 Hexadecapole moment (field-independent basis, Debye-Ang**3):
 XXXX=           -519.8061 YYYY=           -150.2034 ZZZZ=           -110.3412 XXXY=             11.8301
 XXXZ=              0.4356 YYYX=             12.7818 YYYZ=             -5.2225 ZZZX=             -1.1261
 ZZZY=             -3.8420 XXYY=            -99.9054 XXZZ=           -104.4382 YYZZ=            -42.0248
 XXYZ=             -3.9314 YYXZ=             -3.5870 ZZXY=              3.8280
 N-N= 1.890790697952D+02 E-N=-1.010187137915D+03  KE= 2.685246533418D+02
  Exact polarizability:   0.000   0.000   0.000   0.000   0.000   0.000
 Approx polarizability:  68.124   7.736  58.780   1.238  -2.378  59.183
                          Isotropic Fermi Contact Couplings
        Atom                 a.u.       MegaHertz       Gauss      10(-4) cm-1
     1  O(17)              0.00112      -0.67595      -0.24120      -0.22547
     2  O(17)              0.10732     -65.05886     -23.21462     -21.70130
     3  C(13)             -0.01208     -13.57618      -4.84432      -4.52853
     4  C(13)              0.17947     201.76238      71.99384      67.30069
     5  C(13)              0.00784       8.81604       3.14578       2.94071
     6  H(1)               0.00433      19.35050       6.90474       6.45463
     7  H(1)               0.02179      97.41227      34.75912      32.49323
     8  H(1)              -0.02941    -131.44677     -46.90348     -43.84592
     9  H(1)              -0.00860     -38.45933     -13.72324     -12.82865
    10  H(1)              -0.00421     -18.81619      -6.71409      -6.27641
    11  H(1)              -0.00023      -1.01712      -0.36293      -0.33927
    12  H(1)              -0.00030      -1.33875      -0.47770      -0.44656
    13  H(1)              -0.00013      -0.59543      -0.21247      -0.19862
    14  H(1)              -0.00071      -3.17459      -1.13277      -1.05893
 --------------------------------------------------------
       Center         ----  Spin Dipole Couplings  ----
                      3XX-RR        3YY-RR        3ZZ-RR
 --------------------------------------------------------
     1   Atom        0.265972     -0.066874     -0.199098
     2   Atom        1.272733     -0.526802     -0.745931
     3   Atom        0.018795     -0.012295     -0.006500
     4   Atom        0.117737     -0.009250     -0.108487
     5   Atom        0.003738      0.001321     -0.005059
     6   Atom       -0.005463      0.001039      0.004424
     7   Atom        0.003860     -0.002741     -0.001118
     8   Atom        0.120147     -0.038561     -0.081586
     9   Atom        0.009230     -0.004270     -0.004960
    10   Atom       -0.014576     -0.010070      0.024646
    11   Atom       -0.000232      0.004754     -0.004521
    12   Atom        0.001333      0.001404     -0.002737
    13   Atom        0.004786     -0.002333     -0.002453
    14   Atom       -0.006132      0.012524     -0.006392
 --------------------------------------------------------
                        XY            XZ            YZ
 --------------------------------------------------------
     1   Atom        0.130446      0.019656      0.014488
     2   Atom        0.946678      0.598914      0.253968
     3   Atom        0.002132      0.021285      0.000681
     4   Atom        0.416889      0.348701      0.303015
     5   Atom       -0.011169     -0.004222      0.004113
     6   Atom       -0.001849      0.004207     -0.010397
     7   Atom       -0.000348      0.010402      0.000404
     8   Atom        0.134699      0.052367      0.041502
     9   Atom       -0.014131     -0.022070      0.041668
    10   Atom        0.034373     -0.016743     -0.025991
    11   Atom       -0.005916     -0.001358      0.003644
    12   Atom       -0.003850      0.000567      0.000023
    13   Atom       -0.004032     -0.003518      0.001988
    14   Atom        0.000711     -0.001336     -0.011387
 --------------------------------------------------------


 ---------------------------------------------------------------------------------
              Anisotropic Spin Dipole Couplings in Principal Axis System
 ---------------------------------------------------------------------------------

       Atom             a.u.   MegaHertz   Gauss  10(-4) cm-1        Axes

              Baa    -0.2008    14.527     5.183     4.846 -0.0162 -0.0919  0.9956
     1 O(17)  Bbb    -0.1113     8.054     2.874     2.687 -0.3295  0.9406  0.0815
              Bcc     0.3121   -22.581    -8.057    -7.532  0.9440  0.3267  0.0456
 
              Baa    -0.9334    67.540    24.100    22.529 -0.4170  0.9022  0.1100
     2 O(17)  Bbb    -0.9091    65.783    23.473    21.943 -0.1779 -0.1997  0.9636
              Bcc     1.8425  -133.323   -47.573   -44.472  0.8913  0.3823  0.2437
 
              Baa    -0.0186    -2.502    -0.893    -0.835 -0.4960  0.0737  0.8652
     3 C(13)  Bbb    -0.0124    -1.660    -0.592    -0.554 -0.0073  0.9960 -0.0890
              Bcc     0.0310     4.162     1.485     1.388  0.8683  0.0505  0.4935
 
              Baa    -0.3684   -49.434   -17.639   -16.489 -0.4641  0.8204 -0.3339
     4 C(13)  Bbb    -0.3620   -48.572   -17.332   -16.202 -0.5867 -0.0023  0.8098
              Bcc     0.7303    98.006    34.971    32.691  0.6636  0.5717  0.4824
 
              Baa    -0.0087    -1.172    -0.418    -0.391  0.6416  0.7588 -0.1121
     5 C(13)  Bbb    -0.0067    -0.902    -0.322    -0.301  0.2816 -0.0971  0.9546
              Bcc     0.0155     2.074     0.740     0.692  0.7134 -0.6441 -0.2760
 
              Baa    -0.0086    -4.578    -1.633    -1.527 -0.5059  0.5865  0.6326
     6 H(1)   Bbb    -0.0057    -3.027    -1.080    -1.010  0.8344  0.5187  0.1864
              Bcc     0.0143     7.605     2.713     2.537  0.2188 -0.6221  0.7517
 
              Baa    -0.0094    -4.998    -1.784    -1.667 -0.6175 -0.0802  0.7825
     7 H(1)   Bbb    -0.0027    -1.440    -0.514    -0.480 -0.0485  0.9968  0.0639
              Bcc     0.0121     6.438     2.297     2.147  0.7851 -0.0015  0.6194
 
              Baa    -0.1197   -63.862   -22.788   -21.302 -0.3883  0.8393 -0.3805
     8 H(1)   Bbb    -0.0923   -49.255   -17.575   -16.430 -0.3708  0.2357  0.8983
              Bcc     0.2120   113.117    40.363    37.732  0.8436  0.4899  0.2197
 
              Baa    -0.0470   -25.056    -8.941    -8.358  0.1173 -0.6735  0.7298
     9 H(1)   Bbb    -0.0054    -2.872    -1.025    -0.958  0.8504  0.4476  0.2764
              Bcc     0.0523    27.928     9.965     9.316 -0.5129  0.5882  0.6253
 
              Baa    -0.0473   -25.234    -9.004    -8.417 -0.6978  0.7101  0.0941
    10 H(1)   Bbb    -0.0067    -3.570    -1.274    -1.191  0.5632  0.4627  0.6847
              Bcc     0.0540    28.804    10.278     9.608 -0.4426 -0.5308  0.7228
 
              Baa    -0.0059    -3.170    -1.131    -1.057 -0.2357 -0.4277  0.8726
    11 H(1)   Bbb    -0.0038    -2.003    -0.715    -0.668  0.8207  0.3933  0.4144
              Bcc     0.0097     5.172     1.846     1.725 -0.5205  0.8139  0.2584
 
              Baa    -0.0031    -1.632    -0.582    -0.544 -0.4431 -0.3864  0.8089
    12 H(1)   Bbb    -0.0022    -1.162    -0.415    -0.388  0.5539  0.5915  0.5859
              Bcc     0.0052     2.794     0.997     0.932 -0.7049  0.7077 -0.0481
 
              Baa    -0.0044    -2.358    -0.841    -0.787  0.1315  0.8050 -0.5785
    13 H(1)   Bbb    -0.0037    -1.983    -0.707    -0.661  0.5141  0.4435  0.7341
              Bcc     0.0081     4.341     1.549     1.448  0.8476 -0.3940 -0.3555
 
              Baa    -0.0119    -6.339    -2.262    -2.115  0.1572  0.4138  0.8967
    14 H(1)   Bbb    -0.0060    -3.227    -1.152    -1.077  0.9863 -0.1121 -0.1212
              Bcc     0.0179     9.567     3.414     3.191  0.0503  0.9034 -0.4257
 

 ---------------------------------------------------------------------------------

 No NMR shielding tensors so no spin-rotation constants.
 Leave Link  601 at Fri Sep  6 03:15:19 2019, MaxMem=   671088640 cpu:             139.8 elap:              70.0
 (Enter /shared/centos7/gaussian/g16/l701.exe)
 SCFChk:  SCF convergence  7.31D-09 required  1.00D-08
 ... and contract with generalized density number  0.
 Compute integral second derivatives.
 Entering OneElI...
 Calculate overlap and kinetic energy integrals
    NBasis = 310  MinDer = 2  MaxDer = 2
 Requested accuracy = 0.1000D-12
 PrmmSu-InSpLW:  IPartL=    0 NPrtUS=   20 NPrtUL=    1 DoSpLW=F IThBeg=    0 IThEnd=   19 NThAct=   20.
 PrsmSu:  NPrtUS=  20 ThrOK=T IAlg=1 NPAlg=1 LenDen=           0 ISkipM=0 DoSpLW=F IThBeg=    0 IThEnd=   19.
 Prism:   IPart=     0 DynPar=F LinDyn=F Incr=           2.
 PRISM was handed    33401627 working-precision words and  5453 shell-pairs
 PRISM was handed    33401627 working-precision words and  5453 shell-pairs
 PRISM was handed    33401627 working-precision words and  5453 shell-pairs
 PRISM was handed    33401627 working-precision words and  5453 shell-pairs
 PRISM was handed    33401627 working-precision words and  5453 shell-pairs
 PRISM was handed    33401627 working-precision words and  5453 shell-pairs
 PRISM was handed    33401627 working-precision words and  5453 shell-pairs
 PRISM was handed    33401627 working-precision words and  5453 shell-pairs
 PRISM was handed    33401627 working-precision words and  5453 shell-pairs
 PRISM was handed    33401627 working-precision words and  5453 shell-pairs
 PRISM was handed    33401627 working-precision words and  5453 shell-pairs
 PRISM was handed    33401627 working-precision words and  5453 shell-pairs
 PRISM was handed    33401627 working-precision words and  5453 shell-pairs
 PRISM was handed    33401627 working-precision words and  5453 shell-pairs
 PRISM was handed    33401627 working-precision words and  5453 shell-pairs
 IPart=  0 NShTot=         318 NBatch=          73 AvBLen=         4.4
 PRISM was handed    33401627 working-precision words and  5453 shell-pairs
 PRISM was handed    33401627 working-precision words and  5453 shell-pairs
 PRISM was handed    33401627 working-precision words and  5453 shell-pairs
 PRISM was handed    33401627 working-precision words and  5453 shell-pairs
 PRISM was handed    33401627 working-precision words and  5453 shell-pairs
 IPart= 11 NShTot=         264 NBatch=          34 AvBLen=         7.8
 IPart=  1 NShTot=         307 NBatch=          64 AvBLen=         4.8
 IPart= 14 NShTot=         257 NBatch=          31 AvBLen=         8.3
 IPart=  6 NShTot=         276 NBatch=          40 AvBLen=         6.9
 IPart= 19 NShTot=         250 NBatch=          27 AvBLen=         9.3
 IPart=  7 NShTot=         275 NBatch=          39 AvBLen=         7.1
 IPart=  9 NShTot=         269 NBatch=          36 AvBLen=         7.5
 IPart=  8 NShTot=         274 NBatch=          38 AvBLen=         7.2
 IPart=  2 NShTot=         299 NBatch=          57 AvBLen=         5.2
 IPart= 13 NShTot=         257 NBatch=          31 AvBLen=         8.3
 IPart= 17 NShTot=         252 NBatch=          28 AvBLen=         9.0
 IPart=  3 NShTot=         293 NBatch=          53 AvBLen=         5.5
 IPart= 10 NShTot=         267 NBatch=          36 AvBLen=         7.4
 IPart=  4 NShTot=         291 NBatch=          51 AvBLen=         5.7
 IPart= 18 NShTot=         252 NBatch=          28 AvBLen=         9.0
 IPart= 16 NShTot=         254 NBatch=          30 AvBLen=         8.5
 IPart= 12 NShTot=         262 NBatch=          33 AvBLen=         7.9
 IPart=  5 NShTot=         281 NBatch=          45 AvBLen=         6.2
 IPart= 15 NShTot=         255 NBatch=          30 AvBLen=         8.5
 PrSmSu:  NxtVal=             41.
 Entering OneElI...
 Calculate potential energy integrals
    NBasis = 310  MinDer = 2  MaxDer = 2
 Requested accuracy = 0.1000D-12
 PrmmSu-InSpLW:  IPartL=    0 NPrtUS=   20 NPrtUL=    1 DoSpLW=F IThBeg=    0 IThEnd=   19 NThAct=   20.
 PrsmSu:  NPrtUS=  20 ThrOK=T IAlg=1 NPAlg=1 LenDen=           0 ISkipM=0 DoSpLW=F IThBeg=    0 IThEnd=   19.
 Prism:   IPart=     0 DynPar=F LinDyn=F Incr=          36.
 PRISM was handed    33424654 working-precision words and  5158 shell-pairs
 PRISM was handed    33424654 working-precision words and  5158 shell-pairs
 PRISM was handed    33424654 working-precision words and  5158 shell-pairs
 PRISM was handed    33424654 working-precision words and  5158 shell-pairs
 PRISM was handed    33424654 working-precision words and  5158 shell-pairs
 PRISM was handed    33424654 working-precision words and  5158 shell-pairs
 PRISM was handed    33424654 working-precision words and  5158 shell-pairs
 PRISM was handed    33424654 working-precision words and  5158 shell-pairs
 PRISM was handed    33424654 working-precision words and  5158 shell-pairs
 PRISM was handed    33424654 working-precision words and  5158 shell-pairs
 PRISM was handed    33424654 working-precision words and  5158 shell-pairs
 PRISM was handed    33424654 working-precision words and  5158 shell-pairs
 PRISM was handed    33424654 working-precision words and  5158 shell-pairs
 PRISM was handed    33424654 working-precision words and  5158 shell-pairs
 PRISM was handed    33424654 working-precision words and  5158 shell-pairs
 PRISM was handed    33424654 working-precision words and  5158 shell-pairs
 PRISM was handed    33424654 working-precision words and  5158 shell-pairs
 PRISM was handed    33424654 working-precision words and  5158 shell-pairs
 PRISM was handed    33424654 working-precision words and  5158 shell-pairs
 IPart=  8 NShTot=        3612 NBatch=         258 AvBLen=        14.0
 PRISM was handed    33424654 working-precision words and  5158 shell-pairs
 IPart= 14 NShTot=        3458 NBatch=         247 AvBLen=        14.0
 IPart= 16 NShTot=        3374 NBatch=         241 AvBLen=        14.0
 IPart= 18 NShTot=        3304 NBatch=         236 AvBLen=        14.0
 IPart= 15 NShTot=        3388 NBatch=         242 AvBLen=        14.0
 IPart= 17 NShTot=        3360 NBatch=         240 AvBLen=        14.0
 IPart=  1 NShTot=        4018 NBatch=         287 AvBLen=        14.0
 IPart=  0 NShTot=        4130 NBatch=         295 AvBLen=        14.0
 IPart= 12 NShTot=        3542 NBatch=         253 AvBLen=        14.0
 IPart= 10 NShTot=        3542 NBatch=         253 AvBLen=        14.0
 IPart=  2 NShTot=        3906 NBatch=         279 AvBLen=        14.0
 IPart=  4 NShTot=        3794 NBatch=         271 AvBLen=        14.0
 IPart=  9 NShTot=        3570 NBatch=         255 AvBLen=        14.0
 IPart= 13 NShTot=        3514 NBatch=         251 AvBLen=        14.0
 IPart=  6 NShTot=        3682 NBatch=         263 AvBLen=        14.0
 IPart= 11 NShTot=        3542 NBatch=         253 AvBLen=        14.0
 IPart=  5 NShTot=        3682 NBatch=         263 AvBLen=        14.0
 IPart=  7 NShTot=        3654 NBatch=         261 AvBLen=        14.0
 IPart=  3 NShTot=        3836 NBatch=         274 AvBLen=        14.0
 IPart= 19 NShTot=        3304 NBatch=         236 AvBLen=        14.0
 PrSmSu:  NxtVal=            721.
 Polarizability after L701:
                1             2             3 
      1  0.000000D+00
      2  0.000000D+00  0.000000D+00
      3  0.000000D+00  0.000000D+00  0.000000D+00
 Dipole Derivatives after L701:
                 1             2             3             4             5 
      1  -0.485897D-01 -0.809510D+00  0.302264D+00 -0.395102D-01  0.121232D+00
      2   0.181275D+00 -0.984965D+00  0.581887D-01 -0.455913D-02 -0.163275D+00
      3  -0.937813D-01  0.239523D+00 -0.219270D+00  0.195127D+00  0.657010D-01
                 6             7             8             9            10 
      1  -0.276311D+00 -0.577587D+00 -0.403809D+00 -0.706982D+00 -0.497437D+00
      2  -0.381893D-01 -0.417104D+00 -0.411049D+00 -0.354625D-01  0.338445D+00
      3  -0.305050D+00 -0.458969D-01  0.707212D-01 -0.861299D+00  0.295619D+00
                11            12            13            14            15 
      1  -0.718841D-01  0.409296D+00 -0.139067D+01  0.533752D+00  0.545583D+00
      2  -0.109911D+01  0.254632D+00  0.626804D-01 -0.103130D+01 -0.870451D-01
      3   0.117766D-01 -0.786023D+00 -0.583412D-01  0.677455D-01 -0.855293D+00
                16            17            18            19            20 
      1   0.436044D-01 -0.100607D+00  0.140196D+00  0.656654D+00  0.367201D+00
      2   0.871409D-01  0.249214D+00 -0.100886D+00  0.182348D+00  0.300644D+00
      3  -0.242354D+00 -0.267964D+00  0.493080D+00  0.299884D+00  0.228933D+00
                21            22            23            24            25 
      1   0.378424D+00  0.468218D-01 -0.668700D-01 -0.965825D-02  0.234772D+00
      2   0.144933D+00 -0.381286D-01  0.166477D+00 -0.987219D-01 -0.487954D+00
      3   0.365855D+00 -0.121831D+00 -0.422169D-01  0.280108D+00 -0.166953D+00
                26            27            28            29            30 
      1  -0.987505D-01 -0.972803D-01  0.271221D+00  0.179622D+00 -0.280301D+00
      2   0.556142D+00  0.434286D+00  0.289318D+00  0.484846D+00 -0.580099D+00
      3   0.138414D+00  0.312198D+00 -0.159091D+00 -0.204186D+00  0.402644D+00
                31            32            33            34            35 
      1  -0.668471D-01 -0.160641D+00 -0.197812D+00  0.672969D+00 -0.666722D+00
      2   0.314610D+00  0.358917D+00  0.275314D+00 -0.345120D+00  0.501899D+00
      3   0.217179D+00  0.193068D+00  0.304367D+00  0.682091D-01 -0.738407D-01
                36            37            38            39            40 
      1   0.423541D+00  0.638254D+00  0.448556D+00 -0.618051D+00  0.563445D-01
      2  -0.262498D+00  0.631467D-02  0.127914D+00  0.152356D-01 -0.169264D+00
      3   0.184057D+00 -0.242875D+00 -0.201798D+00  0.382883D+00  0.551048D-01
                41            42 
      1   0.728430D+00 -0.129088D-01
      2   0.943648D+00  0.203123D-01
      3  -0.225877D+00  0.301745D+00
 Hessian after L701:
                1             2             3             4             5 
      1  0.105446D+02
      2  0.266750D-01  0.739352D+01
      3  0.173594D+01  0.288925D+01  0.469576D+01
      4 -0.597037D+01  0.334051D+00 -0.151467D+01  0.515994D+01
      5  0.354162D+00 -0.511422D+01 -0.264679D+01 -0.185509D+01  0.800184D+01
      6 -0.152642D+01 -0.256131D+01  0.190991D+01  0.121139D+01  0.264631D+01
      7  0.378874D+00  0.992064D-01 -0.163047D-02  0.395626D+00 -0.668323D-02
      8  0.180828D+00 -0.236237D+00  0.918105D-02  0.289699D-01 -0.264417D+00
      9 -0.113255D+00 -0.385123D-02 -0.253186D+00  0.285849D+00  0.122214D-01
     10  0.371297D+00  0.434988D+00 -0.125228D+00  0.159734D+00  0.180661D+00
     11  0.374779D+00 -0.930165D-01 -0.723976D-01  0.647049D-01 -0.123031D+00
     12 -0.126188D+00 -0.898058D-01 -0.363196D+00  0.442402D-01  0.313159D-01
     13  0.193549D+00 -0.646048D-01 -0.687142D-01  0.265873D+00 -0.908715D-01
     14  0.696938D-02 -0.141232D+00 -0.987262D-03 -0.490469D-01 -0.140461D+00
     15 -0.455644D-01  0.623946D-02 -0.112467D+00  0.932345D-01 -0.136883D-01
     16  0.837312D-01 -0.143094D-01  0.369202D-01  0.371260D-04 -0.148385D-01
     17 -0.484440D-01 -0.102672D+00 -0.165693D-01 -0.315588D-01 -0.153856D-01
[...]
 ! A20   A(12,5,13)            108.0332         -DE/DX =    0.0                 !
 ! A21   A(2,8,4)              170.4421         -DE/DX =    0.0                 !
 ! D1    D(14,1,2,8)           -97.3727         -DE/DX =    0.0                 !
 ! D2    D(1,2,8,4)             28.4483         -DE/DX =    0.0                 !
 ! D3    D(5,3,4,8)             65.7489         -DE/DX =    0.0                 !
 ! D4    D(5,3,4,9)            176.9868         -DE/DX =    0.0                 !
 ! D5    D(5,3,4,10)           -45.6687         -DE/DX =    0.0                 !
 ! D6    D(6,3,4,8)            -57.0858         -DE/DX =    0.0                 !
 ! D7    D(6,3,4,9)             54.1522         -DE/DX =    0.0                 !
 ! D8    D(6,3,4,10)          -168.5033         -DE/DX =    0.0                 !
 ! D9    D(7,3,4,8)           -172.4096         -DE/DX =    0.0                 !
 ! D10   D(7,3,4,9)            -61.1716         -DE/DX =    0.0                 !
 ! D11   D(7,3,4,10)            76.1729         -DE/DX =    0.0                 !
 ! D12   D(4,3,5,11)           -56.0216         -DE/DX =    0.0                 !
 ! D13   D(4,3,5,12)          -177.0416         -DE/DX =    0.0                 !
 ! D14   D(4,3,5,13)            62.5353         -DE/DX =    0.0                 !
 ! D15   D(6,3,5,11)            66.1134         -DE/DX =    0.0                 !
 ! D16   D(6,3,5,12)           -54.9066         -DE/DX =    0.0                 !
 ! D17   D(6,3,5,13)          -175.3297         -DE/DX =    0.0                 !
 ! D18   D(7,3,5,11)          -177.6359         -DE/DX =    0.0                 !
 ! D19   D(7,3,5,12)            61.3441         -DE/DX =    0.0                 !
 ! D20   D(7,3,5,13)           -59.079          -DE/DX =    0.0                 !
 ! D21   D(3,4,8,2)             10.1046         -DE/DX =    0.0                 !
 ! D22   D(9,4,8,2)           -111.4468         -DE/DX =    0.0                 !
 ! D23   D(10,4,8,2)           131.0687         -DE/DX =    0.0                 !
 --------------------------------------------------------------------------------
 GradGradGradGradGradGradGradGradGradGradGradGradGradGradGradGradGradGrad

 Leave Link  103 at Fri Sep  6 21:32:17 2019, MaxMem=   671088640 cpu:             132.7 elap:              66.9
 (Enter /shared/centos7/gaussian/g16/l9999.exe)

 ----------------------------------------------------------------------

 Electric dipole moment (input orientation):
 (Debye = 10**-18 statcoulomb cm , SI units = C m)
                  (au)            (Debye)         (10**-30 SI)
   Tot        0.988856D+00      0.251342D+01      0.838387D+01
   x         -0.963814D+00     -0.244977D+01     -0.817155D+01
   y         -0.175336D+00     -0.445661D+00     -0.148656D+01
   z         -0.134748D+00     -0.342494D+00     -0.114244D+01

 Dipole polarizability, Alpha (input orientation).
 (esu units = cm**3 , SI units = C**2 m**2 J**-1)
 Alpha(0;0):
               (au)            (10**-24 esu)      (10**-40 SI)
   iso        0.564801D+02      0.836949D+01      0.931232D+01
   aniso      0.233888D+02      0.346586D+01      0.385629D+01
   xx         0.646191D+02      0.957556D+01      0.106542D+02
   yx        -0.941525D+01     -0.139520D+01     -0.155236D+01
   yy         0.585507D+02      0.867632D+01      0.965371D+01
   zx         0.247677D+01      0.367020D+00      0.408365D+00
   zy         0.425737D+00      0.630877D-01      0.701946D-01
   zz         0.462706D+02      0.685660D+01      0.762899D+01

 ----------------------------------------------------------------------

 Dipole orientation:
     8          1.52761562          1.93320822         -2.71733226
     8         -0.81254139          0.80313200         -3.07847544
     6          0.74358786         -1.08005455          2.30774338
     6         -0.59075044         -2.53964968          0.27745685
     6         -0.86114543          1.07748632          3.34232793
     1          2.52697687         -0.35674066          1.56162635
     1          1.25438678         -2.36722581          3.84871568
     1         -0.83028927         -0.87211684         -1.61706611
     1          0.47372875         -4.04907803         -0.61792142
     1         -2.54546516         -3.04165000          0.67079370
     1         -1.45587001          2.33905897          1.82219432
     1          0.16436137          2.18119295          4.74388883
     1         -2.57414047          0.35280252          4.22974492
     1          1.14610984          3.33151651         -1.60796130

 Electric dipole moment (dipole orientation):
 (Debye = 10**-18 statcoulomb cm , SI units = C m)
                  (au)            (Debye)         (10**-30 SI)
   Tot        0.988856D+00      0.251342D+01      0.838387D+01
   x          0.000000D+00      0.000000D+00      0.000000D+00
   y          0.000000D+00      0.000000D+00      0.000000D+00
   z          0.988856D+00      0.251342D+01      0.838387D+01

 Dipole polarizability, Alpha (dipole orientation).
 (esu units = cm**3 , SI units = C**2 m**2 J**-1)
 Alpha(0;0):
               (au)            (10**-24 esu)      (10**-40 SI)
   iso        0.564801D+02      0.836949D+01      0.931232D+01
   aniso      0.233888D+02      0.346586D+01      0.385629D+01
   xx         0.468520D+02      0.694276D+01      0.772486D+01
   yx         0.408899D+01      0.605925D+00      0.674183D+00
   yy         0.610766D+02      0.905062D+01      0.100702D+02
   zx        -0.134271D+01     -0.198968D+00     -0.221382D+00
   zy        -0.970823D+01     -0.143861D+01     -0.160067D+01
   zz         0.615118D+02      0.911510D+01      0.101419D+02

 ----------------------------------------------------------------------

 Test job not archived.
 1\1\GINC-C0095\Freq\UM062X\CC-pVTZ\C3H9O2(2)\HARMS.N\06-Sep-2019\0\\#P
  Geom=AllCheck Guess=TCheck SCRF=Check Test GenChk UM062X/CC-pVTZ Freq
 \\Gaussian input prepared by ASE\\0,2\O,1.6896526042,-0.8626890608,-0.
 4105713885\O,1.5819557761,-0.0589893559,0.716432308\C,-1.212700859,0.2
 79343069,-0.6512746484\C,-0.3987597216,1.3282527335,0.0463933636\C,-1.
 7118749523,-0.7987040282,0.304246728\H,-0.6149445781,-0.1663572621,-1.
 4494338689\H,-2.0667842541,0.7559370772,-1.146625044\H,0.6918223911,0.
 6672901937,0.4630176561\H,0.0339115643,2.1032442686,-0.5797037889\H,-0
 .8116104978,1.7069699747,0.9791226134\H,-0.8778806011,-1.2573271,0.838
 9793981\H,-2.256969934,-1.5806468255,-0.2221896124\H,-2.3765138814,-0.
 3712226762,1.0557809044\H,1.1969139438,-1.6555540081,-0.1625926205\\Ve
 rsion=EM64L-G16RevA.03\State=2-A\HF=-269.984937\S2=0.759799\S2-1=0.\S2
 A=0.750048\RMSD=7.714e-10\RMSF=3.222e-06\ZeroPoint=0.1146396\Thermal=0
 .1220268\Dipole=-0.9638138,-0.1753364,-0.1347475\DipoleDeriv=-0.273284
 5,0.0363146,-0.0855851,0.5058933,-0.5466317,-0.0586556,0.4612085,-0.43
 76896,-0.2064292,0.143059,-0.3031256,0.0773375,-0.7439913,0.3720077,0.
 0436672,-0.4762008,0.4230461,-0.1682232,-0.1284281,0.0647557,-0.054920
 2,0.1392784,0.0085457,-0.0004836,-0.1178786,-0.0199002,-0.0062186,0.67
 13171,-0.4232064,0.0524238,-0.2675446,0.2313813,-0.0144482,0.3003642,-
 0.1800533,0.1219057,0.0891487,-0.0222104,0.0137041,-0.0201359,0.023220
 7,0.0387495,-0.0239751,0.0448569,0.0457803,0.0353623,-0.0012064,0.0874
 056,-0.031663,0.0028771,-0.0558409,0.0748042,-0.0151871,-0.0299758,-0.
 0789506,0.0517524,-0.0906341,-0.0639427,0.0432594,0.0358577,-0.0745368
 ,0.0620573,0.0214912,-0.573898,0.5338327,-0.0978079,0.611891,-0.294519
 7,0.0665051,-0.2036019,0.1252037,0.0738816,-0.053218,0.0225057,0.01288
 87,-0.0371126,-0.0721365,0.037991,0.0202609,0.0683987,0.0121528,-0.053
 6451,0.0833113,0.0677526,0.0418637,-0.0081081,-0.0358549,-0.0346715,-0
 .0156222,-0.0532745,-0.0592659,0.0866002,-0.0763659,0.0447508,0.009979
 4,0.037349,-0.0284845,0.0419553,0.0103115,0.0038374,-0.081205,-0.02652
 19,-0.1027155,-0.0533726,-0.0377681,-0.0441335,-0.0672105,0.0103211,-0
 .0024722,0.0148805,0.0830462,0.0650399,0.0082653,-0.0622331,0.0858292,
 -0.0179366,-0.0373193,0.280438,-0.0629994,0.0372767,-0.1416115,0.27523
 21,0.0051649,0.0610158,-0.0119186,0.2055964\Polar=64.6190919,-9.415245
 9,58.5506947,2.4767728,0.4257371,46.2706051\Quadrupole=-3.1608227,3.53
 7138,-0.3763152,-0.6728489,-0.2242329,0.1020498\PG=C01 [X(C3H9O2)]\NIm
 ag=1\\0.18134722,0.19519304,0.48898829,-0.12241265,0.01804786,0.289703
 00,-0.03236461,0.00399242,0.01122692,0.06896904,-0.00342483,-0.1253262
 5,-0.08809586,-0.00639265,0.15181884,0.00142675,-0.13648766,-0.2113465
 1,0.04606476,0.12244122,0.25870459,0.00099521,0.00302040,0.00459820,0.
 00573660,-0.00951011,-0.00466330,0.53141142,-0.00027354,-0.00353630,-0
 .00462394,-0.00213586,0.00613665,0.00574568,-0.04061385,0.49246657,-0.
 00050725,0.00056701,0.00058767,0.00275805,-0.00282410,-0.00101280,-0.0
 1570037,0.01568004,0.53642951,-0.00470547,-0.01788056,-0.02852852,-0.0
 8987138,0.09272332,0.00444255,-0.10178539,-0.06307708,-0.02364358,0.29
 477478,0.00031473,0.01011811,0.01302467,0.05508811,-0.05111488,0.00123
 463,-0.07004645,-0.13853164,-0.04998068,0.13848484,0.45951124,-0.00003
 608,-0.01017761,-0.01236438,-0.03775990,0.03868161,0.00631751,-0.02874
 574,-0.05171080,-0.11108491,-0.13380253,0.03234644,0.53884098,0.000284
 53,0.00019278,-0.00026981,0.00019123,0.00027962,-0.00001049,-0.0892008
 3,-0.02608682,0.02644804,-0.01026435,-0.01788910,0.01205250,0.56367895
 ,0.00024854,-0.00065062,-0.00009144,-0.00194422,0.00024814,0.00065949,
 -0.02546360,-0.13826732,0.05249922,-0.01416691,-0.02338211,0.01521097,
 -0.01252101,0.53230576,0.00091958,0.00160680,0.00104415,0.00126324,-0.
 00198932,-0.00152678,0.02655769,0.05567541,-0.13146453,-0.00272238,-0.
 01080272,0.01303567,0.02271266,0.04845600,0.53679562,-0.00119379,0.000
 07605,-0.00036974,-0.00020983,0.00049860,0.00036226,-0.12498011,0.0587
 0241,0.10645727,0.01036147,-0.00749443,-0.01537332,-0.00644129,0.00323
 040,0.00714476,0.13699180,0.00082115,0.00039275,0.00134635,0.00003211,
 -0.00089944,-0.00128481,0.05934722,-0.09330821,-0.07806311,0.01242223,
 -0.01025387,-0.01822636,-0.01513498,0.01056533,0.01887630,-0.06191218,
 0.10366540,0.00144036,0.00050173,0.00171477,0.00013016,-0.00092906,-0.
 00121022,0.10533495,-0.07570419,-0.18254263,0.00618691,-0.00866434,-0.
 01429058,0.01146912,-0.00759777,-0.01477519,-0.11439656,0.08558661,0.2
 0194363,-0.00053713,0.00053676,0.00028105,0.00035123,-0.00019130,-0.00
 019541,-0.19870334,0.09095552,-0.08684320,-0.01665711,0.00266622,-0.00
 944533,0.00945864,-0.00599718,0.00643530,-0.01508222,0.00841156,-0.007
 39950,0.21886801,0.00111879,0.00189501,0.00310971,0.00158477,-0.003649
 47,-0.00320548,0.08312118,-0.08994133,0.04632351,-0.01644078,0.0064782
 5,-0.00965717,0.01844173,-0.01164002,0.01148986,0.01140640,-0.00659511
 ,0.00595975,-0.09239955,0.10239234,0.00045029,0.00079772,0.00140409,0.
 00040529,-0.00108821,-0.00114414,-0.08645633,0.05148618,-0.09153502,-0
 .01460818,0.00247630,-0.00942811,-0.01593307,0.01071267,-0.01081356,0.
 01838144,-0.01004606,0.01011148,0.09664720,-0.05493484,0.10242344,0.00
 246244,0.02905301,0.04434406,0.03352155,-0.06537099,-0.03920497,-0.025
 25029,0.00899398,-0.01177726,0.06428707,-0.04603756,0.03571347,0.00038
 999,0.00200355,-0.00199956,0.00109988,-0.00021318,0.00027698,-0.000374
 74,-0.00545769,-0.00115583,-0.05279836,0.00567196,-0.03416066,-0.03519
 846,-0.04112145,0.03902984,0.01808487,0.00389420,-0.00272427,0.0017146
 1,-0.06947892,0.01675034,-0.02947182,-0.00124720,-0.00041005,0.0006169
 1,-0.00079582,0.00032253,-0.00037308,-0.00149766,0.00255832,-0.0008626
 8,0.07194759,-0.00391182,0.01878307,-0.01435848,0.00857789,-0.00761284
 ,-0.01030145,-0.04137342,-0.01201842,0.00347918,-0.00621202,0.02331093
 ,-0.01287418,-0.01298775,0.00070396,0.00032799,-0.00017382,-0.00042595
 ,-0.00020033,-0.00031086,-0.00097569,-0.00219699,-0.00053300,-0.020098
 85,0.03517302,0.05753021,0.00078409,0.00235810,0.00443265,0.00585102,-
 0.00740543,-0.00362049,-0.00505880,-0.01160912,0.01329859,-0.07207977,
 -0.08267918,0.06586302,-0.00104999,-0.00208887,-0.00384005,0.00070521,
 -0.00006929,-0.00097070,0.00092259,0.00092335,0.00022716,-0.00786204,0
 .01617158,-0.00945952,0.08015917,-0.00003995,-0.00129837,-0.00194259,-
 0.00194105,0.00368806,0.00103119,-0.00409146,-0.01032699,0.01333499,-0
 .09209804,-0.18933701,0.11436703,-0.00253895,-0.00214294,-0.00331590,0
 .00056196,0.00050519,0.00034678,-0.00061255,0.00031063,-0.00017350,0.0
 0165463,-0.00950263,0.00642974,0.09488044,0.19811151,0.00002775,0.0007
 0068,0.00093187,0.00051443,-0.00178427,-0.00055408,-0.00649521,-0.0120
 5368,0.01261295,0.07330856,0.11397486,-0.14873384,-0.00161096,-0.00190
 913,-0.00167965,0.00085477,0.00059872,0.00052248,0.00032668,0.00065186
 ,0.00035703,0.00018034,0.00543461,-0.00412798,-0.07359058,-0.12306329,
 0.15074256,-0.00002701,0.00268086,0.00328222,0.00504115,-0.00623569,-0
 .00285502,0.01031901,-0.00834165,-0.01723247,-0.07870116,0.02773555,0.
 10766838,0.00092122,0.00081667,-0.00067636,-0.00218431,-0.00297563,-0.
 00156027,0.00026211,0.00086575,0.00063421,-0.01388762,0.01101862,0.007
 87414,-0.00178931,0.00472886,0.00728573,0.08063010,0.00015117,-0.00173
 619,-0.00186453,-0.00341672,0.00380273,0.00153755,0.00929249,-0.004851
 21,-0.01530310,0.02653593,-0.07869431,-0.08867092,0.00165584,0.0013130
 9,-0.00057995,-0.00243330,-0.00245417,-0.00260277,-0.00033034,-0.00009
 117,-0.00036965,0.00871155,-0.00709790,-0.00472672,-0.00927460,0.01019
 091,0.01851682,-0.03051616,0.07941246,-0.00018268,0.00226694,0.0025622
 1,0.00420611,-0.00496173,-0.00096951,0.00837293,-0.00573206,-0.0113215
 0,0.09761264,-0.08275951,-0.24660783,-0.00023564,0.00118055,0.00091694
 ,-0.00284603,-0.00150740,-0.00011966,-0.00003076,0.00039510,0.00028665
 ,-0.00767317,0.00630193,0.00017346,0.00670101,-0.00783415,-0.01088537,
 -0.10504595,0.09351000,0.26511983,-0.00070627,-0.00095185,0.00009960,-
 0.00124846,0.00024171,0.00034432,0.00944225,-0.00535299,0.00554231,0.0
 0086284,0.00034218,0.00012728,-0.20542124,0.08556850,-0.09837995,0.000
 55506,0.00065916,-0.00051688,0.00031500,-0.00239924,0.00169310,0.00033
 985,-0.00037857,0.00010571,0.00012759,0.00015179,0.00010700,-0.0000321
 7,0.00012899,-0.00012532,0.22286667,0.00038641,0.00044204,0.00037765,0
 .00037619,0.00003553,-0.00092145,0.01785297,-0.01146867,0.01091510,0.0
 0211053,0.00105043,0.00052766,0.08380288,-0.09196544,0.05072386,-0.000
 19970,0.00072393,-0.00039328,-0.00227112,-0.00300622,0.00318130,-0.000
 87183,-0.00063768,0.00031248,-0.00021868,0.00028480,-0.00017924,0.0000
 6874,-0.00024745,-0.00023278,-0.09263202,0.09929359,-0.00056153,-0.000
 95521,-0.00115550,-0.00086505,0.00091962,0.00112457,-0.01617485,0.0094
 7819,-0.01073228,-0.00138838,-0.00081639,0.00022624,-0.09874795,0.0522
 5722,-0.10775344,-0.00046593,-0.00060558,0.00015152,0.00199260,0.00317
 312,-0.00198089,0.00117409,-0.00042049,0.00046532,0.00025949,-0.000238
 70,-0.00003513,0.00022384,0.00007969,0.00009755,0.10640231,-0.06061071
 ,0.11623088,0.00001300,0.00010860,0.00018228,-0.00022185,-0.00047536,0
 .00008155,-0.00570789,-0.00592908,-0.00518276,0.00012356,-0.00147238,0
 .00229454,-0.11493608,-0.09588373,-0.06703305,-0.00013042,0.00023154,-
 0.00022043,0.00038134,0.00023395,0.00020345,0.00007296,0.00042176,-0.0
 0003384,-0.00012153,-0.00060007,-0.00043491,-0.00005103,0.00000636,-0.
 00016785,-0.01177283,-0.01841003,-0.01147918,0.12110587,-0.00000753,0.
 00044521,0.00048452,0.00051213,-0.00033060,-0.00058795,-0.01033331,-0.
 01530330,-0.01263415,-0.00064057,-0.00294072,0.00473634,-0.09567320,-0
 .18509776,-0.09531017,0.00000676,0.00104092,-0.00002476,0.00063947,0.0
 0018411,-0.00045881,-0.00045943,0.00028643,0.00000975,-0.00111090,-0.0
 0069561,-0.00074352,0.00017944,0.00033967,0.00017971,0.00657422,0.0112
 6574,0.00719715,0.10691798,0.20021972,-0.00009300,-0.00015787,-0.00016
 654,-0.00028518,0.00003165,0.00032686,0.01202246,0.01666826,0.01212256
 ,0.00103145,0.00289623,-0.00315471,-0.06777469,-0.09678124,-0.11413638
 ,-0.00015243,-0.00088116,0.00097531,-0.00053945,-0.00073534,0.00077271
 ,0.00019783,0.00004720,-0.00019932,0.00084833,0.00097207,0.00074776,-0
 .00007936,0.00029721,0.00013589,-0.00572109,-0.01066473,-0.00794439,0.
 07243008,0.10279220,0.12148767,-0.00033822,-0.00042319,-0.00050530,-0.
 00036065,0.00037772,0.00048115,-0.00663243,0.00373798,0.00658182,-0.00
 011407,0.00114960,0.00022934,-0.14694663,0.06583866,0.11121828,0.00051
 280,-0.00176992,0.00093388,0.00069039,-0.00029424,-0.00040642,0.000320
 82,-0.00005971,0.00021260,0.00024725,-0.00015913,-0.00033095,-0.000170
 19,-0.00066842,-0.00023874,-0.01554282,0.01035155,0.01769333,0.0112400
 5,-0.00644567,-0.01199194,0.15642162,0.00007004,0.00008193,-0.00010569
 ,0.00016177,0.00001685,0.00002911,-0.01657502,0.00950707,0.01800052,0.
 00037549,0.00175681,0.00091294,0.06655863,-0.09101633,-0.07551407,-0.0
 0204906,-0.00336146,0.00328378,0.00037441,0.00116372,-0.00076715,-0.00
 009083,0.00001977,-0.00001535,0.00025605,0.00008212,-0.00008238,0.0003
 2317,-0.00012194,-0.00064163,0.00728195,-0.00628391,-0.00914101,0.0150
 9046,-0.00935959,-0.01437013,-0.07139693,0.09752272,-0.00006803,-0.000
 20308,0.00007474,-0.00014868,0.00011782,0.00013556,0.01362476,-0.00826
 947,-0.01655551,-0.00118793,-0.00069139,0.00069089,0.11069995,-0.07429
 825,-0.17026504,0.00086133,0.00394319,-0.00159119,-0.00048926,-0.00048
 300,0.00029733,0.00014082,-0.00008839,-0.00002298,-0.00022862,0.000141
 05,0.00013077,0.00042515,0.00037847,0.00056707,-0.00992500,0.00683942,
 0.01167270,0.00970514,-0.00574572,-0.01084727,-0.12370122,0.07835023,0
 .18596499,-0.14601400,-0.21795644,0.08363905,0.00461495,0.00488539,-0.
 00265366,-0.00058544,0.00103010,-0.00019919,0.00376898,-0.00016213,0.0
 0121437,-0.00066415,0.00035921,-0.00160016,-0.00000425,0.00015022,-0.0
 0070802,0.00010522,-0.00070444,-0.00008231,-0.00232150,0.00545363,-0.0
 0036529,-0.00083549,0.00010352,-0.00014264,-0.00033078,0.00015720,-0.0
 0034656,0.00021451,-0.00034588,0.00193721,0.00000486,-0.00015939,0.000
 10699,0.00067207,-0.00038014,0.00029158,0.14137503,-0.20022998,-0.3356
 5496,0.09553175,-0.00479554,-0.02345601,-0.00827639,0.00010532,0.00014
 897,-0.00022987,0.00113053,-0.00141066,0.00113168,0.00015978,0.0001402
 8,0.00006700,0.00040188,-0.00034380,0.00061059,-0.00028423,-0.00005907
 ,0.00004675,-0.00386282,-0.00052222,-0.00105866,-0.00013345,0.00013033
 ,-0.00006204,-0.00034854,0.00023548,-0.00016495,0.00076618,0.00051331,
 -0.00031689,-0.00024002,-0.00005424,-0.00011435,-0.00023830,-0.0000077
 5,0.00000912,0.20756916,0.36034034,0.10081341,0.13785117,-0.08156747,-
 0.01989732,-0.05021792,-0.00747163,-0.00025675,-0.00011880,0.00070851,
 -0.00001154,0.00063609,-0.00045918,0.00049639,-0.00062628,0.00079601,-
 0.00003186,0.00046364,-0.00057888,0.00023577,0.00010990,-0.00021800,-0
 .00011793,-0.00095823,-0.00080574,0.00007971,-0.00005472,-0.00002939,0
 .00005575,-0.00020207,0.00004427,0.00024661,0.00012472,-0.00036714,-0.
 00034504,0.00010542,-0.00012015,-0.00017582,0.00006084,-0.00025208,-0.
 08109138,-0.08717375,0.09032086\\-0.00000046,-0.00000368,-0.00000433,0
 .00000031,0.00000102,0.00000398,0.00000212,-0.00000473,0.00000242,-0.0
 0000320,0.00000928,-0.00000506,-0.00000289,0.00000461,0.00000234,-0.00
 000226,-0.00000479,0.00000045,0.00000282,0.00000242,-0.00000332,-0.000
 00154,-0.00000381,0.00000407,-0.00000190,-0.00000140,-0.00000212,0.000
 00225,0.00000052,0.00000006,0.00000558,0.00000007,0.00000022,0.0000041
 6,-0.00000242,0.00000155,-0.00000415,0.00000089,-0.00000290,-0.0000008
 6,0.00000202,0.00000264\\\@


       THE DEATH-KNELL OF THE ATOM

 SO THE ATOMS IN TURN, WE NOW CLEARLY DISCERN,
 FLY TO BITS WITH THE UTMOST FACILITY;
 THEY WEND ON THEIR WAY, AND, IN SPLITTING, DISPLAY
 AN ABSOLUTE LACK OF STABILITY.

          SIR WM. RAMSAY, 1905
 Job cpu time:       0 days  3 hours 23 minutes  3.1 seconds.
 Elapsed time:       0 days  1 hours 43 minutes 45.6 seconds.
 File lengths (MBytes):  RWF=   1536 Int=      0 D2E=      0 Chk=     48 Scr=     32
 Normal termination of Gaussian 16 at Fri Sep  6 21:32:18 2019.
