 Entering Gaussian System, Link 0=g16
 Input=med/ts/CCC+[O]O_[CH2]CC+OO/conformers/CCC+[O]O_[CH2]CC+OO_forward_2.com
 Output=med/ts/CCC+[O]O_[CH2]CC+OO/conformers/CCC+[O]O_[CH2]CC+OO_forward_2.log
 Initial command:
 /shared/centos7/gaussian/g16/l1.exe "/scratch/harms.n/gauss_scrdir/Gau-6658.inp" -scrdir="/scratch/harms.n/gauss_scrdir/"
 Entering Link 1 = /shared/centos7/gaussian/g16/l1.exe PID=      6659.
  
 Copyright (c) 1988,1990,1992,1993,1995,1998,2003,2009,2016,
            Gaussian, Inc.  All Rights Reserved.
  
 This is part of the Gaussian(R) 16 program.  It is based on
 the Gaussian(R) 09 system (copyright 2009, Gaussian, Inc.),
 the Gaussian(R) 03 system (copyright 2003, Gaussian, Inc.),
 the Gaussian(R) 98 system (copyright 1998, Gaussian, Inc.),
 the Gaussian(R) 94 system (copyright 1995, Gaussian, Inc.),
 the Gaussian 92(TM) system (copyright 1992, Gaussian, Inc.),
 the Gaussian 90(TM) system (copyright 1990, Gaussian, Inc.),
 the Gaussian 88(TM) system (copyright 1988, Gaussian, Inc.),
 the Gaussian 86(TM) system (copyright 1986, Carnegie Mellon
 University), and the Gaussian 82(TM) system (copyright 1983,
 Carnegie Mellon University). Gaussian is a federally registered
 trademark of Gaussian, Inc.
  
 This software contains proprietary and confidential information,
 including trade secrets, belonging to Gaussian, Inc.
  
 This software is provided under written license and may be
 used, copied, transmitted, or stored only in accord with that
 written license.
  
 The following legend is applicable only to US Government
 contracts under FAR:
  
                    RESTRICTED RIGHTS LEGEND
  
 Use, reproduction and disclosure by the US Government is
 subject to restrictions as set forth in subparagraphs (a)
 and (c) of the Commercial Computer Software - Restricted
 Rights clause in FAR 52.227-19.
  
 Gaussian, Inc.
 340 Quinnipiac St., Bldg. 40, Wallingford CT 06492
  
  
 ---------------------------------------------------------------
 Warning -- This program may not be used in any manner that
 competes with the business of Gaussian, Inc. or will provide
 assistance to any competitor of Gaussian, Inc.  The licensee
 of this program is prohibited from giving any competitor of
 Gaussian, Inc. access to this program.  By using this program,
 the user acknowledges that Gaussian, Inc. is engaged in the
 business of creating and licensing software in the field of
 computational chemistry and represents and warrants to the
 licensee that it is not a competitor of Gaussian, Inc. and that
 it will not use this program in any manner prohibited above.
 ---------------------------------------------------------------
  

 Cite this work as:
 Gaussian 16, Revision A.03,
 M. J. Frisch, G. W. Trucks, H. B. Schlegel, G. E. Scuseria, 
 M. A. Robb, J. R. Cheeseman, G. Scalmani, V. Barone, 
 G. A. Petersson, H. Nakatsuji, X. Li, M. Caricato, A. V. Marenich, 
 J. Bloino, B. G. Janesko, R. Gomperts, B. Mennucci, H. P. Hratchian, 
 J. V. Ortiz, A. F. Izmaylov, J. L. Sonnenberg, D. Williams-Young, 
 F. Ding, F. Lipparini, F. Egidi, J. Goings, B. Peng, A. Petrone, 
 T. Henderson, D. Ranasinghe, V. G. Zakrzewski, J. Gao, N. Rega, 
 G. Zheng, W. Liang, M. Hada, M. Ehara, K. Toyota, R. Fukuda, 
 J. Hasegawa, M. Ishida, T. Nakajima, Y. Honda, O. Kitao, H. Nakai, 
 T. Vreven, K. Throssell, J. A. Montgomery, Jr., J. E. Peralta, 
 F. Ogliaro, M. J. Bearpark, J. J. Heyd, E. N. Brothers, K. N. Kudin, 
 V. N. Staroverov, T. A. Keith, R. Kobayashi, J. Normand, 
 K. Raghavachari, A. P. Rendell, J. C. Burant, S. S. Iyengar, 
 J. Tomasi, M. Cossi, J. M. Millam, M. Klene, C. Adamo, R. Cammi, 
 J. W. Ochterski, R. L. Martin, K. Morokuma, O. Farkas, 
 J. B. Foresman, and D. J. Fox, Gaussian, Inc., Wallingford CT, 2016.
 
 ******************************************
 Gaussian 16:  EM64L-G16RevA.03 25-Dec-2016
                 5-Sep-2019 
 ******************************************
 %nprocshared=20
 Will use up to   20 processors via shared memory.
 %mem=5GB
 ----------------------------------------------------------------------
 #p m062x/cc-pVTZ opt=(ts,calcfc,noeigentest,maxcycles=900) freq scf=(m
 axcycle=900) IOP(7/33=1,2/16=3)
 ----------------------------------------------------------------------
 1/5=1,6=900,10=4,11=1,18=20,26=3,38=1/1,3;
 2/9=110,12=2,16=3,17=6,18=5,40=1/2;
 3/5=16,6=1,11=2,25=1,30=1,71=2,74=-55,140=1/1,2,3;
 4//1;
 5/5=2,7=900,38=5/2;
 8/6=4,10=90,11=11/1;
 11/6=1,8=1,9=11,15=111,16=1/1,2,10;
 10/6=1,13=1/2;
 6/7=2,8=2,9=2,10=2,28=1/1;
 7/10=1,18=20,25=1,33=1/1,2,3,16;
 1/5=1,6=900,10=4,11=1,18=20,26=3/3(2);
 2/9=110,16=3/2;
 99//99;
 2/9=110,16=3/2;
 3/5=16,6=1,11=2,25=1,30=1,71=1,74=-55/1,2,3;
 4/5=5,16=3,69=1/1;
 5/5=2,7=900,38=5/2;
 7/33=1/1,2,3,16;
 1/5=1,6=900,11=1,18=20,26=3/3(-5);
 2/9=110,16=3/2;
 6/7=2,8=2,9=2,10=2,19=2,28=1/1;
 99/9=1/99;
 Leave Link    1 at Thu Sep  5 18:36:38 2019, MaxMem=   671088640 cpu:               4.1 elap:               2.1
 (Enter /shared/centos7/gaussian/g16/l101.exe)
 ------------------------------
 Gaussian input prepared by ASE
 ------------------------------
 Symbolic Z-matrix:
 Charge =  0 Multiplicity = 2
 O                    -2.48379  -0.6019   -0.26545 
 O                    -1.99724   0.66178   0.05959 
 C                     1.43246   0.25422  -0.48993 
 C                     0.31239   0.08316   0.49849 
 C                     2.75617  -0.27362   0.07705 
 H                     1.54637   1.30793  -0.74748 
 H                     1.19586  -0.27571  -1.41318 
 H                    -0.8425    0.56344  -0.05732 
 H                    -0.00154  -0.94152   0.68163 
 H                     0.38802   0.6721    1.40828 
 H                     3.02724   0.26067   0.98703 
 H                     3.56292  -0.14801  -0.64385 
 H                     2.6774   -1.33276   0.32058 
 H                    -2.71161  -0.96775   0.59759 
 
 Add virtual bond connecting atoms H8         and O2         Dist= 2.20D+00.
 Add virtual bond connecting atoms H8         and C4         Dist= 2.59D+00.
 ITRead=  0  0  0  0  0  0  0  0  0  0  0  0  0  0
 MicOpt= -1 -1 -1 -1 -1 -1 -1 -1 -1 -1 -1 -1 -1 -1
 NAtoms=     14 NQM=       14 NQMF=       0 NMMI=      0 NMMIF=      0
                NMic=       0 NMicF=      0.
                    Isotopes and Nuclear Properties:
 (Nuclear quadrupole moments (NQMom) in fm**2, nuclear magnetic moments (NMagM)
  in nuclear magnetons)

  Atom         1           2           3           4           5           6           7           8           9          10
 IAtWgt=          16          16          12          12          12           1           1           1           1           1
 AtmWgt=  15.9949146  15.9949146  12.0000000  12.0000000  12.0000000   1.0078250   1.0078250   1.0078250   1.0078250   1.0078250
 NucSpn=           0           0           0           0           0           1           1           1           1           1
 AtZEff=  -0.0000000  -0.0000000  -0.0000000  -0.0000000  -0.0000000  -0.0000000  -0.0000000  -0.0000000  -0.0000000  -0.0000000
 NQMom=    0.0000000   0.0000000   0.0000000   0.0000000   0.0000000   0.0000000   0.0000000   0.0000000   0.0000000   0.0000000
 NMagM=    0.0000000   0.0000000   0.0000000   0.0000000   0.0000000   2.7928460   2.7928460   2.7928460   2.7928460   2.7928460
 AtZNuc=   8.0000000   8.0000000   6.0000000   6.0000000   6.0000000   1.0000000   1.0000000   1.0000000   1.0000000   1.0000000

  Atom        11          12          13          14
 IAtWgt=           1           1           1           1
 AtmWgt=   1.0078250   1.0078250   1.0078250   1.0078250
 NucSpn=           1           1           1           1
 AtZEff=  -0.0000000  -0.0000000  -0.0000000  -0.0000000
 NQMom=    0.0000000   0.0000000   0.0000000   0.0000000
 NMagM=    2.7928460   2.7928460   2.7928460   2.7928460
 AtZNuc=   1.0000000   1.0000000   1.0000000   1.0000000
 Leave Link  101 at Thu Sep  5 18:36:40 2019, MaxMem=   671088640 cpu:               3.7 elap:               1.9
 (Enter /shared/centos7/gaussian/g16/l103.exe)

 GradGradGradGradGradGradGradGradGradGradGradGradGradGradGradGradGradGrad
 Berny optimization.
 Initialization pass.
                           ----------------------------
                           !    Initial Parameters    !
                           ! (Angstroms and Degrees)  !
 --------------------------                            --------------------------
 ! Name  Definition              Value          Derivative Info.                !
 --------------------------------------------------------------------------------
 ! R1    R(1,2)                  1.3926         calculate D2E/DX2 analytically  !
 ! R2    R(1,14)                 0.9647         calculate D2E/DX2 analytically  !
 ! R3    R(2,8)                  1.1648         calculate D2E/DX2 analytically  !
 ! R4    R(3,4)                  1.5036         calculate D2E/DX2 analytically  !
 ! R5    R(3,5)                  1.5337         calculate D2E/DX2 analytically  !
 ! R6    R(3,6)                  1.0907         calculate D2E/DX2 analytically  !
 ! R7    R(3,7)                  1.0905         calculate D2E/DX2 analytically  !
 ! R8    R(4,8)                  1.3687         calculate D2E/DX2 analytically  !
 ! R9    R(4,9)                  1.0872         calculate D2E/DX2 analytically  !
 ! R10   R(4,10)                 1.0864         calculate D2E/DX2 analytically  !
 ! R11   R(5,11)                 1.0895         calculate D2E/DX2 analytically  !
 ! R12   R(5,12)                 1.0892         calculate D2E/DX2 analytically  !
 ! R13   R(5,13)                 1.0896         calculate D2E/DX2 analytically  !
 ! A1    A(2,1,14)             102.5827         calculate D2E/DX2 analytically  !
 ! A2    A(1,2,8)              104.2609         calculate D2E/DX2 analytically  !
 ! A3    A(4,3,5)              111.1471         calculate D2E/DX2 analytically  !
 ! A4    A(4,3,6)              110.0562         calculate D2E/DX2 analytically  !
 ! A5    A(4,3,7)              109.855          calculate D2E/DX2 analytically  !
 ! A6    A(5,3,6)              109.2473         calculate D2E/DX2 analytically  !
 ! A7    A(5,3,7)              109.45           calculate D2E/DX2 analytically  !
 ! A8    A(6,3,7)              106.9902         calculate D2E/DX2 analytically  !
 ! A9    A(3,4,8)              108.7652         calculate D2E/DX2 analytically  !
 ! A10   A(3,4,9)              115.6614         calculate D2E/DX2 analytically  !
 ! A11   A(3,4,10)             115.9108         calculate D2E/DX2 analytically  !
 ! A12   A(8,4,9)               98.9448         calculate D2E/DX2 analytically  !
 ! A13   A(8,4,10)             102.0393         calculate D2E/DX2 analytically  !
 ! A14   A(9,4,10)             112.9508         calculate D2E/DX2 analytically  !
 ! A15   A(3,5,11)             110.7764         calculate D2E/DX2 analytically  !
 ! A16   A(3,5,12)             110.7879         calculate D2E/DX2 analytically  !
 ! A17   A(3,5,13)             110.7786         calculate D2E/DX2 analytically  !
 ! A18   A(11,5,12)            108.1781         calculate D2E/DX2 analytically  !
 ! A19   A(11,5,13)            107.9377         calculate D2E/DX2 analytically  !
 ! A20   A(12,5,13)            108.2749         calculate D2E/DX2 analytically  !
 ! A21   A(2,8,4)              145.6251         calculate D2E/DX2 analytically  !
 ! D1    D(14,1,2,8)           104.5874         calculate D2E/DX2 analytically  !
 ! D2    D(1,2,8,4)            -76.0254         calculate D2E/DX2 analytically  !
 ! D3    D(5,3,4,8)           -179.7615         calculate D2E/DX2 analytically  !
 ! D4    D(5,3,4,9)            -69.5548         calculate D2E/DX2 analytically  !
 ! D5    D(5,3,4,10)            66.0359         calculate D2E/DX2 analytically  !
 ! D6    D(6,3,4,8)             59.0749         calculate D2E/DX2 analytically  !
 ! D7    D(6,3,4,9)            169.2816         calculate D2E/DX2 analytically  !
 ! D8    D(6,3,4,10)           -55.1278         calculate D2E/DX2 analytically  !
 ! D9    D(7,3,4,8)            -58.478          calculate D2E/DX2 analytically  !
 ! D10   D(7,3,4,9)             51.7287         calculate D2E/DX2 analytically  !
 ! D11   D(7,3,4,10)          -172.6806         calculate D2E/DX2 analytically  !
 ! D12   D(4,3,5,11)           -60.0083         calculate D2E/DX2 analytically  !
 ! D13   D(4,3,5,12)           179.9302         calculate D2E/DX2 analytically  !
 ! D14   D(4,3,5,13)            59.7455         calculate D2E/DX2 analytically  !
 ! D15   D(6,3,5,11)            61.6285         calculate D2E/DX2 analytically  !
 ! D16   D(6,3,5,12)           -58.433          calculate D2E/DX2 analytically  !
 ! D17   D(6,3,5,13)          -178.6176         calculate D2E/DX2 analytically  !
 ! D18   D(7,3,5,11)           178.4712         calculate D2E/DX2 analytically  !
 ! D19   D(7,3,5,12)            58.4097         calculate D2E/DX2 analytically  !
 ! D20   D(7,3,5,13)           -61.7749         calculate D2E/DX2 analytically  !
 ! D21   D(3,4,8,2)            171.9738         calculate D2E/DX2 analytically  !
 ! D22   D(9,4,8,2)             50.8781         calculate D2E/DX2 analytically  !
 ! D23   D(10,4,8,2)           -65.0465         calculate D2E/DX2 analytically  !
 --------------------------------------------------------------------------------
 Trust Radius=3.00D-01 FncErr=1.00D-07 GrdErr=1.00D-06 EigMax=2.50D+02 EigMin=1.00D-04
 Number of steps in this run=    100 maximum allowed number of steps=    100.
 Search for a saddle point of order  1.
 GradGradGradGradGradGradGradGradGradGradGradGradGradGradGradGradGradGrad

 Leave Link  103 at Thu Sep  5 18:36:41 2019, MaxMem=   671088640 cpu:               2.0 elap:               1.2
 (Enter /shared/centos7/gaussian/g16/l202.exe)
                          Input orientation:                          
 ---------------------------------------------------------------------
 Center     Atomic      Atomic             Coordinates (Angstroms)
 Number     Number       Type             X           Y           Z
 ---------------------------------------------------------------------
      1          8           0       -2.483788   -0.601895   -0.265452
      2          8           0       -1.997240    0.661775    0.059585
      3          6           0        1.432457    0.254222   -0.489926
      4          6           0        0.312389    0.083161    0.498488
      5          6           0        2.756169   -0.273620    0.077047
      6          1           0        1.546366    1.307926   -0.747482
      7          1           0        1.195860   -0.275709   -1.413175
      8          1           0       -0.842503    0.563440   -0.057320
      9          1           0       -0.001538   -0.941516    0.681633
     10          1           0        0.388016    0.672096    1.408278
     11          1           0        3.027238    0.260666    0.987028
     12          1           0        3.562916   -0.148010   -0.643845
     13          1           0        2.677397   -1.332755    0.320583
     14          1           0       -2.711609   -0.967754    0.597588
 ---------------------------------------------------------------------
                    Distance matrix (angstroms):
                    1          2          3          4          5
     1  O    0.000000
     2  O    1.392566   0.000000
     3  C    4.015009   3.497268   0.000000
     4  C    2.978508   2.421119   1.503588   0.000000
     5  C    5.261389   4.844602   1.533717   2.505387   0.000000
     6  H    4.485745   3.691343   1.090689   2.138969   2.155170
     7  H    3.868265   3.639201   1.090502   2.136297   2.157621
     8  H    2.023645   1.164798   2.336281   1.368710   3.697183
     9  H    2.678410   2.634447   2.204242   1.087224   2.901130
    10  H    3.559731   2.740169   2.206503   1.086408   2.876578
    11  H    5.717003   5.125077   2.173652   2.764161   1.089498
    12  H    6.075510   5.662676   2.173554   3.453157   1.089176
    13  H    5.245515   5.089057   2.173775   2.762197   1.089625
    14  H    0.964673   1.858799   4.455244   3.202937   5.536188
                    6          7          8          9         10
     6  H    0.000000
     7  H    1.753255   0.000000
     8  H    2.595627   2.587941   0.000000
     9  H    3.081942   2.503054   1.875678   0.000000
    10  H    2.528509   3.084079   1.916758   1.812046   0.000000
    11  H    2.509634   3.066369   4.019606   3.272918   2.704111
    12  H    2.489370   2.492214   4.500876   3.884826   3.868304
    13  H    3.064831   2.513606   4.015976   2.731322   3.231683
    14  H    5.011814   4.448641   2.503401   2.711501   3.599167
                   11         12         13         14
    11  H    0.000000
    12  H    1.764572   0.000000
    13  H    1.762251   1.765754   0.000000
    14  H    5.881755   6.448473   5.408451   0.000000
 Stoichiometry    C3H9O2(2)
 Framework group  C1[X(C3H9O2)]
 Deg. of freedom    36
 Full point group                 C1      NOp   1
 Largest Abelian subgroup         C1      NOp   1
 Largest concise Abelian subgroup C1      NOp   1
                         Standard orientation:                         
 ---------------------------------------------------------------------
 Center     Atomic      Atomic             Coordinates (Angstroms)
 Number     Number       Type             X           Y           Z
 ---------------------------------------------------------------------
      1          8           0        2.483788    0.601895   -0.265452
      2          8           0        1.997240   -0.661775    0.059585
      3          6           0       -1.432457   -0.254222   -0.489926
      4          6           0       -0.312389   -0.083161    0.498488
      5          6           0       -2.756169    0.273620    0.077047
      6          1           0       -1.546366   -1.307926   -0.747482
      7          1           0       -1.195860    0.275709   -1.413175
      8          1           0        0.842503   -0.563440   -0.057320
      9          1           0        0.001538    0.941516    0.681633
     10          1           0       -0.388016   -0.672096    1.408278
     11          1           0       -3.027238   -0.260666    0.987028
     12          1           0       -3.562916    0.148010   -0.643845
     13          1           0       -2.677397    1.332755    0.320583
     14          1           0        2.711609    0.967754    0.597588
 ---------------------------------------------------------------------
 Rotational constants (GHZ):          14.5082220           1.5144933           1.4828621
 Leave Link  202 at Thu Sep  5 18:36:43 2019, MaxMem=   671088640 cpu:               3.2 elap:               1.6
 (Enter /shared/centos7/gaussian/g16/l301.exe)
 Standard basis: CC-pVTZ (5D, 7F)
 Ernie: Thresh=  0.10000D-02 Tol=  0.10000D-05 Strict=F.
 Ernie:  15 primitive shells out of 202 were deleted.
 There are   310 symmetry adapted cartesian basis functions of A   symmetry.
 There are   276 symmetry adapted basis functions of A   symmetry.
   276 basis functions,   413 primitive gaussians,   310 cartesian basis functions
    22 alpha electrons       21 beta electrons
       nuclear repulsion energy       179.6554692871 Hartrees.
 IExCor= 4336 DFT=T Ex+Corr=M062X ExCW=0 ScaHFX=  0.540000
 ScaDFX=  1.000000  1.000000  1.000000  1.000000 ScalE2=  1.000000  1.000000
 IRadAn=      5 IRanWt=     -1 IRanGd=            0 ICorTp=0 IEmpDi=  4
 NAtoms=   14 NActive=   14 NUniq=   14 SFac= 1.00D+00 NAtFMM=   60 NAOKFM=F Big=F
 Integral buffers will be    131072 words long.
 Raffenetti 2 integral format.
 Two-electron integral symmetry is turned on.
 Leave Link  301 at Thu Sep  5 18:36:44 2019, MaxMem=   671088640 cpu:               1.8 elap:               0.9
 (Enter /shared/centos7/gaussian/g16/l302.exe)
 NPDir=0 NMtPBC=     1 NCelOv=     1 NCel=       1 NClECP=     1 NCelD=      1
         NCelK=      1 NCelE2=     1 NClLst=     1 CellRange=     0.0.
 One-electron integrals computed using PRISM.
 One-electron integral symmetry used in STVInt
 NBasis=   276 RedAO= T EigKep=  7.67D-04  NBF=   276
 NBsUse=   276 1.00D-06 EigRej= -1.00D+00 NBFU=   276
 Precomputing XC quadrature grid using
 IXCGrd= 4 IRadAn=           5 IRanWt=          -1 IRanGd=           0 AccXCQ= 0.00D+00.
 Generated NRdTot=       0 NPtTot=           0 NUsed=           0 NTot=          32
 NSgBfM=   310   310   310   310   310 MxSgAt=    14 MxSgA2=    14.
 Leave Link  302 at Thu Sep  5 18:37:54 2019, MaxMem=   671088640 cpu:             139.9 elap:              70.0
 (Enter /shared/centos7/gaussian/g16/l303.exe)
 DipDrv:  MaxL=1.
 Leave Link  303 at Thu Sep  5 18:37:58 2019, MaxMem=   671088640 cpu:               7.6 elap:               3.8
 (Enter /shared/centos7/gaussian/g16/l401.exe)
 ExpMin= 1.03D-01 ExpMax= 1.53D+04 ExpMxC= 5.22D+02 IAcc=3 IRadAn=         5 AccDes= 0.00D+00
 Harris functional with IExCor= 1009 and IRadAn=       5 diagonalized for initial guess.
 HarFok:  IExCor= 1009 AccDes= 0.00D+00 IRadAn=         5 IDoV= 1 UseB2=F ITyADJ=14
 ICtDFT=  3500011 ScaDFX=  1.000000  1.000000  1.000000  1.000000
 FoFCou: FMM=F IPFlag=           0 FMFlag=      100000 FMFlg1=           0
         NFxFlg=           0 DoJE=T BraDBF=F KetDBF=T FulRan=T
         wScrn=  0.000000 ICntrl=       500 IOpCl=  0 I1Cent=   200000004 NGrid=           0
         NMat0=    1 NMatS0=      1 NMatT0=    0 NMatD0=    1 NMtDS0=    0 NMtDT0=    0
 Petite list used in FoFCou.
 Harris En= -269.915849021483    
 JPrj=0 DoOrth=F DoCkMO=F.
 Initial guess <Sx>= 0.0000 <Sy>= 0.0000 <Sz>= 0.5000 <S**2>= 0.7500 S= 0.5000
 Leave Link  401 at Thu Sep  5 18:38:29 2019, MaxMem=   671088640 cpu:              62.0 elap:              31.0
 (Enter /shared/centos7/gaussian/g16/l502.exe)
 Integral symmetry usage will be decided dynamically.
 UHF open shell SCF:
 Using DIIS extrapolation, IDIIS=  1040.
 NGot=   671088640 LenX=   670887394 LenY=   670790853
 Requested convergence on RMS density matrix=1.00D-08 within 900 cycles.
 Requested convergence on MAX density matrix=1.00D-06.
 Requested convergence on             energy=1.00D-06.
 No special actions if energy rises.
 Fock matrices will be formed incrementally for  20 cycles.
 Integral accuracy reduced to 1.0D-05 until final iterations.

 Cycle   1  Pass 0  IDiag  1:
 FoFJK:  IHMeth= 1 ICntrl=       0 DoSepK=F KAlg= 0 I1Cent=           0 FoldK=F
 IRaf= 940000000 NMat=       1 IRICut=       1 DoRegI=T DoRafI=F ISym2E= 0 IDoP0=0 IntGTp=1.
 FoFCou: FMM=F IPFlag=           0 FMFlag=      100000 FMFlg1=           0
         NFxFlg=           0 DoJE=F BraDBF=F KetDBF=F FulRan=T
         wScrn=  0.000000 ICntrl=         0 IOpCl=  1 I1Cent=           0 NGrid=           0
         NMat0=    1 NMatS0=      1 NMatT0=    0 NMatD0=    1 NMtDS0=    0 NMtDT0=    0
 Symmetry not used in FoFCou.
 E= -269.774196540919    
 DIIS: error= 3.70D-02 at cycle   1 NSaved=   1.
 NSaved= 1 IEnMin= 1 EnMin= -269.774196540919     IErMin= 1 ErrMin= 3.70D-02
 ErrMax= 3.70D-02  0.00D+00 EMaxC= 1.00D-01 BMatC= 9.03D-01 BMatP= 9.03D-01
 IDIUse=3 WtCom= 6.30D-01 WtEn= 3.70D-01
 Coeff-Com:  0.100D+01
 Coeff-En:   0.100D+01
 Coeff:      0.100D+01
 Gap=     0.333 Goal=   None    Shift=    0.000
 Gap=     0.345 Goal=   None    Shift=    0.000
 GapD=    0.333 DampG=1.000 DampE=0.500 DampFc=0.5000 IDamp=-1.
 Damping current iteration by 5.00D-01
 RMSDP=2.16D-03 MaxDP=1.04D-01              OVMax= 2.37D-01

 Cycle   2  Pass 0  IDiag  1:
 RMSU=  1.08D-03    CP:  9.97D-01
 E= -269.873700064693     Delta-E=       -0.099503523774 Rises=F Damp=T
 DIIS: error= 5.06D-03 at cycle   2 NSaved=   2.
 NSaved= 2 IEnMin= 2 EnMin= -269.873700064693     IErMin= 2 ErrMin= 5.06D-03
 ErrMax= 5.06D-03  0.00D+00 EMaxC= 1.00D-01 BMatC= 7.35D-02 BMatP= 9.03D-01
 IDIUse=3 WtCom= 9.49D-01 WtEn= 5.06D-02
 Coeff-Com: -0.909D-01 0.109D+01
 Coeff-En:   0.000D+00 0.100D+01
 Coeff:     -0.863D-01 0.109D+01
 Gap=     0.360 Goal=   None    Shift=    0.000
 Gap=     0.335 Goal=   None    Shift=    0.000
 RMSDP=5.53D-04 MaxDP=1.98D-02 DE=-9.95D-02 OVMax= 1.20D-01

 Cycle   3  Pass 0  IDiag  1:
 RMSU=  5.47D-04    CP:  1.00D+00  9.46D-01
 E= -269.971048617839     Delta-E=       -0.097348553146 Rises=F Damp=F
 DIIS: error= 5.17D-03 at cycle   3 NSaved=   3.
 NSaved= 3 IEnMin= 3 EnMin= -269.971048617839     IErMin= 2 ErrMin= 5.06D-03
 ErrMax= 5.17D-03  0.00D+00 EMaxC= 1.00D-01 BMatC= 2.42D-02 BMatP= 7.35D-02
 IDIUse=3 WtCom= 9.48D-01 WtEn= 5.17D-02
 Coeff-Com: -0.829D-01 0.388D+00 0.695D+00
 Coeff-En:   0.000D+00 0.000D+00 0.100D+01
 Coeff:     -0.786D-01 0.368D+00 0.711D+00
 Gap=     0.350 Goal=   None    Shift=    0.000
 Gap=     0.267 Goal=   None    Shift=    0.000
 RMSDP=2.51D-04 MaxDP=1.04D-02 DE=-9.73D-02 OVMax= 6.66D-02

 Cycle   4  Pass 0  IDiag  1:
 RMSU=  2.22D-04    CP:  1.00D+00  1.01D+00  8.24D-01
 E= -269.975587339340     Delta-E=       -0.004538721500 Rises=F Damp=F
 DIIS: error= 2.50D-03 at cycle   4 NSaved=   4.
 NSaved= 4 IEnMin= 4 EnMin= -269.975587339340     IErMin= 4 ErrMin= 2.50D-03
 ErrMax= 2.50D-03  0.00D+00 EMaxC= 1.00D-01 BMatC= 8.14D-03 BMatP= 2.42D-02
 IDIUse=3 WtCom= 9.75D-01 WtEn= 2.50D-02
 Coeff-Com: -0.299D-01 0.757D-01 0.387D+00 0.567D+00
 Coeff-En:   0.000D+00 0.000D+00 0.106D+00 0.894D+00
 Coeff:     -0.292D-01 0.738D-01 0.380D+00 0.575D+00
 Gap=     0.348 Goal=   None    Shift=    0.000
 Gap=     0.270 Goal=   None    Shift=    0.000
 RMSDP=1.06D-04 MaxDP=5.57D-03 DE=-4.54D-03 OVMax= 1.39D-02

 Cycle   5  Pass 0  IDiag  1:
 RMSU=  6.95D-05    CP:  1.00D+00  1.00D+00  9.45D-01  8.00D-01
 E= -269.977175687075     Delta-E=       -0.001588347735 Rises=F Damp=F
 DIIS: error= 6.25D-04 at cycle   5 NSaved=   5.
 NSaved= 5 IEnMin= 5 EnMin= -269.977175687075     IErMin= 5 ErrMin= 6.25D-04
 ErrMax= 6.25D-04  0.00D+00 EMaxC= 1.00D-01 BMatC= 4.98D-04 BMatP= 8.14D-03
 IDIUse=3 WtCom= 9.94D-01 WtEn= 6.25D-03
 Coeff-Com: -0.214D-02-0.896D-02 0.845D-01 0.197D+00 0.730D+00
 Coeff-En:   0.000D+00 0.000D+00 0.000D+00 0.000D+00 0.100D+01
 Coeff:     -0.213D-02-0.891D-02 0.839D-01 0.196D+00 0.731D+00
 Gap=     0.349 Goal=   None    Shift=    0.000
 Gap=     0.272 Goal=   None    Shift=    0.000
 RMSDP=4.58D-05 MaxDP=1.73D-03 DE=-1.59D-03 OVMax= 1.17D-02

 Cycle   6  Pass 0  IDiag  1:
 RMSU=  2.90D-05    CP:  1.00D+00  9.95D-01  9.73D-01  9.18D-01  1.24D+00
 E= -269.977390704509     Delta-E=       -0.000215017434 Rises=F Damp=F
 DIIS: error= 3.53D-04 at cycle   6 NSaved=   6.
 NSaved= 6 IEnMin= 6 EnMin= -269.977390704509     IErMin= 6 ErrMin= 3.53D-04
 ErrMax= 3.53D-04  0.00D+00 EMaxC= 1.00D-01 BMatC= 1.71D-04 BMatP= 4.98D-04
 IDIUse=3 WtCom= 9.96D-01 WtEn= 3.53D-03
 Coeff-Com:  0.852D-02-0.250D-01-0.694D-01-0.105D+00 0.302D+00 0.889D+00
 Coeff-En:   0.000D+00 0.000D+00 0.000D+00 0.000D+00 0.000D+00 0.100D+01
 Coeff:      0.848D-02-0.249D-01-0.691D-01-0.105D+00 0.301D+00 0.889D+00
 Gap=     0.350 Goal=   None    Shift=    0.000
 Gap=     0.275 Goal=   None    Shift=    0.000
 RMSDP=4.11D-05 MaxDP=1.52D-03 DE=-2.15D-04 OVMax= 1.32D-02

 Cycle   7  Pass 0  IDiag  1:
 RMSU=  1.66D-05    CP:  1.00D+00  9.91D-01  9.96D-01  1.00D+00  1.66D+00
                    CP:  1.22D+00
 E= -269.977505282302     Delta-E=       -0.000114577793 Rises=F Damp=F
 DIIS: error= 1.79D-04 at cycle   7 NSaved=   7.
 NSaved= 7 IEnMin= 7 EnMin= -269.977505282302     IErMin= 7 ErrMin= 1.79D-04
 ErrMax= 1.79D-04  0.00D+00 EMaxC= 1.00D-01 BMatC= 4.23D-05 BMatP= 1.71D-04
 IDIUse=3 WtCom= 9.98D-01 WtEn= 1.79D-03
 Coeff-Com:  0.307D-02-0.529D-02-0.409D-01-0.102D+00-0.114D+00 0.332D+00
 Coeff-Com:  0.927D+00
 Coeff-En:   0.000D+00 0.000D+00 0.000D+00 0.000D+00 0.000D+00 0.000D+00
 Coeff-En:   0.100D+01
 Coeff:      0.307D-02-0.528D-02-0.409D-01-0.102D+00-0.113D+00 0.331D+00
 Coeff:      0.927D+00
 Gap=     0.351 Goal=   None    Shift=    0.000
 Gap=     0.276 Goal=   None    Shift=    0.000
 RMSDP=2.64D-05 MaxDP=9.69D-04 DE=-1.15D-04 OVMax= 7.90D-03

 Cycle   8  Pass 0  IDiag  1:
 RMSU=  7.74D-06    CP:  1.00D+00  9.89D-01  1.01D+00  1.04D+00  1.92D+00
                    CP:  1.61D+00  1.33D+00
 E= -269.977538954906     Delta-E=       -0.000033672604 Rises=F Damp=F
 DIIS: error= 7.64D-05 at cycle   8 NSaved=   8.
 NSaved= 8 IEnMin= 8 EnMin= -269.977538954906     IErMin= 8 ErrMin= 7.64D-05
 ErrMax= 7.64D-05  0.00D+00 EMaxC= 1.00D-01 BMatC= 5.55D-06 BMatP= 4.23D-05
 IDIUse=1 WtCom= 1.00D+00 WtEn= 0.00D+00
 Coeff-Com: -0.105D-02 0.376D-02 0.102D-01 0.320D-02-0.455D-01-0.808D-01
 Coeff-Com:  0.122D+00 0.988D+00
 Coeff:     -0.105D-02 0.376D-02 0.102D-01 0.320D-02-0.455D-01-0.808D-01
 Coeff:      0.122D+00 0.988D+00
 Gap=     0.351 Goal=   None    Shift=    0.000
 Gap=     0.276 Goal=   None    Shift=    0.000
 RMSDP=9.28D-06 MaxDP=4.80D-04 DE=-3.37D-05 OVMax= 3.21D-03

 Initial convergence to 1.0D-05 achieved.  Increase integral accuracy.
 Cycle   9  Pass 1  IDiag  1:
 E= -269.977531990932     Delta-E=        0.000006963974 Rises=F Damp=F
 DIIS: error= 3.58D-05 at cycle   1 NSaved=   1.
 NSaved= 1 IEnMin= 1 EnMin= -269.977531990932     IErMin= 1 ErrMin= 3.58D-05
 ErrMax= 3.58D-05  0.00D+00 EMaxC= 1.00D-01 BMatC= 3.28D-06 BMatP= 3.28D-06
 IDIUse=1 WtCom= 1.00D+00 WtEn= 0.00D+00
 Coeff-Com:  0.100D+01
 Coeff:      0.100D+01
 Gap=     0.351 Goal=   None    Shift=    0.000
 Gap=     0.276 Goal=   None    Shift=    0.000
 RMSDP=9.28D-06 MaxDP=4.80D-04 DE= 6.96D-06 OVMax= 1.15D-03

 Cycle  10  Pass 1  IDiag  1:
 RMSU=  6.69D-06    CP:  1.00D+00
 E= -269.977533936411     Delta-E=       -0.000001945478 Rises=F Damp=F
 DIIS: error= 5.12D-05 at cycle   2 NSaved=   2.
 NSaved= 2 IEnMin= 2 EnMin= -269.977533936411     IErMin= 1 ErrMin= 3.58D-05
 ErrMax= 5.12D-05  0.00D+00 EMaxC= 1.00D-01 BMatC= 1.51D-06 BMatP= 3.28D-06
 IDIUse=1 WtCom= 1.00D+00 WtEn= 0.00D+00
 Coeff-Com:  0.333D+00 0.667D+00
 Coeff:      0.333D+00 0.667D+00
 Gap=     0.351 Goal=   None    Shift=    0.000
 Gap=     0.276 Goal=   None    Shift=    0.000
 RMSDP=2.44D-06 MaxDP=1.18D-04 DE=-1.95D-06 OVMax= 8.57D-04

 Cycle  11  Pass 1  IDiag  1:
 RMSU=  2.29D-06    CP:  1.00D+00  1.12D+00
 E= -269.977534751869     Delta-E=       -0.000000815458 Rises=F Damp=F
 DIIS: error= 2.01D-05 at cycle   3 NSaved=   3.
 NSaved= 3 IEnMin= 3 EnMin= -269.977534751869     IErMin= 3 ErrMin= 2.01D-05
 ErrMax= 2.01D-05  0.00D+00 EMaxC= 1.00D-01 BMatC= 5.94D-07 BMatP= 1.51D-06
 IDIUse=1 WtCom= 1.00D+00 WtEn= 0.00D+00
 Coeff-Com: -0.223D+00 0.232D+00 0.991D+00
 Coeff:     -0.223D+00 0.232D+00 0.991D+00
 Gap=     0.351 Goal=   None    Shift=    0.000
 Gap=     0.276 Goal=   None    Shift=    0.000
 RMSDP=3.04D-06 MaxDP=1.72D-04 DE=-8.15D-07 OVMax= 8.73D-04

 Cycle  12  Pass 1  IDiag  1:
 RMSU=  1.70D-06    CP:  1.00D+00  1.45D+00  1.58D+00
 E= -269.977535430449     Delta-E=       -0.000000678580 Rises=F Damp=F
 DIIS: error= 1.73D-05 at cycle   4 NSaved=   4.
 NSaved= 4 IEnMin= 4 EnMin= -269.977535430449     IErMin= 4 ErrMin= 1.73D-05
 ErrMax= 1.73D-05  0.00D+00 EMaxC= 1.00D-01 BMatC= 1.44D-07 BMatP= 5.94D-07
 IDIUse=1 WtCom= 1.00D+00 WtEn= 0.00D+00
 Coeff-Com: -0.160D+00-0.898D-01 0.163D+00 0.109D+01
 Coeff:     -0.160D+00-0.898D-01 0.163D+00 0.109D+01
 Gap=     0.351 Goal=   None    Shift=    0.000
 Gap=     0.276 Goal=   None    Shift=    0.000
 RMSDP=2.36D-06 MaxDP=1.40D-04 DE=-6.79D-07 OVMax= 8.06D-04

 Cycle  13  Pass 1  IDiag  1:
 RMSU=  6.17D-07    CP:  1.00D+00  1.67D+00  2.19D+00  1.57D+00
 E= -269.977535707092     Delta-E=       -0.000000276643 Rises=F Damp=F
 DIIS: error= 6.66D-06 at cycle   5 NSaved=   5.
 NSaved= 5 IEnMin= 5 EnMin= -269.977535707092     IErMin= 5 ErrMin= 6.66D-06
 ErrMax= 6.66D-06  0.00D+00 EMaxC= 1.00D-01 BMatC= 7.84D-08 BMatP= 1.44D-07
 IDIUse=1 WtCom= 1.00D+00 WtEn= 0.00D+00
 Coeff-Com:  0.116D-01-0.153D+00-0.413D+00 0.651D+00 0.904D+00
 Coeff:      0.116D-01-0.153D+00-0.413D+00 0.651D+00 0.904D+00
 Gap=     0.351 Goal=   None    Shift=    0.000
 Gap=     0.276 Goal=   None    Shift=    0.000
 RMSDP=1.79D-06 MaxDP=1.04D-04 DE=-2.77D-07 OVMax= 5.49D-04

 Cycle  14  Pass 1  IDiag  1:
 RMSU=  2.16D-07    CP:  1.00D+00  1.84D+00  2.63D+00  2.13D+00  1.01D+00
 E= -269.977535789812     Delta-E=       -0.000000082720 Rises=F Damp=F
 DIIS: error= 2.69D-06 at cycle   6 NSaved=   6.
 NSaved= 6 IEnMin= 6 EnMin= -269.977535789812     IErMin= 6 ErrMin= 2.69D-06
 ErrMax= 2.69D-06  0.00D+00 EMaxC= 1.00D-01 BMatC= 9.96D-09 BMatP= 7.84D-08
 IDIUse=1 WtCom= 1.00D+00 WtEn= 0.00D+00
 Coeff-Com:  0.221D-01-0.731D-01-0.235D+00 0.246D+00 0.490D+00 0.549D+00
 Coeff:      0.221D-01-0.731D-01-0.235D+00 0.246D+00 0.490D+00 0.549D+00
 Gap=     0.351 Goal=   None    Shift=    0.000
 Gap=     0.276 Goal=   None    Shift=    0.000
 RMSDP=2.08D-07 MaxDP=1.19D-05 DE=-8.27D-08 OVMax= 5.63D-05

 Cycle  15  Pass 1  IDiag  1:
 RMSU=  9.42D-08    CP:  1.00D+00  1.85D+00  2.68D+00  2.18D+00  1.09D+00
                    CP:  9.44D-01
 E= -269.977535792837     Delta-E=       -0.000000003025 Rises=F Damp=F
 DIIS: error= 6.59D-07 at cycle   7 NSaved=   7.
 NSaved= 7 IEnMin= 7 EnMin= -269.977535792837     IErMin= 7 ErrMin= 6.59D-07
 ErrMax= 6.59D-07  0.00D+00 EMaxC= 1.00D-01 BMatC= 7.49D-10 BMatP= 9.96D-09
 IDIUse=1 WtCom= 1.00D+00 WtEn= 0.00D+00
 Coeff-Com: -0.534D-03 0.247D-01 0.718D-01-0.131D+00-0.126D+00 0.651D-01
 Coeff-Com:  0.110D+01
 Coeff:     -0.534D-03 0.247D-01 0.718D-01-0.131D+00-0.126D+00 0.651D-01
 Coeff:      0.110D+01
 Gap=     0.351 Goal=   None    Shift=    0.000
 Gap=     0.276 Goal=   None    Shift=    0.000
 RMSDP=1.02D-07 MaxDP=4.91D-06 DE=-3.03D-09 OVMax= 2.72D-05

 Cycle  16  Pass 1  IDiag  1:
 RMSU=  4.08D-08    CP:  1.00D+00  1.86D+00  2.70D+00  2.19D+00  1.15D+00
                    CP:  1.19D+00  1.32D+00
 E= -269.977535793422     Delta-E=       -0.000000000586 Rises=F Damp=F
 DIIS: error= 3.63D-07 at cycle   8 NSaved=   8.
 NSaved= 8 IEnMin= 8 EnMin= -269.977535793422     IErMin= 8 ErrMin= 3.63D-07
 ErrMax= 3.63D-07  0.00D+00 EMaxC= 1.00D-01 BMatC= 1.26D-10 BMatP= 7.49D-10
 IDIUse=1 WtCom= 1.00D+00 WtEn= 0.00D+00
 Coeff-Com: -0.358D-02 0.177D-01 0.585D-01-0.784D-01-0.111D+00-0.841D-01
 Coeff-Com:  0.268D+00 0.933D+00
 Coeff:     -0.358D-02 0.177D-01 0.585D-01-0.784D-01-0.111D+00-0.841D-01
 Coeff:      0.268D+00 0.933D+00
 Gap=     0.351 Goal=   None    Shift=    0.000
 Gap=     0.276 Goal=   None    Shift=    0.000
 RMSDP=4.44D-08 MaxDP=2.09D-06 DE=-5.86D-10 OVMax= 1.40D-05

 Cycle  17  Pass 1  IDiag  1:
 RMSU=  1.68D-08    CP:  1.00D+00  1.86D+00  2.71D+00  2.20D+00  1.17D+00
                    CP:  1.28D+00  1.55D+00  1.30D+00
 E= -269.977535793523     Delta-E=       -0.000000000100 Rises=F Damp=F
 DIIS: error= 1.62D-07 at cycle   9 NSaved=   9.
 NSaved= 9 IEnMin= 9 EnMin= -269.977535793523     IErMin= 9 ErrMin= 1.62D-07
 ErrMax= 1.62D-07  0.00D+00 EMaxC= 1.00D-01 BMatC= 2.24D-11 BMatP= 1.26D-10
 IDIUse=1 WtCom= 1.00D+00 WtEn= 0.00D+00
 Coeff-Com: -0.926D-03 0.124D-02 0.775D-02-0.541D-02-0.126D-01-0.349D-01
 Coeff-Com: -0.867D-01 0.287D+00 0.845D+00
 Coeff:     -0.926D-03 0.124D-02 0.775D-02-0.541D-02-0.126D-01-0.349D-01
 Coeff:     -0.867D-01 0.287D+00 0.845D+00
 Gap=     0.351 Goal=   None    Shift=    0.000
 Gap=     0.276 Goal=   None    Shift=    0.000
 RMSDP=1.50D-08 MaxDP=4.45D-07 DE=-1.00D-10 OVMax= 3.71D-06

 Cycle  18  Pass 1  IDiag  1:
 RMSU=  5.91D-09    CP:  1.00D+00  1.86D+00  2.71D+00  2.20D+00  1.17D+00
                    CP:  1.30D+00  1.62D+00  1.54D+00  1.09D+00
 E= -269.977535793529     Delta-E=       -0.000000000006 Rises=F Damp=F
 DIIS: error= 4.09D-08 at cycle  10 NSaved=  10.
 NSaved=10 IEnMin=10 EnMin= -269.977535793529     IErMin=10 ErrMin= 4.09D-08
 ErrMax= 4.09D-08  0.00D+00 EMaxC= 1.00D-01 BMatC= 2.55D-12 BMatP= 2.24D-11
 IDIUse=1 WtCom= 1.00D+00 WtEn= 0.00D+00
 Coeff-Com:  0.449D-03-0.304D-02-0.801D-02 0.118D-01 0.172D-01 0.915D-02
 Coeff-Com: -0.662D-01-0.966D-01 0.130D+00 0.101D+01
 Coeff:      0.449D-03-0.304D-02-0.801D-02 0.118D-01 0.172D-01 0.915D-02
 Coeff:     -0.662D-01-0.966D-01 0.130D+00 0.101D+01
 Gap=     0.351 Goal=   None    Shift=    0.000
 Gap=     0.276 Goal=   None    Shift=    0.000
 RMSDP=6.73D-09 MaxDP=1.84D-07 DE=-6.31D-12 OVMax= 1.65D-06

 SCF Done:  E(UM062X) =  -269.977535794     A.U. after   18 cycles
            NFock= 18  Conv=0.67D-08     -V/T= 2.0054
 <Sx>= 0.0000 <Sy>= 0.0000 <Sz>= 0.5000 <S**2>= 0.7599 S= 0.5050
 <L.S>= 0.000000000000E+00
 KE= 2.685208986078D+02 PE=-9.913511086901D+02 EE= 2.731972050016D+02
 Annihilation of the first spin contaminant:
 S**2 before annihilation     0.7599,   after     0.7500
 Leave Link  502 at Thu Sep  5 18:57:55 2019, MaxMem=   671088640 cpu:            2331.5 elap:            1166.0
 (Enter /shared/centos7/gaussian/g16/l801.exe)
 DoSCS=F DFT=T ScalE2(SS,OS)=  1.000000  1.000000
 Range of M.O.s used for correlation:     1   276
 NBasis=   276 NAE=    22 NBE=    21 NFC=     0 NFV=     0
 NROrb=    276 NOA=    22 NOB=    21 NVA=   254 NVB=   255

 **** Warning!!: The largest alpha MO coefficient is  0.12091769D+02


 **** Warning!!: The largest beta MO coefficient is  0.12092094D+02

 Leave Link  801 at Thu Sep  5 18:57:55 2019, MaxMem=   671088640 cpu:               1.4 elap:               0.7
 (Enter /shared/centos7/gaussian/g16/l1101.exe)
 Using compressed storage, NAtomX=    14.
 Will process     15 centers per pass.
 Leave Link 1101 at Thu Sep  5 18:58:22 2019, MaxMem=   671088640 cpu:              53.4 elap:              26.7
 (Enter /shared/centos7/gaussian/g16/l1102.exe)
 Symmetrizing basis deriv contribution to polar:
 IMax=3 JMax=2 DiffMx= 0.00D+00
 Leave Link 1102 at Thu Sep  5 18:58:25 2019, MaxMem=   671088640 cpu:               5.5 elap:               2.8
 (Enter /shared/centos7/gaussian/g16/l1110.exe)
 Forming Gx(P) for the SCF density, NAtomX=    14.
 Integral derivatives from FoFJK, PRISM(SPDF).
 Do as many integral derivatives as possible in FoFJK.
 G2DrvN: MDV=     671087496.
 G2DrvN: will do    15 centers at a time, making    1 passes.
 Calling FoFCou, ICntrl=  3107 FMM=F I1Cent=   0 AccDes= 0.00D+00.
 FoFJK:  IHMeth= 1 ICntrl=    3107 DoSepK=F KAlg= 0 I1Cent=           0 FoldK=F
 IRaf=         0 NMat=       1 IRICut=       1 DoRegI=T DoRafI=F ISym2E= 0 IDoP0=0 IntGTp=1.
 FoFCou: FMM=F IPFlag=           0 FMFlag=      100000 FMFlg1=           0
         NFxFlg=           0 DoJE=F BraDBF=F KetDBF=F FulRan=T
         wScrn=  0.000000 ICntrl=      3107 IOpCl=  1 I1Cent=           0 NGrid=           0
         NMat0=    1 NMatS0=      1 NMatT0=    0 NMatD0=    1 NMtDS0=    0 NMtDT0=    0
 Symmetry not used in FoFCou.
 End of G2Drv F.D. properties file   721 does not exist.
 End of G2Drv F.D. properties file   722 does not exist.
 End of G2Drv F.D. properties file   788 does not exist.
 Leave Link 1110 at Thu Sep  5 19:20:10 2019, MaxMem=   671088640 cpu:            2610.0 elap:            1305.2
 (Enter /shared/centos7/gaussian/g16/l1002.exe)
 Minotr:  UHF open shell wavefunction.
          IDoAtm=11111111111111
          Direct CPHF calculation.
          Differentiating once with respect to nuclear coordinates.
          Requested convergence is 1.0D-08 RMS, and 1.0D-07 maximum.
          Secondary convergence is 1.0D-12 RMS, and 1.0D-12 maximum.
          NewPWx=T KeepS1=F KeepF1=F KeepIn=T MapXYZ=F SortEE=F KeepMc=T.
         4201 words used for storage of precomputed grid.
 Two-electron integrals replicated using symmetry.
          MDV=     671088640 using IRadAn=       1.
          Solving linear equations simultaneously, MaxMat=     380.
 FoF2E skips out because all densities are zero.
 CalDSu exits because no D1Ps are significant.
 FoFJK:  IHMeth= 1 ICntrl=       0 DoSepK=F KAlg= 0 I1Cent=           0 FoldK=F
 IRaf= 930000000 NMat=      42 IRICut=     105 DoRegI=T DoRafI=T ISym2E= 2 IDoP0=3 IntGTp=3.
 FoFCou: FMM=F IPFlag=           0 FMFlag=      100000 FMFlg1=           0
         NFxFlg=           0 DoJE=F BraDBF=F KetDBF=F FulRan=T
         wScrn=  0.000000 ICntrl=         0 IOpCl=  1 I1Cent=           0 NGrid=           0
         NMat0=   42 NMatS0=     42 NMatT0=    0 NMatD0=   42 NMtDS0=    0 NMtDT0=    0
 Integrals replicated using symmetry in FoFCou.
 Raff kept on since  90.07% of shell-pairs survive, threshold=   0.20 IRatSp=90.
          There are    45 degrees of freedom in the 1st order CPHF.  IDoFFX=6 NUNeed=     0.
     39 vectors produced by pass  0 Test12= 2.43D-14 2.22D-09 XBig12= 1.38D-01 1.40D-01.
 AX will form    39 AO Fock derivatives at one time.
     39 vectors produced by pass  1 Test12= 2.43D-14 2.22D-09 XBig12= 1.86D-02 2.95D-02.
     39 vectors produced by pass  2 Test12= 2.43D-14 2.22D-09 XBig12= 1.15D-03 6.45D-03.
     39 vectors produced by pass  3 Test12= 2.43D-14 2.22D-09 XBig12= 2.79D-05 7.74D-04.
     39 vectors produced by pass  4 Test12= 2.43D-14 2.22D-09 XBig12= 4.05D-07 8.36D-05.
     39 vectors produced by pass  5 Test12= 2.43D-14 2.22D-09 XBig12= 5.64D-09 1.34D-05.
     36 vectors produced by pass  6 Test12= 2.43D-14 2.22D-09 XBig12= 4.98D-11 9.87D-07.
     18 vectors produced by pass  7 Test12= 2.43D-14 2.22D-09 XBig12= 3.98D-13 5.78D-08.
      3 vectors produced by pass  8 Test12= 2.43D-14 2.22D-09 XBig12= 2.43D-15 4.05D-09.
 InvSVY:  IOpt=1 It=  1 EMax= 1.78D-15
 Solved reduced A of dimension   291 with    39 vectors.
 End of Minotr F.D. properties file   721 does not exist.
 End of Minotr F.D. properties file   722 does not exist.
 End of Minotr F.D. properties file   788 does not exist.
 Leave Link 1002 at Thu Sep  5 19:58:05 2019, MaxMem=   671088640 cpu:            4548.5 elap:            2274.5
 (Enter /shared/centos7/gaussian/g16/l601.exe)
 Copying SCF densities to generalized density rwf, IOpCl= 1 IROHF=0.

 **********************************************************************

            Population analysis using the SCF density.

 **********************************************************************

 Orbital symmetries:
 Alpha Orbitals:
       Occupied  (A) (A) (A) (A) (A) (A) (A) (A) (A) (A) (A) (A)
                 (A) (A) (A) (A) (A) (A) (A) (A) (A) (A)
       Virtual   (A) (A) (A) (A) (A) (A) (A) (A) (A) (A) (A) (A)
                 (A) (A) (A) (A) (A) (A) (A) (A) (A) (A) (A) (A)
                 (A) (A) (A) (A) (A) (A) (A) (A) (A) (A) (A) (A)
                 (A) (A) (A) (A) (A) (A) (A) (A) (A) (A) (A) (A)
                 (A) (A) (A) (A) (A) (A) (A) (A) (A) (A) (A) (A)
                 (A) (A) (A) (A) (A) (A) (A) (A) (A) (A) (A) (A)
                 (A) (A) (A) (A) (A) (A) (A) (A) (A) (A) (A) (A)
                 (A) (A) (A) (A) (A) (A) (A) (A) (A) (A) (A) (A)
                 (A) (A) (A) (A) (A) (A) (A) (A) (A) (A) (A) (A)
                 (A) (A) (A) (A) (A) (A) (A) (A) (A) (A) (A) (A)
                 (A) (A) (A) (A) (A) (A) (A) (A) (A) (A) (A) (A)
                 (A) (A) (A) (A) (A) (A) (A) (A) (A) (A) (A) (A)
                 (A) (A) (A) (A) (A) (A) (A) (A) (A) (A) (A) (A)
                 (A) (A) (A) (A) (A) (A) (A) (A) (A) (A) (A) (A)
                 (A) (A) (A) (A) (A) (A) (A) (A) (A) (A) (A) (A)
                 (A) (A) (A) (A) (A) (A) (A) (A) (A) (A) (A) (A)
                 (A) (A) (A) (A) (A) (A) (A) (A) (A) (A) (A) (A)
                 (A) (A) (A) (A) (A) (A) (A) (A) (A) (A) (A) (A)
                 (A) (A) (A) (A) (A) (A) (A) (A) (A) (A) (A) (A)
                 (A) (A) (A) (A) (A) (A) (A) (A) (A) (A) (A) (A)
                 (A) (A) (A) (A) (A) (A) (A) (A) (A) (A) (A) (A)
                 (A) (A)
 Beta  Orbitals:
       Occupied  (A) (A) (A) (A) (A) (A) (A) (A) (A) (A) (A) (A)
                 (A) (A) (A) (A) (A) (A) (A) (A) (A)
       Virtual   (A) (A) (A) (A) (A) (A) (A) (A) (A) (A) (A) (A)
                 (A) (A) (A) (A) (A) (A) (A) (A) (A) (A) (A) (A)
                 (A) (A) (A) (A) (A) (A) (A) (A) (A) (A) (A) (A)
                 (A) (A) (A) (A) (A) (A) (A) (A) (A) (A) (A) (A)
                 (A) (A) (A) (A) (A) (A) (A) (A) (A) (A) (A) (A)
                 (A) (A) (A) (A) (A) (A) (A) (A) (A) (A) (A) (A)
                 (A) (A) (A) (A) (A) (A) (A) (A) (A) (A) (A) (A)
                 (A) (A) (A) (A) (A) (A) (A) (A) (A) (A) (A) (A)
                 (A) (A) (A) (A) (A) (A) (A) (A) (A) (A) (A) (A)
                 (A) (A) (A) (A) (A) (A) (A) (A) (A) (A) (A) (A)
                 (A) (A) (A) (A) (A) (A) (A) (A) (A) (A) (A) (A)
                 (A) (A) (A) (A) (A) (A) (A) (A) (A) (A) (A) (A)
                 (A) (A) (A) (A) (A) (A) (A) (A) (A) (A) (A) (A)
                 (A) (A) (A) (A) (A) (A) (A) (A) (A) (A) (A) (A)
                 (A) (A) (A) (A) (A) (A) (A) (A) (A) (A) (A) (A)
                 (A) (A) (A) (A) (A) (A) (A) (A) (A) (A) (A) (A)
                 (A) (A) (A) (A) (A) (A) (A) (A) (A) (A) (A) (A)
                 (A) (A) (A) (A) (A) (A) (A) (A) (A) (A) (A) (A)
                 (A) (A) (A) (A) (A) (A) (A) (A) (A) (A) (A) (A)
                 (A) (A) (A) (A) (A) (A) (A) (A) (A) (A) (A) (A)
                 (A) (A) (A) (A) (A) (A) (A) (A) (A) (A) (A) (A)
                 (A) (A) (A)
 The electronic state is 2-A.
 Alpha  occ. eigenvalues --  -19.68441 -19.68319 -10.55345 -10.54502 -10.53468
 Alpha  occ. eigenvalues --   -1.26501  -0.98941  -0.89825  -0.78608  -0.68543
 Alpha  occ. eigenvalues --   -0.61453  -0.58533  -0.55025  -0.52071  -0.50029
 Alpha  occ. eigenvalues --   -0.46837  -0.46435  -0.42016  -0.40575  -0.39428
 Alpha  occ. eigenvalues --   -0.37250  -0.28922
 Alpha virt. eigenvalues --    0.06188   0.06980   0.10584   0.11089   0.11551
 Alpha virt. eigenvalues --    0.14030   0.15127   0.16249   0.17331   0.18423
 Alpha virt. eigenvalues --    0.21925   0.25321   0.28376   0.28663   0.32123
 Alpha virt. eigenvalues --    0.32350   0.34545   0.39032   0.40822   0.43123
 Alpha virt. eigenvalues --    0.45252   0.45904   0.47408   0.48333   0.49856
 Alpha virt. eigenvalues --    0.50221   0.50826   0.52434   0.53020   0.53581
 Alpha virt. eigenvalues --    0.56237   0.58948   0.59825   0.60509   0.65128
 Alpha virt. eigenvalues --    0.69772   0.71709   0.72195   0.73266   0.74263
 Alpha virt. eigenvalues --    0.76521   0.77260   0.81754   0.82546   0.84567
 Alpha virt. eigenvalues --    0.89928   0.91484   0.92995   0.95869   0.99447
 Alpha virt. eigenvalues --    1.02102   1.04643   1.06328   1.06626   1.07884
 Alpha virt. eigenvalues --    1.10950   1.12009   1.13594   1.15288   1.18086
 Alpha virt. eigenvalues --    1.18722   1.20361   1.21459   1.23063   1.26898
 Alpha virt. eigenvalues --    1.29168   1.30002   1.31547   1.33073   1.36437
 Alpha virt. eigenvalues --    1.37510   1.40644   1.41517   1.42806   1.44480
 Alpha virt. eigenvalues --    1.49437   1.51945   1.54492   1.56156   1.57827
 Alpha virt. eigenvalues --    1.58917   1.63772   1.65198   1.67026   1.69537
 Alpha virt. eigenvalues --    1.81130   1.91817   1.94118   1.96984   2.09949
 Alpha virt. eigenvalues --    2.15985   2.19609   2.24281   2.27461   2.28488
 Alpha virt. eigenvalues --    2.29457   2.34332   2.37790   2.42014   2.44491
 Alpha virt. eigenvalues --    2.48449   2.50097   2.50912   2.54414   2.55084
 Alpha virt. eigenvalues --    2.60044   2.62955   2.67986   2.70377   2.72986
 Alpha virt. eigenvalues --    2.77795   2.79623   2.81882   2.82742   2.85052
 Alpha virt. eigenvalues --    2.85433   2.88886   2.91111   2.97675   2.98226
 Alpha virt. eigenvalues --    3.03337   3.04128   3.05552   3.06719   3.07279
 Alpha virt. eigenvalues --    3.08559   3.11026   3.12361   3.14519   3.16791
 Alpha virt. eigenvalues --    3.18792   3.21620   3.24877   3.25466   3.26830
 Alpha virt. eigenvalues --    3.29646   3.32468   3.34794   3.35517   3.36645
 Alpha virt. eigenvalues --    3.40045   3.41430   3.44203   3.46104   3.47843
 Alpha virt. eigenvalues --    3.48710   3.50024   3.53169   3.54877   3.59673
 Alpha virt. eigenvalues --    3.66229   3.68732   3.69227   3.70189   3.71361
 Alpha virt. eigenvalues --    3.73297   3.74692   3.75243   3.76664   3.78561
 Alpha virt. eigenvalues --    3.79777   3.81139   3.84418   3.85221   3.88179
 Alpha virt. eigenvalues --    3.88813   3.89465   3.91358   3.93550   3.96747
 Alpha virt. eigenvalues --    4.00140   4.00360   4.04303   4.04793   4.05785
 Alpha virt. eigenvalues --    4.06766   4.09589   4.12245   4.12588   4.14495
 Alpha virt. eigenvalues --    4.19179   4.20103   4.22391   4.24008   4.25550
 Alpha virt. eigenvalues --    4.25969   4.33742   4.34542   4.38157   4.44664
 Alpha virt. eigenvalues --    4.45984   4.47853   4.51252   4.60500   4.60962
 Alpha virt. eigenvalues --    4.71374   4.72884   4.76736   4.79456   4.80083
 Alpha virt. eigenvalues --    4.82966   4.84583   4.86164   4.87021   4.92062
 Alpha virt. eigenvalues --    4.94893   4.97282   4.99503   5.02501   5.08318
 Alpha virt. eigenvalues --    5.11083   5.15170   5.17004   5.19439   5.24915
 Alpha virt. eigenvalues --    5.27622   5.29485   5.30605   5.32755   5.37632
 Alpha virt. eigenvalues --    5.40554   5.42460   5.45055   5.46053   5.52046
 Alpha virt. eigenvalues --    5.57000   5.74609   5.78145   5.80173   5.81853
 Alpha virt. eigenvalues --    5.87339   5.94676   6.12219   6.19594   6.30330
 Alpha virt. eigenvalues --    6.35741   6.37364   6.46833   6.53397   6.58745
 Alpha virt. eigenvalues --    6.62996   6.68622   6.72115   6.83105   6.87140
 Alpha virt. eigenvalues --    7.13259   7.20734   7.43015   7.58904   9.91617
 Alpha virt. eigenvalues --   11.16921  12.19171  12.87455  13.40215
  Beta  occ. eigenvalues --  -19.68316 -19.67375 -10.54808 -10.54518 -10.53393
  Beta  occ. eigenvalues --   -1.24901  -0.96604  -0.88945  -0.77109  -0.67737
  Beta  occ. eigenvalues --   -0.60137  -0.55389  -0.54471  -0.50609  -0.48815
  Beta  occ. eigenvalues --   -0.46156  -0.44909  -0.41489  -0.40346  -0.37057
  Beta  occ. eigenvalues --   -0.34672
  Beta virt. eigenvalues --   -0.07079   0.06324   0.07073   0.10705   0.11083
  Beta virt. eigenvalues --    0.11645   0.14306   0.15154   0.16627   0.17644
  Beta virt. eigenvalues --    0.18913   0.22250   0.25579   0.28398   0.28673
  Beta virt. eigenvalues --    0.32413   0.32797   0.35321   0.39369   0.41165
  Beta virt. eigenvalues --    0.43760   0.45480   0.46159   0.48521   0.48656
  Beta virt. eigenvalues --    0.50358   0.50822   0.51508   0.52782   0.53600
  Beta virt. eigenvalues --    0.54012   0.56909   0.59138   0.60164   0.61149
  Beta virt. eigenvalues --    0.65440   0.69987   0.72060   0.72350   0.73399
  Beta virt. eigenvalues --    0.74679   0.76754   0.77320   0.81831   0.83071
  Beta virt. eigenvalues --    0.84809   0.90091   0.91998   0.93050   0.95910
  Beta virt. eigenvalues --    0.99567   1.02368   1.04999   1.06668   1.06895
  Beta virt. eigenvalues --    1.08023   1.11172   1.12159   1.13916   1.15776
  Beta virt. eigenvalues --    1.18216   1.18732   1.20430   1.21614   1.23151
  Beta virt. eigenvalues --    1.27158   1.29562   1.30361   1.31838   1.33339
  Beta virt. eigenvalues --    1.37101   1.38318   1.41062   1.41600   1.43028
  Beta virt. eigenvalues --    1.44952   1.49711   1.52183   1.54738   1.56571
  Beta virt. eigenvalues --    1.58331   1.59955   1.64259   1.65665   1.67571
  Beta virt. eigenvalues --    1.70410   1.81826   1.92174   1.95412   1.97169
  Beta virt. eigenvalues --    2.11055   2.16204   2.20225   2.24562   2.28089
  Beta virt. eigenvalues --    2.29068   2.29878   2.34589   2.38708   2.42419
  Beta virt. eigenvalues --    2.45037   2.48692   2.50359   2.51745   2.55170
  Beta virt. eigenvalues --    2.55720   2.60749   2.63460   2.69048   2.71448
  Beta virt. eigenvalues --    2.72933   2.78662   2.81204   2.83098   2.84066
  Beta virt. eigenvalues --    2.85596   2.86098   2.90194   2.91569   2.98597
  Beta virt. eigenvalues --    3.00450   3.04617   3.05548   3.06921   3.08037
  Beta virt. eigenvalues --    3.08125   3.09397   3.12334   3.13858   3.15277
  Beta virt. eigenvalues --    3.16876   3.19009   3.22131   3.25148   3.25752
  Beta virt. eigenvalues --    3.27413   3.29919   3.34168   3.36066   3.36784
  Beta virt. eigenvalues --    3.37168   3.40585   3.41939   3.44613   3.46460
  Beta virt. eigenvalues --    3.48318   3.49074   3.50428   3.53822   3.55529
  Beta virt. eigenvalues --    3.59986   3.66599   3.69185   3.69683   3.70676
  Beta virt. eigenvalues --    3.71937   3.73695   3.74968   3.75643   3.76895
  Beta virt. eigenvalues --    3.78924   3.80439   3.81955   3.85079   3.86174
  Beta virt. eigenvalues --    3.88763   3.89032   3.90071   3.91488   3.93670
  Beta virt. eigenvalues --    3.97210   4.00188   4.00898   4.04763   4.05222
  Beta virt. eigenvalues --    4.05870   4.06964   4.10307   4.12493   4.13095
  Beta virt. eigenvalues --    4.14859   4.19518   4.21088   4.22774   4.24110
  Beta virt. eigenvalues --    4.26044   4.26656   4.34535   4.34924   4.39184
  Beta virt. eigenvalues --    4.45528   4.46870   4.48552   4.51991   4.61233
  Beta virt. eigenvalues --    4.61709   4.71727   4.73820   4.77938   4.79917
  Beta virt. eigenvalues --    4.80649   4.83373   4.84795   4.86490   4.87328
  Beta virt. eigenvalues --    4.93697   4.96355   4.97863   5.00365   5.03661
  Beta virt. eigenvalues --    5.09863   5.12171   5.15763   5.18024   5.19983
  Beta virt. eigenvalues --    5.26130   5.28333   5.29872   5.31078   5.33054
  Beta virt. eigenvalues --    5.39758   5.41624   5.43290   5.46721   5.47433
  Beta virt. eigenvalues --    5.53578   5.58337   5.77362   5.79093   5.80436
  Beta virt. eigenvalues --    5.84101   5.87292   5.95150   6.12568   6.22011
  Beta virt. eigenvalues --    6.31167   6.36165   6.37353   6.47455   6.54133
  Beta virt. eigenvalues --    6.60558   6.65126   6.69164   6.73748   6.83378
  Beta virt. eigenvalues --    6.88544   7.13439   7.21443   7.43341   7.59106
  Beta virt. eigenvalues --    9.92455  11.17089  12.20123  12.88200  13.40223
          Condensed to atoms (all electrons):
               1          2          3          4          5          6
     1  O    7.897984   0.053920  -0.000492   0.001222  -0.000028  -0.000147
     2  O    0.053920   8.087242   0.004786  -0.083278   0.000078   0.000340
     3  C   -0.000492   0.004786   5.004872   0.292845   0.291940   0.412623
     4  C    0.001222  -0.083278   0.292845   5.299978  -0.053772  -0.042589
     5  C   -0.000028   0.000078   0.291940  -0.053772   4.978822  -0.039864
     6  H   -0.000147   0.000340   0.412623  -0.042589  -0.039864   0.584744
     7  H    0.001234  -0.000060   0.408348  -0.041192  -0.038809  -0.039177
     8  H   -0.030635   0.198410  -0.017341   0.227208   0.002367  -0.002017
     9  H    0.011023  -0.006942  -0.035170   0.380693  -0.004548   0.006456
    10  H    0.000892   0.000597  -0.035030   0.387225  -0.003953  -0.005649
    11  H    0.000001   0.000000  -0.040737  -0.002906   0.403575  -0.006235
    12  H    0.000001   0.000008  -0.032855   0.007816   0.398952  -0.004408
    13  H   -0.000038   0.000017  -0.038975  -0.002898   0.402429   0.007607
    14  H    0.313395  -0.030721   0.000119  -0.004860  -0.000015   0.000012
               7          8          9         10         11         12
     1  O    0.001234  -0.030635   0.011023   0.000892   0.000001   0.000001
     2  O   -0.000060   0.198410  -0.006942   0.000597   0.000000   0.000008
     3  C    0.408348  -0.017341  -0.035170  -0.035030  -0.040737  -0.032855
     4  C   -0.041192   0.227208   0.380693   0.387225  -0.002906   0.007816
     5  C   -0.038809   0.002367  -0.004548  -0.003953   0.403575   0.398952
     6  H   -0.039177  -0.002017   0.006456  -0.005649  -0.006235  -0.004408
     7  H    0.582965  -0.002653  -0.004889   0.006939   0.007471  -0.004498
     8  H   -0.002653   0.393710  -0.012046  -0.008533  -0.000048  -0.000157
     9  H   -0.004889  -0.012046   0.566115  -0.034804  -0.000034  -0.000044
    10  H    0.006939  -0.008533  -0.034804   0.551352   0.002437  -0.000029
    11  H    0.007471  -0.000048  -0.000034   0.002437   0.595415  -0.031797
    12  H   -0.004498  -0.000157  -0.000044  -0.000029  -0.031797   0.580274
    13  H   -0.006419  -0.000010   0.002026  -0.000310  -0.040358  -0.031123
    14  H   -0.000038   0.002275   0.001759  -0.000328   0.000002  -0.000000
              13         14
     1  O   -0.000038   0.313395
     2  O    0.000017  -0.030721
     3  C   -0.038975   0.000119
     4  C   -0.002898  -0.004860
     5  C    0.402429  -0.000015
     6  H    0.007607   0.000012
     7  H   -0.006419  -0.000038
     8  H   -0.000010   0.002275
     9  H    0.002026   0.001759
    10  H   -0.000310  -0.000328
    11  H   -0.040358   0.000002
    12  H   -0.031123  -0.000000
    13  H    0.594192   0.000001
    14  H    0.000001   0.451149
          Atomic-Atomic Spin Densities.
               1          2          3          4          5          6
     1  O    0.057658  -0.041693  -0.001052   0.016266   0.000061  -0.000051
     2  O   -0.041693   0.552992   0.005992  -0.110703  -0.000426   0.000709
     3  C   -0.001052   0.005992  -0.024133  -0.037395   0.012931   0.005718
     4  C    0.016266  -0.110703  -0.037395   0.769280  -0.019884  -0.006458
     5  C    0.000061  -0.000426   0.012931  -0.019884   0.059223  -0.004959
     6  H   -0.000051   0.000709   0.005718  -0.006458  -0.004959   0.007706
     7  H   -0.000101   0.000346   0.004470  -0.004598  -0.002565   0.001202
     8  H    0.008660  -0.036529  -0.002764   0.058871   0.000426  -0.001069
     9  H   -0.001434   0.002277   0.001815  -0.001259   0.000020  -0.000108
    10  H   -0.000346   0.002760   0.003177  -0.004629  -0.000782   0.001007
    11  H   -0.000001   0.000009   0.000934  -0.000088  -0.000566   0.000104
    12  H   -0.000002   0.000017  -0.003002   0.002469  -0.006751   0.001193
    13  H   -0.000007   0.000022   0.000814   0.000762  -0.001607   0.000065
    14  H    0.000574  -0.001171   0.000008   0.000183   0.000005  -0.000001
               7          8          9         10         11         12
     1  O   -0.000101   0.008660  -0.001434  -0.000346  -0.000001  -0.000002
     2  O    0.000346  -0.036529   0.002277   0.002760   0.000009   0.000017
     3  C    0.004470  -0.002764   0.001815   0.003177   0.000934  -0.003002
     4  C   -0.004598   0.058871  -0.001259  -0.004629  -0.000088   0.002469
     5  C   -0.002565   0.000426   0.000020  -0.000782  -0.000566  -0.006751
     6  H    0.001202  -0.001069  -0.000108   0.001007   0.000104   0.001193
     7  H    0.003545  -0.000131   0.000463  -0.000224  -0.000033   0.000581
     8  H   -0.000131  -0.053750   0.003335   0.001257  -0.000027  -0.000057
     9  H    0.000463   0.003335  -0.043814   0.002855   0.000002   0.000091
    10  H   -0.000224   0.001257   0.002855  -0.041193  -0.000226   0.000155
    11  H   -0.000033  -0.000027   0.000002  -0.000226  -0.002857   0.000276
    12  H    0.000581  -0.000057   0.000091   0.000155   0.000276   0.016798
    13  H    0.000138  -0.000079  -0.000094   0.000096   0.000576   0.000725
    14  H   -0.000002   0.000121  -0.000273  -0.000018  -0.000000  -0.000000
              13         14
     1  O   -0.000007   0.000574
     2  O    0.000022  -0.001171
     3  C    0.000814   0.000008
     4  C    0.000762   0.000183
     5  C   -0.001607   0.000005
     6  H    0.000065  -0.000001
     7  H    0.000138  -0.000002
     8  H   -0.000079   0.000121
     9  H   -0.000094  -0.000273
    10  H    0.000096  -0.000018
    11  H    0.000576  -0.000000
    12  H    0.000725  -0.000000
    13  H   -0.002796  -0.000000
    14  H   -0.000000  -0.001404
 Mulliken charges and spin densities:
               1          2
     1  O   -0.248332   0.038531
     2  O   -0.224399   0.374601
     3  C   -0.214933  -0.032487
     4  C   -0.365493   0.662817
     5  C   -0.337175   0.035126
     6  H    0.128305   0.005057
     7  H    0.130777   0.003092
     8  H    0.249469  -0.021736
     9  H    0.130405  -0.036124
    10  H    0.139192  -0.036110
    11  H    0.113215  -0.001897
    12  H    0.117861   0.012493
    13  H    0.113859  -0.001385
    14  H    0.267250  -0.001978
 Sum of Mulliken charges =  -0.00000   1.00000
 Mulliken charges and spin densities with hydrogens summed into heavy atoms:
               1          2
     1  O    0.018918   0.036553
     2  O    0.025070   0.352865
     3  C    0.044148  -0.024338
     4  C   -0.095895   0.590583
     5  C    0.007759   0.044336
 APT charges:
               1
     1  O   -0.549460
     2  O   -0.102128
     3  C   -0.536364
     4  C   -0.655666
     5  C   -1.246568
     6  H    0.352064
     7  H    0.289528
     8  H    0.150360
     9  H    0.259121
    10  H    0.346581
    11  H    0.349308
    12  H    0.520780
    13  H    0.292148
    14  H    0.530296
 Sum of APT charges =  -0.00000
 APT charges with hydrogens summed into heavy atoms:
               1
     1  O   -0.019164
     2  O    0.048232
     3  C    0.105229
     4  C   -0.049965
     5  C   -0.084333
 Electronic spatial extent (au):  <R**2>=            804.6726
 Charge=             -0.0000 electrons
 Dipole moment (field-independent basis, Debye):
    X=             -1.6983    Y=              1.0165    Z=              1.3513  Tot=              2.3966
 Quadrupole moment (field-independent basis, Debye-Ang):
   XX=            -34.4612   YY=            -32.1010   ZZ=            -32.3300
   XY=              3.8106   XZ=              4.2918   YZ=              1.3626
 Traceless Quadrupole moment (field-independent basis, Debye-Ang):
   XX=             -1.4971   YY=              0.8630   ZZ=              0.6341
   XY=              3.8106   XZ=              4.2918   YZ=              1.3626
 Octapole moment (field-independent basis, Debye-Ang**2):
  XXX=             16.6223  YYY=              2.3398  ZZZ=              0.0339  XYY=              7.3365
  XXY=              8.9141  XXZ=              9.5882  XZZ=              6.8289  YZZ=              0.3269
  YYZ=              1.7371  XYZ=              4.7419
 Hexadecapole moment (field-independent basis, Debye-Ang**3):
 XXXX=           -841.8110 YYYY=            -84.8836 ZZZZ=            -79.7065 XXXY=             31.9108
 XXXZ=             37.2215 YYYX=              8.9498 YYYZ=              1.9680 ZZZX=              1.8615
 ZZZY=             -2.0041 XXYY=           -151.0551 XXZZ=           -149.6523 YYZZ=            -27.5727
 XXYZ=             10.9625 YYXZ=              3.7102 ZZXY=              4.5974
 N-N= 1.796554692871D+02 E-N=-9.913511129159D+02  KE= 2.685208986078D+02
  Exact polarizability:   0.000   0.000   0.000   0.000   0.000   0.000
 Approx polarizability:  78.918   1.601  58.160  -2.102  -0.180  53.039
                          Isotropic Fermi Contact Couplings
        Atom                 a.u.       MegaHertz       Gauss      10(-4) cm-1
     1  O(17)              0.00066      -0.39900      -0.14237      -0.13309
     2  O(17)              0.11441     -69.35605     -24.74796     -23.13469
     3  C(13)             -0.00860      -9.67266      -3.45144      -3.22645
     4  C(13)              0.18221     204.84441      73.09358      68.32874
     5  C(13)              0.05022      56.45993      20.14631      18.83301
     6  H(1)               0.00324      14.48342       5.16804       4.83115
     7  H(1)               0.00237      10.57615       3.77383       3.52782
     8  H(1)              -0.03011    -134.59153     -48.02560     -44.89490
     9  H(1)              -0.00784     -35.04154     -12.50369     -11.68860
    10  H(1)              -0.00782     -34.96289     -12.47563     -11.66237
    11  H(1)              -0.00048      -2.14848      -0.76663      -0.71666
    12  H(1)               0.00396      17.72069       6.32318       5.91098
    13  H(1)              -0.00050      -2.23107      -0.79610      -0.74421
    14  H(1)              -0.00100      -4.46929      -1.59476      -1.49080
 --------------------------------------------------------
       Center         ----  Spin Dipole Couplings  ----
                      3XX-RR        3YY-RR        3ZZ-RR
 --------------------------------------------------------
     1   Atom        0.320075     -0.196317     -0.123758
     2   Atom        1.566909     -0.621299     -0.945610
     3   Atom        0.031029     -0.017730     -0.013299
     4   Atom        0.349138     -0.185796     -0.163342
     5   Atom        0.052826     -0.024241     -0.028585
     6   Atom        0.002970     -0.000925     -0.002045
     7   Atom       -0.001152     -0.007192      0.008343
     8   Atom        0.196775     -0.099533     -0.097242
     9   Atom       -0.006496      0.042629     -0.036133
    10   Atom       -0.018050     -0.009920      0.027971
    11   Atom        0.006809     -0.006196     -0.000614
    12   Atom        0.004820     -0.004688     -0.000132
    13   Atom        0.002778      0.003372     -0.006151
    14   Atom       -0.000034      0.002247     -0.002212
 --------------------------------------------------------
                        XY            XZ            YZ
 --------------------------------------------------------
     1   Atom       -0.062136     -0.057529      0.035292
     2   Atom       -0.880604     -0.141213      0.036577
     3   Atom       -0.007084      0.011385      0.000311
     4   Atom       -0.346665     -0.374823      0.181273
     5   Atom       -0.023115     -0.012536      0.003619
     6   Atom        0.007829      0.007112      0.007006
     7   Atom       -0.003048      0.008617     -0.004095
     8   Atom       -0.056835     -0.036432      0.017159
     9   Atom        0.015187     -0.010815      0.020650
    10   Atom       -0.010053     -0.018798     -0.037069
    11   Atom        0.001892     -0.005115     -0.002376
    12   Atom       -0.000226      0.004592      0.001134
    13   Atom       -0.006682      0.000345      0.002195
    14   Atom        0.010149      0.004221      0.011578
 --------------------------------------------------------


 ---------------------------------------------------------------------------------
              Anisotropic Spin Dipole Couplings in Principal Axis System
 ---------------------------------------------------------------------------------

       Atom             a.u.   MegaHertz   Gauss  10(-4) cm-1        Axes

              Baa    -0.2134    15.438     5.509     5.150  0.0750  0.9433 -0.3234
     1 O(17)  Bbb    -0.1223     8.849     3.158     2.952  0.1651  0.3081  0.9369
              Bcc     0.3356   -24.287    -8.666    -8.101  0.9834 -0.1237 -0.1326
 
              Baa    -0.9588    69.376    24.755    23.141  0.1824  0.3775  0.9079
     2 O(17)  Bbb    -0.9260    67.002    23.908    22.350  0.2818  0.8645 -0.4161
              Bcc     1.8847  -136.378   -48.663   -45.491  0.9420 -0.3318 -0.0513
 
              Baa    -0.0197    -2.639    -0.942    -0.880  0.2198  0.8730 -0.4355
     3 C(13)  Bbb    -0.0150    -2.013    -0.718    -0.671 -0.1430  0.4704  0.8708
              Bcc     0.0347     4.652     1.660     1.552  0.9650 -0.1291  0.2282
 
              Baa    -0.3614   -48.502   -17.307   -16.179  0.5318  0.2003  0.8228
     4 C(13)  Bbb    -0.3551   -47.650   -17.003   -15.894  0.2416  0.8953 -0.3741
              Bcc     0.7165    96.152    34.310    32.073  0.8117 -0.3978 -0.4277
 
              Baa    -0.0307    -4.123    -1.471    -1.375  0.1614  0.8527 -0.4969
     5 C(13)  Bbb    -0.0304    -4.079    -1.456    -1.361  0.2541  0.4506  0.8558
              Bcc     0.0611     8.202     2.927     2.736  0.9536 -0.2643 -0.1439
 
              Baa    -0.0085    -4.544    -1.621    -1.516  0.0243 -0.6914  0.7220
     6 H(1)   Bbb    -0.0064    -3.412    -1.218    -1.138  0.7482 -0.4664 -0.4718
              Bcc     0.0149     7.956     2.839     2.654  0.6630  0.5517  0.5060
 
              Baa    -0.0085    -4.533    -1.618    -1.512  0.3080  0.9486  0.0731
     7 H(1)   Bbb    -0.0061    -3.265    -1.165    -1.089  0.8091 -0.2208 -0.5446
              Bcc     0.0146     7.799     2.783     2.601  0.5004 -0.2268  0.8355
 
              Baa    -0.1170   -62.429   -22.276   -20.824  0.0842  0.8241 -0.5602
     8 H(1)   Bbb    -0.0952   -50.796   -18.125   -16.944  0.2064  0.5356  0.8189
              Bcc     0.2122   113.225    40.401    37.768  0.9748 -0.1846 -0.1250
 
              Baa    -0.0464   -24.771    -8.839    -8.263  0.3454 -0.2675  0.8995
     9 H(1)   Bbb    -0.0040    -2.129    -0.760    -0.710  0.9131 -0.1256 -0.3879
              Bcc     0.0504    26.900     9.599     8.973  0.2168  0.9553  0.2008
 
              Baa    -0.0455   -24.273    -8.661    -8.097  0.5728  0.6635  0.4814
    10 H(1)   Bbb    -0.0069    -3.688    -1.316    -1.230  0.8039 -0.5694 -0.1718
              Bcc     0.0524    27.961     9.977     9.327 -0.1601 -0.4854  0.8595
 
              Baa    -0.0071    -3.772    -1.346    -1.258 -0.0009  0.9387  0.3447
    11 H(1)   Bbb    -0.0028    -1.508    -0.538    -0.503  0.4925 -0.2995  0.8171
              Bcc     0.0099     5.280     1.884     1.761  0.8703  0.1705 -0.4621
 
              Baa    -0.0052    -2.779    -0.991    -0.927  0.1931  0.9059 -0.3770
    12 H(1)   Bbb    -0.0024    -1.262    -0.450    -0.421 -0.4786  0.4224  0.7698
              Bcc     0.0076     4.040     1.442     1.348  0.8565  0.0318  0.5151
 
              Baa    -0.0071    -3.811    -1.360    -1.271 -0.2735 -0.3600  0.8920
    13 H(1)   Bbb    -0.0027    -1.460    -0.521    -0.487  0.6796  0.5839  0.4441
              Bcc     0.0099     5.271     1.881     1.758 -0.6806  0.7277  0.0850
 
              Baa    -0.0130    -6.928    -2.472    -2.311 -0.3495  0.7034 -0.6190
    14 H(1)   Bbb    -0.0051    -2.698    -0.963    -0.900  0.7865 -0.1389 -0.6018
              Bcc     0.0180     9.626     3.435     3.211  0.5093  0.6971  0.5046
 

 ---------------------------------------------------------------------------------

 No NMR shielding tensors so no spin-rotation constants.
 Leave Link  601 at Thu Sep  5 19:58:49 2019, MaxMem=   671088640 cpu:              87.5 elap:              43.8
 (Enter /shared/centos7/gaussian/g16/l701.exe)
 SCFChk:  SCF convergence  6.73D-09 required  1.00D-08
 ... and contract with generalized density number  0.
 Compute integral second derivatives.
 Entering OneElI...
 Calculate overlap and kinetic energy integrals
    NBasis = 310  MinDer = 2  MaxDer = 2
 Requested accuracy = 0.1000D-12
 PrmmSu-InSpLW:  IPartL=    0 NPrtUS=   20 NPrtUL=    1 DoSpLW=F IThBeg=    0 IThEnd=   19 NThAct=   20.
 PrsmSu:  NPrtUS=  20 ThrOK=T IAlg=1 NPAlg=1 LenDen=           0 ISkipM=0 DoSpLW=F IThBeg=    0 IThEnd=   19.
 Prism:   IPart=     0 DynPar=F LinDyn=F Incr=           2.
 PRISM was handed    33406313 working-precision words and  5362 shell-pairs
 PRISM was handed    33406313 working-precision words and  5362 shell-pairs
 PRISM was handed    33406313 working-precision words and  5362 shell-pairs
 PRISM was handed    33406313 working-precision words and  5362 shell-pairs
 PRISM was handed    33406313 working-precision words and  5362 shell-pairs
 PRISM was handed    33406313 working-precision words and  5362 shell-pairs
 PRISM was handed    33406313 working-precision words and  5362 shell-pairs
 PRISM was handed    33406313 working-precision words and  5362 shell-pairs
 PRISM was handed    33406313 working-precision words and  5362 shell-pairs
 PRISM was handed    33406313 working-precision words and  5362 shell-pairs
 PRISM was handed    33406313 working-precision words and  5362 shell-pairs
 PRISM was handed    33406313 working-precision words and  5362 shell-pairs
 PRISM was handed    33406313 working-precision words and  5362 shell-pairs
 PRISM was handed    33406313 working-precision words and  5362 shell-pairs
 PRISM was handed    33406313 working-precision words and  5362 shell-pairs
 PRISM was handed    33406313 working-precision words and  5362 shell-pairs
 PRISM was handed    33406313 working-precision words and  5362 shell-pairs
 PRISM was handed    33406313 working-precision words and  5362 shell-pairs
 PRISM was handed    33406313 working-precision words and  5362 shell-pairs
 IPart= 13 NShTot=         256 NBatch=          30 AvBLen=         8.5
 PRISM was handed    33406313 working-precision words and  5362 shell-pairs
 IPart= 17 NShTot=         248 NBatch=          27 AvBLen=         9.2
 IPart=  1 NShTot=         302 NBatch=          60 AvBLen=         5.0
 IPart= 18 NShTot=         248 NBatch=          27 AvBLen=         9.2
 IPart= 12 NShTot=         256 NBatch=          30 AvBLen=         8.5
 IPart= 19 NShTot=         246 NBatch=          27 AvBLen=         9.1
 IPart= 16 NShTot=         250 NBatch=          28 AvBLen=         8.9
 IPart=  3 NShTot=         290 NBatch=          54 AvBLen=         5.4
 IPart=  5 NShTot=         276 NBatch=          42 AvBLen=         6.6
 IPart=  9 NShTot=         264 NBatch=          35 AvBLen=         7.5
 IPart=  8 NShTot=         265 NBatch=          35 AvBLen=         7.6
 IPart=  0 NShTot=         316 NBatch=          73 AvBLen=         4.3
 IPart= 14 NShTot=         255 NBatch=          30 AvBLen=         8.5
 IPart= 15 NShTot=         253 NBatch=          29 AvBLen=         8.7
 IPart=  6 NShTot=         270 NBatch=          38 AvBLen=         7.1
 IPart=  4 NShTot=         285 NBatch=          50 AvBLen=         5.7
 IPart= 10 NShTot=         262 NBatch=          34 AvBLen=         7.7
 IPart=  2 NShTot=         293 NBatch=          55 AvBLen=         5.3
 IPart=  7 NShTot=         268 NBatch=          37 AvBLen=         7.2
 IPart= 11 NShTot=         259 NBatch=          31 AvBLen=         8.4
 PrSmSu:  NxtVal=             41.
 Entering OneElI...
 Calculate potential energy integrals
    NBasis = 310  MinDer = 2  MaxDer = 2
 Requested accuracy = 0.1000D-12
 PrmmSu-InSpLW:  IPartL=    0 NPrtUS=   20 NPrtUL=    1 DoSpLW=F IThBeg=    0 IThEnd=   19 NThAct=   20.
 PrsmSu:  NPrtUS=  20 ThrOK=T IAlg=1 NPAlg=1 LenDen=           0 ISkipM=0 DoSpLW=F IThBeg=    0 IThEnd=   19.
 Prism:   IPart=     0 DynPar=F LinDyn=F Incr=          34.
 PRISM was handed    33430600 working-precision words and  4889 shell-pairs
 PRISM was handed    33430600 working-precision words and  4889 shell-pairs
 PRISM was handed    33430600 working-precision words and  4889 shell-pairs
 PRISM was handed    33430600 working-precision words and  4889 shell-pairs
 PRISM was handed    33430600 working-precision words and  4889 shell-pairs
 PRISM was handed    33430600 working-precision words and  4889 shell-pairs
 PRISM was handed    33430600 working-precision words and  4889 shell-pairs
 PRISM was handed    33430600 working-precision words and  4889 shell-pairs
 PRISM was handed    33430600 working-precision words and  4889 shell-pairs
 PRISM was handed    33430600 working-precision words and  4889 shell-pairs
 PRISM was handed    33430600 working-precision words and  4889 shell-pairs
 PRISM was handed    33430600 working-precision words and  4889 shell-pairs
 PRISM was handed    33430600 working-precision words and  4889 shell-pairs
 PRISM was handed    33430600 working-precision words and  4889 shell-pairs
 PRISM was handed    33430600 working-precision words and  4889 shell-pairs
 PRISM was handed    33430600 working-precision words and  4889 shell-pairs
 PRISM was handed    33430600 working-precision words and  4889 shell-pairs
 PRISM was handed    33430600 working-precision words and  4889 shell-pairs
 PRISM was handed    33430600 working-precision words and  4889 shell-pairs
 PRISM was handed    33430600 working-precision words and  4889 shell-pairs
 IPart= 19 NShTot=        3108 NBatch=         222 AvBLen=        14.0
 IPart= 18 NShTot=        3122 NBatch=         223 AvBLen=        14.0
 IPart= 17 NShTot=        3150 NBatch=         225 AvBLen=        14.0
 IPart=  8 NShTot=        3430 NBatch=         245 AvBLen=        14.0
 IPart=  3 NShTot=        3682 NBatch=         263 AvBLen=        14.0
 IPart=  5 NShTot=        3528 NBatch=         252 AvBLen=        14.0
 IPart=  9 NShTot=        3374 NBatch=         241 AvBLen=        14.0
 IPart= 16 NShTot=        3192 NBatch=         228 AvBLen=        14.0
 IPart= 13 NShTot=        3262 NBatch=         233 AvBLen=        14.0
 IPart=  6 NShTot=        3444 NBatch=         246 AvBLen=        14.0
 IPart= 15 NShTot=        3220 NBatch=         230 AvBLen=        14.0
 IPart= 11 NShTot=        3304 NBatch=         236 AvBLen=        14.0
 IPart=  0 NShTot=        4004 NBatch=         286 AvBLen=        14.0
 IPart=  2 NShTot=        3780 NBatch=         270 AvBLen=        14.0
 IPart= 12 NShTot=        3304 NBatch=         236 AvBLen=        14.0
 IPart=  4 NShTot=        3626 NBatch=         259 AvBLen=        14.0
 IPart=  7 NShTot=        3430 NBatch=         245 AvBLen=        14.0
 IPart= 14 NShTot=        3262 NBatch=         233 AvBLen=        14.0
 IPart=  1 NShTot=        3878 NBatch=         277 AvBLen=        14.0
 IPart= 10 NShTot=        3346 NBatch=         239 AvBLen=        14.0
 PrSmSu:  NxtVal=            681.
 Polarizability after L701:
                1             2             3 
      1  0.000000D+00
      2  0.000000D+00  0.000000D+00
      3  0.000000D+00  0.000000D+00  0.000000D+00
 Dipole Derivatives after L701:
                 1             2             3             4             5 
      1  -0.631537D+00 -0.927442D+00 -0.109325D+01  0.129614D+00  0.309957D+00
      2  -0.896385D-01 -0.449895D+00 -0.447631D+00 -0.154984D+00 -0.220757D+00
      3  -0.880152D-01 -0.147272D+00 -0.566946D+00 -0.537605D-01  0.327915D-01
                 6             7             8             9            10 
      1  -0.560525D-01  0.116675D-01 -0.474312D+00 -0.675576D+00 -0.207384D+00
      2   0.735184D-02 -0.120450D+00 -0.830380D+00 -0.243910D-01 -0.120305D+00
      3  -0.215242D+00  0.950482D-01 -0.663917D-02 -0.790378D+00 -0.106533D+00
                11            12            13            14            15 
      1  -0.104950D+00  0.134833D+00 -0.192008D+01  0.373497D+00  0.395923D+00
      2  -0.898486D+00  0.206953D+00 -0.173285D-01 -0.945077D+00  0.241048D-01
      3   0.116435D+00 -0.861129D+00 -0.108834D+00  0.629502D-01 -0.874552D+00
                16            17            18            19            20 
      1   0.207234D+00  0.540207D+00  0.161987D+00  0.572800D-01 -0.184868D+00
      2   0.597990D-01  0.648558D+00  0.122040D+00  0.268375D-01  0.214585D+00
      3   0.297420D-01  0.247199D+00  0.200400D+00 -0.111139D+00 -0.267915D+00
                21            22            23            24            25 
      1   0.369599D+00 -0.837015D-02  0.785491D-01 -0.131988D-02  0.848819D-01
      2  -0.122773D+00  0.121240D+00  0.229671D+00  0.500133D-01  0.111263D+00
      3   0.596720D+00  0.762801D-01 -0.358521D-02  0.229780D+00  0.108814D+00
                26            27            28            29            30 
      1  -0.353663D-02  0.223664D-01  0.115926D+00  0.103838D+00 -0.132529D+00
      2   0.528567D+00  0.625781D-01  0.381184D-01  0.295417D+00 -0.265293D+00
      3   0.223793D+00  0.163913D+00 -0.234436D-01 -0.319692D+00  0.628400D+00
                31            32            33            34            35 
      1   0.393256D+00  0.451653D+00 -0.886721D+00  0.113822D+01  0.138266D+00
      2   0.252676D-01  0.199347D+00 -0.133917D+00 -0.327123D-01  0.101959D+00
      3  -0.108757D+00 -0.208470D+00  0.455321D+00  0.221759D+00  0.440617D-01
                36            37            38            39            40 
      1   0.862811D+00  0.902423D-01 -0.844509D+00 -0.250400D+00  0.539048D+00
      2  -0.140368D-01  0.457582D-01  0.653374D+00  0.128071D+00  0.107135D+00
      3   0.322162D+00 -0.366264D-02  0.114618D+00  0.132829D+00  0.725025D-01
                41            42 
      1   0.543650D+00  0.114833D+01
      2   0.473117D+00  0.406930D+00
      3   0.111725D+00  0.578722D+00
 Hessian after L701:
                1             2             3             4             5 
      1  0.942196D+01
      2 -0.375419D+01  0.383001D+01
      3  0.177171D+00  0.345276D+00  0.831148D+01
      4 -0.496842D+01  0.299456D+01 -0.769889D+00  0.352775D+01
      5  0.297875D+01  0.146410D+01 -0.189391D+01 -0.261440D+01  0.208658D+01
[...]
 ------------------------------
 Charge =  0 Multiplicity = 2
 Redundant internal coordinates found in file.  (old form).
 O,0,-1.9494888076,0.5664560673,-0.8271141637
 O,0,-2.0120526644,0.0478440066,0.45938282
 C,0,1.0725647087,-0.2043568356,-0.2605616726
 C,0,0.4215767371,0.0484707625,1.0676839179
 C,0,2.6017691136,-0.1802576102,-0.1556556212
 H,0,0.7447339859,0.5515325933,-0.9759922798
 H,0,0.7526553102,-1.1741068745,-0.6483232649
 H,0,-0.8989157032,0.0547964988,0.8240077511
 H,0,0.5207754169,-0.7448677744,1.8050311171
 H,0,0.5782419129,1.0393471821,1.4875243479
 H,0,2.9471899963,0.7879347859,0.2066255084
 H,0,3.0605970621,-0.3631677531,-1.1269051509
 H,0,2.9552262383,-0.9433555694,0.5377165486
 H,0,-1.9327433067,-0.2242424791,-1.3803898578
 Recover connectivity data from disk.
 ITRead=  0  0  0  0  0  0  0  0  0  0  0  0  0  0
 MicOpt= -1 -1 -1 -1 -1 -1 -1 -1 -1 -1 -1 -1 -1 -1
 NAtoms=     14 NQM=       14 NQMF=       0 NMMI=      0 NMMIF=      0
                NMic=       0 NMicF=      0.
                    Isotopes and Nuclear Properties:
 (Nuclear quadrupole moments (NQMom) in fm**2, nuclear magnetic moments (NMagM)
  in nuclear magnetons)

  Atom         1           2           3           4           5           6           7           8           9          10
 IAtWgt=          16          16          12          12          12           1           1           1           1           1
 AtmWgt=  15.9949146  15.9949146  12.0000000  12.0000000  12.0000000   1.0078250   1.0078250   1.0078250   1.0078250   1.0078250
 NucSpn=           0           0           0           0           0           1           1           1           1           1
 AtZEff=   5.6000000   5.6000000   3.6000000   3.6000000   3.6000000   1.0000000   1.0000000   1.0000000   1.0000000   1.0000000
 NQMom=    0.0000000   0.0000000   0.0000000   0.0000000   0.0000000   0.0000000   0.0000000   0.0000000   0.0000000   0.0000000
 NMagM=    0.0000000   0.0000000   0.0000000   0.0000000   0.0000000   2.7928460   2.7928460   2.7928460   2.7928460   2.7928460
 AtZNuc=   8.0000000   8.0000000   6.0000000   6.0000000   6.0000000   1.0000000   1.0000000   1.0000000   1.0000000   1.0000000

  Atom        11          12          13          14
 IAtWgt=           1           1           1           1
 AtmWgt=   1.0078250   1.0078250   1.0078250   1.0078250
 NucSpn=           1           1           1           1
 AtZEff=   1.0000000   1.0000000   1.0000000   1.0000000
 NQMom=    0.0000000   0.0000000   0.0000000   0.0000000
 NMagM=    2.7928460   2.7928460   2.7928460   2.7928460
 AtZNuc=   1.0000000   1.0000000   1.0000000   1.0000000
 Leave Link  101 at Fri Sep  6 18:21:24 2019, MaxMem=   671088640 cpu:               2.6 elap:               1.3
 (Enter /shared/centos7/gaussian/g16/l103.exe)

 GradGradGradGradGradGradGradGradGradGradGradGradGradGradGradGradGradGrad
 Berny optimization.
 Initialization pass.
                           ----------------------------
                           !    Initial Parameters    !
                           ! (Angstroms and Degrees)  !
 --------------------------                            --------------------------
 ! Name  Definition              Value          Derivative Info.                !
 --------------------------------------------------------------------------------
 ! R1    R(1,2)                  1.3885         calculate D2E/DX2 analytically  !
 ! R2    R(1,14)                 0.9652         calculate D2E/DX2 analytically  !
 ! R3    R(2,8)                  1.1714         calculate D2E/DX2 analytically  !
 ! R4    R(3,4)                  1.5006         calculate D2E/DX2 analytically  !
 ! R5    R(3,5)                  1.533          calculate D2E/DX2 analytically  !
 ! R6    R(3,6)                  1.0912         calculate D2E/DX2 analytically  !
 ! R7    R(3,7)                  1.0923         calculate D2E/DX2 analytically  !
 ! R8    R(4,8)                  1.3428         calculate D2E/DX2 analytically  !
 ! R9    R(4,9)                  1.0876         calculate D2E/DX2 analytically  !
 ! R10   R(4,10)                 1.0875         calculate D2E/DX2 analytically  !
 ! R11   R(5,11)                 1.0899         calculate D2E/DX2 analytically  !
 ! R12   R(5,12)                 1.0896         calculate D2E/DX2 analytically  !
 ! R13   R(5,13)                 1.09           calculate D2E/DX2 analytically  !
 ! A1    A(2,1,14)             103.0568         calculate D2E/DX2 analytically  !
 ! A2    A(1,2,8)              104.0861         calculate D2E/DX2 analytically  !
 ! A3    A(4,3,5)              111.6857         calculate D2E/DX2 analytically  !
 ! A4    A(4,3,6)              109.4681         calculate D2E/DX2 analytically  !
 ! A5    A(4,3,7)              109.6782         calculate D2E/DX2 analytically  !
 ! A6    A(5,3,6)              109.4918         calculate D2E/DX2 analytically  !
 ! A7    A(5,3,7)              109.2933         calculate D2E/DX2 analytically  !
 ! A8    A(6,3,7)              107.1133         calculate D2E/DX2 analytically  !
 ! A9    A(3,4,8)              105.4722         calculate D2E/DX2 analytically  !
 ! A10   A(3,4,9)              115.951          calculate D2E/DX2 analytically  !
 ! A11   A(3,4,10)             115.6406         calculate D2E/DX2 analytically  !
 ! A12   A(8,4,9)              102.4833         calculate D2E/DX2 analytically  !
 ! A13   A(8,4,10)             101.9719         calculate D2E/DX2 analytically  !
 ! A14   A(9,4,10)             112.9392         calculate D2E/DX2 analytically  !
 ! A15   A(3,5,11)             110.6615         calculate D2E/DX2 analytically  !
 ! A16   A(3,5,12)             110.8798         calculate D2E/DX2 analytically  !
 ! A17   A(3,5,13)             110.8554         calculate D2E/DX2 analytically  !
 ! A18   A(11,5,12)            108.1761         calculate D2E/DX2 analytically  !
 ! A19   A(11,5,13)            107.9204         calculate D2E/DX2 analytically  !
 ! A20   A(12,5,13)            108.2373         calculate D2E/DX2 analytically  !
 ! A21   A(2,8,4)              172.2943         calculate D2E/DX2 analytically  !
 ! D1    D(14,1,2,8)            96.7972         calculate D2E/DX2 analytically  !
 ! D2    D(1,2,8,4)            -27.2729         calculate D2E/DX2 analytically  !
 ! D3    D(5,3,4,8)            177.5437         calculate D2E/DX2 analytically  !
 ! D4    D(5,3,4,9)            -69.8655         calculate D2E/DX2 analytically  !
 ! D5    D(5,3,4,10)            65.7291         calculate D2E/DX2 analytically  !
 ! D6    D(6,3,4,8)             56.1155         calculate D2E/DX2 analytically  !
 ! D7    D(6,3,4,9)            168.7062         calculate D2E/DX2 analytically  !
 ! D8    D(6,3,4,10)           -55.6992         calculate D2E/DX2 analytically  !
 ! D9    D(7,3,4,8)            -61.135          calculate D2E/DX2 analytically  !
 ! D10   D(7,3,4,9)             51.4557         calculate D2E/DX2 analytically  !
 ! D11   D(7,3,4,10)          -172.9497         calculate D2E/DX2 analytically  !
 ! D12   D(4,3,5,11)           -59.8451         calculate D2E/DX2 analytically  !
 ! D13   D(4,3,5,12)          -179.8889         calculate D2E/DX2 analytically  !
 ! D14   D(4,3,5,13)            59.8621         calculate D2E/DX2 analytically  !
 ! D15   D(6,3,5,11)            61.5694         calculate D2E/DX2 analytically  !
 ! D16   D(6,3,5,12)           -58.4744         calculate D2E/DX2 analytically  !
 ! D17   D(6,3,5,13)          -178.7234         calculate D2E/DX2 analytically  !
 ! D18   D(7,3,5,11)           178.6108         calculate D2E/DX2 analytically  !
 ! D19   D(7,3,5,12)            58.567          calculate D2E/DX2 analytically  !
 ! D20   D(7,3,5,13)           -61.682          calculate D2E/DX2 analytically  !
 ! D21   D(3,4,8,2)             -5.4562         calculate D2E/DX2 analytically  !
 ! D22   D(9,4,8,2)           -127.2142         calculate D2E/DX2 analytically  !
 ! D23   D(10,4,8,2)           115.7202         calculate D2E/DX2 analytically  !
 --------------------------------------------------------------------------------
 Trust Radius=3.00D-01 FncErr=1.00D-07 GrdErr=1.00D-07 EigMax=2.50D+02 EigMin=1.00D-04
 Number of steps in this run=      2 maximum allowed number of steps=      2.
 Search for a saddle point of order  1.
 GradGradGradGradGradGradGradGradGradGradGradGradGradGradGradGradGradGrad

 Leave Link  103 at Fri Sep  6 18:21:24 2019, MaxMem=   671088640 cpu:               1.5 elap:               0.8
 (Enter /shared/centos7/gaussian/g16/l202.exe)
                          Input orientation:                          
 ---------------------------------------------------------------------
 Center     Atomic      Atomic             Coordinates (Angstroms)
 Number     Number       Type             X           Y           Z
 ---------------------------------------------------------------------
      1          8           0       -1.949489    0.566456   -0.827114
      2          8           0       -2.012053    0.047844    0.459383
      3          6           0        1.072565   -0.204357   -0.260562
      4          6           0        0.421577    0.048471    1.067684
      5          6           0        2.601769   -0.180258   -0.155656
      6          1           0        0.744734    0.551533   -0.975992
      7          1           0        0.752655   -1.174107   -0.648323
      8          1           0       -0.898916    0.054796    0.824008
      9          1           0        0.520775   -0.744868    1.805031
     10          1           0        0.578242    1.039347    1.487524
     11          1           0        2.947190    0.787935    0.206626
     12          1           0        3.060597   -0.363168   -1.126905
     13          1           0        2.955226   -0.943356    0.537717
     14          1           0       -1.932743   -0.224242   -1.380390
 ---------------------------------------------------------------------
                    Distance matrix (angstroms):
                    1          2          3          4          5
     1  O    0.000000
     2  O    1.388505   0.000000
     3  C    3.169849   3.177545   0.000000
     4  C    3.079045   2.508502   1.500648   0.000000
     5  C    4.660728   4.660220   1.532988   2.510401   0.000000
     6  H    2.698374   3.148631   1.091184   2.129346   2.158020
     7  H    3.219178   3.219284   1.092299   2.132836   2.156312
     8  H    2.022796   1.171355   2.264991   1.342802   3.642772
     9  H    3.840568   2.975631   2.205288   1.087615   2.914380
    10  H    3.459855   2.958003   2.201581   1.087495   2.877870
    11  H    5.009504   5.020529   2.171895   2.768926   1.089936
    12  H    5.104413   5.330761   2.174407   3.456891   1.089635
    13  H    5.310228   5.065814   2.174346   2.771997   1.089961
    14  H    0.965194   1.861474   3.207224   3.407383   4.697203
                    6          7          8          9         10
     6  H    0.000000
     7  H    1.756491   0.000000
     8  H    2.487636   2.530938   0.000000
     9  H    3.076508   2.501392   1.901944   0.000000
    10  H    2.516863   3.080851   1.895149   1.813156   0.000000
    11  H    2.511032   3.065376   3.963733   3.285098   2.704778
    12  H    2.494529   2.492641   4.433790   3.897774   3.868382
    13  H    3.067944   2.512221   3.991576   2.751733   3.237792
    14  H    2.816780   2.941008   2.450721   4.054345   4.015798
                   11         12         13         14
    11  H    0.000000
    12  H    1.765277   0.000000
    13  H    1.762683   1.765980   0.000000
    14  H    5.230379   5.001700   5.299859   0.000000
 Stoichiometry    C3H9O2(2)
 Framework group  C1[X(C3H9O2)]
 Deg. of freedom    36
 Full point group                 C1      NOp   1
 RotChk:  IX=1 Diff= 4.37D-16
 Largest Abelian subgroup         C1      NOp   1
 Largest concise Abelian subgroup C1      NOp   1
                         Standard orientation:                         
 ---------------------------------------------------------------------
 Center     Atomic      Atomic             Coordinates (Angstroms)
 Number     Number       Type             X           Y           Z
 ---------------------------------------------------------------------
      1          8           0        2.069442    0.793704   -0.244065
      2          8           0        2.016504   -0.526845    0.181722
      3          6           0       -1.041337    0.336792    0.158709
      4          6           0       -0.427550   -1.003651   -0.121328
      5          6           0       -2.561918    0.315093   -0.034722
      6          1           0       -0.600720    1.083987   -0.503287
      7          1           0       -0.812094    0.639581    1.182858
      8          1           0        0.895408   -0.830542    0.030111
      9          1           0       -0.646231   -1.787384    0.600371
     10          1           0       -0.493843   -1.345613   -1.151529
     11          1           0       -2.815508    0.038935   -1.058142
     12          1           0       -2.993450    1.294484    0.169920
     13          1           0       -3.027769   -0.409261    0.633342
     14          1           0        1.991480    1.291536    0.579151
 ---------------------------------------------------------------------
 Rotational constants (GHZ):          10.6926950           1.8961309           1.6877575
 Leave Link  202 at Fri Sep  6 18:21:26 2019, MaxMem=   671088640 cpu:               3.6 elap:               1.8
 (Enter /shared/centos7/gaussian/g16/l301.exe)
 Standard basis: CC-pVTZ (5D, 7F)
 Ernie: Thresh=  0.10000D-02 Tol=  0.10000D-05 Strict=F.
 Ernie:  15 primitive shells out of 202 were deleted.
 There are   310 symmetry adapted cartesian basis functions of A   symmetry.
 There are   276 symmetry adapted basis functions of A   symmetry.
   276 basis functions,   413 primitive gaussians,   310 cartesian basis functions
    22 alpha electrons       21 beta electrons
       nuclear repulsion energy       183.5931605338 Hartrees.
 IExCor= 4336 DFT=T Ex+Corr=M062X ExCW=0 ScaHFX=  0.540000
 ScaDFX=  1.000000  1.000000  1.000000  1.000000 ScalE2=  1.000000  1.000000
 IRadAn=      5 IRanWt=     -1 IRanGd=            0 ICorTp=0 IEmpDi=  4
 NAtoms=   14 NActive=   14 NUniq=   14 SFac= 1.00D+00 NAtFMM=   60 NAOKFM=F Big=F
 Integral buffers will be    131072 words long.
 Raffenetti 2 integral format.
 Two-electron integral symmetry is turned on.
 Leave Link  301 at Fri Sep  6 18:21:27 2019, MaxMem=   671088640 cpu:               1.8 elap:               0.9
 (Enter /shared/centos7/gaussian/g16/l302.exe)
 NPDir=0 NMtPBC=     1 NCelOv=     1 NCel=       1 NClECP=     1 NCelD=      1
         NCelK=      1 NCelE2=     1 NClLst=     1 CellRange=     0.0.
 One-electron integrals computed using PRISM.
 One-electron integral symmetry used in STVInt
 NBasis=   276 RedAO= T EigKep=  8.14D-04  NBF=   276
 NBsUse=   276 1.00D-06 EigRej= -1.00D+00 NBFU=   276
 Precomputing XC quadrature grid using
 IXCGrd= 4 IRadAn=           5 IRanWt=          -1 IRanGd=           0 AccXCQ= 0.00D+00.
 Generated NRdTot=       0 NPtTot=           0 NUsed=           0 NTot=          32
 NSgBfM=   310   310   310   310   310 MxSgAt=    14 MxSgA2=    14.
 Leave Link  302 at Fri Sep  6 18:22:19 2019, MaxMem=   671088640 cpu:             104.2 elap:              52.1
 (Enter /shared/centos7/gaussian/g16/l303.exe)
 DipDrv:  MaxL=1.
 Leave Link  303 at Fri Sep  6 18:22:23 2019, MaxMem=   671088640 cpu:               8.0 elap:               4.0
 (Enter /shared/centos7/gaussian/g16/l401.exe)
 Initial guess from the checkpoint file:  "/scratch/harms.n/gauss_scrdir/Gau-6659.chk"
 B after Tr=     0.000000   -0.000000   -0.000000
         Rot=    1.000000   -0.000000    0.000000    0.000000 Ang=   0.00 deg.
 Guess basis will be translated and rotated to current coordinates.
 JPrj=2 DoOrth=T DoCkMO=T.
 Initial guess <Sx>= 0.0000 <Sy>= 0.0000 <Sz>= 0.5000 <S**2>= 0.7598 S= 0.5049
 Leave Link  401 at Fri Sep  6 18:23:30 2019, MaxMem=   671088640 cpu:             133.8 elap:              66.9
 (Enter /shared/centos7/gaussian/g16/l502.exe)
 Integral symmetry usage will be decided dynamically.
 UHF open shell SCF:
 Using DIIS extrapolation, IDIIS=  1040.
 NGot=   671088640 LenX=   670887394 LenY=   670790853
 Requested convergence on RMS density matrix=1.00D-08 within 900 cycles.
 Requested convergence on MAX density matrix=1.00D-06.
 Requested convergence on             energy=1.00D-06.
 No special actions if energy rises.
 Fock matrices will be formed incrementally for  20 cycles.

 Cycle   1  Pass 1  IDiag  1:
 FoFJK:  IHMeth= 1 ICntrl=       0 DoSepK=F KAlg= 0 I1Cent=           0 FoldK=F
 IRaf= 960000000 NMat=       1 IRICut=       1 DoRegI=T DoRafI=F ISym2E= 0 IDoP0=0 IntGTp=1.
 FoFCou: FMM=F IPFlag=           0 FMFlag=      100000 FMFlg1=           0
         NFxFlg=           0 DoJE=F BraDBF=F KetDBF=F FulRan=T
         wScrn=  0.000000 ICntrl=         0 IOpCl=  1 I1Cent=           0 NGrid=           0
         NMat0=    1 NMatS0=      1 NMatT0=    0 NMatD0=    1 NMtDS0=    0 NMtDT0=    0
 Symmetry not used in FoFCou.
 E= -269.983400492351    
 DIIS: error= 1.02D-08 at cycle   1 NSaved=   1.
 NSaved= 1 IEnMin= 1 EnMin= -269.983400492351     IErMin= 1 ErrMin= 1.02D-08
 ErrMax= 1.02D-08  0.00D+00 EMaxC= 1.00D-01 BMatC= 1.68D-13 BMatP= 1.68D-13
 IDIUse=1 WtCom= 1.00D+00 WtEn= 0.00D+00
 Coeff-Com:  0.100D+01
 Coeff:      0.100D+01
 Gap=     0.350 Goal=   None    Shift=    0.000
 Gap=     0.276 Goal=   None    Shift=    0.000
 RMSDP=1.23D-09 MaxDP=3.45D-08              OVMax= 2.84D-07

 SCF Done:  E(UM062X) =  -269.983400492     A.U. after    1 cycles
            NFock=  1  Conv=0.12D-08     -V/T= 2.0055
 <Sx>= 0.0000 <Sy>= 0.0000 <Sz>= 0.5000 <S**2>= 0.7598 S= 0.5049
 <L.S>= 0.000000000000E+00
 KE= 2.685101992292D+02 PE=-9.991702680220D+02 EE= 2.770835077666D+02
 Annihilation of the first spin contaminant:
 S**2 before annihilation     0.7598,   after     0.7500
 Leave Link  502 at Fri Sep  6 18:24:36 2019, MaxMem=   671088640 cpu:             131.7 elap:              65.9
 (Enter /shared/centos7/gaussian/g16/l801.exe)
 DoSCS=F DFT=T ScalE2(SS,OS)=  1.000000  1.000000
 Range of M.O.s used for correlation:     1   276
 NBasis=   276 NAE=    22 NBE=    21 NFC=     0 NFV=     0
 NROrb=    276 NOA=    22 NOB=    21 NVA=   254 NVB=   255

 **** Warning!!: The largest alpha MO coefficient is  0.12260719D+02


 **** Warning!!: The largest beta MO coefficient is  0.12572979D+02

 Leave Link  801 at Fri Sep  6 18:24:37 2019, MaxMem=   671088640 cpu:               1.6 elap:               0.8
 (Enter /shared/centos7/gaussian/g16/l1101.exe)
 Using compressed storage, NAtomX=    14.
 Will process     15 centers per pass.
 Leave Link 1101 at Fri Sep  6 18:25:02 2019, MaxMem=   671088640 cpu:              49.6 elap:              24.8
 (Enter /shared/centos7/gaussian/g16/l1102.exe)
 Symmetrizing basis deriv contribution to polar:
 IMax=3 JMax=2 DiffMx= 0.00D+00
 Leave Link 1102 at Fri Sep  6 18:25:04 2019, MaxMem=   671088640 cpu:               3.7 elap:               1.9
 (Enter /shared/centos7/gaussian/g16/l1110.exe)
 Forming Gx(P) for the SCF density, NAtomX=    14.
 Integral derivatives from FoFJK, PRISM(SPDF).
 Do as many integral derivatives as possible in FoFJK.
 G2DrvN: MDV=     671087496.
 G2DrvN: will do    15 centers at a time, making    1 passes.
 Calling FoFCou, ICntrl=  3107 FMM=F I1Cent=   0 AccDes= 0.00D+00.
 FoFJK:  IHMeth= 1 ICntrl=    3107 DoSepK=F KAlg= 0 I1Cent=           0 FoldK=F
 IRaf=         0 NMat=       1 IRICut=       1 DoRegI=T DoRafI=F ISym2E= 0 IDoP0=0 IntGTp=1.
 FoFCou: FMM=F IPFlag=           0 FMFlag=      100000 FMFlg1=           0
         NFxFlg=           0 DoJE=F BraDBF=F KetDBF=F FulRan=T
         wScrn=  0.000000 ICntrl=      3107 IOpCl=  1 I1Cent=           0 NGrid=           0
         NMat0=    1 NMatS0=      1 NMatT0=    0 NMatD0=    1 NMtDS0=    0 NMtDT0=    0
 Symmetry not used in FoFCou.
