 Entering Gaussian System, Link 0=g16
 Input=loose/species/COC=CO/conformers/COC=CO_7.com
 Output=loose/species/COC=CO/conformers/COC=CO_7.log
 Initial command:
 /shared/centos7/gaussian/g16/l1.exe "/scratch/harms.n/gauss_scrdir/Gau-44916.inp" -scrdir="/scratch/harms.n/gauss_scrdir/"
 Entering Link 1 = /shared/centos7/gaussian/g16/l1.exe PID=     44917.
  
 Copyright (c) 1988,1990,1992,1993,1995,1998,2003,2009,2016,
            Gaussian, Inc.  All Rights Reserved.
  
 This is part of the Gaussian(R) 16 program.  It is based on
 the Gaussian(R) 09 system (copyright 2009, Gaussian, Inc.),
 the Gaussian(R) 03 system (copyright 2003, Gaussian, Inc.),
 the Gaussian(R) 98 system (copyright 1998, Gaussian, Inc.),
 the Gaussian(R) 94 system (copyright 1995, Gaussian, Inc.),
 the Gaussian 92(TM) system (copyright 1992, Gaussian, Inc.),
 the Gaussian 90(TM) system (copyright 1990, Gaussian, Inc.),
 the Gaussian 88(TM) system (copyright 1988, Gaussian, Inc.),
 the Gaussian 86(TM) system (copyright 1986, Carnegie Mellon
 University), and the Gaussian 82(TM) system (copyright 1983,
 Carnegie Mellon University). Gaussian is a federally registered
 trademark of Gaussian, Inc.
  
 This software contains proprietary and confidential information,
 including trade secrets, belonging to Gaussian, Inc.
  
 This software is provided under written license and may be
 used, copied, transmitted, or stored only in accord with that
 written license.
  
 The following legend is applicable only to US Government
 contracts under FAR:
  
                    RESTRICTED RIGHTS LEGEND
  
 Use, reproduction and disclosure by the US Government is
 subject to restrictions as set forth in subparagraphs (a)
 and (c) of the Commercial Computer Software - Restricted
 Rights clause in FAR 52.227-19.
  
 Gaussian, Inc.
 340 Quinnipiac St., Bldg. 40, Wallingford CT 06492
  
  
 ---------------------------------------------------------------
 Warning -- This program may not be used in any manner that
 competes with the business of Gaussian, Inc. or will provide
 assistance to any competitor of Gaussian, Inc.  The licensee
 of this program is prohibited from giving any competitor of
 Gaussian, Inc. access to this program.  By using this program,
 the user acknowledges that Gaussian, Inc. is engaged in the
 business of creating and licensing software in the field of
 computational chemistry and represents and warrants to the
 licensee that it is not a competitor of Gaussian, Inc. and that
 it will not use this program in any manner prohibited above.
 ---------------------------------------------------------------
  

 Cite this work as:
 Gaussian 16, Revision A.03,
 M. J. Frisch, G. W. Trucks, H. B. Schlegel, G. E. Scuseria, 
 M. A. Robb, J. R. Cheeseman, G. Scalmani, V. Barone, 
 G. A. Petersson, H. Nakatsuji, X. Li, M. Caricato, A. V. Marenich, 
 J. Bloino, B. G. Janesko, R. Gomperts, B. Mennucci, H. P. Hratchian, 
 J. V. Ortiz, A. F. Izmaylov, J. L. Sonnenberg, D. Williams-Young, 
 F. Ding, F. Lipparini, F. Egidi, J. Goings, B. Peng, A. Petrone, 
 T. Henderson, D. Ranasinghe, V. G. Zakrzewski, J. Gao, N. Rega, 
 G. Zheng, W. Liang, M. Hada, M. Ehara, K. Toyota, R. Fukuda, 
 J. Hasegawa, M. Ishida, T. Nakajima, Y. Honda, O. Kitao, H. Nakai, 
 T. Vreven, K. Throssell, J. A. Montgomery, Jr., J. E. Peralta, 
 F. Ogliaro, M. J. Bearpark, J. J. Heyd, E. N. Brothers, K. N. Kudin, 
 V. N. Staroverov, T. A. Keith, R. Kobayashi, J. Normand, 
 K. Raghavachari, A. P. Rendell, J. C. Burant, S. S. Iyengar, 
 J. Tomasi, M. Cossi, J. M. Millam, M. Klene, C. Adamo, R. Cammi, 
 J. W. Ochterski, R. L. Martin, K. Morokuma, O. Farkas, 
 J. B. Foresman, and D. J. Fox, Gaussian, Inc., Wallingford CT, 2016.
 
 ******************************************
 Gaussian 16:  EM64L-G16RevA.03 25-Dec-2016
                 5-Sep-2019 
 ******************************************
 %nprocshared=20
 Will use up to   20 processors via shared memory.
 %mem=5GB
 ----------------------------------------------------------------------
 #p m062x/cc-pVTZ opt=(calcfc,maxcycles=900,Tight) freq IOP(7/33=1,2/16
 =3) scf=(maxcycle=900)
 ----------------------------------------------------------------------
 1/6=900,7=10,10=4,18=20,19=15,26=3,38=1/1,3;
 2/9=110,12=2,16=3,17=6,18=5,40=1/2;
 3/5=16,6=1,11=2,25=1,30=1,71=2,74=-55,140=1/1,2,3;
 4//1;
 5/5=2,7=900,38=5/2;
 8/6=4,10=90,11=11/1;
 11/6=1,8=1,9=11,15=111,16=1/1,2,10;
 10/6=1,13=1/2;
 6/7=2,8=2,9=2,10=2,28=1/1;
 7/10=1,18=20,25=1,33=1/1,2,3,16;
 1/6=900,7=10,10=4,18=20,19=15,26=3/3(2);
 2/9=110,16=3/2;
 99//99;
 2/9=110,16=3/2;
 3/5=16,6=1,11=2,25=1,30=1,71=1,74=-55/1,2,3;
 4/5=5,16=3,69=1/1;
 5/5=2,7=900,38=5/2;
 7/33=1/1,2,3,16;
 1/6=900,7=10,18=20,19=15,26=3/3(-5);
 2/9=110,16=3/2;
 6/7=2,8=2,9=2,10=2,19=2,28=1/1;
 99/9=1/99;
 Leave Link    1 at Thu Sep  5 10:53:23 2019, MaxMem=   671088640 cpu:               4.0 elap:               2.0
 (Enter /shared/centos7/gaussian/g16/l101.exe)
 ------------------------------
 Gaussian input prepared by ASE
 ------------------------------
 Symbolic Z-matrix:
 Charge =  0 Multiplicity = 1
 O                     0.16261  -0.72723   1.25558 
 O                     1.41531   0.8078    3.2008 
 C                    -1.20473  -0.84664   0.8562 
 C                     0.64521   0.54624   0.98182 
 C                     1.26897   1.24235   1.90232 
 H                    -1.86633  -0.24077   1.54003 
 H                    -1.34855  -0.47051  -0.19667 
 H                    -1.48807  -1.89672   0.93066 
 H                     0.52887   0.88522  -0.04579 
 H                     1.72176   2.19339   1.71959 
 H                     0.95934  -0.09993   3.2471 
 
 ITRead=  0  0  0  0  0  0  0  0  0  0  0
 MicOpt= -1 -1 -1 -1 -1 -1 -1 -1 -1 -1 -1
 NAtoms=     11 NQM=       11 NQMF=       0 NMMI=      0 NMMIF=      0
                NMic=       0 NMicF=      0.
                    Isotopes and Nuclear Properties:
 (Nuclear quadrupole moments (NQMom) in fm**2, nuclear magnetic moments (NMagM)
  in nuclear magnetons)

  Atom         1           2           3           4           5           6           7           8           9          10
 IAtWgt=          16          16          12          12          12           1           1           1           1           1
 AtmWgt=  15.9949146  15.9949146  12.0000000  12.0000000  12.0000000   1.0078250   1.0078250   1.0078250   1.0078250   1.0078250
 NucSpn=           0           0           0           0           0           1           1           1           1           1
 AtZEff=  -0.0000000  -0.0000000  -0.0000000  -0.0000000  -0.0000000  -0.0000000  -0.0000000  -0.0000000  -0.0000000  -0.0000000
 NQMom=    0.0000000   0.0000000   0.0000000   0.0000000   0.0000000   0.0000000   0.0000000   0.0000000   0.0000000   0.0000000
 NMagM=    0.0000000   0.0000000   0.0000000   0.0000000   0.0000000   2.7928460   2.7928460   2.7928460   2.7928460   2.7928460
 AtZNuc=   8.0000000   8.0000000   6.0000000   6.0000000   6.0000000   1.0000000   1.0000000   1.0000000   1.0000000   1.0000000

  Atom        11
 IAtWgt=           1
 AtmWgt=   1.0078250
 NucSpn=           1
 AtZEff=  -0.0000000
 NQMom=    0.0000000
 NMagM=    2.7928460
 AtZNuc=   1.0000000
 Leave Link  101 at Thu Sep  5 10:53:24 2019, MaxMem=   671088640 cpu:               2.2 elap:               1.1
 (Enter /shared/centos7/gaussian/g16/l103.exe)

 GradGradGradGradGradGradGradGradGradGradGradGradGradGradGradGradGradGrad
 Berny optimization.
 Initialization pass.
                           ----------------------------
                           !    Initial Parameters    !
                           ! (Angstroms and Degrees)  !
 --------------------------                            --------------------------
 ! Name  Definition              Value          Derivative Info.                !
 --------------------------------------------------------------------------------
 ! R1    R(1,3)                  1.4295         calculate D2E/DX2 analytically  !
 ! R2    R(1,4)                  1.3891         calculate D2E/DX2 analytically  !
 ! R3    R(2,5)                  1.3771         calculate D2E/DX2 analytically  !
 ! R4    R(2,11)                 1.0169         calculate D2E/DX2 analytically  !
 ! R5    R(3,6)                  1.128          calculate D2E/DX2 analytically  !
 ! R6    R(3,7)                  1.1272         calculate D2E/DX2 analytically  !
 ! R7    R(3,8)                  1.0902         calculate D2E/DX2 analytically  !
 ! R8    R(4,5)                  1.3119         calculate D2E/DX2 analytically  !
 ! R9    R(4,9)                  1.0883         calculate D2E/DX2 analytically  !
 ! R10   R(5,10)                 1.0691         calculate D2E/DX2 analytically  !
 ! A1    A(3,1,4)              110.7227         calculate D2E/DX2 analytically  !
 ! A2    A(5,2,11)             106.08           calculate D2E/DX2 analytically  !
 ! A3    A(1,3,6)              110.2902         calculate D2E/DX2 analytically  !
 ! A4    A(1,3,7)              110.8013         calculate D2E/DX2 analytically  !
 ! A5    A(1,3,8)              108.0588         calculate D2E/DX2 analytically  !
 ! A6    A(6,3,7)              108.19           calculate D2E/DX2 analytically  !
 ! A7    A(6,3,8)              108.8752         calculate D2E/DX2 analytically  !
 ! A8    A(7,3,8)              110.6119         calculate D2E/DX2 analytically  !
 ! A9    A(1,4,5)              120.8886         calculate D2E/DX2 analytically  !
 ! A10   A(1,4,9)              115.7533         calculate D2E/DX2 analytically  !
 ! A11   A(5,4,9)              123.2359         calculate D2E/DX2 analytically  !
 ! A12   A(2,5,4)              123.005          calculate D2E/DX2 analytically  !
 ! A13   A(2,5,10)             113.3843         calculate D2E/DX2 analytically  !
 ! A14   A(4,5,10)             123.6075         calculate D2E/DX2 analytically  !
 ! D1    D(4,1,3,6)            -70.5671         calculate D2E/DX2 analytically  !
 ! D2    D(4,1,3,7)             49.2003         calculate D2E/DX2 analytically  !
 ! D3    D(4,1,3,8)            170.5299         calculate D2E/DX2 analytically  !
 ! D4    D(3,1,4,5)            129.777          calculate D2E/DX2 analytically  !
 ! D5    D(3,1,4,9)            -54.1145         calculate D2E/DX2 analytically  !
 ! D6    D(11,2,5,4)             0.0435         calculate D2E/DX2 analytically  !
 ! D7    D(11,2,5,10)         -179.326          calculate D2E/DX2 analytically  !
 ! D8    D(1,4,5,2)             -4.0814         calculate D2E/DX2 analytically  !
 ! D9    D(1,4,5,10)           175.2238         calculate D2E/DX2 analytically  !
 ! D10   D(9,4,5,2)           -179.8904         calculate D2E/DX2 analytically  !
 ! D11   D(9,4,5,10)            -0.5852         calculate D2E/DX2 analytically  !
 --------------------------------------------------------------------------------
 Trust Radius=3.00D-01 FncErr=1.00D-07 GrdErr=1.00D-06 EigMax=2.50D+02 EigMin=1.00D-04
 Number of steps in this run=    100 maximum allowed number of steps=    100.
 GradGradGradGradGradGradGradGradGradGradGradGradGradGradGradGradGradGrad

 Leave Link  103 at Thu Sep  5 10:53:25 2019, MaxMem=   671088640 cpu:               1.5 elap:               0.8
 (Enter /shared/centos7/gaussian/g16/l202.exe)
                          Input orientation:                          
 ---------------------------------------------------------------------
 Center     Atomic      Atomic             Coordinates (Angstroms)
 Number     Number       Type             X           Y           Z
 ---------------------------------------------------------------------
      1          8           0        0.162606   -0.727229    1.255584
      2          8           0        1.415312    0.807798    3.200800
      3          6           0       -1.204725   -0.846644    0.856195
      4          6           0        0.645211    0.546242    0.981822
      5          6           0        1.268974    1.242355    1.902321
      6          1           0       -1.866326   -0.240766    1.540026
      7          1           0       -1.348546   -0.470513   -0.196674
      8          1           0       -1.488073   -1.896720    0.930662
      9          1           0        0.528874    0.885225   -0.045789
     10          1           0        1.721761    2.193389    1.719589
     11          1           0        0.959341   -0.099926    3.247101
 ---------------------------------------------------------------------
                    Distance matrix (angstroms):
                    1          2          3          4          5
     1  O    0.000000
     2  O    2.776589   0.000000
     3  C    1.429464   3.885737   0.000000
     4  C    1.389094   2.363331   2.319090   0.000000
     5  C    2.349804   1.377063   3.402570   1.311858   0.000000
     6  H    2.105735   3.824501   1.128020   2.690501   3.487264
     7  H    2.111525   4.562436   1.127250   2.529370   3.767109
     8  H    2.048908   4.571388   1.090179   3.243699   4.289431
     9  H    2.104218   3.366320   2.611190   1.088314   2.114338
    10  H    3.343093   2.051282   4.307154   2.101512   1.069052
    11  H    2.234823   1.016866   3.310166   2.376489   1.925103
                    6          7          8          9         10
     6  H    0.000000
     7  H    1.826748   0.000000
     8  H    1.804601   1.823299   0.000000
     9  H    3.085393   2.320667   3.572219   0.000000
    10  H    4.339553   4.493909   5.258748   2.500167   0.000000
    11  H    3.304290   4.162122   3.818925   3.463950   2.858998
                   11
    11  H    0.000000
 Stoichiometry    C3H6O2
 Framework group  C1[X(C3H6O2)]
 Deg. of freedom    27
 Full point group                 C1      NOp   1
 Largest Abelian subgroup         C1      NOp   1
 Largest concise Abelian subgroup C1      NOp   1
                         Standard orientation:                         
 ---------------------------------------------------------------------
 Center     Atomic      Atomic             Coordinates (Angstroms)
 Number     Number       Type             X           Y           Z
 ---------------------------------------------------------------------
      1          8           0       -0.820936   -0.230905   -0.512802
      2          8           0        1.843594   -0.725655    0.091309
      3          6           0       -2.005100   -0.227802    0.287892
      4          6           0        0.039874    0.786554   -0.121182
      5          6           0        1.305276    0.541432    0.123043
      6          1           0       -1.769220   -0.570422    1.336416
      7          1           0       -2.445707    0.808090    0.346932
      8          1           0       -2.716710   -0.922666   -0.158499
      9          1           0       -0.389130    1.786496   -0.098834
     10          1           0        2.021096    1.300870    0.354836
     11          1           0        1.078103   -1.350989   -0.147431
 ---------------------------------------------------------------------
 Rotational constants (GHZ):          13.6116459           3.0915873           2.7296453
 Leave Link  202 at Thu Sep  5 10:53:27 2019, MaxMem=   671088640 cpu:               3.7 elap:               1.9
 (Enter /shared/centos7/gaussian/g16/l301.exe)
 Standard basis: CC-pVTZ (5D, 7F)
 Ernie: Thresh=  0.10000D-02 Tol=  0.10000D-05 Strict=F.
 Ernie:  15 primitive shells out of 178 were deleted.
 There are   265 symmetry adapted cartesian basis functions of A   symmetry.
 There are   234 symmetry adapted basis functions of A   symmetry.
   234 basis functions,   362 primitive gaussians,   265 cartesian basis functions
    20 alpha electrons       20 beta electrons
       nuclear repulsion energy       176.8121702784 Hartrees.
 IExCor= 4336 DFT=T Ex+Corr=M062X ExCW=0 ScaHFX=  0.540000
 ScaDFX=  1.000000  1.000000  1.000000  1.000000 ScalE2=  1.000000  1.000000
 IRadAn=      5 IRanWt=     -1 IRanGd=            0 ICorTp=0 IEmpDi=  4
 NAtoms=   11 NActive=   11 NUniq=   11 SFac= 1.00D+00 NAtFMM=   60 NAOKFM=F Big=F
 Integral buffers will be    131072 words long.
 Raffenetti 2 integral format.
 Two-electron integral symmetry is turned on.
 Leave Link  301 at Thu Sep  5 10:53:28 2019, MaxMem=   671088640 cpu:               1.9 elap:               0.9
 (Enter /shared/centos7/gaussian/g16/l302.exe)
 NPDir=0 NMtPBC=     1 NCelOv=     1 NCel=       1 NClECP=     1 NCelD=      1
         NCelK=      1 NCelE2=     1 NClLst=     1 CellRange=     0.0.
 One-electron integrals computed using PRISM.
 One-electron integral symmetry used in STVInt
 NBasis=   234 RedAO= T EigKep=  3.27D-04  NBF=   234
 NBsUse=   234 1.00D-06 EigRej= -1.00D+00 NBFU=   234
 Precomputing XC quadrature grid using
 IXCGrd= 4 IRadAn=           5 IRanWt=          -1 IRanGd=           0 AccXCQ= 0.00D+00.
 Generated NRdTot=       0 NPtTot=           0 NUsed=           0 NTot=          32
 NSgBfM=   265   265   265   265   265 MxSgAt=    11 MxSgA2=    11.
 Leave Link  302 at Thu Sep  5 10:54:21 2019, MaxMem=   671088640 cpu:             106.2 elap:              53.1
 (Enter /shared/centos7/gaussian/g16/l303.exe)
 DipDrv:  MaxL=1.
 Leave Link  303 at Thu Sep  5 10:54:25 2019, MaxMem=   671088640 cpu:               7.8 elap:               3.9
 (Enter /shared/centos7/gaussian/g16/l401.exe)
 ExpMin= 1.03D-01 ExpMax= 1.53D+04 ExpMxC= 5.22D+02 IAcc=3 IRadAn=         5 AccDes= 0.00D+00
 Harris functional with IExCor= 1009 and IRadAn=       5 diagonalized for initial guess.
 HarFok:  IExCor= 1009 AccDes= 0.00D+00 IRadAn=         5 IDoV= 1 UseB2=F ITyADJ=14
 ICtDFT=  3500011 ScaDFX=  1.000000  1.000000  1.000000  1.000000
 FoFCou: FMM=F IPFlag=           0 FMFlag=      100000 FMFlg1=           0
         NFxFlg=           0 DoJE=T BraDBF=F KetDBF=T FulRan=T
         wScrn=  0.000000 ICntrl=       500 IOpCl=  0 I1Cent=   200000004 NGrid=           0
         NMat0=    1 NMatS0=      1 NMatT0=    0 NMatD0=    1 NMtDS0=    0 NMtDT0=    0
 Petite list used in FoFCou.
 Harris En= -268.202195003514    
 JPrj=0 DoOrth=F DoCkMO=F.
 Leave Link  401 at Thu Sep  5 10:54:52 2019, MaxMem=   671088640 cpu:              53.7 elap:              26.8
 (Enter /shared/centos7/gaussian/g16/l502.exe)
 Keep R1 ints in memory in canonical form, NReq=399924305.
 FoFCou: FMM=F IPFlag=           0 FMFlag=           0 FMFlg1=           0
         NFxFlg=           0 DoJE=F BraDBF=F KetDBF=F FulRan=T
         wScrn=  0.000000 ICntrl=       600 IOpCl=  0 I1Cent=           0 NGrid=           0
         NMat0=    1 NMatS0=  27495 NMatT0=    0 NMatD0=    1 NMtDS0=    0 NMtDT0=    0
 Symmetry not used in FoFCou.
 Two-electron integral symmetry not used.
 Closed shell SCF:
 Using DIIS extrapolation, IDIIS=  1040.
 NGot=   671088640 LenX=   292939207 LenY=   292868541
 Requested convergence on RMS density matrix=1.00D-08 within 900 cycles.
 Requested convergence on MAX density matrix=1.00D-06.
 Requested convergence on             energy=1.00D-06.
 No special actions if energy rises.
 Integral accuracy reduced to 1.0D-05 until final iterations.

 Cycle   1  Pass 0  IDiag  1:
 E= -268.197872061714    
 DIIS: error= 1.73D-02 at cycle   1 NSaved=   1.
 NSaved= 1 IEnMin= 1 EnMin= -268.197872061714     IErMin= 1 ErrMin= 1.73D-02
 ErrMax= 1.73D-02  0.00D+00 EMaxC= 1.00D-01 BMatC= 1.69D-01 BMatP= 1.69D-01
 IDIUse=3 WtCom= 8.27D-01 WtEn= 1.73D-01
 Coeff-Com:  0.100D+01
 Coeff-En:   0.100D+01
 Coeff:      0.100D+01
 Gap=     0.361 Goal=   None    Shift=    0.000
 GapD=    0.361 DampG=1.000 DampE=0.500 DampFc=0.5000 IDamp=-1.
 Damping current iteration by 5.00D-01
 RMSDP=1.95D-03 MaxDP=5.81D-02              OVMax= 1.15D-01

 Cycle   2  Pass 0  IDiag  1:
 E= -268.261454453183     Delta-E=       -0.063582391469 Rises=F Damp=T
 DIIS: error= 4.46D-03 at cycle   2 NSaved=   2.
 NSaved= 2 IEnMin= 2 EnMin= -268.261454453183     IErMin= 2 ErrMin= 4.46D-03
 ErrMax= 4.46D-03  0.00D+00 EMaxC= 1.00D-01 BMatC= 1.63D-02 BMatP= 1.69D-01
 IDIUse=3 WtCom= 9.55D-01 WtEn= 4.46D-02
 Coeff-Com: -0.185D+00 0.118D+01
 Coeff-En:   0.000D+00 0.100D+01
 Coeff:     -0.177D+00 0.118D+01
 Gap=     0.351 Goal=   None    Shift=    0.000
 RMSDP=4.23D-04 MaxDP=9.45D-03 DE=-6.36D-02 OVMax= 5.31D-02

 Cycle   3  Pass 0  IDiag  1:
 E= -268.316344812140     Delta-E=       -0.054890358957 Rises=F Damp=F
 DIIS: error= 3.11D-03 at cycle   3 NSaved=   3.
 NSaved= 3 IEnMin= 3 EnMin= -268.316344812140     IErMin= 3 ErrMin= 3.11D-03
 ErrMax= 3.11D-03  0.00D+00 EMaxC= 1.00D-01 BMatC= 3.77D-03 BMatP= 1.63D-02
 IDIUse=3 WtCom= 9.69D-01 WtEn= 3.11D-02
 Coeff-Com: -0.121D+00 0.401D+00 0.720D+00
 Coeff-En:   0.000D+00 0.000D+00 0.100D+01
 Coeff:     -0.117D+00 0.388D+00 0.729D+00
 Gap=     0.346 Goal=   None    Shift=    0.000
 RMSDP=1.76D-04 MaxDP=5.90D-03 DE=-5.49D-02 OVMax= 1.60D-02

 Cycle   4  Pass 0  IDiag  1:
 E= -268.318180753336     Delta-E=       -0.001835941196 Rises=F Damp=F
 DIIS: error= 1.32D-03 at cycle   4 NSaved=   4.
 NSaved= 4 IEnMin= 4 EnMin= -268.318180753336     IErMin= 4 ErrMin= 1.32D-03
 ErrMax= 1.32D-03  0.00D+00 EMaxC= 1.00D-01 BMatC= 8.52D-04 BMatP= 3.77D-03
 IDIUse=3 WtCom= 9.87D-01 WtEn= 1.32D-02
 Coeff-Com: -0.373D-01 0.926D-01 0.367D+00 0.577D+00
 Coeff-En:   0.000D+00 0.000D+00 0.178D+00 0.822D+00
 Coeff:     -0.368D-01 0.914D-01 0.365D+00 0.581D+00
 Gap=     0.342 Goal=   None    Shift=    0.000
 RMSDP=6.85D-05 MaxDP=2.19D-03 DE=-1.84D-03 OVMax= 7.32D-03

 Cycle   5  Pass 0  IDiag  1:
 E= -268.318815850678     Delta-E=       -0.000635097342 Rises=F Damp=F
 DIIS: error= 2.20D-04 at cycle   5 NSaved=   5.
 NSaved= 5 IEnMin= 5 EnMin= -268.318815850678     IErMin= 5 ErrMin= 2.20D-04
 ErrMax= 2.20D-04  0.00D+00 EMaxC= 1.00D-01 BMatC= 1.57D-05 BMatP= 8.52D-04
 IDIUse=3 WtCom= 9.98D-01 WtEn= 2.20D-03
 Coeff-Com: -0.634D-02 0.121D-01 0.878D-01 0.202D+00 0.705D+00
 Coeff-En:   0.000D+00 0.000D+00 0.000D+00 0.000D+00 0.100D+01
 Coeff:     -0.632D-02 0.121D-01 0.876D-01 0.202D+00 0.705D+00
 Gap=     0.342 Goal=   None    Shift=    0.000
 RMSDP=1.31D-05 MaxDP=4.21D-04 DE=-6.35D-04 OVMax= 1.59D-03

 Cycle   6  Pass 0  IDiag  1:
 E= -268.318828258400     Delta-E=       -0.000012407722 Rises=F Damp=F
 DIIS: error= 5.65D-05 at cycle   6 NSaved=   6.
 NSaved= 6 IEnMin= 6 EnMin= -268.318828258400     IErMin= 6 ErrMin= 5.65D-05
 ErrMax= 5.65D-05  0.00D+00 EMaxC= 1.00D-01 BMatC= 1.46D-06 BMatP= 1.57D-05
 IDIUse=1 WtCom= 1.00D+00 WtEn= 0.00D+00
 Coeff-Com: -0.119D-02 0.140D-02 0.236D-01 0.699D-01 0.310D+00 0.596D+00
 Coeff:     -0.119D-02 0.140D-02 0.236D-01 0.699D-01 0.310D+00 0.596D+00
 Gap=     0.342 Goal=   None    Shift=    0.000
 RMSDP=3.89D-06 MaxDP=1.45D-04 DE=-1.24D-05 OVMax= 5.64D-04

 Initial convergence to 1.0D-05 achieved.  Increase integral accuracy.
 Cycle   7  Pass 1  IDiag  1:
 E= -268.318842780887     Delta-E=       -0.000014522487 Rises=F Damp=F
 DIIS: error= 2.67D-05 at cycle   1 NSaved=   1.
 NSaved= 1 IEnMin= 1 EnMin= -268.318842780887     IErMin= 1 ErrMin= 2.67D-05
 ErrMax= 2.67D-05  0.00D+00 EMaxC= 1.00D-01 BMatC= 3.52D-07 BMatP= 3.52D-07
 IDIUse=1 WtCom= 1.00D+00 WtEn= 0.00D+00
 Coeff-Com:  0.100D+01
 Coeff:      0.100D+01
 Gap=     0.342 Goal=   None    Shift=    0.000
 RMSDP=3.89D-06 MaxDP=1.45D-04 DE=-1.45D-05 OVMax= 3.81D-04

 Cycle   8  Pass 1  IDiag  1:
 E= -268.318842816804     Delta-E=       -0.000000035917 Rises=F Damp=F
 DIIS: error= 2.74D-05 at cycle   2 NSaved=   2.
 NSaved= 2 IEnMin= 2 EnMin= -268.318842816804     IErMin= 1 ErrMin= 2.67D-05
 ErrMax= 2.74D-05  0.00D+00 EMaxC= 1.00D-01 BMatC= 3.10D-07 BMatP= 3.52D-07
 IDIUse=1 WtCom= 1.00D+00 WtEn= 0.00D+00
 Coeff-Com:  0.480D+00 0.520D+00
 Coeff:      0.480D+00 0.520D+00
 Gap=     0.342 Goal=   None    Shift=    0.000
 RMSDP=1.77D-06 MaxDP=5.99D-05 DE=-3.59D-08 OVMax= 2.56D-04

 Cycle   9  Pass 1  IDiag  1:
 E= -268.318843053933     Delta-E=       -0.000000237129 Rises=F Damp=F
 DIIS: error= 6.81D-06 at cycle   3 NSaved=   3.
 NSaved= 3 IEnMin= 3 EnMin= -268.318843053933     IErMin= 3 ErrMin= 6.81D-06
 ErrMax= 6.81D-06  0.00D+00 EMaxC= 1.00D-01 BMatC= 2.21D-08 BMatP= 3.10D-07
 IDIUse=1 WtCom= 1.00D+00 WtEn= 0.00D+00
 Coeff-Com: -0.326D-01 0.194D+00 0.839D+00
 Coeff:     -0.326D-01 0.194D+00 0.839D+00
 Gap=     0.342 Goal=   None    Shift=    0.000
 RMSDP=5.51D-07 MaxDP=1.40D-05 DE=-2.37D-07 OVMax= 5.69D-05

 Cycle  10  Pass 1  IDiag  1:
 E= -268.318843072723     Delta-E=       -0.000000018790 Rises=F Damp=F
 DIIS: error= 1.35D-06 at cycle   4 NSaved=   4.
 NSaved= 4 IEnMin= 4 EnMin= -268.318843072723     IErMin= 4 ErrMin= 1.35D-06
 ErrMax= 1.35D-06  0.00D+00 EMaxC= 1.00D-01 BMatC= 6.58D-10 BMatP= 2.21D-08
 IDIUse=1 WtCom= 1.00D+00 WtEn= 0.00D+00
 Coeff-Com: -0.211D-01 0.601D-01 0.305D+00 0.656D+00
 Coeff:     -0.211D-01 0.601D-01 0.305D+00 0.656D+00
 Gap=     0.342 Goal=   None    Shift=    0.000
 RMSDP=8.49D-08 MaxDP=2.43D-06 DE=-1.88D-08 OVMax= 9.34D-06

 Cycle  11  Pass 1  IDiag  1:
 E= -268.318843073273     Delta-E=       -0.000000000550 Rises=F Damp=F
 DIIS: error= 5.00D-07 at cycle   5 NSaved=   5.
 NSaved= 5 IEnMin= 5 EnMin= -268.318843073273     IErMin= 5 ErrMin= 5.00D-07
 ErrMax= 5.00D-07  0.00D+00 EMaxC= 1.00D-01 BMatC= 1.02D-10 BMatP= 6.58D-10
 IDIUse=1 WtCom= 1.00D+00 WtEn= 0.00D+00
 Coeff-Com: -0.204D-02-0.137D-01-0.376D-01 0.228D+00 0.825D+00
 Coeff:     -0.204D-02-0.137D-01-0.376D-01 0.228D+00 0.825D+00
 Gap=     0.342 Goal=   None    Shift=    0.000
 RMSDP=5.22D-08 MaxDP=1.07D-06 DE=-5.50D-10 OVMax= 5.13D-06

 Cycle  12  Pass 1  IDiag  1:
 E= -268.318843073388     Delta-E=       -0.000000000114 Rises=F Damp=F
 DIIS: error= 1.49D-07 at cycle   6 NSaved=   6.
 NSaved= 6 IEnMin= 6 EnMin= -268.318843073388     IErMin= 6 ErrMin= 1.49D-07
 ErrMax= 1.49D-07  0.00D+00 EMaxC= 1.00D-01 BMatC= 1.05D-11 BMatP= 1.02D-10
 IDIUse=1 WtCom= 1.00D+00 WtEn= 0.00D+00
 Coeff-Com:  0.202D-02-0.123D-01-0.508D-01-0.471D-02 0.298D+00 0.767D+00
 Coeff:      0.202D-02-0.123D-01-0.508D-01-0.471D-02 0.298D+00 0.767D+00
 Gap=     0.342 Goal=   None    Shift=    0.000
 RMSDP=1.94D-08 MaxDP=3.69D-07 DE=-1.14D-10 OVMax= 2.19D-06

 Cycle  13  Pass 1  IDiag  1:
 E= -268.318843073400     Delta-E=       -0.000000000012 Rises=F Damp=F
 DIIS: error= 3.18D-08 at cycle   7 NSaved=   7.
 NSaved= 7 IEnMin= 7 EnMin= -268.318843073400     IErMin= 7 ErrMin= 3.18D-08
 ErrMax= 3.18D-08  0.00D+00 EMaxC= 1.00D-01 BMatC= 7.90D-13 BMatP= 1.05D-11
 IDIUse=1 WtCom= 1.00D+00 WtEn= 0.00D+00
 Coeff-Com:  0.820D-03-0.348D-02-0.154D-01-0.175D-01 0.536D-01 0.258D+00
 Coeff-Com:  0.724D+00
 Coeff:      0.820D-03-0.348D-02-0.154D-01-0.175D-01 0.536D-01 0.258D+00
 Coeff:      0.724D+00
 Gap=     0.342 Goal=   None    Shift=    0.000
 RMSDP=4.76D-09 MaxDP=1.03D-07 DE=-1.22D-11 OVMax= 5.18D-07

 SCF Done:  E(RM062X) =  -268.318843073     A.U. after   13 cycles
            NFock= 13  Conv=0.48D-08     -V/T= 2.0062
 KE= 2.666740199551D+02 PE=-9.819100883491D+02 EE= 2.701050550421D+02
 Leave Link  502 at Thu Sep  5 10:59:39 2019, MaxMem=   671088640 cpu:             567.3 elap:             287.2
 (Enter /shared/centos7/gaussian/g16/l801.exe)
 DoSCS=F DFT=T ScalE2(SS,OS)=  1.000000  1.000000
 Range of M.O.s used for correlation:     1   234
 NBasis=   234 NAE=    20 NBE=    20 NFC=     0 NFV=     0
 NROrb=    234 NOA=    20 NOB=    20 NVA=   214 NVB=   214

 **** Warning!!: The largest alpha MO coefficient is  0.11380454D+02

 Leave Link  801 at Thu Sep  5 10:59:40 2019, MaxMem=   671088640 cpu:               1.4 elap:               0.7
 (Enter /shared/centos7/gaussian/g16/l1101.exe)
 Using compressed storage, NAtomX=    11.
 Will process     12 centers per pass.
 Leave Link 1101 at Thu Sep  5 11:00:00 2019, MaxMem=   671088640 cpu:              40.9 elap:              20.5
 (Enter /shared/centos7/gaussian/g16/l1102.exe)
 Symmetrizing basis deriv contribution to polar:
 IMax=3 JMax=2 DiffMx= 0.00D+00
 Leave Link 1102 at Thu Sep  5 11:00:02 2019, MaxMem=   671088640 cpu:               4.6 elap:               2.3
 (Enter /shared/centos7/gaussian/g16/l1110.exe)
 Forming Gx(P) for the SCF density, NAtomX=    11.
 Integral derivatives from FoFJK, PRISM(SPDF).
 Do as many integral derivatives as possible in FoFJK.
 G2DrvN: MDV=     671087712.
 G2DrvN: will do    12 centers at a time, making    1 passes.
 Calling FoFCou, ICntrl=  3107 FMM=F I1Cent=   0 AccDes= 0.00D+00.
 FoFJK:  IHMeth= 1 ICntrl=    3107 DoSepK=F KAlg= 0 I1Cent=           0 FoldK=F
 IRaf=         0 NMat=       1 IRICut=       1 DoRegI=T DoRafI=F ISym2E= 0 IDoP0=0 IntGTp=1.
 FoFCou: FMM=F IPFlag=           0 FMFlag=      100000 FMFlg1=           0
         NFxFlg=           0 DoJE=F BraDBF=F KetDBF=F FulRan=T
         wScrn=  0.000000 ICntrl=      3107 IOpCl=  0 I1Cent=           0 NGrid=           0
         NMat0=    1 NMatS0=      1 NMatT0=    0 NMatD0=    1 NMtDS0=    0 NMtDT0=    0
 Symmetry not used in FoFCou.
 End of G2Drv F.D. properties file   721 does not exist.
 End of G2Drv F.D. properties file   722 does not exist.
 End of G2Drv F.D. properties file   788 does not exist.
 Leave Link 1110 at Thu Sep  5 11:05:15 2019, MaxMem=   671088640 cpu:             625.3 elap:             312.7
 (Enter /shared/centos7/gaussian/g16/l1002.exe)
 Minotr:  Closed shell wavefunction.
          IDoAtm=11111111111
          Direct CPHF calculation.
          Differentiating once with respect to nuclear coordinates.
          Requested convergence is 1.0D-08 RMS, and 1.0D-07 maximum.
          Secondary convergence is 1.0D-12 RMS, and 1.0D-12 maximum.
          NewPWx=T KeepS1=F KeepF1=F KeepIn=T MapXYZ=F SortEE=F KeepMc=T.
         3272 words used for storage of precomputed grid.
 Keep R1 ints in memory in canonical form, NReq=399865271.
 FoFCou: FMM=F IPFlag=           0 FMFlag=           0 FMFlg1=           0
         NFxFlg=           0 DoJE=F BraDBF=F KetDBF=F FulRan=T
         wScrn=  0.000000 ICntrl=       600 IOpCl=  0 I1Cent=           0 NGrid=           0
         NMat0=    1 NMatS0=  27495 NMatT0=    0 NMatD0=    1 NMtDS0=    0 NMtDT0=    0
 Symmetry not used in FoFCou.
 Two-electron integral symmetry not used.
          MDV=     671088640 using IRadAn=       1.
          Solving linear equations simultaneously, MaxMat=       0.
          There are    36 degrees of freedom in the 1st order CPHF.  IDoFFX=6 NUNeed=     0.
     30 vectors produced by pass  0 Test12= 1.19D-14 2.78D-09 XBig12= 6.30D-02 6.60D-02.
 AX will form    30 AO Fock derivatives at one time.
     30 vectors produced by pass  1 Test12= 1.19D-14 2.78D-09 XBig12= 1.29D-02 3.03D-02.
     30 vectors produced by pass  2 Test12= 1.19D-14 2.78D-09 XBig12= 5.07D-04 5.19D-03.
     30 vectors produced by pass  3 Test12= 1.19D-14 2.78D-09 XBig12= 6.32D-06 3.20D-04.
     30 vectors produced by pass  4 Test12= 1.19D-14 2.78D-09 XBig12= 4.92D-08 3.10D-05.
     30 vectors produced by pass  5 Test12= 1.19D-14 2.78D-09 XBig12= 1.96D-10 2.09D-06.
     16 vectors produced by pass  6 Test12= 1.19D-14 2.78D-09 XBig12= 7.24D-13 1.03D-07.
      2 vectors produced by pass  7 Test12= 1.19D-14 2.78D-09 XBig12= 2.93D-15 7.31D-09.
 InvSVY:  IOpt=1 It=  1 EMax= 1.78D-15
 Solved reduced A of dimension   198 with    30 vectors.
 End of Minotr F.D. properties file   721 does not exist.
 End of Minotr F.D. properties file   722 does not exist.
 End of Minotr F.D. properties file   788 does not exist.
 Leave Link 1002 at Thu Sep  5 11:12:30 2019, MaxMem=   671088640 cpu:             870.2 elap:             435.2
 (Enter /shared/centos7/gaussian/g16/l601.exe)
 Copying SCF densities to generalized density rwf, IOpCl= 0 IROHF=0.

 **********************************************************************

            Population analysis using the SCF density.

 **********************************************************************

 Orbital symmetries:
       Occupied  (A) (A) (A) (A) (A) (A) (A) (A) (A) (A) (A) (A)
                 (A) (A) (A) (A) (A) (A) (A) (A)
       Virtual   (A) (A) (A) (A) (A) (A) (A) (A) (A) (A) (A) (A)
                 (A) (A) (A) (A) (A) (A) (A) (A) (A) (A) (A) (A)
                 (A) (A) (A) (A) (A) (A) (A) (A) (A) (A) (A) (A)
                 (A) (A) (A) (A) (A) (A) (A) (A) (A) (A) (A) (A)
                 (A) (A) (A) (A) (A) (A) (A) (A) (A) (A) (A) (A)
                 (A) (A) (A) (A) (A) (A) (A) (A) (A) (A) (A) (A)
                 (A) (A) (A) (A) (A) (A) (A) (A) (A) (A) (A) (A)
                 (A) (A) (A) (A) (A) (A) (A) (A) (A) (A) (A) (A)
                 (A) (A) (A) (A) (A) (A) (A) (A) (A) (A) (A) (A)
                 (A) (A) (A) (A) (A) (A) (A) (A) (A) (A) (A) (A)
                 (A) (A) (A) (A) (A) (A) (A) (A) (A) (A) (A) (A)
                 (A) (A) (A) (A) (A) (A) (A) (A) (A) (A) (A) (A)
                 (A) (A) (A) (A) (A) (A) (A) (A) (A) (A) (A) (A)
                 (A) (A) (A) (A) (A) (A) (A) (A) (A) (A) (A) (A)
                 (A) (A) (A) (A) (A) (A) (A) (A) (A) (A) (A) (A)
                 (A) (A) (A) (A) (A) (A) (A) (A) (A) (A) (A) (A)
                 (A) (A) (A) (A) (A) (A) (A) (A) (A) (A) (A) (A)
                 (A) (A) (A) (A) (A) (A) (A) (A) (A) (A)
 The electronic state is 1-A.
 Alpha  occ. eigenvalues --  -19.65392 -19.64465 -10.59927 -10.58699 -10.57699
 Alpha  occ. eigenvalues --   -1.18589  -1.15304  -0.85821  -0.77807  -0.67649
 Alpha  occ. eigenvalues --   -0.60969  -0.58303  -0.54070  -0.51060  -0.49450
 Alpha  occ. eigenvalues --   -0.46250  -0.44142  -0.42432  -0.37726  -0.28003
 Alpha virt. eigenvalues --    0.06215   0.07726   0.08827   0.10333   0.12837
 Alpha virt. eigenvalues --    0.13741   0.15621   0.15903   0.21132   0.27501
 Alpha virt. eigenvalues --    0.28475   0.30556   0.33183   0.34365   0.36696
 Alpha virt. eigenvalues --    0.37032   0.40996   0.41716   0.45196   0.46483
 Alpha virt. eigenvalues --    0.47597   0.47703   0.48602   0.49407   0.51331
 Alpha virt. eigenvalues --    0.52224   0.54893   0.58540   0.60196   0.62242
 Alpha virt. eigenvalues --    0.67136   0.68350   0.70727   0.71824   0.73241
 Alpha virt. eigenvalues --    0.78230   0.81359   0.83645   0.85758   0.86837
 Alpha virt. eigenvalues --    0.89258   0.91285   0.93908   1.00297   1.01204
 Alpha virt. eigenvalues --    1.03359   1.04659   1.07388   1.08696   1.12229
 Alpha virt. eigenvalues --    1.13547   1.16942   1.17729   1.21197   1.24850
 Alpha virt. eigenvalues --    1.26502   1.27479   1.30976   1.34102   1.34449
 Alpha virt. eigenvalues --    1.34984   1.37622   1.38696   1.43528   1.51318
 Alpha virt. eigenvalues --    1.52306   1.54248   1.57222   1.62547   1.82569
 Alpha virt. eigenvalues --    1.86777   1.91755   1.97427   1.99672   2.01289
 Alpha virt. eigenvalues --    2.02489   2.10071   2.10857   2.13336   2.19776
 Alpha virt. eigenvalues --    2.20826   2.24986   2.26309   2.31915   2.34295
 Alpha virt. eigenvalues --    2.37622   2.40548   2.47915   2.51978   2.58157
 Alpha virt. eigenvalues --    2.64351   2.64995   2.73074   2.75092   2.76776
 Alpha virt. eigenvalues --    2.77423   2.79581   2.79869   2.84257   2.88441
 Alpha virt. eigenvalues --    2.89571   2.91362   2.93285   2.95304   2.98548
 Alpha virt. eigenvalues --    3.00003   3.01677   3.04676   3.05457   3.07236
 Alpha virt. eigenvalues --    3.09745   3.11645   3.14007   3.18669   3.20568
 Alpha virt. eigenvalues --    3.23576   3.27031   3.27765   3.28641   3.31176
 Alpha virt. eigenvalues --    3.31536   3.33793   3.36526   3.37591   3.38975
 Alpha virt. eigenvalues --    3.43883   3.44994   3.47568   3.48280   3.56167
 Alpha virt. eigenvalues --    3.59932   3.63082   3.65319   3.66312   3.69873
 Alpha virt. eigenvalues --    3.72248   3.74516   3.75400   3.77757   3.80215
 Alpha virt. eigenvalues --    3.81250   3.85342   3.88137   3.90646   3.92151
 Alpha virt. eigenvalues --    3.95190   3.96758   4.00180   4.03423   4.06288
 Alpha virt. eigenvalues --    4.09923   4.12192   4.14715   4.18493   4.21173
 Alpha virt. eigenvalues --    4.29053   4.34845   4.37256   4.42460   4.49750
 Alpha virt. eigenvalues --    4.51424   4.54943   4.59724   4.64156   4.70391
 Alpha virt. eigenvalues --    4.70577   4.73756   4.79653   4.81707   4.89663
 Alpha virt. eigenvalues --    4.91581   4.96284   4.97212   5.00729   5.02905
 Alpha virt. eigenvalues --    5.05644   5.11699   5.12659   5.14216   5.28377
 Alpha virt. eigenvalues --    5.37075   5.40806   5.48872   5.52043   5.59449
 Alpha virt. eigenvalues --    5.68268   5.72019   5.73315   5.82264   5.85714
 Alpha virt. eigenvalues --    5.96482   6.09451   6.17860   6.27411   6.33551
 Alpha virt. eigenvalues --    6.34837   6.48213   6.59208   6.68951   6.71020
 Alpha virt. eigenvalues --    6.75857   6.77824   6.80853   6.93825   7.05130
 Alpha virt. eigenvalues --    7.13351   7.21882   7.25879   7.32771   9.86078
 Alpha virt. eigenvalues --   10.75382  11.74646  12.77658  14.06362
          Condensed to atoms (all electrons):
               1          2          3          4          5          6
     1  O    7.905295  -0.006248   0.302789   0.310579  -0.076558  -0.049899
     2  O   -0.006248   7.795272   0.000711  -0.085173   0.367272   0.000039
     3  C    0.302789   0.000711   4.722008  -0.085059  -0.000949   0.384018
     4  C    0.310579  -0.085173  -0.085059   5.025190   0.581205   0.006728
     5  C   -0.076558   0.367272  -0.000949   0.581205   4.813312   0.007253
     6  H   -0.049899   0.000039   0.384018   0.006728   0.007253   0.667473
     7  H   -0.042967   0.000013   0.403272  -0.017929  -0.003997  -0.065560
     8  H   -0.028650  -0.000016   0.397761   0.007637  -0.000088  -0.035322
     9  H   -0.049129   0.005019  -0.004335   0.397533  -0.061972  -0.002993
    10  H    0.003545  -0.034043  -0.000376  -0.065137   0.417908  -0.000171
    11  H    0.024508   0.327815  -0.000987  -0.018040  -0.049145  -0.001270
               7          8          9         10         11
     1  O   -0.042967  -0.028650  -0.049129   0.003545   0.024508
     2  O    0.000013  -0.000016   0.005019  -0.034043   0.327815
     3  C    0.403272   0.397761  -0.004335  -0.000376  -0.000987
     4  C   -0.017929   0.007637   0.397533  -0.065137  -0.018040
     5  C   -0.003997  -0.000088  -0.061972   0.417908  -0.049145
     6  H   -0.065560  -0.035322  -0.002993  -0.000171  -0.001270
     7  H    0.663135  -0.031219   0.013302  -0.000041   0.000575
     8  H   -0.031219   0.573619  -0.000160   0.000033  -0.000109
     9  H    0.013302  -0.000160   0.593988  -0.004422   0.001689
    10  H   -0.000041   0.000033  -0.004422   0.520126   0.006231
    11  H    0.000575  -0.000109   0.001689   0.006231   0.429634
 Mulliken charges:
               1
     1  O   -0.293267
     2  O   -0.370662
     3  C   -0.118854
     4  C   -0.057534
     5  C    0.005758
     6  H    0.089704
     7  H    0.081416
     8  H    0.116516
     9  H    0.111479
    10  H    0.156346
    11  H    0.279099
 Sum of Mulliken charges =  -0.00000
 Mulliken charges with hydrogens summed into heavy atoms:
               1
     1  O   -0.293267
     2  O   -0.091564
     3  C    0.168781
     4  C    0.053945
     5  C    0.162104
 APT charges:
               1
     1  O   -0.225087
     2  O   -0.303619
     3  C   -0.916268
     4  C   -0.391027
     5  C   -0.381112
     6  H    0.260723
     7  H    0.321396
     8  H    0.467060
     9  H    0.345739
    10  H    0.500614
    11  H    0.321579
 Sum of APT charges =  -0.00000
 APT charges with hydrogens summed into heavy atoms:
               1
     1  O   -0.225087
     2  O    0.017960
     3  C    0.132912
     4  C   -0.045288
     5  C    0.119503
 Electronic spatial extent (au):  <R**2>=            469.5261
 Charge=             -0.0000 electrons
 Dipole moment (field-independent basis, Debye):
    X=             -1.9528    Y=              0.6153    Z=              0.7529  Tot=              2.1815
 Quadrupole moment (field-independent basis, Debye-Ang):
   XX=            -30.1998   YY=            -27.1425   ZZ=            -32.7541
   XY=              2.2509   XZ=             -0.9982   YZ=              0.4624
 Traceless Quadrupole moment (field-independent basis, Debye-Ang):
   XX=             -0.1677   YY=              2.8896   ZZ=             -2.7220
   XY=              2.2509   XZ=             -0.9982   YZ=              0.4624
 Octapole moment (field-independent basis, Debye-Ang**2):
  XXX=            -12.0523  YYY=             -5.4647  ZZZ=             -0.9112  XYY=              1.5678
  XXY=              4.4788  XXZ=              0.7320  XZZ=              0.6201  YZZ=             -2.8345
  YYZ=             -0.9145  XYZ=              1.8091
 Hexadecapole moment (field-independent basis, Debye-Ang**3):
 XXXX=           -431.7254 YYYY=           -101.2156 ZZZZ=            -54.1269 XXXY=             19.6105
 XXXZ=              4.2319 YYYX=             -6.5795 YYYZ=              2.8113 ZZZX=              1.0295
 ZZZY=             -0.2015 XXYY=            -85.3953 XXZZ=            -83.5419 YYZZ=            -29.5460
 XXYZ=              4.3479 YYXZ=              1.6556 ZZXY=             -0.8600
 N-N= 1.768121702784D+02 E-N=-9.819100777439D+02  KE= 2.666740199551D+02
  Exact polarizability:   0.000   0.000   0.000   0.000   0.000   0.000
 Approx polarizability:  64.712  -2.191  50.677   3.007   0.524  40.515
 No NMR shielding tensors so no spin-rotation constants.
 Leave Link  601 at Thu Sep  5 11:12:49 2019, MaxMem=   671088640 cpu:              36.2 elap:              18.1
 (Enter /shared/centos7/gaussian/g16/l701.exe)
 SCFChk:  SCF convergence  4.76D-09 required  1.00D-08
 ... and contract with generalized density number  0.
 Compute integral second derivatives.
 Entering OneElI...
 Calculate overlap and kinetic energy integrals
    NBasis = 265  MinDer = 2  MaxDer = 2
 Requested accuracy = 0.1000D-12
 PrmmSu-InSpLW:  IPartL=    0 NPrtUS=   20 NPrtUL=    1 DoSpLW=F IThBeg=    0 IThEnd=   19 NThAct=   20.
 PrsmSu:  NPrtUS=  20 ThrOK=T IAlg=1 NPAlg=1 LenDen=           0 ISkipM=0 DoSpLW=F IThBeg=    0 IThEnd=   19.
 Prism:   IPart=     0 DynPar=F LinDyn=F Incr=           1.
 PRISM was handed    33439027 working-precision words and  3737 shell-pairs
 PRISM was handed    33439027 working-precision words and  3737 shell-pairs
 PRISM was handed    33439027 working-precision words and  3737 shell-pairs
 PRISM was handed    33439027 working-precision words and  3737 shell-pairs
 PRISM was handed    33439027 working-precision words and  3737 shell-pairs
 PRISM was handed    33439027 working-precision words and  3737 shell-pairs
 PRISM was handed    33439027 working-precision words and  3737 shell-pairs
 PRISM was handed    33439027 working-precision words and  3737 shell-pairs
 PRISM was handed    33439027 working-precision words and  3737 shell-pairs
 PRISM was handed    33439027 working-precision words and  3737 shell-pairs
 PRISM was handed    33439027 working-precision words and  3737 shell-pairs
 PRISM was handed    33439027 working-precision words and  3737 shell-pairs
 PRISM was handed    33439027 working-precision words and  3737 shell-pairs
 PRISM was handed    33439027 working-precision words and  3737 shell-pairs
 PRISM was handed    33439027 working-precision words and  3737 shell-pairs
 IPart=  0 NShTot=         227 NBatch=          67 AvBLen=         3.4
 IPart=  8 NShTot=         184 NBatch=          30 AvBLen=         6.1
 PRISM was handed    33439027 working-precision words and  3737 shell-pairs
 IPart= 11 NShTot=         176 NBatch=          27 AvBLen=         6.5
 IPart=  3 NShTot=         211 NBatch=          52 AvBLen=         4.1
 IPart=  1 NShTot=         225 NBatch=          65 AvBLen=         3.5
 IPart=  4 NShTot=         207 NBatch=          48 AvBLen=         4.3
 PRISM was handed    33439027 working-precision words and  3737 shell-pairs
 IPart= 19 NShTot=         162 NBatch=          25 AvBLen=         6.5
 PRISM was handed    33439027 working-precision words and  3737 shell-pairs
 IPart= 18 NShTot=         165 NBatch=          25 AvBLen=         6.6
 IPart= 15 NShTot=         170 NBatch=          26 AvBLen=         6.5
 IPart=  9 NShTot=         180 NBatch=          28 AvBLen=         6.4
 IPart= 12 NShTot=         174 NBatch=          27 AvBLen=         6.4
 IPart= 10 NShTot=         178 NBatch=          28 AvBLen=         6.4
 PRISM was handed    33439027 working-precision words and  3737 shell-pairs
 PRISM was handed    33439027 working-precision words and  3737 shell-pairs
 IPart= 14 NShTot=         172 NBatch=          27 AvBLen=         6.4
 IPart= 13 NShTot=         173 NBatch=          27 AvBLen=         6.4
 IPart=  6 NShTot=         195 NBatch=          39 AvBLen=         5.0
 IPart=  5 NShTot=         197 NBatch=          41 AvBLen=         4.8
 IPart= 16 NShTot=         168 NBatch=          25 AvBLen=         6.7
 IPart= 17 NShTot=         167 NBatch=          25 AvBLen=         6.7
 IPart=  2 NShTot=         215 NBatch=          56 AvBLen=         3.8
 IPart=  7 NShTot=         191 NBatch=          36 AvBLen=         5.3
 PrSmSu:  NxtVal=             21.
 Entering OneElI...
 Calculate potential energy integrals
    NBasis = 265  MinDer = 2  MaxDer = 2
 Requested accuracy = 0.1000D-12
 PrmmSu-InSpLW:  IPartL=    0 NPrtUS=   20 NPrtUL=    1 DoSpLW=F IThBeg=    0 IThEnd=   19 NThAct=   20.
 PrsmSu:  NPrtUS=  20 ThrOK=T IAlg=1 NPAlg=1 LenDen=           0 ISkipM=0 DoSpLW=F IThBeg=    0 IThEnd=   19.
 Prism:   IPart=     0 DynPar=F LinDyn=F Incr=          19.
 PRISM was handed    33456234 working-precision words and  3537 shell-pairs
 PRISM was handed    33456234 working-precision words and  3537 shell-pairs
 PRISM was handed    33456234 working-precision words and  3537 shell-pairs
 PRISM was handed    33456234 working-precision words and  3537 shell-pairs
 PRISM was handed    33456234 working-precision words and  3537 shell-pairs
 PRISM was handed    33456234 working-precision words and  3537 shell-pairs
 PRISM was handed    33456234 working-precision words and  3537 shell-pairs
 PRISM was handed    33456234 working-precision words and  3537 shell-pairs
 PRISM was handed    33456234 working-precision words and  3537 shell-pairs
 PRISM was handed    33456234 working-precision words and  3537 shell-pairs
 PRISM was handed    33456234 working-precision words and  3537 shell-pairs
 PRISM was handed    33456234 working-precision words and  3537 shell-pairs
 PRISM was handed    33456234 working-precision words and  3537 shell-pairs
 PRISM was handed    33456234 working-precision words and  3537 shell-pairs
 PRISM was handed    33456234 working-precision words and  3537 shell-pairs
 PRISM was handed    33456234 working-precision words and  3537 shell-pairs
 PRISM was handed    33456234 working-precision words and  3537 shell-pairs
 PRISM was handed    33456234 working-precision words and  3537 shell-pairs
 PRISM was handed    33456234 working-precision words and  3537 shell-pairs
 PRISM was handed    33456234 working-precision words and  3537 shell-pairs
 IPart=  0 NShTot=        2398 NBatch=         218 AvBLen=        11.0
 IPart=  8 NShTot=        1903 NBatch=         173 AvBLen=        11.0
 IPart=  3 NShTot=        2134 NBatch=         194 AvBLen=        11.0
 IPart=  1 NShTot=        2277 NBatch=         207 AvBLen=        11.0
 IPart=  4 NShTot=        2090 NBatch=         190 AvBLen=        11.0
 IPart= 16 NShTot=        1804 NBatch=         164 AvBLen=        11.0
 IPart= 11 NShTot=        1859 NBatch=         169 AvBLen=        11.0
 IPart= 10 NShTot=        1870 NBatch=         170 AvBLen=        11.0
 IPart= 14 NShTot=        1837 NBatch=         167 AvBLen=        11.0
 IPart=  5 NShTot=        1958 NBatch=         178 AvBLen=        11.0
 IPart=  9 NShTot=        1892 NBatch=         172 AvBLen=        11.0
 IPart=  6 NShTot=        1936 NBatch=         176 AvBLen=        11.0
 IPart=  2 NShTot=        2233 NBatch=         203 AvBLen=        11.0
 IPart= 17 NShTot=        1782 NBatch=         162 AvBLen=        11.0
 IPart= 18 NShTot=        1760 NBatch=         160 AvBLen=        11.0
 IPart= 15 NShTot=        1804 NBatch=         164 AvBLen=        11.0
 IPart=  7 NShTot=        1925 NBatch=         175 AvBLen=        11.0
 IPart= 12 NShTot=        1848 NBatch=         168 AvBLen=        11.0
 IPart= 13 NShTot=        1837 NBatch=         167 AvBLen=        11.0
 IPart= 19 NShTot=        1760 NBatch=         160 AvBLen=        11.0
 PrSmSu:  NxtVal=            381.
 Polarizability after L701:
                1             2             3 
      1  0.000000D+00
      2  0.000000D+00  0.000000D+00
      3  0.000000D+00  0.000000D+00  0.000000D+00
 Dipole Derivatives after L701:
                 1             2             3             4             5 
      1  -0.245652D+00  0.197316D-02  0.386912D-01  0.303172D+00 -0.891124D-01
      2  -0.457914D-01 -0.251816D+00  0.601643D-01 -0.613539D+00 -0.786593D+00
      3   0.524030D-01  0.112588D+00 -0.177792D+00 -0.208577D-01 -0.106530D+00
                 6             7             8             9            10 
      1   0.155840D+00 -0.121489D+01 -0.488949D-01  0.342755D+00 -0.393910D+00
      2  -0.186055D+00  0.264552D-01 -0.771196D+00  0.384737D-01 -0.975248D-01
      3  -0.427435D+00  0.427386D-01  0.280449D-01 -0.762712D+00 -0.188814D+00
                11            12            13            14            15 
      1   0.153124D+00 -0.170571D+00 -0.649727D+00 -0.208302D+00 -0.211617D+00
      2  -0.750354D+00 -0.202486D+00  0.907621D-01 -0.518275D+00 -0.355607D-01
      3  -0.137972D+00 -0.288160D-01 -0.169243D+00 -0.162443D-01  0.246671D-01
                16            17            18            19            20 
      1   0.624912D-01  0.123609D+00 -0.518763D+00  0.425543D+00 -0.753109D+00
      2  -0.732063D-01  0.167047D+00 -0.202878D+00 -0.129707D+00  0.402249D+00
      3   0.883318D-01 -0.156027D+00  0.552630D+00 -0.603831D-01  0.622686D-01
                21            22            23            24            25 
      1  -0.143907D+00  0.856537D+00  0.720134D+00  0.384368D+00  0.186069D+00
      2  -0.729571D-05  0.259509D+00  0.366764D+00  0.167499D+00 -0.253889D+00
      3   0.136396D+00  0.494139D-01  0.788365D-01  0.177880D+00  0.564490D-01
                26            27            28            29            30 
      1  -0.159204D+00  0.294800D-01  0.783166D+00  0.637015D+00  0.226973D+00
      2   0.790820D+00  0.656917D-01  0.380283D+00  0.584154D+00  0.144923D+00
      3  -0.363005D-01  0.603271D-01  0.114256D+00  0.119329D+00  0.134523D+00
                31            32            33 
      1  -0.112794D+00 -0.377232D+00 -0.133250D+00
      2   0.456646D+00  0.767199D+00  0.150236D+00
      3   0.357058D-01  0.520079D-01  0.310331D+00
 Hessian after L701:
                1             2             3             4             5 
      1  0.422132D+01
      2 -0.396118D+01  0.109549D+02
      3  0.135729D+01 -0.141652D+01  0.123905D+02
      4  0.772322D+00 -0.209368D+00  0.333032D+00  0.800474D+01
      5 -0.100977D+00 -0.409126D+00 -0.203398D-01  0.131636D+01  0.409545D+01
      6  0.357093D+00 -0.496359D-01 -0.380627D+00 -0.110579D+01 -0.958630D+00
      7 -0.132671D+01  0.220494D+00 -0.377034D+01  0.272273D+00 -0.340668D-01
      8  0.289095D+00 -0.716862D+01  0.711451D-01 -0.729787D-01 -0.133685D+00
      9 -0.364870D+01  0.105566D+00 -0.481599D+01  0.141776D-02  0.136141D-03
     10 -0.424772D+01  0.434191D+01  0.131189D+01  0.444847D+00 -0.220319D+00
     11  0.442125D+01 -0.348675D+01  0.179185D+01 -0.128670D+00 -0.204803D+00
     12  0.121590D+01  0.168064D+01 -0.730371D+01 -0.405932D-01 -0.888919D-01
     13  0.458734D+00 -0.981005D-01  0.702754D-01 -0.689778D+01 -0.304282D+01
     14 -0.216065D+00 -0.338985D+00 -0.929636D-01 -0.333985D+01 -0.168818D+00
     15  0.575124D-01 -0.740490D-01  0.104580D+00 -0.523733D-01  0.337141D+00
     16 -0.157732D+00  0.155488D-02  0.308339D+00  0.290418D-01 -0.300008D-02
     17 -0.218667D-01  0.176820D+00 -0.119032D+00  0.699573D-02 -0.214780D-01
     18  0.288658D+00 -0.141695D+00  0.210893D+00 -0.513412D-01 -0.275102D-02
     19  0.120830D-01 -0.104984D+00  0.221112D+00  0.335215D-01 -0.124197D-01
     20 -0.131878D+00  0.305964D+00 -0.535273D-01 -0.347300D-01 -0.363267D-02
     21  0.167194D+00 -0.474198D-01 -0.858063D-01 -0.548786D-02 -0.119434D-03
     22 -0.194049D-01  0.749630D-01  0.128309D+00  0.472187D-01  0.708359D-02
     23  0.115909D+00  0.991062D-01  0.376829D-01  0.203998D-01 -0.858452D-02
     24  0.161415D+00  0.610426D-01 -0.105109D-01  0.120457D-01  0.219962D-02
     25  0.918829D-01 -0.226485D+00 -0.522969D-01  0.453389D-01 -0.103624D+00
     26 -0.234690D+00 -0.702028D-01 -0.170506D+00 -0.136228D+00  0.894721D-01
     27 -0.429654D-01 -0.125993D+00  0.910032D-01 -0.605910D-03 -0.330280D-02
     28  0.104688D+00  0.800590D-01  0.350902D-01  0.119597D+00  0.803161D-01
     29  0.970186D-01  0.108532D-01  0.233246D-01  0.429317D-01 -0.189749D+00
     30  0.427204D-01  0.253310D-01 -0.211250D-01  0.165435D-01 -0.206649D-01
     31  0.905341D-01 -0.118869D+00  0.573029D-01 -0.287111D+01  0.211346D+01
     32 -0.256615D+00 -0.740075D-01 -0.511109D-01  0.253514D+01 -0.304505D+01
     33  0.438855D-01 -0.172716D-01 -0.179165D+00  0.893150D+00  0.755224D+00
                6             7             8             9            10 
      6  0.138488D+02
      7  0.153474D-02  0.921422D+01
      8  0.249333D-02 -0.336882D+00  0.145633D+02
      9 -0.141718D+00  0.327476D+01  0.447622D-01  0.129078D+02
     10 -0.968111D-01  0.238092D+00  0.175054D+00 -0.170852D+00  0.820358D+01
     11 -0.712174D-01  0.176536D+00 -0.214674D-01 -0.975727D-01 -0.195202D+01
     12  0.267178D+00 -0.159901D+00 -0.933665D-01 -0.277433D-01 -0.338310D+01
     13 -0.667026D-02  0.285333D+00  0.958637D-01 -0.556932D-01 -0.102553D+01
     14  0.292918D+00  0.709693D-01 -0.139845D+00 -0.183976D-01 -0.150903D+01
     15 -0.832097D+01 -0.592613D-01 -0.141679D-01 -0.136318D+00  0.255661D+01
     16 -0.181918D-01 -0.337097D+01 -0.571066D-01  0.175592D+00 -0.158060D-01
     17 -0.246556D-02 -0.122284D+00 -0.312208D+01 -0.725308D+00  0.393692D-01
     18 -0.558369D-02  0.374917D+00 -0.723412D+00 -0.115746D+01 -0.601089D-01
     19 -0.352987D-03 -0.288601D+01 -0.110780D+01 -0.115687D+00  0.151940D-01
     20 -0.181129D-02 -0.917980D+00 -0.145287D+01  0.223053D+00 -0.163840D-01
     21 -0.110624D-01 -0.114134D+00  0.277715D+00 -0.336843D+01  0.312137D-02
     22  0.471730D-02 -0.240636D+01  0.984196D+00  0.545531D+00  0.102046D+00
     23  0.255067D-02  0.904884D+00 -0.259600D+01  0.482419D+00  0.101991D+00
     24 -0.956011D-02  0.468702D+00  0.448584D+00 -0.320691D+01  0.212991D-01
     25  0.101693D-01 -0.259518D-01  0.241639D-01 -0.614256D-02 -0.347930D+01
     26 -0.182897D-01  0.492198D-01  0.705827D-01 -0.187022D-01 -0.852819D+00
     27 -0.378931D-01 -0.775388D-02 -0.174183D-01 -0.301133D-01 -0.854224D-01
     28  0.182328D-01  0.168838D-01  0.110126D-01  0.216401D-02 -0.255976D+00
     29 -0.361284D-01  0.171530D-01 -0.897040D-03  0.356314D-02 -0.109887D+00
     30  0.536783D-01  0.144733D-02  0.457501D-04 -0.968570D-02 -0.915511D-01
     31  0.836067D+00 -0.107953D-01 -0.461330D-02 -0.238304D-02  0.205698D-01
     32  0.840217D+00 -0.280425D-01  0.163586D-02  0.481336D-03  0.212874D-02
     33 -0.526222D+01 -0.996267D-02  0.361911D-02 -0.134468D-01 -0.507354D-02
               11            12            13            14            15 
     11  0.137518D+02
     12 -0.179442D+01  0.225509D+02
     13 -0.188140D+01  0.255964D+01  0.979813D+01
     14 -0.855649D+01  0.113753D+00  0.346265D+01  0.117961D+02
     15  0.505163D-01 -0.118138D+02 -0.276662D+01 -0.718312D+00  0.236268D+02
     16  0.259177D-01 -0.290545D-01  0.860577D-01  0.473971D-01 -0.300682D-01
     17 -0.214023D-01 -0.390829D-01  0.633017D-01 -0.153181D-01 -0.156137D-01
     18 -0.484553D-01  0.575012D-02 -0.678666D-01 -0.199419D-01 -0.218262D-01
     19  0.174498D-02 -0.395792D-02 -0.145539D-01 -0.360960D-02 -0.538082D-02
     20  0.111280D-01  0.308294D-02 -0.163112D-01 -0.681344D-03  0.332370D-03
     21 -0.280723D-02  0.506065D-02 -0.363872D-02  0.417878D-03 -0.350734D-02
     22  0.109540D+00  0.219643D-01  0.308224D-01  0.715637D-02  0.566224D-02
     23  0.239539D-01  0.131098D-01  0.234742D-01 -0.520666D-02  0.429278D-02
     24  0.123781D-01 -0.446679D-01  0.979999D-02  0.411427D-02 -0.723991D-02
     25 -0.772451D+00 -0.998412D-01 -0.145560D+00  0.307216D+00 -0.905147D-01
     26 -0.155181D+01  0.244419D+00  0.347551D+00 -0.370353D-01  0.893170D-01
     27  0.182983D+00 -0.382062D+01 -0.972497D-01  0.786227D-01  0.160904D+00
     28 -0.848938D-01 -0.840278D-01 -0.268903D+01  0.115761D+01  0.382742D+00
     29  0.195344D+00 -0.133120D-01  0.118967D+01 -0.259893D+01  0.393409D+00
     30 -0.149663D-01  0.140191D+00  0.376103D+00  0.376748D+00 -0.367848D+01
     31  0.844492D-01  0.296672D-02  0.113381D+00  0.155616D-01  0.169636D-02
     32 -0.139531D+00 -0.259364D-01 -0.143881D+00  0.652398D-01 -0.528660D-01
     33 -0.828528D-02  0.414038D-01 -0.180817D-01 -0.169582D-01  0.898305D-01
               16            17            18            19            20 
     16  0.329808D+01
     17 -0.116604D+00  0.303927D+01
     18 -0.186556D+00  0.716067D+00  0.105716D+01
     19  0.126754D+00  0.184361D+00 -0.150044D+00  0.252024D+01
     20  0.130727D+00 -0.130758D+00  0.264299D+00  0.994305D+00  0.146631D+01
     21 -0.966904D-01  0.233400D+00  0.391772D-01  0.844429D-01 -0.361972D+00
     22  0.175208D-01 -0.263326D-01 -0.159934D+00  0.101334D+00 -0.449202D-01
     23 -0.170549D-01  0.103890D+00 -0.499299D-01 -0.337980D-01 -0.173659D+00
     24 -0.133335D+00 -0.563525D-01 -0.125788D+00 -0.112815D-02 -0.657652D-01
     25 -0.351837D-02 -0.114238D-01  0.895362D-02  0.802636D-01  0.449554D-01
     26 -0.140486D-01 -0.978905D-02  0.517175D-02  0.900500D-01 -0.250337D-01
     27  0.709229D-02  0.962750D-02 -0.182231D-02 -0.277657D-01 -0.918888D-02
     28  0.812797D-03  0.296397D-02 -0.497710D-02  0.530472D-02 -0.410414D-02
     29  0.154882D-02  0.166976D-02 -0.466654D-02  0.390312D-02 -0.418565D-02
     30 -0.956891D-04  0.114011D-03 -0.191093D-02  0.118748D-02 -0.855192D-03
     31 -0.102405D-01  0.151879D-02  0.829954D-02  0.586705D-02 -0.367997D-02
     32  0.667981D-03 -0.817561D-03  0.531464D-02 -0.117483D-01  0.742360D-02
     33  0.296826D-02 -0.135432D-02  0.141118D-02 -0.242566D-02  0.235308D-02
               21            22            23            24            25 
     21  0.339951D+01
     22 -0.618527D-02  0.212452D+01
     23 -0.823916D-01 -0.112051D+01  0.254827D+01
     24  0.689317D-01 -0.540166D+00 -0.409121D+00  0.333967D+01
     25 -0.265497D-01 -0.921915D-03  0.152817D-02  0.138148D-03  0.347847D+01
     26 -0.186945D-01  0.102905D-01  0.962872D-02  0.317903D-02  0.741822D+00
     27 -0.401073D-01  0.870145D-03  0.924873D-03 -0.198601D-02  0.263488D+00
     28 -0.539474D-03  0.599918D-02  0.490039D-02  0.218558D-02 -0.362184D-01
     29 -0.575574D-03  0.571510D-02  0.314483D-02  0.158482D-02  0.125688D-01
     30 -0.145643D-02  0.120962D-02  0.126744D-02 -0.746077D-04 -0.606273D-02
     31 -0.153259D-02 -0.277954D-02 -0.172274D-02 -0.956810D-03 -0.447540D-02
     32  0.244697D-02 -0.718041D-02 -0.453895D-02 -0.184359D-02 -0.182690D-01
     33 -0.231571D-02 -0.197804D-02 -0.804364D-03 -0.186470D-02 -0.134103D-02
               26            27            28            29            30 
     26  0.148816D+01
     27 -0.119753D+00  0.368775D+01
     28  0.658753D-02 -0.949795D-02  0.272978D+01
     29  0.173700D-02  0.179392D-02 -0.130669D+01  0.249946D+01
     30  0.730651D-03  0.202935D-03 -0.350919D+00 -0.390208D+00  0.353378D+01
     31 -0.773371D-02 -0.189328D-03 -0.184289D-02  0.460689D-01  0.941715D-02
     32  0.342949D-01  0.170426D-02  0.522452D-01  0.815565D-01  0.224577D-01
     33  0.312812D-02 -0.731646D-02  0.954662D-02  0.212146D-01 -0.151195D-01
               31            32            33 
     31  0.267090D+01
     32 -0.212444D+01  0.307379D+01
     33 -0.910688D+00 -0.740865D+00  0.534880D+01
 Leave Link  701 at Thu Sep  5 11:13:08 2019, MaxMem=   671088640 cpu:              39.3 elap:              19.6
 (Enter /shared/centos7/gaussian/g16/l702.exe)
 L702 exits ... SP integral derivatives will be done elsewhere.
 Leave Link  702 at Thu Sep  5 11:13:09 2019, MaxMem=   671088640 cpu:               1.3 elap:               0.6
 (Enter /shared/centos7/gaussian/g16/l703.exe)
 Integral derivatives from FoFJK, PRISM(SPDF).
 Compute integral second derivatives, UseDBF=F ICtDFT=           0.
 ICntrl=    100147.
 Calling FoFJK, ICntrl=    100147 FMM=F ISym2X=0 I1Cent= 0 IOpClX= 0 NMat=1 NMatS=1 NMatT=0.
 FoFJK:  IHMeth= 1 ICntrl=  100147 DoSepK=F KAlg= 0 I1Cent=           0 FoldK=F
 IRaf=         0 NMat=       1 IRICut=       1 DoRegI=T DoRafI=F ISym2E= 0 IDoP0=0 IntGTp=1.
 FoFCou: FMM=F IPFlag=           0 FMFlag=      100000 FMFlg1=         800
         NFxFlg=           0 DoJE=F BraDBF=F KetDBF=F FulRan=T
         wScrn=  0.000000 ICntrl=    100147 IOpCl=  0 I1Cent=           0 NGrid=           0
         NMat0=    1 NMatS0=      1 NMatT0=    0 NMatD0=    1 NMtDS0=    0 NMtDT0=    0
 Symmetry not used in FoFCou.
 FoFCou:  KetSym=F NOpSet=  1 NOpAb=1 NOp=  1.
 FoFCou:  CnvScl= 1.00D+00 Thresh= 1.00D-08 IAcrcy=      12.
 PrismS was handed   670742092 working-precision words and  3651 shell-pairs
 FoFCou: LinMIO=F DoNuc=F BraDBF=F KetDBF=F HaveP=T PDBF=F HaveZ=T HaveW=F
         NIJTC =      10 NIJTAt=       0 NIJTCD=       0 NIJTT =      10
         IJTBeg=       1 IJTEnd=      10 KLTBeg=       1 KLTEnd=      10
         IPTBeg=       1 IPTEnd=      10 IPTBCv=       1 IPTECv=      10
         IZTBeg=       1 IZTEnd=      10 IZTBCv=       1 IZTECv=      10
         IWTBeg=      11 IWTEnd=      10 IWTBCv=      11 IWTECv=      10
         INTBeg=       1 INTEnd=       0 IFTBCv=       1 IFTECv=      10
 NCel replicated for PrismC:     1
 CoulSu-InSpLW:  IPartL=    0 NPrtUS=   20 NPrtUL=    1 DoSpLW=F IThBeg=    0 IThEnd=   19 NThAct=   20.
 CoulSu:  IncDef=  1024 NBBP=        6666726 NTPThr=   100 NPartT=   20 Incr=        1024 LDynOK=F GPUOK=T.
 CoulSu:  NPrtUS=  20 ThrOK=T IAlg=1 NPAlg=1 LenDen=           0 LWGrdD=           0 DoCopy=F ISkipM=0
          DoSpLW=F IThBeg=    0 IThEnd=   19.
 Enter PrismC:  IPart=  0 JobTyp=22 DoJE=F Cont=F.
 PrismC:  IPart=     0 DynPar=T LinDyn=F Incr=        1024 UseFst=F UseS4=T ISplat=2.
 PrismC was handed    33457114 working-precision words and  3651 shell-pairs
 Enter PrismC:  IPart=  1 JobTyp=22 DoJE=F Cont=F.
 PrismC:  IPart=     1 DynPar=T LinDyn=F Incr=        1024 UseFst=F UseS4=T ISplat=2.
 PrismC was handed    33457114 working-precision words and  3651 shell-pairs
 Enter PrismC:  IPart=  2 JobTyp=22 DoJE=F Cont=F.
 PrismC:  IPart=     2 DynPar=T LinDyn=F Incr=        1024 UseFst=F UseS4=T ISplat=2.
 PrismC was handed    33457114 working-precision words and  3651 shell-pairs
 Enter PrismC:  IPart=  4 JobTyp=22 DoJE=F Cont=F.
 PrismC:  IPart=     4 DynPar=T LinDyn=F Incr=        1024 UseFst=F UseS4=T ISplat=2.
 PrismC was handed    33457114 working-precision words and  3651 shell-pairs
 Enter PrismC:  IPart= 19 JobTyp=22 DoJE=F Cont=F.
 Enter PrismC:  IPart= 10 JobTyp=22 DoJE=F Cont=F.
 PrismC:  IPart=    19 DynPar=T LinDyn=F Incr=        1024 UseFst=F UseS4=T ISplat=2.
 PrismC:  IPart=    10 DynPar=T LinDyn=F Incr=        1024 UseFst=F UseS4=T ISplat=2.
 PrismC was handed    33457114 working-precision words and  3651 shell-pairs
 PrismC was handed    33457114 working-precision words and  3651 shell-pairs
 Enter PrismC:  IPart= 11 JobTyp=22 DoJE=F Cont=F.
 PrismC:  IPart=    11 DynPar=T LinDyn=F Incr=        1024 UseFst=F UseS4=T ISplat=2.
 PrismC was handed    33457114 working-precision words and  3651 shell-pairs
 Enter PrismC:  IPart= 17 JobTyp=22 DoJE=F Cont=F.
 PrismC:  IPart=    17 DynPar=T LinDyn=F Incr=        1024 UseFst=F UseS4=T ISplat=2.
 PrismC was handed    33457114 working-precision words and  3651 shell-pairs
 Enter PrismC:  IPart=  6 JobTyp=22 DoJE=F Cont=F.
 PrismC:  IPart=     6 DynPar=T LinDyn=F Incr=        1024 UseFst=F UseS4=T ISplat=2.
 PrismC was handed    33457114 working-precision words and  3651 shell-pairs
 Enter PrismC:  IPart= 16 JobTyp=22 DoJE=F Cont=F.
 PrismC:  IPart=    16 DynPar=T LinDyn=F Incr=        1024 UseFst=F UseS4=T ISplat=2.
 PrismC was handed    33457114 working-precision words and  3651 shell-pairs
 Enter PrismC:  IPart=  7 JobTyp=22 DoJE=F Cont=F.
 PrismC:  IPart=     7 DynPar=T LinDyn=F Incr=        1024 UseFst=F UseS4=T ISplat=2.
 PrismC was handed    33457114 working-precision words and  3651 shell-pairs
 Enter PrismC:  IPart=  3 JobTyp=22 DoJE=F Cont=F.
 PrismC:  IPart=     3 DynPar=T LinDyn=F Incr=        1024 UseFst=F UseS4=T ISplat=2.
 PrismC was handed    33457114 working-precision words and  3651 shell-pairs
 Enter PrismC:  IPart= 12 JobTyp=22 DoJE=F Cont=F.
 PrismC:  IPart=    12 DynPar=T LinDyn=F Incr=        1024 UseFst=F UseS4=T ISplat=2.
 PrismC was handed    33457114 working-precision words and  3651 shell-pairs
 Enter PrismC:  IPart=  8 JobTyp=22 DoJE=F Cont=F.
 PrismC:  IPart=     8 DynPar=T LinDyn=F Incr=        1024 UseFst=F UseS4=T ISplat=2.
 PrismC was handed    33457114 working-precision words and  3651 shell-pairs
 Enter PrismC:  IPart= 13 JobTyp=22 DoJE=F Cont=F.
 PrismC:  IPart=    13 DynPar=T LinDyn=F Incr=        1024 UseFst=F UseS4=T ISplat=2.
 PrismC was handed    33457114 working-precision words and  3651 shell-pairs
 Enter PrismC:  IPart= 18 JobTyp=22 DoJE=F Cont=F.
 PrismC:  IPart=    18 DynPar=T LinDyn=F Incr=        1024 UseFst=F UseS4=T ISplat=2.
 PrismC was handed    33457114 working-precision words and  3651 shell-pairs
 Enter PrismC:  IPart= 14 JobTyp=22 DoJE=F Cont=F.
 PrismC:  IPart=    14 DynPar=T LinDyn=F Incr=        1024 UseFst=F UseS4=T ISplat=2.
 PrismC was handed    33457114 working-precision words and  3651 shell-pairs
 Enter PrismC:  IPart=  9 JobTyp=22 DoJE=F Cont=F.
 PrismC:  IPart=     9 DynPar=T LinDyn=F Incr=        1024 UseFst=F UseS4=T ISplat=2.
 PrismC was handed    33457114 working-precision words and  3651 shell-pairs
 Enter PrismC:  IPart= 15 JobTyp=22 DoJE=F Cont=F.
 PrismC:  IPart=    15 DynPar=T LinDyn=F Incr=        1024 UseFst=F UseS4=T ISplat=2.
 PrismC was handed    33457114 working-precision words and  3651 shell-pairs
 Enter PrismC:  IPart=  5 JobTyp=22 DoJE=F Cont=F.
 PrismC:  IPart=     5 DynPar=T LinDyn=F Incr=        1024 UseFst=F UseS4=T ISplat=2.
 PrismC was handed    33457114 working-precision words and  3651 shell-pairs
 IPart= 12 NShTot=      191990 NShNF=      191990 NShFF=           0 MinMC=       7
           NShCPU=      191990 NBCPU=        8252 AvBCPU=        23.3
           NShGPU=           0 NBGPU=           0 AvBGPU=         0.0
 IPart= 19 NShTot=      244046 NShNF=      244046 NShFF=           0 MinMC=       7
           NShCPU=      244046 NBCPU=       10735 AvBCPU=        22.7
           NShGPU=           0 NBGPU=           0 AvBGPU=         0.0
 IPart= 17 NShTot=      252806 NShNF=      252806 NShFF=           0 MinMC=       7
           NShCPU=      252806 NBCPU=       10331 AvBCPU=        24.5
           NShGPU=           0 NBGPU=           0 AvBGPU=         0.0
 IPart=  9 NShTot=      189580 NShNF=      189580 NShFF=           0 MinMC=       7
           NShCPU=      189580 NBCPU=        8008 AvBCPU=        23.7
           NShGPU=           0 NBGPU=           0 AvBGPU=         0.0
 IPart= 18 NShTot=      191385 NShNF=      191385 NShFF=           0 MinMC=       7
           NShCPU=      191385 NBCPU=        8661 AvBCPU=        22.1
           NShGPU=           0 NBGPU=           0 AvBGPU=         0.0
 IPart=  6 NShTot=      250277 NShNF=      250277 NShFF=           0 MinMC=       7
           NShCPU=      250277 NBCPU=       10595 AvBCPU=        23.6
           NShGPU=           0 NBGPU=           0 AvBGPU=         0.0
 IPart=  5 NShTot=      182970 NShNF=      182970 NShFF=           0 MinMC=       7
           NShCPU=      182970 NBCPU=        8230 AvBCPU=        22.2
           NShGPU=           0 NBGPU=           0 AvBGPU=         0.0
 IPart=  1 NShTot=      257316 NShNF=      257316 NShFF=           0 MinMC=       7
           NShCPU=      257316 NBCPU=       10506 AvBCPU=        24.5
           NShGPU=           0 NBGPU=           0 AvBGPU=         0.0
 IPart= 10 NShTot=      192413 NShNF=      192413 NShFF=           0 MinMC=       7
           NShCPU=      192413 NBCPU=        8321 AvBCPU=        23.1
           NShGPU=           0 NBGPU=           0 AvBGPU=         0.0
 IPart=  8 NShTot=      208289 NShNF=      208289 NShFF=           0 MinMC=       7
           NShCPU=      208289 NBCPU=        8439 AvBCPU=        24.7
           NShGPU=           0 NBGPU=           0 AvBGPU=         0.0
 IPart= 11 NShTot=      258624 NShNF=      258624 NShFF=           0 MinMC=       7
           NShCPU=      258624 NBCPU=       10479 AvBCPU=        24.7
           NShGPU=           0 NBGPU=           0 AvBGPU=         0.0
 IPart=  4 NShTot=      203759 NShNF=      203759 NShFF=           0 MinMC=       7
           NShCPU=      203759 NBCPU=        8175 AvBCPU=        24.9
           NShGPU=           0 NBGPU=           0 AvBGPU=         0.0
 IPart= 14 NShTot=      252196 NShNF=      252196 NShFF=           0 MinMC=       7
           NShCPU=      252196 NBCPU=       10642 AvBCPU=        23.7
           NShGPU=           0 NBGPU=           0 AvBGPU=         0.0
 IPart=  2 NShTot=      201458 NShNF=      201458 NShFF=           0 MinMC=       7
           NShCPU=      201458 NBCPU=        8679 AvBCPU=        23.2
           NShGPU=           0 NBGPU=           0 AvBGPU=         0.0
 IPart=  7 NShTot=      247899 NShNF=      247899 NShFF=           0 MinMC=       7
           NShCPU=      247899 NBCPU=       10077 AvBCPU=        24.6
           NShGPU=           0 NBGPU=           0 AvBGPU=         0.0
 IPart= 15 NShTot=      200812 NShNF=      200812 NShFF=           0 MinMC=       7
           NShCPU=      200812 NBCPU=        8711 AvBCPU=        23.1
           NShGPU=           0 NBGPU=           0 AvBGPU=         0.0
 IPart=  0 NShTot=      194968 NShNF=      194968 NShFF=           0 MinMC=       7
           NShCPU=      194968 NBCPU=        7965 AvBCPU=        24.5
           NShGPU=           0 NBGPU=           0 AvBGPU=         0.0
 IPart=  3 NShTot=      254911 NShNF=      254911 NShFF=           0 MinMC=       7
           NShCPU=      254911 NBCPU=       10696 AvBCPU=        23.8
           NShGPU=           0 NBGPU=           0 AvBGPU=         0.0
 IPart= 13 NShTot=      206825 NShNF=      206825 NShFF=           0 MinMC=       7
           NShCPU=      206825 NBCPU=        8122 AvBCPU=        25.5
           NShGPU=           0 NBGPU=           0 AvBGPU=         0.0
 IPart= 16 NShTot=      245822 NShNF=      245822 NShFF=           0 MinMC=       7
           NShCPU=      245822 NBCPU=       10175 AvBCPU=        24.2
           NShGPU=           0 NBGPU=           0 AvBGPU=         0.0
 CoulSu:  NxtVal=        7114753 LenVP=       33457115 MinMC=       7.
 ReadGW:  IGet=0 IStart=           1 Next=           1 LGW=           0.
 Remaining memory in FofDFT      639.93 Mw
 CkSvGd:  ISavGI=        -1 IRadAn=       5 IRASav=       5 ISavGd=        -1.
 CalDSu-InSpLW:  IPartL=    0 NPrtUS=   20 NPrtUL=    1 DoSpLW=F IThBeg=    0 IThEnd=   19 NThAct=   20.
 CalDSu:  NPrtUS=  20 ThrOK=T IAlg=1 NPAlg=2 DoDPD=T LenP=       35245 LenD1P=             0 GPUOK=F
          ISkipM=0 DoSpLW=F IThBeg=    0 IThEnd=   19.
 IPart=  0 IRanGd=          0 ScrnBf=T ScrnGd=T RCrit=4.00D+00 DoMicB=T.
 IPart= 17        10565 of        11912 points in      13 batches and       87 microbatches, Max-NSigAt=      11 Max-NSgAt2=      11
 IPart= 11        12094 of        13774 points in      15 batches and       96 microbatches, Max-NSigAt=      11 Max-NSgAt2=      11
 IPart= 12        13847 of        15734 points in      17 batches and       71 microbatches, Max-NSigAt=      11 Max-NSgAt2=      11
 IPart=  7         9386 of        10070 points in      10 batches and       48 microbatches, Max-NSigAt=      11 Max-NSgAt2=      11
 IPart= 16        11098 of        12664 points in      13 batches and       57 microbatches, Max-NSigAt=      11 Max-NSgAt2=      11
 IPart=  6        10115 of        10760 points in      11 batches and       63 microbatches, Max-NSigAt=      11 Max-NSgAt2=      11
 IPart=  3         9976 of        11002 points in      12 batches and       64 microbatches, Max-NSigAt=      11 Max-NSgAt2=      11
 IPart=  5        12691 of        13528 points in      13 batches and       67 microbatches, Max-NSigAt=      11 Max-NSgAt2=      11
 IPart= 13        11131 of        12484 points in      13 batches and       87 microbatches, Max-NSigAt=      11 Max-NSgAt2=      11
 IPart= 14         9641 of        10268 points in      11 batches and       51 microbatches, Max-NSigAt=      11 Max-NSgAt2=      11
 IPart= 18         9901 of        10712 points in      12 batches and       54 microbatches, Max-NSigAt=      11 Max-NSgAt2=      11
 IPart= 10        12811 of        13500 points in      13 batches and       61 microbatches, Max-NSigAt=      11 Max-NSgAt2=      11
 IPart= 19        10593 of        11964 points in      14 batches and       68 microbatches, Max-NSigAt=      11 Max-NSgAt2=      11
 IPart=  9        13933 of        16062 points in      17 batches and       65 microbatches, Max-NSigAt=      11 Max-NSgAt2=      11
 IPart= 15        11512 of        12022 points in      11 batches and       58 microbatches, Max-NSigAt=      11 Max-NSgAt2=      11
 IPart=  4        11474 of        11788 points in      11 batches and       49 microbatches, Max-NSigAt=      11 Max-NSgAt2=      11
 IPart=  2        11424 of        12484 points in      13 batches and       74 microbatches, Max-NSigAt=      11 Max-NSgAt2=      11
 IPart=  1        11404 of        12780 points in      14 batches and       78 microbatches, Max-NSigAt=      11 Max-NSgAt2=      11
 IPart=  8        11199 of        12052 points in      12 batches and       76 microbatches, Max-NSigAt=      11 Max-NSgAt2=      11
 IPart=  0        10133 of        10840 points in      10 batches and       57 microbatches, Max-NSigAt=      11 Max-NSgAt2=      11
 Polarizability after L703:
                1             2             3 
      1  0.000000D+00
      2  0.000000D+00  0.000000D+00
      3  0.000000D+00  0.000000D+00  0.000000D+00
 Dipole Derivatives after L703:
                 1             2             3             4             5 
      1  -0.245652D+00  0.197316D-02  0.386912D-01  0.303172D+00 -0.891124D-01
      2  -0.457914D-01 -0.251816D+00  0.601643D-01 -0.613539D+00 -0.786593D+00
      3   0.524030D-01  0.112588D+00 -0.177792D+00 -0.208577D-01 -0.106530D+00
                 6             7             8             9            10 
      1   0.155840D+00 -0.121489D+01 -0.488949D-01  0.342755D+00 -0.393910D+00
      2  -0.186055D+00  0.264552D-01 -0.771196D+00  0.384737D-01 -0.975248D-01
      3  -0.427435D+00  0.427386D-01  0.280449D-01 -0.762712D+00 -0.188814D+00
                11            12            13            14            15 
      1   0.153124D+00 -0.170571D+00 -0.649727D+00 -0.208302D+00 -0.211617D+00
      2  -0.750354D+00 -0.202486D+00  0.907621D-01 -0.518275D+00 -0.355607D-01
      3  -0.137972D+00 -0.288160D-01 -0.169243D+00 -0.162443D-01  0.246671D-01
                16            17            18            19            20 
      1   0.624912D-01  0.123609D+00 -0.518763D+00  0.425543D+00 -0.753109D+00
      2  -0.732063D-01  0.167047D+00 -0.202878D+00 -0.129707D+00  0.402249D+00
      3   0.883318D-01 -0.156027D+00  0.552630D+00 -0.603831D-01  0.622686D-01
                21            22            23            24            25 
      1  -0.143907D+00  0.856537D+00  0.720134D+00  0.384368D+00  0.186069D+00
      2  -0.729571D-05  0.259509D+00  0.366764D+00  0.167499D+00 -0.253889D+00
      3   0.136396D+00  0.494139D-01  0.788365D-01  0.177880D+00  0.564490D-01
                26            27            28            29            30 
      1  -0.159204D+00  0.294800D-01  0.783166D+00  0.637015D+00  0.226973D+00
      2   0.790820D+00  0.656917D-01  0.380283D+00  0.584154D+00  0.144923D+00
      3  -0.363005D-01  0.603271D-01  0.114256D+00  0.119329D+00  0.134523D+00
                31            32            33 
      1  -0.112794D+00 -0.377232D+00 -0.133250D+00
      2   0.456646D+00  0.767199D+00  0.150236D+00
      3   0.357058D-01  0.520079D-01  0.310331D+00
 Hessian after L703:
                1             2             3             4             5 
      1  0.412363D+00
      2  0.123376D+00  0.284989D+00
      3 -0.737751D-01  0.838300D-01  0.209888D+00
      4 -0.234559D-03  0.789816D-03  0.301696D-02  0.384405D+00
      5  0.470679D-02  0.145933D-01  0.393770D-02  0.237429D-01  0.472613D+00
      6  0.207850D-02  0.287395D-02 -0.537039D-02  0.728503D-01  0.548521D-01
      7 -0.163210D+00 -0.986315D-02  0.642170D-01  0.191978D-02 -0.373278D-02
      8  0.119780D-01 -0.793933D-01 -0.207868D-01  0.955172D-03  0.203711D-02
      9  0.838679D-01 -0.662414D-02 -0.123521D+00 -0.143887D-02  0.151835D-02
     10 -0.153995D+00 -0.694220D-01 -0.187027D-01 -0.171364D-01  0.212525D-01
     11 -0.899051D-01 -0.189449D+00 -0.469593D-01  0.549850D-01 -0.456544D-01
     12 -0.411289D-01 -0.649382D-01 -0.771055D-01  0.169601D-03 -0.478772D-02
     13 -0.376597D-01 -0.658856D-02 -0.107360D-01 -0.142150D+00  0.906416D-01
     14 -0.504874D-01 -0.124268D-01 -0.118795D-01  0.470807D-01 -0.258938D+00
     15 -0.205970D-01 -0.624223D-02  0.373547D-02 -0.143011D-01 -0.590461D-02
     16 -0.543889D-02 -0.115074D-01  0.364659D-01 -0.123908D-03  0.394695D-03
     17 -0.310476D-02  0.370580D-02 -0.108846D-02 -0.366528D-04 -0.557871D-03
     18  0.127730D-01  0.517467D-02 -0.215408D-01  0.323929D-03 -0.112913D-02
     19 -0.256743D-01  0.221768D-01  0.102244D-01 -0.250416D-03 -0.705710D-03
     20  0.429568D-02  0.351305D-02 -0.422536D-02 -0.895217D-04  0.255165D-03
     21  0.177480D-01 -0.186370D-01 -0.344192D-02  0.192469D-03  0.537391D-04
     22 -0.258361D-01 -0.211695D-01 -0.744494D-02 -0.274362D-03  0.883983D-03
     23  0.719022D-03  0.156154D-02  0.132978D-02 -0.219365D-03  0.513760D-03
     24  0.187154D-01  0.162736D-01  0.799450D-02  0.864205D-05  0.134422D-04
     25  0.304057D-02 -0.253784D-01 -0.793776D-03 -0.427554D-02 -0.293982D-03
     26 -0.230664D-02 -0.285736D-01 -0.397103D-02 -0.245291D-03  0.272901D-02
     27  0.139641D-02 -0.140958D-01  0.983819D-03 -0.360269D-02  0.799555D-03
     28 -0.365055D-02  0.172376D-02 -0.147514D-02  0.133924D-01  0.129431D-01
     29  0.306310D-02  0.801128D-03 -0.754189D-03 -0.189248D-01 -0.281979D-01
     30 -0.911122D-03  0.188077D-02  0.115393D-01  0.123493D-03 -0.140891D-02
     31  0.295322D-03 -0.413697D-02 -0.996739D-03 -0.235273D+00 -0.149833D+00
     32 -0.233439D-02  0.679237D-03  0.567175D-03 -0.108038D+00 -0.159393D+00
     33 -0.167175D-03  0.504311D-03 -0.316162D-02 -0.573428D-01 -0.479445D-01
                6             7             8             9            10 
      6  0.821417D-01
      7  0.490047D-04  0.507436D+00
      8  0.176812D-02  0.547107D-01  0.556134D+00
      9 -0.110649D-02  0.541442D-01  0.324932D-01  0.490605D+00
     10 -0.611004D-02 -0.476158D-01 -0.327779D-01 -0.589071D-02  0.901723D+00
     11  0.325849D-02 -0.172775D-01 -0.575499D-02  0.560150D-02 -0.130371D+00
     12  0.138595D-01  0.103943D-01  0.159460D-01  0.632899D-02  0.134808D+00
     13 -0.795394D-02  0.234695D-02  0.792627D-04 -0.300161D-02 -0.574186D+00
     14 -0.152178D-01  0.381391D-02 -0.561811D-02 -0.640512D-02  0.103043D+00
     15 -0.524662D-01  0.282183D-02 -0.110365D-02 -0.608464D-03 -0.955206D-01
     16  0.167122D-03 -0.698331D-01  0.156283D-01 -0.537677D-01  0.493677D-02
     17 -0.407985D-05  0.144525D-01 -0.778364D-01  0.543118D-01  0.139573D-02
     18  0.237293D-03 -0.482739D-01  0.532486D-01 -0.213320D+00 -0.211292D-02
[...]
     Eigenvalues ---    0.04680   0.08686   0.08778   0.10705   0.12082
     Eigenvalues ---    0.13475   0.16484   0.18191   0.18736   0.19826
     Eigenvalues ---    0.22138   0.23301   0.33222   0.33591   0.35088
     Eigenvalues ---    0.36355   0.37354   0.39844   0.45085   0.45698
     Eigenvalues ---    0.53342   0.66236
 Angle between quadratic step and forces=  32.59 degrees.
 Linear search not attempted -- first point.
 Iteration  1 RMS(Cart)=  0.00004506 RMS(Int)=  0.00000000
 Iteration  2 RMS(Cart)=  0.00000000 RMS(Int)=  0.00000000
 ITry= 1 IFail=0 DXMaxC= 9.23D-05 DCOld= 1.00D+10 DXMaxT= 3.00D-01 DXLimC= 3.00D+00 Rises=F
 Variable       Old X    -DE/DX   Delta X   Delta X   Delta X     New X
                                 (Linear)    (Quad)   (Total)
    R1        2.67120  -0.00000   0.00000  -0.00000  -0.00000   2.67120
    R2        2.59481   0.00000   0.00000  -0.00000  -0.00000   2.59481
    R3        2.56333  -0.00000   0.00000   0.00000   0.00000   2.56333
    R4        1.82347  -0.00000   0.00000  -0.00000  -0.00000   1.82347
    R5        2.06457  -0.00000   0.00000  -0.00000  -0.00000   2.06457
    R6        2.06653  -0.00000   0.00000  -0.00000  -0.00000   2.06653
    R7        2.05345   0.00000   0.00000  -0.00000  -0.00000   2.05345
    R8        2.50502   0.00000   0.00000   0.00000   0.00000   2.50502
    R9        2.04478   0.00000   0.00000  -0.00000  -0.00000   2.04478
   R10        2.03835   0.00000   0.00000  -0.00000  -0.00000   2.03835
    A1        1.98208   0.00000   0.00000   0.00001   0.00001   1.98208
    A2        1.87243  -0.00000   0.00000   0.00000   0.00000   1.87243
    A3        1.93727  -0.00000   0.00000   0.00000   0.00000   1.93727
    A4        1.93109   0.00000   0.00000   0.00000   0.00000   1.93110
    A5        1.87229   0.00000   0.00000   0.00000   0.00000   1.87229
    A6        1.90278   0.00000   0.00000  -0.00000  -0.00000   1.90277
    A7        1.91450  -0.00000   0.00000  -0.00000  -0.00000   1.91450
    A8        1.90554   0.00000   0.00000  -0.00000  -0.00000   1.90554
    A9        2.08155   0.00000   0.00000   0.00000   0.00000   2.08155
   A10        2.05343  -0.00000   0.00000   0.00000   0.00000   2.05343
   A11        2.14729  -0.00000   0.00000  -0.00000  -0.00000   2.14729
   A12        2.16215   0.00000   0.00000   0.00000   0.00000   2.16215
   A13        1.98815   0.00000   0.00000   0.00000   0.00000   1.98815
   A14        2.13269  -0.00000   0.00000  -0.00000  -0.00000   2.13269
    D1       -1.08694  -0.00000   0.00000  -0.00008  -0.00008  -1.08701
    D2        1.02796  -0.00000   0.00000  -0.00007  -0.00007   1.02788
    D3        3.10490  -0.00000   0.00000  -0.00008  -0.00008   3.10483
    D4        2.45349   0.00000   0.00000   0.00009   0.00009   2.45358
    D5       -0.73261   0.00000   0.00000   0.00008   0.00008  -0.73252
    D6        0.00098   0.00000   0.00000  -0.00000  -0.00000   0.00097
    D7       -3.11981   0.00000   0.00000  -0.00001  -0.00001  -3.11981
    D8       -0.03797  -0.00000   0.00000  -0.00000  -0.00000  -0.03797
    D9        3.08115  -0.00000   0.00000  -0.00000  -0.00000   3.08114
   D10       -3.13254   0.00000   0.00000  -0.00000  -0.00000  -3.13254
   D11       -0.01342   0.00000   0.00000   0.00000   0.00000  -0.01342
         Item               Value     Threshold  Converged?
 Maximum Force            0.000000     0.000015     YES
 RMS     Force            0.000000     0.000010     YES
 Maximum Displacement     0.000092     0.000060     NO 
 RMS     Displacement     0.000045     0.000040     NO 
 Predicted change in Energy=-6.561164D-11
                           ----------------------------
                           ! Non-Optimized Parameters !
                           ! (Angstroms and Degrees)  !
 --------------------------                            --------------------------
 ! Name  Definition              Value          Derivative Info.                !
 --------------------------------------------------------------------------------
 ! R1    R(1,3)                  1.4135         -DE/DX =    0.0                 !
 ! R2    R(1,4)                  1.3731         -DE/DX =    0.0                 !
 ! R3    R(2,5)                  1.3565         -DE/DX =    0.0                 !
 ! R4    R(2,11)                 0.9649         -DE/DX =    0.0                 !
 ! R5    R(3,6)                  1.0925         -DE/DX =    0.0                 !
 ! R6    R(3,7)                  1.0936         -DE/DX =    0.0                 !
 ! R7    R(3,8)                  1.0866         -DE/DX =    0.0                 !
 ! R8    R(4,5)                  1.3256         -DE/DX =    0.0                 !
 ! R9    R(4,9)                  1.0821         -DE/DX =    0.0                 !
 ! R10   R(5,10)                 1.0786         -DE/DX =    0.0                 !
 ! A1    A(3,1,4)              113.5649         -DE/DX =    0.0                 !
 ! A2    A(5,2,11)             107.2822         -DE/DX =    0.0                 !
 ! A3    A(1,3,6)              110.9976         -DE/DX =    0.0                 !
 ! A4    A(1,3,7)              110.6436         -DE/DX =    0.0                 !
 ! A5    A(1,3,8)              107.2744         -DE/DX =    0.0                 !
 ! A6    A(6,3,7)              109.021          -DE/DX =    0.0                 !
 ! A7    A(6,3,8)              109.6929         -DE/DX =    0.0                 !
 ! A8    A(7,3,8)              109.1795         -DE/DX =    0.0                 !
 ! A9    A(1,4,5)              119.2639         -DE/DX =    0.0                 !
 ! A10   A(1,4,9)              117.6531         -DE/DX =    0.0                 !
 ! A11   A(5,4,9)              123.0307         -DE/DX =    0.0                 !
 ! A12   A(2,5,4)              123.8823         -DE/DX =    0.0                 !
 ! A13   A(2,5,10)             113.9126         -DE/DX =    0.0                 !
 ! A14   A(4,5,10)             122.194          -DE/DX =    0.0                 !
 ! D1    D(4,1,3,6)            -62.2813         -DE/DX =    0.0                 !
 ! D2    D(4,1,3,7)             58.8934         -DE/DX =    0.0                 !
 ! D3    D(4,1,3,8)            177.8936         -DE/DX =    0.0                 !
 ! D4    D(3,1,4,5)            140.5796         -DE/DX =    0.0                 !
 ! D5    D(3,1,4,9)            -41.9706         -DE/DX =    0.0                 !
 ! D6    D(11,2,5,4)             0.0558         -DE/DX =    0.0                 !
 ! D7    D(11,2,5,10)         -178.7521         -DE/DX =    0.0                 !
 ! D8    D(1,4,5,2)             -2.1756         -DE/DX =    0.0                 !
 ! D9    D(1,4,5,10)           176.5366         -DE/DX =    0.0                 !
 ! D10   D(9,4,5,2)           -179.4813         -DE/DX =    0.0                 !
 ! D11   D(9,4,5,10)            -0.769          -DE/DX =    0.0                 !
 --------------------------------------------------------------------------------
 GradGradGradGradGradGradGradGradGradGradGradGradGradGradGradGradGradGrad

 Leave Link  103 at Thu Sep  5 12:33:27 2019, MaxMem=   671088640 cpu:             106.7 elap:              53.5
 (Enter /shared/centos7/gaussian/g16/l9999.exe)

 ----------------------------------------------------------------------

 Electric dipole moment (input orientation):
 (Debye = 10**-18 statcoulomb cm , SI units = C m)
                  (au)            (Debye)         (10**-30 SI)
   Tot        0.864517D+00      0.219738D+01      0.732968D+01
   x         -0.682597D+00     -0.173499D+01     -0.578730D+01
   y         -0.129518D+00     -0.329202D+00     -0.109810D+01
   z         -0.514467D+00     -0.130765D+01     -0.436183D+01

 Dipole polarizability, Alpha (input orientation).
 (esu units = cm**3 , SI units = C**2 m**2 J**-1)
 Alpha(0;0):
               (au)            (10**-24 esu)      (10**-40 SI)
   iso        0.445368D+02      0.659968D+01      0.734313D+01
   aniso      0.248248D+02      0.367865D+01      0.409305D+01
   xx         0.442495D+02      0.655710D+01      0.729576D+01
   yx         0.105140D+02      0.155802D+01      0.173353D+01
   yy         0.432247D+02      0.640525D+01      0.712680D+01
   zx         0.910388D+01      0.134906D+01      0.150103D+01
   zy         0.313309D+01      0.464276D+00      0.516577D+00
   zz         0.461362D+02      0.683668D+01      0.760683D+01

 ----------------------------------------------------------------------

 Dipole orientation:
     8         -1.77937244          1.58505797         -1.40240485
     8         -3.08561936         -0.26636760         -6.08823993
     6         -2.51925551          1.64881662          1.16349431
     6         -0.95296971         -0.74644765         -2.18611270
     6         -1.58326823         -1.56567801         -4.46793829
     1         -4.11413449          0.38310381          1.50521224
     1         -0.94847948          1.09888192          2.38855949
     1         -3.06511074          3.58125592          1.59287052
     1          0.26054413         -1.79805120         -0.92015370
     1         -0.89921495         -3.33499562         -5.21390140
     1         -3.55930302          1.28753299         -5.25996136

 Electric dipole moment (dipole orientation):
 (Debye = 10**-18 statcoulomb cm , SI units = C m)
                  (au)            (Debye)         (10**-30 SI)
   Tot        0.864517D+00      0.219738D+01      0.732968D+01
   x          0.000000D+00      0.000000D+00      0.000000D+00
   y          0.000000D+00      0.000000D+00      0.000000D+00
   z          0.864517D+00      0.219738D+01      0.732968D+01

 Dipole polarizability, Alpha (dipole orientation).
 (esu units = cm**3 , SI units = C**2 m**2 J**-1)
 Alpha(0;0):
               (au)            (10**-24 esu)      (10**-40 SI)
   iso        0.445368D+02      0.659968D+01      0.734313D+01
   aniso      0.248248D+02      0.367865D+01      0.409305D+01
   xx         0.360795D+02      0.534644D+01      0.594871D+01
   yx        -0.396862D+01     -0.588088D+00     -0.654336D+00
   yy         0.410350D+02      0.608076D+01      0.676575D+01
   zx         0.341541D+01      0.506112D+00      0.563125D+00
   zy         0.803764D+01      0.119106D+01      0.132523D+01
   zz         0.564959D+02      0.837183D+01      0.931492D+01

 ----------------------------------------------------------------------

 Test job not archived.
 1\1\GINC-C0205\Freq\RM062X\CC-pVTZ\C3H6O2\HARMS.N\05-Sep-2019\0\\#P Ge
 om=AllCheck Guess=TCheck SCRF=Check Test GenChk RM062X/CC-pVTZ Freq\\G
 aussian input prepared by ASE\\0,1\O,0.0745691514,-0.6459651997,1.3107
 534062\O,1.5386861166,0.7427296229,3.1853656588\C,-1.2335244648,-0.853
 6162611,0.8169232693\C,0.576919824,0.6001547779,1.0274213387\C,1.29498
 91317,1.2332079761,1.9443940862\H,-1.9400896232,-0.1577576277,1.275345
 4965\H,-1.2606178624,-0.7254618711,-0.2687646503\H,-1.5130520256,-1.87
 44494478,1.0629809688\H,0.3978877994,1.0008234457,0.0383560939\H,1.757
 7440806,2.1886108207,1.7532222704\H,1.1008980102,-0.1150648609,3.24564
 04123\\Version=EM64L-G16RevA.03\State=1-A\HF=-268.3241864\RMSD=5.923e-
 09\RMSF=9.188e-07\ZeroPoint=0.0911285\Thermal=0.0969967\Dipole=-0.6825
 972,-0.1295179,-0.5144672\DipoleDeriv=-0.9470519,-0.4217991,-0.3145375
 ,-0.6605786,-0.9934823,-0.2847938,-0.1398899,0.0498344,-0.4671743,-0.3
 928875,-0.0043865,-0.1320962,0.193049,-0.3351418,0.4400728,-0.4198102,
 -0.0115438,-1.2023537,0.8713279,0.2302026,0.2088072,0.0829893,0.324975
 8,0.0636319,0.2193213,0.1424812,0.451566,-0.0177667,0.3500434,0.021314
 2,0.6040029,0.6918685,0.093895,-0.1143836,-0.1396224,-0.0559254,0.0580
 695,0.0729979,0.2608698,-0.0864722,0.0945332,-0.3499433,0.4927498,-0.0
 77477,1.029579,-0.0950029,-0.0063198,0.0010373,0.1386608,-0.0158232,-0
 .0425113,0.0503472,-0.0760816,-0.0065606,-0.0144973,-0.0406722,0.03271
 29,0.009226,0.0532952,0.0459636,-0.0571052,-0.010566,-0.1636483,0.0135
 52,-0.0399724,-0.0243772,-0.0837274,-0.0962447,0.0169169,0.0018012,0.0
 441163,0.0572937,0.1396648,-0.0131077,-0.0429823,-0.0868593,0.0149779,
 0.013116,-0.0291502,0.0715975,-0.0394322,0.1018414,-0.0760074,-0.00816
 32,-0.0553376,0.0139907,0.0554637,-0.0241653,0.0378704,0.0525051,0.282
 7507,-0.0509789,-0.0025851,-0.0549528,0.2470507,-0.0518114,0.0202849,-
 0.030609,0.3441507\Polar=44.2495111,10.5140434,43.2247374,9.1038799,3.
 1330887,46.1361996\Quadrupole=-0.2106069,0.6648616,-0.4542546,1.565456
 6,-0.1511123,-1.857473\PG=C01 [X(C3H6O2)]\NImag=0\\0.40373698,0.152545
 48,0.39768472,0.10569254,-0.05994913,0.16977642,-0.00497393,0.00429772
 ,0.00235897,0.18043951,0.00506184,0.01080745,-0.00585753,0.21012889,0.
 52295523,-0.00150180,-0.01272524,0.00646643,0.08078856,-0.12826840,0.3
 9737548,-0.22148764,-0.03231844,-0.05980923,0.00071429,-0.00048476,0.0
 0473123,0.49709604,-0.00017575,-0.08078887,0.01202739,0.00037896,0.000
 10380,0.00090184,-0.00070762,0.62202479,-0.07182306,-0.00253281,-0.093
 04406,0.00036180,-0.00374921,0.00298475,-0.03409917,-0.01886946,0.5636
 3502,-0.09787447,-0.06225816,-0.01324225,0.00714335,-0.00425975,-0.016
 09709,-0.02713039,-0.04537706,0.00667938,0.37317293,-0.09596023,-0.263
 52951,0.04954765,0.01002483,0.00435160,0.03197799,-0.02019571,-0.02061
 502,-0.00392314,0.23988288,0.55312309,-0.00205455,0.06057998,-0.089236
 53,-0.03098142,0.00003362,-0.06180606,-0.00240989,-0.01590472,0.001733
 18,0.27574421,-0.00225168,0.74965544,-0.00648250,-0.02163191,-0.013797
 06,-0.07469595,-0.00134917,-0.06983141,0.00154037,-0.00144797,-0.00026
 572,-0.20916011,-0.14589727,-0.17946860,0.38518514,-0.04256734,-0.0506
 5406,-0.02341627,-0.02014097,-0.12622921,0.06235349,0.00636358,-0.0023
 1862,0.00579121,-0.13124113,-0.19297818,-0.13296324,0.30134264,0.66892
 044,0.00847713,0.01672941,0.00724687,-0.04821699,0.10453792,-0.2947289
 6,-0.00292990,0.00340247,-0.00450929,-0.19091955,-0.16009662,-0.311630
 20,0.23055762,-0.00244730,0.68596356,-0.04072234,0.01443557,0.00527925
 ,-0.00010064,0.00033581,-0.00054491,-0.14340246,0.09894052,0.07012187,
 0.00334670,0.00596965,-0.00042016,-0.00016890,-0.00175499,-0.00000089,
 0.17248967,-0.00556072,0.00721642,0.00403738,-0.00024302,-0.00041207,0
 .00107293,0.10484398,-0.16453958,-0.07434770,-0.00005164,0.00298320,0.
 00188772,0.00028185,0.00063229,-0.00186728,-0.11436694,0.16754417,-0.0
 1477568,0.00903674,0.00928262,-0.00012674,0.00028191,-0.00037986,0.073
 36584,-0.07550403,-0.10479253,0.00069112,0.00158902,0.00039797,0.00038
 386,-0.00019827,-0.00004434,-0.07320566,0.08094014,0.10469798,-0.01695
 514,-0.00125736,-0.04196828,-0.00002104,-0.00074947,-0.00005779,-0.049
 20925,-0.00193901,0.01235140,0.00261594,0.00564726,-0.00296056,-0.0005
 3838,-0.00039424,-0.00007690,0.00202793,-0.00338560,0.01957193,0.06071
 105,-0.00299492,0.00153796,-0.00496597,0.00007290,-0.00030518,0.000233
 20,0.00037967,-0.05747216,0.03226478,0.00040423,0.00205041,-0.00320526
 ,-0.00002795,-0.00005740,-0.00009208,0.00090787,0.00351645,-0.02176429
 ,0.00159190,0.05198605,-0.01472766,-0.00136299,-0.01093907,-0.00025265
 ,-0.00001508,0.00020884,0.00651948,0.03084139,-0.30163549,0.00176854,0
 .00285924,0.00065947,-0.00012234,-0.00088568,0.00010982,0.00162353,0.0
 0291423,-0.01303170,0.00415909,-0.03352310,0.32984832,-0.01876835,-0.0
 3755213,0.00604501,-0.00014627,0.00046654,-0.00052242,-0.06142551,-0.0
 4942226,0.01384820,-0.00446948,0.00068260,-0.00383856,-0.00049814,-0.0
 0197775,0.00148495,0.00711258,0.01812301,-0.00580091,0.00089956,-0.000
 50695,0.00143928,0.07731688,-0.00443323,-0.00329399,-0.00053956,-0.000
 06517,0.00032523,-0.00082134,-0.06192227,-0.29668022,0.06154296,-0.001
 00270,0.00210429,-0.00132892,-0.00000524,-0.00013471,0.00120819,-0.004
 17809,-0.01685636,0.00594917,0.00065504,-0.00141390,0.00040038,0.07070
 242,0.31613346,-0.00729986,-0.01498430,0.00322746,-0.00001307,0.000218
 50,-0.00005419,0.01866500,0.06626726,-0.06738484,-0.00199869,0.0003370
 9,-0.00083834,-0.00003774,-0.00071736,0.00083110,-0.00365861,-0.014529
 58,0.00428487,0.00716883,0.03038451,-0.00554495,-0.01262237,-0.0663306
 5,0.06538658,0.00057615,-0.00870481,0.01077690,0.00570056,-0.00661177,
 -0.00353788,0.00268329,-0.00022229,0.00348945,-0.04610176,0.00736848,-
 0.05564858,-0.00001066,0.01093876,-0.01379867,-0.00045247,-0.00006241,
 0.00002875,0.00049223,0.00025542,-0.00071686,-0.00005043,0.00026982,-0
 .00017654,0.04058919,-0.00183392,-0.02112314,0.02990812,-0.00623550,0.
 00165519,-0.00204542,0.00458233,0.00132184,0.00287064,0.00702639,-0.08
 353903,0.09295667,0.00048178,0.00917545,-0.01359622,-0.00047039,-0.000
 02764,-0.00032985,-0.00039724,0.00016022,-0.00132859,-0.00010038,0.000
 02162,-0.00044138,-0.00457710,0.09427459,0.00178506,0.00603885,-0.0020
 8867,-0.00497144,-0.00056732,0.00141863,-0.00150541,-0.00087144,0.0018
 8750,-0.05728694,0.09404500,-0.29583687,0.00096018,0.00967488,-0.01356
 341,0.00040047,0.00003042,-0.00046531,0.00105945,0.00061156,-0.0000134
 3,0.00033237,-0.00016776,0.00027809,0.05776113,-0.10728557,0.30837972,
 0.00441930,-0.00632113,-0.00394059,0.00530518,0.00822266,-0.00156849,0
 .00180827,0.00038711,-0.00063051,-0.00264247,-0.01114672,0.00679668,-0
 .10036047,-0.12630904,0.01370508,-0.00006939,0.00027311,0.00005263,-0.
 00029467,-0.00012549,-0.00003886,0.00002978,0.00007481,0.00003434,-0.0
 0297678,0.00192177,0.00099061,0.09338612,-0.00430995,0.00507739,-0.000
 65662,-0.00357807,-0.00997855,0.00673118,-0.00028678,-0.00104946,0.000
 31130,-0.00309777,-0.00855978,0.00516418,-0.12295556,-0.28468909,0.042
 20375,0.00000961,-0.00014122,0.00000934,0.00002795,0.00003012,-0.00007
 544,-0.00028794,-0.00005010,-0.00012513,0.00140371,-0.00082308,-0.0012
 4249,0.13264509,0.29816241,-0.00581005,0.00090537,-0.00211584,0.014125
 39,0.03335027,-0.00943823,0.00006495,-0.00136448,0.00039677,-0.0060627
 2,-0.01836342,0.01030721,0.01187178,0.03805649,-0.06021749,-0.00004952
 ,-0.00005279,0.00000701,-0.00004370,0.00000081,-0.00008603,-0.00047527
 ,-0.00007660,-0.00020904,0.00123418,-0.00040560,-0.00053563,-0.0130984
 6,-0.05409371,0.06707312,-0.00146806,-0.00123483,0.00260475,-0.1193650
 6,-0.21076082,0.00814201,-0.00118702,-0.00041462,-0.00003362,0.0010997
 6,0.00362424,-0.00475856,0.00518960,0.00574048,0.00171811,-0.00006068,
 0.00014837,-0.00018516,0.00027177,0.00004332,0.00034844,-0.00000062,-0
 .00009541,-0.00006129,-0.00044932,-0.00039773,0.00047452,0.00139514,0.
 00042972,-0.00175658,0.11457448,0.00022874,-0.00293438,-0.00013546,-0.
 19464056,-0.40327350,0.04058976,-0.00025398,0.00001349,0.00064144,-0.0
 0002528,0.00460894,-0.00496835,-0.00879121,-0.02166692,0.01001776,0.00
 017139,0.00008432,-0.00000987,0.00020077,-0.00003257,0.00017564,-0.000
 12717,-0.00015532,-0.00007897,-0.00005781,-0.00109602,-0.00026614,0.00
 037783,0.00202138,0.00204365,0.20291727,0.42243058,0.00203794,-0.00173
 587,0.00142437,-0.01307242,0.00003532,-0.04204682,-0.00259290,-0.00092
 622,0.00072900,0.00072401,0.00427886,-0.00340526,0.01974941,0.04475206
 ,-0.00945765,0.00045462,-0.00008549,0.00004331,0.00079653,0.00005583,0
 .00042422,0.00010973,0.00016413,0.00002326,0.00058814,-0.00030279,0.00
 053938,-0.00230245,0.00177363,-0.00518183,-0.00649263,-0.04800946,0.05
 690804\\-0.00000004,-0.00000048,0.00000015,-0.00000088,0.00000096,0.00
 000065,-0.00000035,0.00000044,0.00000043,0.00000053,-0.00000055,0.0000
 0031,0.00000008,-0.00000011,-0.00000061,-0.00000014,0.00000143,-0.0000
 0140,0.00000077,-0.00000109,-0.00000016,-0.00000115,0.00000077,0.00000
 109,0.00000178,-0.00000179,-0.00000071,0.00000110,-0.00000076,-0.00000
 087,-0.00000170,0.00000120,0.00000112\\\@


 NATURE GIVES TO EVERY TIME AND SEASON SOME BEAUTY OF ITS OWN.

                                                    --DICKENS
 Job cpu time:       0 days  0 hours 52 minutes  7.8 seconds.
 Elapsed time:       0 days  0 hours 26 minutes  4.7 seconds.
 File lengths (MBytes):  RWF=   1312 Int=      0 D2E=      0 Chk=     32 Scr=     32
 Normal termination of Gaussian 16 at Thu Sep  5 12:33:28 2019.
