 Entering Gaussian System, Link 0=g16
 Input=med/ts/CCC+[O]O_[CH2]CC+OO/conformers/CCC+[O]O_[CH2]CC+OO_forward_6.com
 Output=med/ts/CCC+[O]O_[CH2]CC+OO/conformers/CCC+[O]O_[CH2]CC+OO_forward_6.log
 Initial command:
 /shared/centos7/gaussian/g16/l1.exe "/scratch/harms.n/gauss_scrdir/Gau-24558.inp" -scrdir="/scratch/harms.n/gauss_scrdir/"
 Entering Link 1 = /shared/centos7/gaussian/g16/l1.exe PID=     24559.
  
 Copyright (c) 1988,1990,1992,1993,1995,1998,2003,2009,2016,
            Gaussian, Inc.  All Rights Reserved.
  
 This is part of the Gaussian(R) 16 program.  It is based on
 the Gaussian(R) 09 system (copyright 2009, Gaussian, Inc.),
 the Gaussian(R) 03 system (copyright 2003, Gaussian, Inc.),
 the Gaussian(R) 98 system (copyright 1998, Gaussian, Inc.),
 the Gaussian(R) 94 system (copyright 1995, Gaussian, Inc.),
 the Gaussian 92(TM) system (copyright 1992, Gaussian, Inc.),
 the Gaussian 90(TM) system (copyright 1990, Gaussian, Inc.),
 the Gaussian 88(TM) system (copyright 1988, Gaussian, Inc.),
 the Gaussian 86(TM) system (copyright 1986, Carnegie Mellon
 University), and the Gaussian 82(TM) system (copyright 1983,
 Carnegie Mellon University). Gaussian is a federally registered
 trademark of Gaussian, Inc.
  
 This software contains proprietary and confidential information,
 including trade secrets, belonging to Gaussian, Inc.
  
 This software is provided under written license and may be
 used, copied, transmitted, or stored only in accord with that
 written license.
  
 The following legend is applicable only to US Government
 contracts under FAR:
  
                    RESTRICTED RIGHTS LEGEND
  
 Use, reproduction and disclosure by the US Government is
 subject to restrictions as set forth in subparagraphs (a)
 and (c) of the Commercial Computer Software - Restricted
 Rights clause in FAR 52.227-19.
  
 Gaussian, Inc.
 340 Quinnipiac St., Bldg. 40, Wallingford CT 06492
  
  
 ---------------------------------------------------------------
 Warning -- This program may not be used in any manner that
 competes with the business of Gaussian, Inc. or will provide
 assistance to any competitor of Gaussian, Inc.  The licensee
 of this program is prohibited from giving any competitor of
 Gaussian, Inc. access to this program.  By using this program,
 the user acknowledges that Gaussian, Inc. is engaged in the
 business of creating and licensing software in the field of
 computational chemistry and represents and warrants to the
 licensee that it is not a competitor of Gaussian, Inc. and that
 it will not use this program in any manner prohibited above.
 ---------------------------------------------------------------
  

 Cite this work as:
 Gaussian 16, Revision A.03,
 M. J. Frisch, G. W. Trucks, H. B. Schlegel, G. E. Scuseria, 
 M. A. Robb, J. R. Cheeseman, G. Scalmani, V. Barone, 
 G. A. Petersson, H. Nakatsuji, X. Li, M. Caricato, A. V. Marenich, 
 J. Bloino, B. G. Janesko, R. Gomperts, B. Mennucci, H. P. Hratchian, 
 J. V. Ortiz, A. F. Izmaylov, J. L. Sonnenberg, D. Williams-Young, 
 F. Ding, F. Lipparini, F. Egidi, J. Goings, B. Peng, A. Petrone, 
 T. Henderson, D. Ranasinghe, V. G. Zakrzewski, J. Gao, N. Rega, 
 G. Zheng, W. Liang, M. Hada, M. Ehara, K. Toyota, R. Fukuda, 
 J. Hasegawa, M. Ishida, T. Nakajima, Y. Honda, O. Kitao, H. Nakai, 
 T. Vreven, K. Throssell, J. A. Montgomery, Jr., J. E. Peralta, 
 F. Ogliaro, M. J. Bearpark, J. J. Heyd, E. N. Brothers, K. N. Kudin, 
 V. N. Staroverov, T. A. Keith, R. Kobayashi, J. Normand, 
 K. Raghavachari, A. P. Rendell, J. C. Burant, S. S. Iyengar, 
 J. Tomasi, M. Cossi, J. M. Millam, M. Klene, C. Adamo, R. Cammi, 
 J. W. Ochterski, R. L. Martin, K. Morokuma, O. Farkas, 
 J. B. Foresman, and D. J. Fox, Gaussian, Inc., Wallingford CT, 2016.
 
 ******************************************
 Gaussian 16:  EM64L-G16RevA.03 25-Dec-2016
                 5-Sep-2019 
 ******************************************
 %nprocshared=20
 Will use up to   20 processors via shared memory.
 %mem=5GB
 ----------------------------------------------------------------------
 #p m062x/cc-pVTZ opt=(ts,calcfc,noeigentest,maxcycles=900) freq scf=(m
 axcycle=900) IOP(7/33=1,2/16=3)
 ----------------------------------------------------------------------
 1/5=1,6=900,10=4,11=1,18=20,26=3,38=1/1,3;
 2/9=110,12=2,16=3,17=6,18=5,40=1/2;
 3/5=16,6=1,11=2,25=1,30=1,71=2,74=-55,140=1/1,2,3;
 4//1;
 5/5=2,7=900,38=5/2;
 8/6=4,10=90,11=11/1;
 11/6=1,8=1,9=11,15=111,16=1/1,2,10;
 10/6=1,13=1/2;
 6/7=2,8=2,9=2,10=2,28=1/1;
 7/10=1,18=20,25=1,33=1/1,2,3,16;
 1/5=1,6=900,10=4,11=1,18=20,26=3/3(2);
 2/9=110,16=3/2;
 99//99;
 2/9=110,16=3/2;
 3/5=16,6=1,11=2,25=1,30=1,71=1,74=-55/1,2,3;
 4/5=5,16=3,69=1/1;
 5/5=2,7=900,38=5/2;
 7/33=1/1,2,3,16;
 1/5=1,6=900,11=1,18=20,26=3/3(-5);
 2/9=110,16=3/2;
 6/7=2,8=2,9=2,10=2,19=2,28=1/1;
 99/9=1/99;
 Leave Link    1 at Thu Sep  5 18:10:20 2019, MaxMem=   671088640 cpu:               4.1 elap:               2.0
 (Enter /shared/centos7/gaussian/g16/l101.exe)
 ------------------------------
 Gaussian input prepared by ASE
 ------------------------------
 Symbolic Z-matrix:
 Charge =  0 Multiplicity = 2
 O                     1.84825  -0.75425  -0.22189 
 O                     1.71465   0.41466   0.52416 
 C                    -1.67133   0.41327   0.12061 
 C                    -0.42951   1.11046  -0.35916 
 C                    -1.55259  -1.10574   0.06332 
 H                    -2.51752   0.74077  -0.49572 
 H                    -1.90271   0.73552   1.13755 
 H                     0.58265   0.68046   0.45569 
 H                    -0.04786   0.77758  -1.32095 
 H                    -0.39344   2.18926  -0.23488 
 H                    -1.37011  -1.44138  -0.95768 
 H                    -2.46291  -1.58531   0.41828 
 H                    -0.71761  -1.45027   0.67228 
 H                     2.24688  -0.43787  -1.0413 
 
 Add virtual bond connecting atoms H8         and O2         Dist= 2.20D+00.
 Add virtual bond connecting atoms H8         and C4         Dist= 2.59D+00.
 ITRead=  0  0  0  0  0  0  0  0  0  0  0  0  0  0
 MicOpt= -1 -1 -1 -1 -1 -1 -1 -1 -1 -1 -1 -1 -1 -1
 NAtoms=     14 NQM=       14 NQMF=       0 NMMI=      0 NMMIF=      0
                NMic=       0 NMicF=      0.
                    Isotopes and Nuclear Properties:
 (Nuclear quadrupole moments (NQMom) in fm**2, nuclear magnetic moments (NMagM)
  in nuclear magnetons)

  Atom         1           2           3           4           5           6           7           8           9          10
 IAtWgt=          16          16          12          12          12           1           1           1           1           1
 AtmWgt=  15.9949146  15.9949146  12.0000000  12.0000000  12.0000000   1.0078250   1.0078250   1.0078250   1.0078250   1.0078250
 NucSpn=           0           0           0           0           0           1           1           1           1           1
 AtZEff=  -0.0000000  -0.0000000  -0.0000000  -0.0000000  -0.0000000  -0.0000000  -0.0000000  -0.0000000  -0.0000000  -0.0000000
 NQMom=    0.0000000   0.0000000   0.0000000   0.0000000   0.0000000   0.0000000   0.0000000   0.0000000   0.0000000   0.0000000
 NMagM=    0.0000000   0.0000000   0.0000000   0.0000000   0.0000000   2.7928460   2.7928460   2.7928460   2.7928460   2.7928460
 AtZNuc=   8.0000000   8.0000000   6.0000000   6.0000000   6.0000000   1.0000000   1.0000000   1.0000000   1.0000000   1.0000000

  Atom        11          12          13          14
 IAtWgt=           1           1           1           1
 AtmWgt=   1.0078250   1.0078250   1.0078250   1.0078250
 NucSpn=           1           1           1           1
 AtZEff=  -0.0000000  -0.0000000  -0.0000000  -0.0000000
 NQMom=    0.0000000   0.0000000   0.0000000   0.0000000
 NMagM=    2.7928460   2.7928460   2.7928460   2.7928460
 AtZNuc=   1.0000000   1.0000000   1.0000000   1.0000000
 Leave Link  101 at Thu Sep  5 18:10:23 2019, MaxMem=   671088640 cpu:               5.8 elap:               2.9
 (Enter /shared/centos7/gaussian/g16/l103.exe)

 GradGradGradGradGradGradGradGradGradGradGradGradGradGradGradGradGradGrad
 Berny optimization.
 Initialization pass.
                           ----------------------------
                           !    Initial Parameters    !
                           ! (Angstroms and Degrees)  !
 --------------------------                            --------------------------
 ! Name  Definition              Value          Derivative Info.                !
 --------------------------------------------------------------------------------
 ! R1    R(1,2)                  1.3931         calculate D2E/DX2 analytically  !
 ! R2    R(1,14)                 0.9646         calculate D2E/DX2 analytically  !
 ! R3    R(2,8)                  1.1648         calculate D2E/DX2 analytically  !
 ! R4    R(3,4)                  1.5028         calculate D2E/DX2 analytically  !
 ! R5    R(3,5)                  1.5247         calculate D2E/DX2 analytically  !
 ! R6    R(3,6)                  1.0969         calculate D2E/DX2 analytically  !
 ! R7    R(3,7)                  1.0916         calculate D2E/DX2 analytically  !
 ! R8    R(4,8)                  1.3687         calculate D2E/DX2 analytically  !
 ! R9    R(4,9)                  1.087          calculate D2E/DX2 analytically  !
 ! R10   R(4,10)                 1.0865         calculate D2E/DX2 analytically  !
 ! R11   R(5,11)                 1.0901         calculate D2E/DX2 analytically  !
 ! R12   R(5,12)                 1.0884         calculate D2E/DX2 analytically  !
 ! R13   R(5,13)                 1.0894         calculate D2E/DX2 analytically  !
 ! A1    A(2,1,14)             102.6708         calculate D2E/DX2 analytically  !
 ! A2    A(1,2,8)              104.6663         calculate D2E/DX2 analytically  !
 ! A3    A(4,3,5)              112.696          calculate D2E/DX2 analytically  !
 ! A4    A(4,3,6)              108.6379         calculate D2E/DX2 analytically  !
 ! A5    A(4,3,7)              109.6102         calculate D2E/DX2 analytically  !
 ! A6    A(5,3,6)              109.6592         calculate D2E/DX2 analytically  !
 ! A7    A(5,3,7)              110.2193         calculate D2E/DX2 analytically  !
 ! A8    A(6,3,7)              105.7718         calculate D2E/DX2 analytically  !
 ! A9    A(3,4,8)              105.9777         calculate D2E/DX2 analytically  !
 ! A10   A(3,4,9)              115.5021         calculate D2E/DX2 analytically  !
 ! A11   A(3,4,10)             116.8429         calculate D2E/DX2 analytically  !
 ! A12   A(8,4,9)               99.8416         calculate D2E/DX2 analytically  !
 ! A13   A(8,4,10)             102.667          calculate D2E/DX2 analytically  !
 ! A14   A(9,4,10)             113.1801         calculate D2E/DX2 analytically  !
 ! A15   A(3,5,11)             110.7909         calculate D2E/DX2 analytically  !
 ! A16   A(3,5,12)             111.1962         calculate D2E/DX2 analytically  !
 ! A17   A(3,5,13)             110.7182         calculate D2E/DX2 analytically  !
 ! A18   A(11,5,12)            108.0459         calculate D2E/DX2 analytically  !
 ! A19   A(11,5,13)            107.3303         calculate D2E/DX2 analytically  !
 ! A20   A(12,5,13)            108.6274         calculate D2E/DX2 analytically  !
 ! A21   A(2,8,4)              145.6251         calculate D2E/DX2 analytically  !
 ! D1    D(14,1,2,8)           103.5605         calculate D2E/DX2 analytically  !
 ! D2    D(1,2,8,4)            -69.2775         calculate D2E/DX2 analytically  !
 ! D3    D(5,3,4,8)            -59.1787         calculate D2E/DX2 analytically  !
 ! D4    D(5,3,4,9)             50.3068         calculate D2E/DX2 analytically  !
 ! D5    D(5,3,4,10)          -172.791          calculate D2E/DX2 analytically  !
 ! D6    D(6,3,4,8)            179.0923         calculate D2E/DX2 analytically  !
 ! D7    D(6,3,4,9)            -71.4221         calculate D2E/DX2 analytically  !
 ! D8    D(6,3,4,10)            65.4801         calculate D2E/DX2 analytically  !
 ! D9    D(7,3,4,8)             63.9621         calculate D2E/DX2 analytically  !
 ! D10   D(7,3,4,9)            173.4476         calculate D2E/DX2 analytically  !
 ! D11   D(7,3,4,10)           -49.6502         calculate D2E/DX2 analytically  !
 ! D12   D(4,3,5,11)           -59.9848         calculate D2E/DX2 analytically  !
 ! D13   D(4,3,5,12)           179.8403         calculate D2E/DX2 analytically  !
 ! D14   D(4,3,5,13)            58.9796         calculate D2E/DX2 analytically  !
 ! D15   D(6,3,5,11)            61.164          calculate D2E/DX2 analytically  !
 ! D16   D(6,3,5,12)           -59.0108         calculate D2E/DX2 analytically  !
 ! D17   D(6,3,5,13)          -179.8716         calculate D2E/DX2 analytically  !
 ! D18   D(7,3,5,11)           177.2146         calculate D2E/DX2 analytically  !
 ! D19   D(7,3,5,12)            57.0397         calculate D2E/DX2 analytically  !
 ! D20   D(7,3,5,13)           -63.821          calculate D2E/DX2 analytically  !
 ! D21   D(3,4,8,2)            146.2376         calculate D2E/DX2 analytically  !
 ! D22   D(9,4,8,2)             25.959          calculate D2E/DX2 analytically  !
 ! D23   D(10,4,8,2)           -90.6858         calculate D2E/DX2 analytically  !
 --------------------------------------------------------------------------------
 Trust Radius=3.00D-01 FncErr=1.00D-07 GrdErr=1.00D-06 EigMax=2.50D+02 EigMin=1.00D-04
 Number of steps in this run=    100 maximum allowed number of steps=    100.
 Search for a saddle point of order  1.
 GradGradGradGradGradGradGradGradGradGradGradGradGradGradGradGradGradGrad

 Leave Link  103 at Thu Sep  5 18:10:23 2019, MaxMem=   671088640 cpu:               1.4 elap:               0.7
 (Enter /shared/centos7/gaussian/g16/l202.exe)
                          Input orientation:                          
 ---------------------------------------------------------------------
 Center     Atomic      Atomic             Coordinates (Angstroms)
 Number     Number       Type             X           Y           Z
 ---------------------------------------------------------------------
      1          8           0        1.848249   -0.754246   -0.221888
      2          8           0        1.714650    0.414658    0.524160
      3          6           0       -1.671334    0.413272    0.120605
      4          6           0       -0.429508    1.110464   -0.359164
      5          6           0       -1.552585   -1.105745    0.063320
      6          1           0       -2.517523    0.740769   -0.495717
      7          1           0       -1.902709    0.735519    1.137549
      8          1           0        0.582652    0.680458    0.455693
      9          1           0       -0.047864    0.777582   -1.320950
     10          1           0       -0.393437    2.189258   -0.234884
     11          1           0       -1.370114   -1.441382   -0.957675
     12          1           0       -2.462910   -1.585309    0.418279
     13          1           0       -0.717608   -1.450270    0.672275
     14          1           0        2.246878   -0.437866   -1.041300
 ---------------------------------------------------------------------
                    Distance matrix (angstroms):
                    1          2          3          4          5
     1  O    0.000000
     2  O    1.393116   0.000000
     3  C    3.723958   3.409948   0.000000
     4  C    2.946891   2.421120   1.502793   0.000000
     5  C    3.430826   3.633018   1.524728   2.520194   0.000000
     6  H    4.622772   4.365522   1.096879   2.124883   2.157137
     7  H    4.258774   3.682999   1.091583   2.133320   2.160280
     8  H    2.029588   1.164799   2.294368   1.368709   2.811355
     9  H    2.673888   2.577324   2.201467   1.086966   2.779804
    10  H    3.699938   2.858213   2.216646   1.086528   3.505652
    11  H    3.372150   3.893133   2.166371   2.784757   1.090128
    12  H    4.436955   4.632827   2.170145   3.465016   1.088425
    13  H    2.804924   3.068513   2.164884   2.775649   1.089362
    14  H    0.964592   1.860303   4.174547   3.166335   4.012751
                    6          7          8          9         10
     6  H    0.000000
     7  H    1.745159   0.000000
     8  H    3.243440   2.577786   0.000000
     9  H    2.604147   3.080006   1.887709   0.000000
    10  H    2.584162   2.504961   1.925130   1.814329   0.000000
    11  H    2.508333   3.067983   3.211403   2.608470   3.828560
    12  H    2.499802   2.493475   3.796123   3.800081   4.353929
    13  H    3.066684   2.529549   2.505511   3.063467   3.764862
    14  H    4.938255   4.831489   2.502256   2.611773   3.810951
                   11         12         13         14
    11  H    0.000000
    12  H    1.763000   0.000000
    13  H    1.755728   1.768850   0.000000
    14  H    3.754553   5.062519   3.570641   0.000000
 Stoichiometry    C3H9O2(2)
 Framework group  C1[X(C3H9O2)]
 Deg. of freedom    36
 Full point group                 C1      NOp   1
 Largest Abelian subgroup         C1      NOp   1
 Largest concise Abelian subgroup C1      NOp   1
                         Standard orientation:                         
 ---------------------------------------------------------------------
 Center     Atomic      Atomic             Coordinates (Angstroms)
 Number     Number       Type             X           Y           Z
 ---------------------------------------------------------------------
      1          8           0        1.848249    0.754246    0.221888
      2          8           0        1.714650   -0.414658   -0.524160
      3          6           0       -1.671334   -0.413272   -0.120605
      4          6           0       -0.429508   -1.110464    0.359164
      5          6           0       -1.552585    1.105745   -0.063320
      6          1           0       -2.517523   -0.740769    0.495717
      7          1           0       -1.902709   -0.735519   -1.137549
      8          1           0        0.582652   -0.680458   -0.455693
      9          1           0       -0.047864   -0.777582    1.320950
     10          1           0       -0.393437   -2.189258    0.234884
     11          1           0       -1.370114    1.441382    0.957675
     12          1           0       -2.462910    1.585309   -0.418279
     13          1           0       -0.717608    1.450270   -0.672275
     14          1           0        2.246878    0.437866    1.041300
 ---------------------------------------------------------------------
 Rotational constants (GHZ):           7.1803053           2.4883011           2.0436619
 Leave Link  202 at Thu Sep  5 18:10:25 2019, MaxMem=   671088640 cpu:               2.6 elap:               1.3
 (Enter /shared/centos7/gaussian/g16/l301.exe)
 Standard basis: CC-pVTZ (5D, 7F)
 Ernie: Thresh=  0.10000D-02 Tol=  0.10000D-05 Strict=F.
 Ernie:  15 primitive shells out of 202 were deleted.
 There are   310 symmetry adapted cartesian basis functions of A   symmetry.
 There are   276 symmetry adapted basis functions of A   symmetry.
   276 basis functions,   413 primitive gaussians,   310 cartesian basis functions
    22 alpha electrons       21 beta electrons
       nuclear repulsion energy       187.3947471571 Hartrees.
 IExCor= 4336 DFT=T Ex+Corr=M062X ExCW=0 ScaHFX=  0.540000
 ScaDFX=  1.000000  1.000000  1.000000  1.000000 ScalE2=  1.000000  1.000000
 IRadAn=      5 IRanWt=     -1 IRanGd=            0 ICorTp=0 IEmpDi=  4
 NAtoms=   14 NActive=   14 NUniq=   14 SFac= 1.00D+00 NAtFMM=   60 NAOKFM=F Big=F
 Integral buffers will be    131072 words long.
 Raffenetti 2 integral format.
 Two-electron integral symmetry is turned on.
 Leave Link  301 at Thu Sep  5 18:10:26 2019, MaxMem=   671088640 cpu:               1.6 elap:               0.8
 (Enter /shared/centos7/gaussian/g16/l302.exe)
 NPDir=0 NMtPBC=     1 NCelOv=     1 NCel=       1 NClECP=     1 NCelD=      1
         NCelK=      1 NCelE2=     1 NClLst=     1 CellRange=     0.0.
 One-electron integrals computed using PRISM.
 One-electron integral symmetry used in STVInt
 NBasis=   276 RedAO= T EigKep=  7.20D-04  NBF=   276
 NBsUse=   276 1.00D-06 EigRej= -1.00D+00 NBFU=   276
 Precomputing XC quadrature grid using
 IXCGrd= 4 IRadAn=           5 IRanWt=          -1 IRanGd=           0 AccXCQ= 0.00D+00.
 Generated NRdTot=       0 NPtTot=           0 NUsed=           0 NTot=          32
 NSgBfM=   310   310   310   310   310 MxSgAt=    14 MxSgA2=    14.
 Leave Link  302 at Thu Sep  5 18:11:23 2019, MaxMem=   671088640 cpu:             115.1 elap:              57.6
 (Enter /shared/centos7/gaussian/g16/l303.exe)
 DipDrv:  MaxL=1.
 Leave Link  303 at Thu Sep  5 18:11:27 2019, MaxMem=   671088640 cpu:               8.2 elap:               4.1
 (Enter /shared/centos7/gaussian/g16/l401.exe)
 ExpMin= 1.03D-01 ExpMax= 1.53D+04 ExpMxC= 5.22D+02 IAcc=3 IRadAn=         5 AccDes= 0.00D+00
 Harris functional with IExCor= 1009 and IRadAn=       5 diagonalized for initial guess.
 HarFok:  IExCor= 1009 AccDes= 0.00D+00 IRadAn=         5 IDoV= 1 UseB2=F ITyADJ=14
 ICtDFT=  3500011 ScaDFX=  1.000000  1.000000  1.000000  1.000000
 FoFCou: FMM=F IPFlag=           0 FMFlag=      100000 FMFlg1=           0
         NFxFlg=           0 DoJE=T BraDBF=F KetDBF=T FulRan=T
         wScrn=  0.000000 ICntrl=       500 IOpCl=  0 I1Cent=   200000004 NGrid=           0
         NMat0=    1 NMatS0=      1 NMatT0=    0 NMatD0=    1 NMtDS0=    0 NMtDT0=    0
 Petite list used in FoFCou.
 Harris En= -269.914715597147    
 JPrj=0 DoOrth=F DoCkMO=F.
 Initial guess <Sx>= 0.0000 <Sy>= 0.0000 <Sz>= 0.5000 <S**2>= 0.7500 S= 0.5000
 Leave Link  401 at Thu Sep  5 18:11:58 2019, MaxMem=   671088640 cpu:              60.8 elap:              30.4
 (Enter /shared/centos7/gaussian/g16/l502.exe)
 Integral symmetry usage will be decided dynamically.
 UHF open shell SCF:
 Using DIIS extrapolation, IDIIS=  1040.
 NGot=   671088640 LenX=   670887394 LenY=   670790853
 Requested convergence on RMS density matrix=1.00D-08 within 900 cycles.
 Requested convergence on MAX density matrix=1.00D-06.
 Requested convergence on             energy=1.00D-06.
 No special actions if energy rises.
 Fock matrices will be formed incrementally for  20 cycles.
 Integral accuracy reduced to 1.0D-05 until final iterations.

 Cycle   1  Pass 0  IDiag  1:
 FoFJK:  IHMeth= 1 ICntrl=       0 DoSepK=F KAlg= 0 I1Cent=           0 FoldK=F
 IRaf= 970000000 NMat=       1 IRICut=       1 DoRegI=T DoRafI=F ISym2E= 0 IDoP0=0 IntGTp=1.
 FoFCou: FMM=F IPFlag=           0 FMFlag=      100000 FMFlg1=           0
         NFxFlg=           0 DoJE=F BraDBF=F KetDBF=F FulRan=T
         wScrn=  0.000000 ICntrl=         0 IOpCl=  1 I1Cent=           0 NGrid=           0
         NMat0=    1 NMatS0=      1 NMatT0=    0 NMatD0=    1 NMtDS0=    0 NMtDT0=    0
 Symmetry not used in FoFCou.
 E= -269.779130399796    
 DIIS: error= 2.68D-02 at cycle   1 NSaved=   1.
 NSaved= 1 IEnMin= 1 EnMin= -269.779130399796     IErMin= 1 ErrMin= 2.68D-02
 ErrMax= 2.68D-02  0.00D+00 EMaxC= 1.00D-01 BMatC= 8.95D-01 BMatP= 8.95D-01
 IDIUse=3 WtCom= 7.32D-01 WtEn= 2.68D-01
 Coeff-Com:  0.100D+01
 Coeff-En:   0.100D+01
 Coeff:      0.100D+01
 Gap=     0.333 Goal=   None    Shift=    0.000
 Gap=     0.344 Goal=   None    Shift=    0.000
 GapD=    0.333 DampG=1.000 DampE=0.500 DampFc=0.5000 IDamp=-1.
 Damping current iteration by 5.00D-01
 RMSDP=2.06D-03 MaxDP=1.05D-01              OVMax= 2.20D-01

 Cycle   2  Pass 0  IDiag  1:
 RMSU=  1.03D-03    CP:  9.97D-01
 E= -269.878181935426     Delta-E=       -0.099051535630 Rises=F Damp=T
 DIIS: error= 4.23D-03 at cycle   2 NSaved=   2.
 NSaved= 2 IEnMin= 2 EnMin= -269.878181935426     IErMin= 2 ErrMin= 4.23D-03
 ErrMax= 4.23D-03  0.00D+00 EMaxC= 1.00D-01 BMatC= 7.18D-02 BMatP= 8.95D-01
 IDIUse=3 WtCom= 9.58D-01 WtEn= 4.23D-02
 Coeff-Com: -0.106D+00 0.111D+01
 Coeff-En:   0.000D+00 0.100D+01
 Coeff:     -0.101D+00 0.110D+01
 Gap=     0.352 Goal=   None    Shift=    0.000
 Gap=     0.350 Goal=   None    Shift=    0.000
 RMSDP=5.28D-04 MaxDP=1.96D-02 DE=-9.91D-02 OVMax= 9.42D-02

 Cycle   3  Pass 0  IDiag  1:
 RMSU=  5.25D-04    CP:  1.00D+00  9.89D-01
 E= -269.973186352661     Delta-E=       -0.095004417235 Rises=F Damp=F
 DIIS: error= 4.27D-03 at cycle   3 NSaved=   3.
 NSaved= 3 IEnMin= 3 EnMin= -269.973186352661     IErMin= 2 ErrMin= 4.23D-03
 ErrMax= 4.27D-03  0.00D+00 EMaxC= 1.00D-01 BMatC= 2.02D-02 BMatP= 7.18D-02
 IDIUse=3 WtCom= 9.57D-01 WtEn= 4.27D-02
 Coeff-Com: -0.839D-01 0.369D+00 0.715D+00
 Coeff-En:   0.000D+00 0.000D+00 0.100D+01
 Coeff:     -0.803D-01 0.353D+00 0.727D+00
 Gap=     0.346 Goal=   None    Shift=    0.000
 Gap=     0.271 Goal=   None    Shift=    0.000
 RMSDP=2.22D-04 MaxDP=7.88D-03 DE=-9.50D-02 OVMax= 5.91D-02

 Cycle   4  Pass 0  IDiag  1:
 RMSU=  1.97D-04    CP:  1.00D+00  1.05D+00  8.53D-01
 E= -269.976910994407     Delta-E=       -0.003724641746 Rises=F Damp=F
 DIIS: error= 2.39D-03 at cycle   4 NSaved=   4.
 NSaved= 4 IEnMin= 4 EnMin= -269.976910994407     IErMin= 4 ErrMin= 2.39D-03
 ErrMax= 2.39D-03  0.00D+00 EMaxC= 1.00D-01 BMatC= 7.52D-03 BMatP= 2.02D-02
 IDIUse=3 WtCom= 9.76D-01 WtEn= 2.39D-02
 Coeff-Com: -0.310D-01 0.783D-01 0.401D+00 0.552D+00
 Coeff-En:   0.000D+00 0.000D+00 0.123D+00 0.877D+00
 Coeff:     -0.303D-01 0.764D-01 0.395D+00 0.559D+00
 Gap=     0.344 Goal=   None    Shift=    0.000
 Gap=     0.274 Goal=   None    Shift=    0.000
 RMSDP=9.80D-05 MaxDP=4.87D-03 DE=-3.72D-03 OVMax= 1.22D-02

 Cycle   5  Pass 0  IDiag  1:
 RMSU=  6.83D-05    CP:  1.00D+00  1.05D+00  9.56D-01  7.73D-01
 E= -269.978352764849     Delta-E=       -0.001441770442 Rises=F Damp=F
 DIIS: error= 5.12D-04 at cycle   5 NSaved=   5.
 NSaved= 5 IEnMin= 5 EnMin= -269.978352764849     IErMin= 5 ErrMin= 5.12D-04
 ErrMax= 5.12D-04  0.00D+00 EMaxC= 1.00D-01 BMatC= 4.43D-04 BMatP= 7.52D-03
 IDIUse=3 WtCom= 9.95D-01 WtEn= 5.12D-03
 Coeff-Com: -0.195D-02-0.905D-02 0.840D-01 0.193D+00 0.734D+00
 Coeff-En:   0.000D+00 0.000D+00 0.000D+00 0.000D+00 0.100D+01
 Coeff:     -0.194D-02-0.900D-02 0.835D-01 0.192D+00 0.736D+00
 Gap=     0.346 Goal=   None    Shift=    0.000
 Gap=     0.275 Goal=   None    Shift=    0.000
 RMSDP=4.45D-05 MaxDP=1.60D-03 DE=-1.44D-03 OVMax= 1.11D-02

 Cycle   6  Pass 0  IDiag  1:
 RMSU=  2.86D-05    CP:  1.00D+00  1.04D+00  9.90D-01  8.98D-01  1.20D+00
 E= -269.978540719493     Delta-E=       -0.000187954644 Rises=F Damp=F
 DIIS: error= 3.37D-04 at cycle   6 NSaved=   6.
 NSaved= 6 IEnMin= 6 EnMin= -269.978540719493     IErMin= 6 ErrMin= 3.37D-04
 ErrMax= 3.37D-04  0.00D+00 EMaxC= 1.00D-01 BMatC= 1.35D-04 BMatP= 4.43D-04
 IDIUse=3 WtCom= 9.97D-01 WtEn= 3.37D-03
 Coeff-Com:  0.781D-02-0.228D-01-0.637D-01-0.933D-01 0.271D+00 0.901D+00
 Coeff-En:   0.000D+00 0.000D+00 0.000D+00 0.000D+00 0.000D+00 0.100D+01
 Coeff:      0.778D-02-0.228D-01-0.635D-01-0.930D-01 0.270D+00 0.901D+00
 Gap=     0.347 Goal=   None    Shift=    0.000
 Gap=     0.278 Goal=   None    Shift=    0.000
 RMSDP=3.66D-05 MaxDP=1.26D-03 DE=-1.88D-04 OVMax= 1.19D-02

 Cycle   7  Pass 0  IDiag  1:
 RMSU=  1.61D-05    CP:  1.00D+00  1.04D+00  1.01D+00  9.79D-01  1.58D+00
                    CP:  1.24D+00
 E= -269.978632528991     Delta-E=       -0.000091809498 Rises=F Damp=F
 DIIS: error= 1.41D-04 at cycle   7 NSaved=   7.
 NSaved= 7 IEnMin= 7 EnMin= -269.978632528991     IErMin= 7 ErrMin= 1.41D-04
 ErrMax= 1.41D-04  0.00D+00 EMaxC= 1.00D-01 BMatC= 4.17D-05 BMatP= 1.35D-04
 IDIUse=3 WtCom= 9.99D-01 WtEn= 1.41D-03
 Coeff-Com:  0.322D-02-0.563D-02-0.436D-01-0.105D+00-0.118D+00 0.395D+00
 Coeff-Com:  0.874D+00
 Coeff-En:   0.000D+00 0.000D+00 0.000D+00 0.000D+00 0.000D+00 0.000D+00
 Coeff-En:   0.100D+01
 Coeff:      0.322D-02-0.562D-02-0.436D-01-0.104D+00-0.118D+00 0.394D+00
 Coeff:      0.874D+00
 Gap=     0.348 Goal=   None    Shift=    0.000
 Gap=     0.278 Goal=   None    Shift=    0.000
 RMSDP=2.40D-05 MaxDP=6.90D-04 DE=-9.18D-05 OVMax= 6.82D-03

 Cycle   8  Pass 0  IDiag  1:
 RMSU=  7.53D-06    CP:  1.00D+00  1.04D+00  1.03D+00  1.02D+00  1.81D+00
                    CP:  1.60D+00  1.22D+00
 E= -269.978661194391     Delta-E=       -0.000028665400 Rises=F Damp=F
 DIIS: error= 5.16D-05 at cycle   8 NSaved=   8.
 NSaved= 8 IEnMin= 8 EnMin= -269.978661194391     IErMin= 8 ErrMin= 5.16D-05
 ErrMax= 5.16D-05  0.00D+00 EMaxC= 1.00D-01 BMatC= 4.14D-06 BMatP= 4.17D-05
 IDIUse=1 WtCom= 1.00D+00 WtEn= 0.00D+00
 Coeff-Com: -0.127D-02 0.387D-02 0.130D-01 0.104D-01-0.331D-01-0.116D+00
 Coeff-Com:  0.197D-01 0.110D+01
 Coeff:     -0.127D-02 0.387D-02 0.130D-01 0.104D-01-0.331D-01-0.116D+00
 Coeff:      0.197D-01 0.110D+01
 Gap=     0.348 Goal=   None    Shift=    0.000
 Gap=     0.278 Goal=   None    Shift=    0.000
 RMSDP=9.40D-06 MaxDP=4.04D-04 DE=-2.87D-05 OVMax= 3.24D-03

 Initial convergence to 1.0D-05 achieved.  Increase integral accuracy.
 Cycle   9  Pass 1  IDiag  1:
 E= -269.978647411717     Delta-E=        0.000013782674 Rises=F Damp=F
 DIIS: error= 2.80D-05 at cycle   1 NSaved=   1.
 NSaved= 1 IEnMin= 1 EnMin= -269.978647411717     IErMin= 1 ErrMin= 2.80D-05
 ErrMax= 2.80D-05  0.00D+00 EMaxC= 1.00D-01 BMatC= 2.77D-06 BMatP= 2.77D-06
 IDIUse=1 WtCom= 1.00D+00 WtEn= 0.00D+00
 Coeff-Com:  0.100D+01
 Coeff:      0.100D+01
 Gap=     0.348 Goal=   None    Shift=    0.000
 Gap=     0.278 Goal=   None    Shift=    0.000
 RMSDP=9.40D-06 MaxDP=4.04D-04 DE= 1.38D-05 OVMax= 9.38D-04

 Cycle  10  Pass 1  IDiag  1:
 RMSU=  7.52D-06    CP:  1.00D+00
 E= -269.978648826706     Delta-E=       -0.000001414988 Rises=F Damp=F
 DIIS: error= 2.46D-05 at cycle   2 NSaved=   2.
 NSaved= 2 IEnMin= 2 EnMin= -269.978648826706     IErMin= 2 ErrMin= 2.46D-05
 ErrMax= 2.46D-05  0.00D+00 EMaxC= 1.00D-01 BMatC= 1.07D-06 BMatP= 2.77D-06
 IDIUse=1 WtCom= 1.00D+00 WtEn= 0.00D+00
 Coeff-Com:  0.297D+00 0.703D+00
 Coeff:      0.297D+00 0.703D+00
 Gap=     0.348 Goal=   None    Shift=    0.000
 Gap=     0.278 Goal=   None    Shift=    0.000
 RMSDP=2.30D-06 MaxDP=8.46D-05 DE=-1.41D-06 OVMax= 7.22D-04

 Cycle  11  Pass 1  IDiag  1:
 RMSU=  2.00D-06    CP:  1.00D+00  1.15D+00
 E= -269.978649392464     Delta-E=       -0.000000565759 Rises=F Damp=F
 DIIS: error= 1.52D-05 at cycle   3 NSaved=   3.
 NSaved= 3 IEnMin= 3 EnMin= -269.978649392464     IErMin= 3 ErrMin= 1.52D-05
 ErrMax= 1.52D-05  0.00D+00 EMaxC= 1.00D-01 BMatC= 4.52D-07 BMatP= 1.07D-06
 IDIUse=1 WtCom= 1.00D+00 WtEn= 0.00D+00
 Coeff-Com: -0.170D+00 0.280D+00 0.889D+00
 Coeff:     -0.170D+00 0.280D+00 0.889D+00
 Gap=     0.348 Goal=   None    Shift=    0.000
 Gap=     0.278 Goal=   None    Shift=    0.000
 RMSDP=2.41D-06 MaxDP=8.89D-05 DE=-5.66D-07 OVMax= 6.06D-04

 Cycle  12  Pass 1  IDiag  1:
 RMSU=  1.47D-06    CP:  1.00D+00  1.38D+00  1.43D+00
 E= -269.978649815179     Delta-E=       -0.000000422714 Rises=F Damp=F
 DIIS: error= 1.01D-05 at cycle   4 NSaved=   4.
 NSaved= 4 IEnMin= 4 EnMin= -269.978649815179     IErMin= 4 ErrMin= 1.01D-05
 ErrMax= 1.01D-05  0.00D+00 EMaxC= 1.00D-01 BMatC= 9.83D-08 BMatP= 4.52D-07
 IDIUse=1 WtCom= 1.00D+00 WtEn= 0.00D+00
 Coeff-Com: -0.106D+00-0.102D+00 0.466D-01 0.116D+01
 Coeff:     -0.106D+00-0.102D+00 0.466D-01 0.116D+01
 Gap=     0.348 Goal=   None    Shift=    0.000
 Gap=     0.279 Goal=   None    Shift=    0.000
 RMSDP=1.94D-06 MaxDP=8.47D-05 DE=-4.23D-07 OVMax= 6.46D-04

 Cycle  13  Pass 1  IDiag  1:
 RMSU=  5.86D-07    CP:  1.00D+00  1.52D+00  1.98D+00  1.68D+00
 E= -269.978650007330     Delta-E=       -0.000000192151 Rises=F Damp=F
 DIIS: error= 5.37D-06 at cycle   5 NSaved=   5.
 NSaved= 5 IEnMin= 5 EnMin= -269.978650007330     IErMin= 5 ErrMin= 5.37D-06
 ErrMax= 5.37D-06  0.00D+00 EMaxC= 1.00D-01 BMatC= 6.28D-08 BMatP= 9.83D-08
 IDIUse=1 WtCom= 1.00D+00 WtEn= 0.00D+00
 Coeff-Com:  0.165D-01-0.196D+00-0.446D+00 0.740D+00 0.886D+00
 Coeff:      0.165D-01-0.196D+00-0.446D+00 0.740D+00 0.886D+00
 Gap=     0.348 Goal=   None    Shift=    0.000
 Gap=     0.279 Goal=   None    Shift=    0.000
 RMSDP=1.53D-06 MaxDP=6.32D-05 DE=-1.92D-07 OVMax= 4.59D-04

 Cycle  14  Pass 1  IDiag  1:
 RMSU=  3.62D-07    CP:  1.00D+00  1.63D+00  2.38D+00  2.33D+00  1.31D+00
 E= -269.978650072373     Delta-E=       -0.000000065043 Rises=F Damp=F
 DIIS: error= 2.19D-06 at cycle   6 NSaved=   6.
 NSaved= 6 IEnMin= 6 EnMin= -269.978650072373     IErMin= 6 ErrMin= 2.19D-06
 ErrMax= 2.19D-06  0.00D+00 EMaxC= 1.00D-01 BMatC= 6.69D-09 BMatP= 6.28D-08
 IDIUse=1 WtCom= 1.00D+00 WtEn= 0.00D+00
 Coeff-Com:  0.187D-01-0.876D-01-0.225D+00 0.257D+00 0.445D+00 0.592D+00
 Coeff:      0.187D-01-0.876D-01-0.225D+00 0.257D+00 0.445D+00 0.592D+00
 Gap=     0.348 Goal=   None    Shift=    0.000
 Gap=     0.279 Goal=   None    Shift=    0.000
 RMSDP=2.21D-07 MaxDP=7.85D-06 DE=-6.50D-08 OVMax= 5.51D-05

 Cycle  15  Pass 1  IDiag  1:
 RMSU=  9.87D-08    CP:  1.00D+00  1.64D+00  2.42D+00  2.42D+00  1.48D+00
                    CP:  1.20D+00
 E= -269.978650074973     Delta-E=       -0.000000002600 Rises=F Damp=F
 DIIS: error= 6.74D-07 at cycle   7 NSaved=   7.
 NSaved= 7 IEnMin= 7 EnMin= -269.978650074973     IErMin= 7 ErrMin= 6.74D-07
 ErrMax= 6.74D-07  0.00D+00 EMaxC= 1.00D-01 BMatC= 8.51D-10 BMatP= 6.69D-09
 IDIUse=1 WtCom= 1.00D+00 WtEn= 0.00D+00
 Coeff-Com: -0.127D-02 0.391D-01 0.893D-01-0.178D+00-0.152D+00 0.148D+00
 Coeff-Com:  0.105D+01
 Coeff:     -0.127D-02 0.391D-01 0.893D-01-0.178D+00-0.152D+00 0.148D+00
 Coeff:      0.105D+01
 Gap=     0.348 Goal=   None    Shift=    0.000
 Gap=     0.279 Goal=   None    Shift=    0.000
 RMSDP=1.89D-07 MaxDP=6.86D-06 DE=-2.60D-09 OVMax= 3.14D-05

 Cycle  16  Pass 1  IDiag  1:
 RMSU=  4.66D-08    CP:  1.00D+00  1.63D+00  2.43D+00  2.46D+00  1.66D+00
                    CP:  1.54D+00  1.29D+00
 E= -269.978650075616     Delta-E=       -0.000000000644 Rises=F Damp=F
 DIIS: error= 3.07D-07 at cycle   8 NSaved=   8.
 NSaved= 8 IEnMin= 8 EnMin= -269.978650075616     IErMin= 8 ErrMin= 3.07D-07
 ErrMax= 3.07D-07  0.00D+00 EMaxC= 1.00D-01 BMatC= 1.05D-10 BMatP= 8.51D-10
 IDIUse=1 WtCom= 1.00D+00 WtEn= 0.00D+00
 Coeff-Com: -0.297D-02 0.228D-01 0.580D-01-0.871D-01-0.104D+00-0.592D-01
 Coeff-Com:  0.263D+00 0.909D+00
 Coeff:     -0.297D-02 0.228D-01 0.580D-01-0.871D-01-0.104D+00-0.592D-01
 Coeff:      0.263D+00 0.909D+00
 Gap=     0.348 Goal=   None    Shift=    0.000
 Gap=     0.279 Goal=   None    Shift=    0.000
 RMSDP=6.02D-08 MaxDP=2.36D-06 DE=-6.44D-10 OVMax= 1.15D-05

 Cycle  17  Pass 1  IDiag  1:
 RMSU=  1.63D-08    CP:  1.00D+00  1.63D+00  2.43D+00  2.47D+00  1.71D+00
                    CP:  1.65D+00  1.47D+00  1.27D+00
 E= -269.978650075692     Delta-E=       -0.000000000075 Rises=F Damp=F
 DIIS: error= 1.13D-07 at cycle   9 NSaved=   9.
 NSaved= 9 IEnMin= 9 EnMin= -269.978650075692     IErMin= 9 ErrMin= 1.13D-07
 ErrMax= 1.13D-07  0.00D+00 EMaxC= 1.00D-01 BMatC= 1.47D-11 BMatP= 1.05D-10
 IDIUse=1 WtCom= 1.00D+00 WtEn= 0.00D+00
 Coeff-Com: -0.432D-03-0.855D-03 0.113D-02 0.339D-02 0.199D-02-0.312D-01
 Coeff-Com: -0.864D-01 0.170D+00 0.942D+00
 Coeff:     -0.432D-03-0.855D-03 0.113D-02 0.339D-02 0.199D-02-0.312D-01
 Coeff:     -0.864D-01 0.170D+00 0.942D+00
 Gap=     0.348 Goal=   None    Shift=    0.000
 Gap=     0.279 Goal=   None    Shift=    0.000
 RMSDP=1.49D-08 MaxDP=6.77D-07 DE=-7.52D-11 OVMax= 3.58D-06

 Cycle  18  Pass 1  IDiag  1:
 RMSU=  7.01D-09    CP:  1.00D+00  1.63D+00  2.44D+00  2.47D+00  1.72D+00
                    CP:  1.66D+00  1.51D+00  1.46D+00  1.26D+00
 E= -269.978650075708     Delta-E=       -0.000000000016 Rises=F Damp=F
 DIIS: error= 3.90D-08 at cycle  10 NSaved=  10.
 NSaved=10 IEnMin=10 EnMin= -269.978650075708     IErMin=10 ErrMin= 3.90D-08
 ErrMax= 3.90D-08  0.00D+00 EMaxC= 1.00D-01 BMatC= 2.69D-12 BMatP= 1.47D-11
 IDIUse=1 WtCom= 1.00D+00 WtEn= 0.00D+00
 Coeff-Com:  0.363D-03-0.417D-02-0.875D-02 0.143D-01 0.186D-01 0.290D-02
 Coeff-Com: -0.694D-01-0.105D+00 0.237D+00 0.914D+00
 Coeff:      0.363D-03-0.417D-02-0.875D-02 0.143D-01 0.186D-01 0.290D-02
 Coeff:     -0.694D-01-0.105D+00 0.237D+00 0.914D+00
 Gap=     0.348 Goal=   None    Shift=    0.000
 Gap=     0.279 Goal=   None    Shift=    0.000
 RMSDP=6.48D-09 MaxDP=2.38D-07 DE=-1.63D-11 OVMax= 1.64D-06

 SCF Done:  E(UM062X) =  -269.978650076     A.U. after   18 cycles
            NFock= 18  Conv=0.65D-08     -V/T= 2.0054
 <Sx>= 0.0000 <Sy>= 0.0000 <Sz>= 0.5000 <S**2>= 0.7599 S= 0.5049
 <L.S>= 0.000000000000E+00
 KE= 2.685218163692D+02 PE=-1.006881035673D+03 EE= 2.809858220711D+02
 Annihilation of the first spin contaminant:
 S**2 before annihilation     0.7599,   after     0.7500
 Leave Link  502 at Thu Sep  5 18:31:31 2019, MaxMem=   671088640 cpu:            2347.1 elap:            1173.6
 (Enter /shared/centos7/gaussian/g16/l801.exe)
 DoSCS=F DFT=T ScalE2(SS,OS)=  1.000000  1.000000
 Range of M.O.s used for correlation:     1   276
 NBasis=   276 NAE=    22 NBE=    21 NFC=     0 NFV=     0
 NROrb=    276 NOA=    22 NOB=    21 NVA=   254 NVB=   255

 **** Warning!!: The largest alpha MO coefficient is  0.12149355D+02


 **** Warning!!: The largest beta MO coefficient is  0.12148357D+02

 Leave Link  801 at Thu Sep  5 18:31:32 2019, MaxMem=   671088640 cpu:               1.8 elap:               0.9
 (Enter /shared/centos7/gaussian/g16/l1101.exe)
 Using compressed storage, NAtomX=    14.
 Will process     15 centers per pass.
 Leave Link 1101 at Thu Sep  5 18:32:01 2019, MaxMem=   671088640 cpu:              58.1 elap:              29.1
 (Enter /shared/centos7/gaussian/g16/l1102.exe)
 Symmetrizing basis deriv contribution to polar:
 IMax=3 JMax=2 DiffMx= 0.00D+00
 Leave Link 1102 at Thu Sep  5 18:32:04 2019, MaxMem=   671088640 cpu:               4.3 elap:               2.2
 (Enter /shared/centos7/gaussian/g16/l1110.exe)
 Forming Gx(P) for the SCF density, NAtomX=    14.
 Integral derivatives from FoFJK, PRISM(SPDF).
 Do as many integral derivatives as possible in FoFJK.
 G2DrvN: MDV=     671087496.
 G2DrvN: will do    15 centers at a time, making    1 passes.
 Calling FoFCou, ICntrl=  3107 FMM=F I1Cent=   0 AccDes= 0.00D+00.
 FoFJK:  IHMeth= 1 ICntrl=    3107 DoSepK=F KAlg= 0 I1Cent=           0 FoldK=F
 IRaf=         0 NMat=       1 IRICut=       1 DoRegI=T DoRafI=F ISym2E= 0 IDoP0=0 IntGTp=1.
 FoFCou: FMM=F IPFlag=           0 FMFlag=      100000 FMFlg1=           0
         NFxFlg=           0 DoJE=F BraDBF=F KetDBF=F FulRan=T
         wScrn=  0.000000 ICntrl=      3107 IOpCl=  1 I1Cent=           0 NGrid=           0
         NMat0=    1 NMatS0=      1 NMatT0=    0 NMatD0=    1 NMtDS0=    0 NMtDT0=    0
 Symmetry not used in FoFCou.
 End of G2Drv F.D. properties file   721 does not exist.
 End of G2Drv F.D. properties file   722 does not exist.
 End of G2Drv F.D. properties file   788 does not exist.
 Leave Link 1110 at Thu Sep  5 18:54:06 2019, MaxMem=   671088640 cpu:            2645.2 elap:            1322.7
 (Enter /shared/centos7/gaussian/g16/l1002.exe)
 Minotr:  UHF open shell wavefunction.
          IDoAtm=11111111111111
          Direct CPHF calculation.
          Differentiating once with respect to nuclear coordinates.
          Requested convergence is 1.0D-08 RMS, and 1.0D-07 maximum.
          Secondary convergence is 1.0D-12 RMS, and 1.0D-12 maximum.
          NewPWx=T KeepS1=F KeepF1=F KeepIn=T MapXYZ=F SortEE=F KeepMc=T.
         4166 words used for storage of precomputed grid.
 Two-electron integrals replicated using symmetry.
          MDV=     671088640 using IRadAn=       1.
          Solving linear equations simultaneously, MaxMat=     380.
 FoF2E skips out because all densities are zero.
 CalDSu exits because no D1Ps are significant.
 FoFJK:  IHMeth= 1 ICntrl=       0 DoSepK=F KAlg= 0 I1Cent=           0 FoldK=F
 IRaf= 970000000 NMat=      42 IRICut=     105 DoRegI=T DoRafI=T ISym2E= 2 IDoP0=3 IntGTp=3.
 FoFCou: FMM=F IPFlag=           0 FMFlag=      100000 FMFlg1=           0
         NFxFlg=           0 DoJE=F BraDBF=F KetDBF=F FulRan=T
         wScrn=  0.000000 ICntrl=         0 IOpCl=  1 I1Cent=           0 NGrid=           0
         NMat0=   42 NMatS0=     42 NMatT0=    0 NMatD0=   42 NMtDS0=    0 NMtDT0=    0
 Integrals replicated using symmetry in FoFCou.
 Raff kept on since  94.60% of shell-pairs survive, threshold=   0.20 IRatSp=95.
          There are    45 degrees of freedom in the 1st order CPHF.  IDoFFX=6 NUNeed=     0.
     39 vectors produced by pass  0 Test12= 2.43D-14 2.22D-09 XBig12= 1.31D-01 1.28D-01.
 AX will form    39 AO Fock derivatives at one time.
     39 vectors produced by pass  1 Test12= 2.43D-14 2.22D-09 XBig12= 1.58D-02 3.28D-02.
     39 vectors produced by pass  2 Test12= 2.43D-14 2.22D-09 XBig12= 1.03D-03 6.08D-03.
     39 vectors produced by pass  3 Test12= 2.43D-14 2.22D-09 XBig12= 2.57D-05 7.70D-04.
     39 vectors produced by pass  4 Test12= 2.43D-14 2.22D-09 XBig12= 3.71D-07 7.63D-05.
     39 vectors produced by pass  5 Test12= 2.43D-14 2.22D-09 XBig12= 5.05D-09 1.05D-05.
     37 vectors produced by pass  6 Test12= 2.43D-14 2.22D-09 XBig12= 5.10D-11 8.33D-07.
     16 vectors produced by pass  7 Test12= 2.43D-14 2.22D-09 XBig12= 4.24D-13 6.04D-08.
      3 vectors produced by pass  8 Test12= 2.43D-14 2.22D-09 XBig12= 2.97D-15 4.56D-09.
 InvSVY:  IOpt=1 It=  1 EMax= 2.44D-15
 Solved reduced A of dimension   290 with    39 vectors.
 End of Minotr F.D. properties file   721 does not exist.
 End of Minotr F.D. properties file   722 does not exist.
 End of Minotr F.D. properties file   788 does not exist.
 Leave Link 1002 at Thu Sep  5 19:29:39 2019, MaxMem=   671088640 cpu:            4265.2 elap:            2132.6
 (Enter /shared/centos7/gaussian/g16/l601.exe)
 Copying SCF densities to generalized density rwf, IOpCl= 1 IROHF=0.

 **********************************************************************

            Population analysis using the SCF density.

 **********************************************************************

 Orbital symmetries:
 Alpha Orbitals:
       Occupied  (A) (A) (A) (A) (A) (A) (A) (A) (A) (A) (A) (A)
                 (A) (A) (A) (A) (A) (A) (A) (A) (A) (A)
       Virtual   (A) (A) (A) (A) (A) (A) (A) (A) (A) (A) (A) (A)
                 (A) (A) (A) (A) (A) (A) (A) (A) (A) (A) (A) (A)
                 (A) (A) (A) (A) (A) (A) (A) (A) (A) (A) (A) (A)
                 (A) (A) (A) (A) (A) (A) (A) (A) (A) (A) (A) (A)
                 (A) (A) (A) (A) (A) (A) (A) (A) (A) (A) (A) (A)
                 (A) (A) (A) (A) (A) (A) (A) (A) (A) (A) (A) (A)
                 (A) (A) (A) (A) (A) (A) (A) (A) (A) (A) (A) (A)
                 (A) (A) (A) (A) (A) (A) (A) (A) (A) (A) (A) (A)
                 (A) (A) (A) (A) (A) (A) (A) (A) (A) (A) (A) (A)
                 (A) (A) (A) (A) (A) (A) (A) (A) (A) (A) (A) (A)
                 (A) (A) (A) (A) (A) (A) (A) (A) (A) (A) (A) (A)
                 (A) (A) (A) (A) (A) (A) (A) (A) (A) (A) (A) (A)
                 (A) (A) (A) (A) (A) (A) (A) (A) (A) (A) (A) (A)
                 (A) (A) (A) (A) (A) (A) (A) (A) (A) (A) (A) (A)
                 (A) (A) (A) (A) (A) (A) (A) (A) (A) (A) (A) (A)
                 (A) (A) (A) (A) (A) (A) (A) (A) (A) (A) (A) (A)
                 (A) (A) (A) (A) (A) (A) (A) (A) (A) (A) (A) (A)
                 (A) (A) (A) (A) (A) (A) (A) (A) (A) (A) (A) (A)
                 (A) (A) (A) (A) (A) (A) (A) (A) (A) (A) (A) (A)
                 (A) (A) (A) (A) (A) (A) (A) (A) (A) (A) (A) (A)
                 (A) (A) (A) (A) (A) (A) (A) (A) (A) (A) (A) (A)
                 (A) (A)
 Beta  Orbitals:
       Occupied  (A) (A) (A) (A) (A) (A) (A) (A) (A) (A) (A) (A)
                 (A) (A) (A) (A) (A) (A) (A) (A) (A)
       Virtual   (A) (A) (A) (A) (A) (A) (A) (A) (A) (A) (A) (A)
                 (A) (A) (A) (A) (A) (A) (A) (A) (A) (A) (A) (A)
                 (A) (A) (A) (A) (A) (A) (A) (A) (A) (A) (A) (A)
                 (A) (A) (A) (A) (A) (A) (A) (A) (A) (A) (A) (A)
                 (A) (A) (A) (A) (A) (A) (A) (A) (A) (A) (A) (A)
                 (A) (A) (A) (A) (A) (A) (A) (A) (A) (A) (A) (A)
                 (A) (A) (A) (A) (A) (A) (A) (A) (A) (A) (A) (A)
                 (A) (A) (A) (A) (A) (A) (A) (A) (A) (A) (A) (A)
                 (A) (A) (A) (A) (A) (A) (A) (A) (A) (A) (A) (A)
                 (A) (A) (A) (A) (A) (A) (A) (A) (A) (A) (A) (A)
                 (A) (A) (A) (A) (A) (A) (A) (A) (A) (A) (A) (A)
                 (A) (A) (A) (A) (A) (A) (A) (A) (A) (A) (A) (A)
                 (A) (A) (A) (A) (A) (A) (A) (A) (A) (A) (A) (A)
                 (A) (A) (A) (A) (A) (A) (A) (A) (A) (A) (A) (A)
                 (A) (A) (A) (A) (A) (A) (A) (A) (A) (A) (A) (A)
                 (A) (A) (A) (A) (A) (A) (A) (A) (A) (A) (A) (A)
                 (A) (A) (A) (A) (A) (A) (A) (A) (A) (A) (A) (A)
                 (A) (A) (A) (A) (A) (A) (A) (A) (A) (A) (A) (A)
                 (A) (A) (A) (A) (A) (A) (A) (A) (A) (A) (A) (A)
                 (A) (A) (A) (A) (A) (A) (A) (A) (A) (A) (A) (A)
                 (A) (A) (A) (A) (A) (A) (A) (A) (A) (A) (A) (A)
                 (A) (A) (A)
 The electronic state is 2-A.
 Alpha  occ. eigenvalues --  -19.68543 -19.68375 -10.55414 -10.54481 -10.52491
 Alpha  occ. eigenvalues --   -1.26547  -0.99033  -0.89682  -0.78252  -0.68538
 Alpha  occ. eigenvalues --   -0.61393  -0.58486  -0.53841  -0.52104  -0.51889
 Alpha  occ. eigenvalues --   -0.47611  -0.43472  -0.41832  -0.40838  -0.39122
 Alpha  occ. eigenvalues --   -0.37378  -0.28982
 Alpha virt. eigenvalues --    0.05814   0.07343   0.10432   0.11775   0.12371
 Alpha virt. eigenvalues --    0.13621   0.15207   0.15697   0.17776   0.20358
 Alpha virt. eigenvalues --    0.22981   0.25935   0.28455   0.29195   0.31529
 Alpha virt. eigenvalues --    0.31882   0.33205   0.38237   0.43312   0.43698
 Alpha virt. eigenvalues --    0.45184   0.45698   0.47386   0.48210   0.49934
 Alpha virt. eigenvalues --    0.50751   0.51912   0.52272   0.53059   0.53928
 Alpha virt. eigenvalues --    0.55953   0.58046   0.60528   0.62916   0.66332
 Alpha virt. eigenvalues --    0.68081   0.70134   0.72458   0.72954   0.74719
 Alpha virt. eigenvalues --    0.76048   0.78427   0.80750   0.84833   0.86991
 Alpha virt. eigenvalues --    0.91287   0.94703   0.96038   0.97642   0.99809
 Alpha virt. eigenvalues --    1.01389   1.04027   1.05686   1.08879   1.09246
 Alpha virt. eigenvalues --    1.11625   1.13735   1.14995   1.15843   1.18035
 Alpha virt. eigenvalues --    1.18862   1.19803   1.21509   1.22485   1.26939
 Alpha virt. eigenvalues --    1.29612   1.30955   1.32368   1.33964   1.35429
 Alpha virt. eigenvalues --    1.39512   1.41425   1.43819   1.45279   1.46300
 Alpha virt. eigenvalues --    1.47622   1.50674   1.53011   1.54304   1.58287
 Alpha virt. eigenvalues --    1.59885   1.62007   1.67943   1.70630   1.72858
 Alpha virt. eigenvalues --    1.82378   1.90941   1.92777   2.01325   2.09437
 Alpha virt. eigenvalues --    2.15995   2.21906   2.23856   2.26398   2.28189
 Alpha virt. eigenvalues --    2.34521   2.37392   2.38825   2.40902   2.48222
 Alpha virt. eigenvalues --    2.49934   2.52301   2.53218   2.56824   2.58211
 Alpha virt. eigenvalues --    2.62676   2.64473   2.66064   2.67280   2.71356
 Alpha virt. eigenvalues --    2.77802   2.80808   2.81143   2.85003   2.85405
 Alpha virt. eigenvalues --    2.88439   2.90844   2.94180   2.95003   3.00970
 Alpha virt. eigenvalues --    3.02800   3.03276   3.04314   3.06368   3.09000
 Alpha virt. eigenvalues --    3.10617   3.12981   3.14445   3.16593   3.18808
 Alpha virt. eigenvalues --    3.21064   3.22917   3.24100   3.25575   3.26184
 Alpha virt. eigenvalues --    3.29443   3.31683   3.33335   3.34806   3.36966
 Alpha virt. eigenvalues --    3.37703   3.42386   3.43460   3.46371   3.49077
 Alpha virt. eigenvalues --    3.49912   3.52086   3.53988   3.55346   3.59405
 Alpha virt. eigenvalues --    3.64068   3.66361   3.69578   3.70727   3.72648
 Alpha virt. eigenvalues --    3.73719   3.74806   3.76451   3.77274   3.80213
 Alpha virt. eigenvalues --    3.81060   3.82517   3.84202   3.87528   3.88123
 Alpha virt. eigenvalues --    3.89044   3.91557   3.91950   3.95354   3.97450
 Alpha virt. eigenvalues --    3.98326   4.03286   4.04718   4.06387   4.07160
 Alpha virt. eigenvalues --    4.08753   4.09111   4.10240   4.11886   4.16598
 Alpha virt. eigenvalues --    4.20252   4.21647   4.23398   4.24908   4.28076
 Alpha virt. eigenvalues --    4.29893   4.32793   4.35123   4.37780   4.41271
 Alpha virt. eigenvalues --    4.44104   4.49978   4.53133   4.56230   4.62117
 Alpha virt. eigenvalues --    4.70117   4.72778   4.76205   4.78379   4.81915
 Alpha virt. eigenvalues --    4.84269   4.85914   4.89140   4.89329   4.92779
 Alpha virt. eigenvalues --    4.96402   4.97667   5.02638   5.04879   5.06677
 Alpha virt. eigenvalues --    5.10683   5.12875   5.17235   5.19519   5.20911
 Alpha virt. eigenvalues --    5.29224   5.29917   5.31606   5.32622   5.37165
 Alpha virt. eigenvalues --    5.39496   5.44233   5.45230   5.48461   5.53350
 Alpha virt. eigenvalues --    5.58288   5.76187   5.80160   5.81617   5.83496
 Alpha virt. eigenvalues --    5.88699   5.95155   6.12909   6.18986   6.31663
 Alpha virt. eigenvalues --    6.36130   6.38053   6.47677   6.54439   6.58820
 Alpha virt. eigenvalues --    6.62481   6.71020   6.71640   6.84601   6.87316
 Alpha virt. eigenvalues --    7.13315   7.20281   7.43591   7.59616   9.93236
 Alpha virt. eigenvalues --   11.21678  12.23380  12.77930  13.46423
  Beta  occ. eigenvalues --  -19.68433 -19.67431 -10.54875 -10.54497 -10.52481
  Beta  occ. eigenvalues --   -1.24973  -0.96722  -0.88808  -0.77007  -0.67432
  Beta  occ. eigenvalues --   -0.60221  -0.55552  -0.52851  -0.51223  -0.49950
  Beta  occ. eigenvalues --   -0.46803  -0.42520  -0.41305  -0.40536  -0.36989
  Beta  occ. eigenvalues --   -0.34863
  Beta virt. eigenvalues --   -0.07006   0.06009   0.07297   0.10480   0.11848
  Beta virt. eigenvalues --    0.12310   0.13782   0.15579   0.15846   0.18022
  Beta virt. eigenvalues --    0.20828   0.23585   0.26229   0.28455   0.29197
  Beta virt. eigenvalues --    0.31663   0.32448   0.33530   0.38521   0.43506
  Beta virt. eigenvalues --    0.44230   0.45648   0.46024   0.48111   0.48853
  Beta virt. eigenvalues --    0.50658   0.51493   0.52457   0.52583   0.53382
  Beta virt. eigenvalues --    0.54315   0.56328   0.58566   0.60761   0.63247
  Beta virt. eigenvalues --    0.66717   0.68340   0.70430   0.72646   0.73055
  Beta virt. eigenvalues --    0.75101   0.76161   0.78890   0.81015   0.84914
  Beta virt. eigenvalues --    0.87368   0.91492   0.95067   0.96218   0.97646
  Beta virt. eigenvalues --    1.00042   1.01459   1.04210   1.05743   1.09126
  Beta virt. eigenvalues --    1.09183   1.11904   1.14052   1.15395   1.16184
  Beta virt. eigenvalues --    1.18161   1.19207   1.20170   1.21667   1.23330
  Beta virt. eigenvalues --    1.27263   1.29962   1.31285   1.32572   1.34322
  Beta virt. eigenvalues --    1.35709   1.39772   1.41901   1.44153   1.45663
  Beta virt. eigenvalues --    1.46487   1.47849   1.50933   1.53300   1.54886
  Beta virt. eigenvalues --    1.58559   1.61024   1.62167   1.68324   1.71710
  Beta virt. eigenvalues --    1.73181   1.83297   1.92059   1.93267   2.01445
  Beta virt. eigenvalues --    2.10441   2.16241   2.22141   2.24382   2.26820
  Beta virt. eigenvalues --    2.28635   2.35604   2.38025   2.39260   2.41753
  Beta virt. eigenvalues --    2.48764   2.50175   2.52591   2.54156   2.57736
  Beta virt. eigenvalues --    2.58052   2.63022   2.65572   2.66996   2.68496
  Beta virt. eigenvalues --    2.72273   2.78858   2.81192   2.82314   2.85729
  Beta virt. eigenvalues --    2.86653   2.89512   2.91909   2.94863   2.96904
  Beta virt. eigenvalues --    3.02712   3.03878   3.04403   3.05579   3.07486
  Beta virt. eigenvalues --    3.10015   3.11314   3.13086   3.16412   3.16897
  Beta virt. eigenvalues --    3.20212   3.21763   3.23631   3.24566   3.25774
  Beta virt. eigenvalues --    3.26838   3.30138   3.32007   3.34139   3.35683
  Beta virt. eigenvalues --    3.37591   3.38431   3.43014   3.44351   3.46687
  Beta virt. eigenvalues --    3.49406   3.50139   3.52755   3.54411   3.55885
  Beta virt. eigenvalues --    3.59831   3.64522   3.67004   3.69897   3.71003
  Beta virt. eigenvalues --    3.73145   3.73947   3.75015   3.76724   3.77709
  Beta virt. eigenvalues --    3.80377   3.81374   3.83021   3.84837   3.87853
  Beta virt. eigenvalues --    3.88607   3.89349   3.92001   3.92256   3.95624
  Beta virt. eigenvalues --    3.97627   3.98635   4.03920   4.05082   4.06711
  Beta virt. eigenvalues --    4.07294   4.08982   4.09393   4.10984   4.12638
  Beta virt. eigenvalues --    4.17047   4.20866   4.22225   4.23667   4.24947
  Beta virt. eigenvalues --    4.28896   4.30401   4.33068   4.36441   4.38737
  Beta virt. eigenvalues --    4.42410   4.44480   4.50442   4.54007   4.57237
  Beta virt. eigenvalues --    4.62943   4.70560   4.73369   4.77216   4.79160
  Beta virt. eigenvalues --    4.82247   4.84787   4.86535   4.89373   4.90209
  Beta virt. eigenvalues --    4.93667   4.98204   4.98388   5.03526   5.05736
  Beta virt. eigenvalues --    5.08634   5.11358   5.13729   5.17796   5.20484
  Beta virt. eigenvalues --    5.22895   5.29451   5.30107   5.32256   5.33573
  Beta virt. eigenvalues --    5.39157   5.40335   5.45071   5.46429   5.49484
  Beta virt. eigenvalues --    5.54346   5.60111   5.77505   5.81141   5.83522
  Beta virt. eigenvalues --    5.85576   5.88407   5.95601   6.13328   6.21432
  Beta virt. eigenvalues --    6.32467   6.36646   6.38033   6.48368   6.55197
  Beta virt. eigenvalues --    6.60771   6.64197   6.71799   6.73219   6.84739
  Beta virt. eigenvalues --    6.88769   7.13495   7.20979   7.43950   7.59845
  Beta virt. eigenvalues --    9.94063  11.21831  12.24209  12.78713  13.46447
          Condensed to atoms (all electrons):
               1          2          3          4          5          6
     1  O    7.906869   0.051976  -0.005568   0.003401   0.004624  -0.000151
     2  O    0.051976   8.091901   0.009253  -0.090798  -0.002860  -0.000158
     3  C   -0.005568   0.009253   5.019241   0.284218   0.313105   0.388518
     4  C    0.003401  -0.090798   0.284218   5.317902  -0.056319  -0.038559
     5  C    0.004624  -0.002860   0.313105  -0.056319   4.965830  -0.039700
     6  H   -0.000151  -0.000158   0.388518  -0.038559  -0.039700   0.615262
     7  H   -0.000251   0.000331   0.409218  -0.042402  -0.035911  -0.042181
     8  H   -0.034660   0.198999  -0.015218   0.228449  -0.004693   0.004015
     9  H    0.007482  -0.006372  -0.044708   0.383753  -0.005278  -0.004963
    10  H    0.000898   0.001039  -0.036434   0.393879   0.007365  -0.004644
    11  H    0.001176  -0.000103  -0.042243  -0.003378   0.401690  -0.007279
    12  H    0.000319  -0.000110  -0.036094   0.007838   0.403804  -0.004987
    13  H    0.001044   0.000753  -0.037420  -0.002403   0.403636   0.007489
    14  H    0.307919  -0.029401   0.000141  -0.004848  -0.000244  -0.000002
               7          8          9         10         11         12
     1  O   -0.000251  -0.034660   0.007482   0.000898   0.001176   0.000319
     2  O    0.000331   0.198999  -0.006372   0.001039  -0.000103  -0.000110
     3  C    0.409218  -0.015218  -0.044708  -0.036434  -0.042243  -0.036094
     4  C   -0.042402   0.228449   0.383753   0.393879  -0.003378   0.007838
     5  C   -0.035911  -0.004693  -0.005278   0.007365   0.401690   0.403804
     6  H   -0.042181   0.004015  -0.004963  -0.004644  -0.007279  -0.004987
     7  H    0.586809  -0.003760   0.006644  -0.003657   0.007696  -0.005689
     8  H   -0.003760   0.405082  -0.016439  -0.009422  -0.001059   0.000146
     9  H    0.006644  -0.016439   0.559011  -0.024718   0.003981  -0.000201
    10  H   -0.003657  -0.009422  -0.024718   0.531864   0.000141  -0.000333
    11  H    0.007696  -0.001059   0.003981   0.000141   0.597835  -0.031362
    12  H   -0.005689   0.000146  -0.000201  -0.000333  -0.031362   0.578716
    13  H   -0.005363   0.004216  -0.000861  -0.000027  -0.039889  -0.029251
    14  H    0.000014   0.003151   0.002985   0.000002   0.000081  -0.000023
              13         14
     1  O    0.001044   0.307919
     2  O    0.000753  -0.029401
     3  C   -0.037420   0.000141
     4  C   -0.002403  -0.004848
     5  C    0.403636  -0.000244
     6  H    0.007489  -0.000002
     7  H   -0.005363   0.000014
     8  H    0.004216   0.003151
     9  H   -0.000861   0.002985
    10  H   -0.000027   0.000002
    11  H   -0.039889   0.000081
    12  H   -0.029251  -0.000023
    13  H    0.563393  -0.000162
    14  H   -0.000162   0.454620
          Atomic-Atomic Spin Densities.
               1          2          3          4          5          6
     1  O    0.049374  -0.039684  -0.002565   0.018323   0.001103   0.000164
     2  O   -0.039684   0.553210   0.009777  -0.116445  -0.000166  -0.000706
     3  C   -0.002565   0.009777  -0.017914  -0.053072   0.004837   0.005360
     4  C    0.018323  -0.116445  -0.053072   0.789770  -0.001284  -0.015972
     5  C    0.001103  -0.000166   0.004837  -0.001284   0.011803  -0.004615
     6  H    0.000164  -0.000706   0.005360  -0.015972  -0.004615   0.069874
     7  H   -0.000106   0.000944   0.005785  -0.008410   0.003129  -0.007582
     8  H    0.008726  -0.038832  -0.007909   0.069048   0.000639   0.000812
     9  H   -0.002403   0.004351   0.006887  -0.008783   0.000255  -0.001198
    10  H   -0.000253   0.002884   0.006856  -0.008029  -0.000259  -0.001816
    11  H   -0.000311   0.000085   0.000284  -0.000221   0.000312  -0.000758
    12  H    0.000053  -0.000051   0.000315   0.000417  -0.001260   0.001335
    13  H    0.000319  -0.000851  -0.001244   0.002296  -0.000633   0.000452
    14  H    0.001262  -0.001477   0.000009   0.000295  -0.000030   0.000008
               7          8          9         10         11         12
     1  O   -0.000106   0.008726  -0.002403  -0.000253  -0.000311   0.000053
     2  O    0.000944  -0.038832   0.004351   0.002884   0.000085  -0.000051
     3  C    0.005785  -0.007909   0.006887   0.006856   0.000284   0.000315
     4  C   -0.008410   0.069048  -0.008783  -0.008029  -0.000221   0.000417
     5  C    0.003129   0.000639   0.000255  -0.000259   0.000312  -0.001260
     6  H   -0.007582   0.000812  -0.001198  -0.001816  -0.000758   0.001335
     7  H    0.014309  -0.001213   0.000106   0.001101   0.000136  -0.000378
     8  H   -0.001213  -0.054642   0.001688   0.000388  -0.000057   0.000167
     9  H    0.000106   0.001688  -0.043511   0.003849  -0.000153  -0.000024
    10  H    0.001101   0.000388   0.003849  -0.037446   0.000044  -0.000018
    11  H    0.000136  -0.000057  -0.000153   0.000044  -0.000945   0.000605
    12  H   -0.000378   0.000167  -0.000024  -0.000018   0.000605  -0.002507
    13  H   -0.000497   0.000007  -0.000226  -0.000002  -0.001302   0.001036
    14  H   -0.000002   0.000232  -0.000219  -0.000024  -0.000003  -0.000001
              13         14
     1  O    0.000319   0.001262
     2  O   -0.000851  -0.001477
     3  C   -0.001244   0.000009
     4  C    0.002296   0.000295
     5  C   -0.000633  -0.000030
     6  H    0.000452   0.000008
     7  H   -0.000497  -0.000002
     8  H    0.000007   0.000232
     9  H   -0.000226  -0.000219
    10  H   -0.000002  -0.000024
    11  H   -0.001302  -0.000003
    12  H    0.001036  -0.000001
    13  H   -0.000712   0.000018
    14  H    0.000018  -0.001968
 Mulliken charges and spin densities:
               1          2
     1  O   -0.245080   0.034001
     2  O   -0.224450   0.373039
     3  C   -0.206008  -0.042593
     4  C   -0.380732   0.667932
     5  C   -0.355048   0.013830
     6  H    0.127339   0.045357
     7  H    0.128503   0.007322
     8  H    0.241193  -0.020946
     9  H    0.139684  -0.039380
    10  H    0.144046  -0.032727
    11  H    0.112713  -0.002284
    12  H    0.117229  -0.000312
    13  H    0.134845  -0.001338
    14  H    0.265767  -0.001901
 Sum of Mulliken charges =  -0.00000   1.00000
 Mulliken charges and spin densities with hydrogens summed into heavy atoms:
               1          2
     1  O    0.020687   0.032100
     2  O    0.016742   0.352093
     3  C    0.049833   0.010086
     4  C   -0.097002   0.595826
     5  C    0.009740   0.009895
 APT charges:
               1
     1  O   -0.526210
     2  O   -0.160356
     3  C   -0.766182
     4  C   -0.727708
     5  C   -0.974189
     6  H    0.439878
     7  H    0.370894
     8  H    0.154009
     9  H    0.256035
    10  H    0.430168
    11  H    0.269908
    12  H    0.496254
    13  H    0.191756
    14  H    0.545742
 Sum of APT charges =  -0.00000
 APT charges with hydrogens summed into heavy atoms:
               1
     1  O    0.019532
     2  O   -0.006347
     3  C    0.044590
     4  C   -0.041505
     5  C   -0.016270
 Electronic spatial extent (au):  <R**2>=            616.3078
 Charge=             -0.0000 electrons
 Dipole moment (field-independent basis, Debye):
    X=             -1.2647    Y=             -0.7483    Z=              1.7540  Tot=              2.2883
 Quadrupole moment (field-independent basis, Debye-Ang):
   XX=            -32.8470   YY=            -33.4759   ZZ=            -31.0316
   XY=              0.2141   XZ=              4.7117   YZ=              0.4351
 Traceless Quadrupole moment (field-independent basis, Debye-Ang):
   XX=             -0.3955   YY=             -1.0244   ZZ=              1.4199
   XY=              0.2141   XZ=              4.7117   YZ=              0.4351
 Octapole moment (field-independent basis, Debye-Ang**2):
  XXX=             15.5835  YYY=             -2.0850  ZZZ=              2.8485  XYY=              2.5997
  XXY=              1.7386  XXZ=             10.2504  XZZ=              8.7232  YZZ=              1.6371
  YYZ=             -0.6247  XYZ=              0.9554
 Hexadecapole moment (field-independent basis, Debye-Ang**3):
 XXXX=           -492.1731 YYYY=           -199.0940 ZZZZ=            -70.1079 XXXY=              5.3793
 XXXZ=             25.5449 YYYX=              3.2460 YYYZ=              3.1594 ZZZX=              8.1293
 ZZZY=              4.6853 XXYY=           -123.4149 XXZZ=            -87.0797 YYZZ=            -45.6445
 XXYZ=              1.8854 YYXZ=              1.2600 ZZXY=              3.7655
 N-N= 1.873947471571D+02 E-N=-1.006881044239D+03  KE= 2.685218163692D+02
  Exact polarizability:   0.000   0.000   0.000   0.000   0.000   0.000
 Approx polarizability:  72.162   7.378  59.704  -1.936   1.967  56.100
                          Isotropic Fermi Contact Couplings
        Atom                 a.u.       MegaHertz       Gauss      10(-4) cm-1
     1  O(17)             -0.00062       0.37564       0.13404       0.12530
     2  O(17)              0.11514     -69.79649     -24.90512     -23.28160
     3  C(13)             -0.00936     -10.52391      -3.75519      -3.51040
     4  C(13)              0.18269     205.37744      73.28378      68.50654
     5  C(13)              0.00847       9.52283       3.39798       3.17647
     6  H(1)               0.02216      99.04031      35.34004      33.03629
     7  H(1)               0.00380      16.98786       6.06169       5.66654
     8  H(1)              -0.02940    -131.42770     -46.89667     -43.83956
     9  H(1)              -0.00812     -36.28806     -12.94848     -12.10439
    10  H(1)              -0.00679     -30.34700     -10.82857     -10.12267
    11  H(1)              -0.00016      -0.69372      -0.24753      -0.23140
    12  H(1)              -0.00038      -1.68053      -0.59965      -0.56056
    13  H(1)              -0.00023      -1.01265      -0.36134      -0.33778
    14  H(1)              -0.00093      -4.17075      -1.48823      -1.39121
 --------------------------------------------------------
       Center         ----  Spin Dipole Couplings  ----
                      3XX-RR        3YY-RR        3ZZ-RR
 --------------------------------------------------------
     1   Atom        0.231460     -0.118638     -0.112822
     2   Atom        1.480331     -0.856181     -0.624150
     3   Atom        0.033341     -0.017779     -0.015562
     4   Atom        0.198002     -0.253670      0.055667
     5   Atom       -0.002761      0.011607     -0.008846
     6   Atom        0.010723     -0.005853     -0.004870
     7   Atom        0.005617     -0.007991      0.002374
     8   Atom        0.157540     -0.089611     -0.067930
     9   Atom       -0.010793     -0.031701      0.042493
    10   Atom       -0.024370      0.052531     -0.028161
    11   Atom       -0.001157      0.004813     -0.003657
    12   Atom        0.000752      0.002004     -0.002755
    13   Atom       -0.001416      0.006548     -0.005132
    14   Atom       -0.002047     -0.007977      0.010024
 --------------------------------------------------------
                        XY            XZ            YZ
 --------------------------------------------------------
     1   Atom        0.155024     -0.078678     -0.074790
     2   Atom        0.418163     -0.894433     -0.141509
     3   Atom       -0.006804     -0.011499     -0.001021
     4   Atom        0.244693     -0.482072     -0.206198
     5   Atom       -0.007710      0.000371      0.000118
     6   Atom       -0.000931     -0.004069     -0.003733
     7   Atom       -0.001004      0.010717     -0.001641
     8   Atom        0.086845     -0.081045     -0.029461
     9   Atom        0.021895      0.011481      0.017307
    10   Atom        0.003347     -0.019132      0.005719
    11   Atom       -0.003832     -0.001842      0.003358
    12   Atom       -0.003450      0.000602     -0.001329
    13   Atom       -0.004193      0.001139     -0.004177
    14   Atom        0.006733      0.009990      0.004134
 --------------------------------------------------------


 ---------------------------------------------------------------------------------
              Anisotropic Spin Dipole Couplings in Principal Axis System
 ---------------------------------------------------------------------------------

       Atom             a.u.   MegaHertz   Gauss  10(-4) cm-1        Axes

              Baa    -0.2028    14.674     5.236     4.895 -0.2043  0.8331  0.5139
     1 O(17)  Bbb    -0.1111     8.041     2.869     2.682  0.3785 -0.4169  0.8264
              Bcc     0.3139   -22.714    -8.105    -7.577  0.9028  0.3633 -0.2301
 
              Baa    -0.9572    69.263    24.715    23.104  0.3750 -0.3497  0.8585
     2 O(17)  Bbb    -0.9231    66.793    23.833    22.280 -0.0178  0.9232  0.3838
              Bcc     1.8803  -136.056   -48.548   -45.383  0.9268  0.1592 -0.3400
 
              Baa    -0.0208    -2.792    -0.996    -0.931  0.2284  0.7307  0.6434
     3 C(13)  Bbb    -0.0159    -2.129    -0.760    -0.710  0.0790 -0.6726  0.7358
              Bcc     0.0367     4.921     1.756     1.641  0.9703 -0.1173 -0.2113
 
              Baa    -0.3634   -48.761   -17.399   -16.265  0.6566 -0.5961  0.4621
     4 C(13)  Bbb    -0.3560   -47.769   -17.045   -15.934  0.2252  0.7397  0.6342
              Bcc     0.7194    96.530    34.444    32.199  0.7198  0.3124 -0.6199
 
              Baa    -0.0089    -1.194    -0.426    -0.398 -0.1271 -0.0535  0.9904
     5 C(13)  Bbb    -0.0061    -0.813    -0.290    -0.271  0.9081  0.3954  0.1379
              Bcc     0.0150     2.008     0.716     0.670 -0.3990  0.9170 -0.0017
 
              Baa    -0.0097    -5.180    -1.848    -1.728  0.1691  0.7064  0.6873
     6 H(1)   Bbb    -0.0020    -1.074    -0.383    -0.358 -0.1675  0.7078 -0.6863
              Bcc     0.0117     6.254     2.232     2.086  0.9713 -0.0009 -0.2380
 
              Baa    -0.0084    -4.463    -1.592    -1.489 -0.1794  0.9299  0.3212
     7 H(1)   Bbb    -0.0066    -3.530    -1.260    -1.178 -0.6315 -0.3592  0.6872
              Bcc     0.0150     7.993     2.852     2.666  0.7544 -0.0795  0.6516
 
              Baa    -0.1176   -62.749   -22.390   -20.931 -0.2592  0.9551  0.1436
     8 H(1)   Bbb    -0.0940   -50.133   -17.889   -16.723  0.3232 -0.0544  0.9448
              Bcc     0.2116   112.882    40.279    37.653  0.9101  0.2913 -0.2946
 
              Baa    -0.0464   -24.756    -8.833    -8.258 -0.4965  0.8618 -0.1037
     9 H(1)   Bbb    -0.0044    -2.329    -0.831    -0.777  0.8259  0.4323 -0.3620
              Bcc     0.0508    27.084     9.664     9.034  0.2672  0.2654  0.9264
 
              Baa    -0.0459   -24.500    -8.742    -8.172  0.6682 -0.0658  0.7411
    10 H(1)   Bbb    -0.0071    -3.772    -1.346    -1.258  0.7435  0.0224 -0.6684
              Bcc     0.0530    28.272    10.088     9.431  0.0274  0.9976  0.0639
 
              Baa    -0.0049    -2.632    -0.939    -0.878  0.2173 -0.2405  0.9460
    11 H(1)   Bbb    -0.0030    -1.608    -0.574    -0.536  0.8804  0.4669 -0.0836
              Bcc     0.0079     4.240     1.513     1.414 -0.4216  0.8510  0.3132
 
              Baa    -0.0032    -1.681    -0.600    -0.561  0.1666  0.3493  0.9221
    12 H(1)   Bbb    -0.0020    -1.059    -0.378    -0.353  0.7638  0.5457 -0.3448
              Bcc     0.0051     2.740     0.978     0.914 -0.6236  0.7617 -0.1759
 
              Baa    -0.0065    -3.459    -1.234    -1.154  0.0523  0.3201  0.9459
    13 H(1)   Bbb    -0.0031    -1.662    -0.593    -0.555  0.9289  0.3322 -0.1638
              Bcc     0.0096     5.121     1.827     1.708 -0.3667  0.8872 -0.2799
 
              Baa    -0.0126    -6.740    -2.405    -2.248 -0.6167  0.7763  0.1303
    14 H(1)   Bbb    -0.0049    -2.636    -0.941    -0.879  0.6010  0.5713 -0.5590
              Bcc     0.0176     9.376     3.346     3.127  0.5084  0.2665  0.8189
 

 ---------------------------------------------------------------------------------

 No NMR shielding tensors so no spin-rotation constants.
 Leave Link  601 at Thu Sep  5 19:30:22 2019, MaxMem=   671088640 cpu:              85.0 elap:              42.6
 (Enter /shared/centos7/gaussian/g16/l701.exe)
 SCFChk:  SCF convergence  6.48D-09 required  1.00D-08
 ... and contract with generalized density number  0.
 Compute integral second derivatives.
 Entering OneElI...
 Calculate overlap and kinetic energy integrals
    NBasis = 310  MinDer = 2  MaxDer = 2
 Requested accuracy = 0.1000D-12
 PrmmSu-InSpLW:  IPartL=    0 NPrtUS=   20 NPrtUL=    1 DoSpLW=F IThBeg=    0 IThEnd=   19 NThAct=   20.
 PrsmSu:  NPrtUS=  20 ThrOK=T IAlg=1 NPAlg=1 LenDen=           0 ISkipM=0 DoSpLW=F IThBeg=    0 IThEnd=   19.
 Prism:   IPart=     0 DynPar=F LinDyn=F Incr=           2.
 PRISM was handed    33402092 working-precision words and  5453 shell-pairs
 PRISM was handed    33402092 working-precision words and  5453 shell-pairs
 PRISM was handed    33402092 working-precision words and  5453 shell-pairs
 PRISM was handed    33402092 working-precision words and  5453 shell-pairs
 PRISM was handed    33402092 working-precision words and  5453 shell-pairs
 PRISM was handed    33402092 working-precision words and  5453 shell-pairs
 PRISM was handed    33402092 working-precision words and  5453 shell-pairs
 PRISM was handed    33402092 working-precision words and  5453 shell-pairs
 PRISM was handed    33402092 working-precision words and  5453 shell-pairs
 PRISM was handed    33402092 working-precision words and  5453 shell-pairs
 PRISM was handed    33402092 working-precision words and  5453 shell-pairs
 IPart=  0 NShTot=         315 NBatch=          72 AvBLen=         4.4
 IPart= 17 NShTot=         253 NBatch=          28 AvBLen=         9.0
 IPart=  7 NShTot=         275 NBatch=          38 AvBLen=         7.2
 IPart= 13 NShTot=         260 NBatch=          31 AvBLen=         8.4
 PRISM was handed    33402092 working-precision words and  5453 shell-pairs
 PRISM was handed    33402092 working-precision words and  5453 shell-pairs
 PRISM was handed    33402092 working-precision words and  5453 shell-pairs
 PRISM was handed    33402092 working-precision words and  5453 shell-pairs
 PRISM was handed    33402092 working-precision words and  5453 shell-pairs
 IPart=  2 NShTot=         299 NBatch=          57 AvBLen=         5.2
 PRISM was handed    33402092 working-precision words and  5453 shell-pairs
 IPart= 14 NShTot=         258 NBatch=          31 AvBLen=         8.3
 PRISM was handed    33402092 working-precision words and  5453 shell-pairs
 PRISM was handed    33402092 working-precision words and  5453 shell-pairs
 PRISM was handed    33402092 working-precision words and  5453 shell-pairs
 IPart= 12 NShTot=         260 NBatch=          31 AvBLen=         8.4
 IPart=  1 NShTot=         305 NBatch=          63 AvBLen=         4.8
 IPart=  6 NShTot=         276 NBatch=          39 AvBLen=         7.1
 IPart= 11 NShTot=         262 NBatch=          33 AvBLen=         7.9
 IPart=  5 NShTot=         282 NBatch=          44 AvBLen=         6.4
 IPart= 19 NShTot=         248 NBatch=          27 AvBLen=         9.2
 IPart= 18 NShTot=         252 NBatch=          28 AvBLen=         9.0
 IPart=  4 NShTot=         291 NBatch=          50 AvBLen=         5.8
 IPart=  9 NShTot=         272 NBatch=          36 AvBLen=         7.6
 IPart= 10 NShTot=         269 NBatch=          36 AvBLen=         7.5
 IPart=  3 NShTot=         296 NBatch=          54 AvBLen=         5.5
 IPart=  8 NShTot=         273 NBatch=          36 AvBLen=         7.6
 IPart= 16 NShTot=         253 NBatch=          28 AvBLen=         9.0
 IPart= 15 NShTot=         254 NBatch=          29 AvBLen=         8.8
 PrSmSu:  NxtVal=             41.
 Entering OneElI...
 Calculate potential energy integrals
    NBasis = 310  MinDer = 2  MaxDer = 2
 Requested accuracy = 0.1000D-12
 PrmmSu-InSpLW:  IPartL=    0 NPrtUS=   20 NPrtUL=    1 DoSpLW=F IThBeg=    0 IThEnd=   19 NThAct=   20.
 PrsmSu:  NPrtUS=  20 ThrOK=T IAlg=1 NPAlg=1 LenDen=           0 ISkipM=0 DoSpLW=F IThBeg=    0 IThEnd=   19.
 Prism:   IPart=     0 DynPar=F LinDyn=F Incr=          35.
 PRISM was handed    33425141 working-precision words and  5134 shell-pairs
 PRISM was handed    33425141 working-precision words and  5134 shell-pairs
 PRISM was handed    33425141 working-precision words and  5134 shell-pairs
 PRISM was handed    33425141 working-precision words and  5134 shell-pairs
 PRISM was handed    33425141 working-precision words and  5134 shell-pairs
 PRISM was handed    33425141 working-precision words and  5134 shell-pairs
 PRISM was handed    33425141 working-precision words and  5134 shell-pairs
 PRISM was handed    33425141 working-precision words and  5134 shell-pairs
 PRISM was handed    33425141 working-precision words and  5134 shell-pairs
 PRISM was handed    33425141 working-precision words and  5134 shell-pairs
 PRISM was handed    33425141 working-precision words and  5134 shell-pairs
 PRISM was handed    33425141 working-precision words and  5134 shell-pairs
 PRISM was handed    33425141 working-precision words and  5134 shell-pairs
 PRISM was handed    33425141 working-precision words and  5134 shell-pairs
 PRISM was handed    33425141 working-precision words and  5134 shell-pairs
 PRISM was handed    33425141 working-precision words and  5134 shell-pairs
 PRISM was handed    33425141 working-precision words and  5134 shell-pairs
 PRISM was handed    33425141 working-precision words and  5134 shell-pairs
 PRISM was handed    33425141 working-precision words and  5134 shell-pairs
 PRISM was handed    33425141 working-precision words and  5134 shell-pairs
 IPart=  2 NShTot=        3906 NBatch=         279 AvBLen=        14.0
 IPart=  0 NShTot=        4130 NBatch=         295 AvBLen=        14.0
 IPart=  1 NShTot=        4018 NBatch=         287 AvBLen=        14.0
 IPart=  6 NShTot=        3640 NBatch=         260 AvBLen=        14.0
 IPart= 16 NShTot=        3360 NBatch=         240 AvBLen=        14.0
 IPart= 19 NShTot=        3262 NBatch=         233 AvBLen=        14.0
 IPart=  7 NShTot=        3626 NBatch=         259 AvBLen=        14.0
 IPart= 13 NShTot=        3444 NBatch=         246 AvBLen=        14.0
 IPart= 10 NShTot=        3556 NBatch=         254 AvBLen=        14.0
 IPart=  8 NShTot=        3612 NBatch=         258 AvBLen=        14.0
 IPart= 17 NShTot=        3346 NBatch=         239 AvBLen=        14.0
 IPart= 11 NShTot=        3528 NBatch=         252 AvBLen=        14.0
 IPart=  4 NShTot=        3766 NBatch=         269 AvBLen=        14.0
 IPart=  5 NShTot=        3668 NBatch=         262 AvBLen=        14.0
 IPart= 18 NShTot=        3318 NBatch=         237 AvBLen=        14.0
 IPart=  9 NShTot=        3598 NBatch=         257 AvBLen=        14.0
 IPart= 12 NShTot=        3486 NBatch=         249 AvBLen=        14.0
 IPart=  3 NShTot=        3822 NBatch=         273 AvBLen=        14.0
 IPart= 14 NShTot=        3416 NBatch=         244 AvBLen=        14.0
 IPart= 15 NShTot=        3374 NBatch=         241 AvBLen=        14.0
 PrSmSu:  NxtVal=            701.
 Polarizability after L701:
                1             2             3 
      1  0.000000D+00
      2  0.000000D+00  0.000000D+00
      3  0.000000D+00  0.000000D+00  0.000000D+00
 Dipole Derivatives after L701:
                 1             2             3             4             5 
      1  -0.653054D+00  0.504619D-01 -0.114048D+01 -0.379328D-01  0.305331D+00
      2  -0.441333D-01 -0.195802D+00 -0.169953D+00 -0.842506D-01 -0.250601D+00
      3  -0.215204D+00  0.192220D+00 -0.729773D+00 -0.147802D+00 -0.597373D-01
                 6             7             8             9            10 
      1   0.158894D+00 -0.124560D+01 -0.694968D+00 -0.155168D+00 -0.157761D+00
      2  -0.284993D-01 -0.333228D+00 -0.263503D+00 -0.111873D+00  0.346886D+00
      3  -0.192533D+00  0.977649D-01 -0.779351D-01 -0.789444D+00 -0.255015D+00
                11            12            13            14            15 
      1  -0.136789D+00 -0.409796D-01 -0.861696D+00  0.917384D+00  0.316194D-01
      2  -0.119676D+01  0.290072D-01 -0.350017D-01 -0.109154D+01 -0.680554D-03
      3  -0.760498D-01 -0.828599D+00  0.986542D-02  0.501979D-01 -0.969327D+00
                16            17            18            19            20 
      1   0.817021D+00  0.275847D+00 -0.488469D+00  0.313088D+00  0.199502D+00
      2   0.188489D+00  0.232801D+00 -0.147444D+00  0.595487D-01  0.224498D+00
      3  -0.159990D+00 -0.669935D-01  0.269813D+00  0.976908D-01  0.129815D+00
                21            22            23            24            25 
      1   0.618420D+00  0.229220D-01 -0.313353D-01  0.604504D-01  0.116693D+00
      2   0.249669D+00  0.182645D-01  0.193955D+00  0.960627D-01 -0.143820D+00
      3   0.575095D+00  0.136879D+00  0.301997D-01  0.245151D+00  0.213244D+00
                26            27            28            29            30 
      1  -0.256626D-01 -0.637995D-02  0.109826D+00  0.166780D+00  0.385765D-01
      2   0.334815D-01 -0.208924D+00 -0.476906D-01  0.108003D+01  0.134105D+00
      3   0.179770D+00  0.617931D+00  0.211581D-01 -0.888253D-01  0.100645D+00
                31            32            33            34            35 
      1   0.482963D-02 -0.158438D+00 -0.409169D+00  0.926462D+00 -0.453507D+00
      2   0.101579D+00  0.284029D+00  0.451150D+00 -0.494777D+00  0.398302D+00
      3   0.668324D-01  0.126596D+00  0.520866D+00  0.160260D+00 -0.788499D-01
                36            37            38            39            40 
      1   0.331762D+00 -0.290098D-01 -0.817251D-01  0.638332D-01  0.674211D+00
      2  -0.197723D+00  0.403832D+00  0.310091D+00 -0.259904D+00  0.643016D-01
      3   0.163997D+00 -0.238861D+00 -0.925190D-01  0.294188D+00  0.213177D+00
                41            42 
      1  -0.332880D+00  0.937090D+00
      2   0.241023D+00  0.165006D+00
      3  -0.167888D+00  0.721990D+00
 Hessian after L701:
                1             2             3             4             5 
      1  0.102267D+02
      2 -0.869004D+00  0.539297D+01
      3 -0.209573D+01 -0.295823D+01  0.664508D+01
      4 -0.607504D+01  0.785159D+00  0.629511D+00  0.487967D+01
      5  0.737404D+00  0.382112D+00  0.393401D+01 -0.171718D+01  0.300452D+01
[...]
 Linear search not attempted -- option 19 set.
 Iteration  1 RMS(Cart)=  0.01643475 RMS(Int)=  0.10295431
 Iteration  2 RMS(Cart)=  0.00815265 RMS(Int)=  0.05140970
 Iteration  3 RMS(Cart)=  0.05734481 RMS(Int)=  0.00535173
 Iteration  4 RMS(Cart)=  0.01033098 RMS(Int)=  0.00010295
 Iteration  5 RMS(Cart)=  0.00010078 RMS(Int)=  0.00001239
 Iteration  6 RMS(Cart)=  0.00000001 RMS(Int)=  0.00001239
 ITry= 1 IFail=0 DXMaxC= 3.12D-01 DCOld= 1.00D+10 DXMaxT= 3.00D-01 DXLimC= 3.00D+00 Rises=F
 Variable       Old X    -DE/DX   Delta X   Delta X   Delta X     New X
                                 (Linear)    (Quad)   (Total)
    R1        2.62522   0.00000   0.00000  -0.00081  -0.00081   2.62442
    R2        1.82352   0.00000   0.00000  -0.00003  -0.00003   1.82349
    R3        2.23246   0.00002   0.00000   0.00157   0.00157   2.23403
    R4        2.83776   0.00016   0.00000   0.00046   0.00046   2.83823
    R5        2.88053   0.00009   0.00000   0.00003   0.00003   2.88056
    R6        2.07262  -0.00000   0.00000   0.00015   0.00015   2.07277
    R7        2.06302  -0.00000   0.00000   0.00009   0.00009   2.06311
    R8        2.51595   0.00014   0.00000   0.00176   0.00176   2.51772
    R9        2.05803  -0.00002   0.00000   0.00031   0.00031   2.05834
   R10        2.05337   0.00004   0.00000  -0.00008  -0.00008   2.05329
   R11        2.06153  -0.00000   0.00000  -0.00036  -0.00036   2.06117
   R12        2.05788   0.00001   0.00000  -0.00001  -0.00001   2.05787
   R13        2.05870  -0.00011   0.00000   0.00016   0.00016   2.05886
    A1        1.79892  -0.00002   0.00000  -0.00086  -0.00086   1.79807
    A2        1.81824   0.00003   0.00000   0.00020   0.00020   1.81843
    A3        1.96437   0.00040   0.00000   0.00113   0.00113   1.96550
    A4        1.89601  -0.00016   0.00000  -0.00171  -0.00171   1.89430
    A5        1.91121  -0.00010   0.00000   0.00220   0.00220   1.91340
    A6        1.91631  -0.00014   0.00000  -0.00137  -0.00137   1.91494
    A7        1.92248  -0.00009   0.00000   0.00133   0.00132   1.92380
    A8        1.84977   0.00006   0.00000  -0.00180  -0.00180   1.84797
    A9        1.83218   0.00049   0.00000   0.00934   0.00932   1.84150
   A10        2.01542  -0.00001   0.00000  -0.00184  -0.00182   2.01360
   A11        2.03669  -0.00016   0.00000  -0.00020  -0.00024   2.03645
   A12        1.75604  -0.00014   0.00000  -0.01537  -0.01536   1.74068
   A13        1.79995  -0.00022   0.00000   0.00728   0.00725   1.80720
   A14        1.97627   0.00006   0.00000   0.00066   0.00067   1.97694
   A15        1.93145   0.00002   0.00000   0.00045   0.00045   1.93190
   A16        1.94093  -0.00005   0.00000   0.00010   0.00010   1.94103
   A17        1.92864   0.00008   0.00000   0.00010   0.00010   1.92875
   A18        1.88628   0.00001   0.00000   0.00051   0.00051   1.88679
   A19        1.88010  -0.00002   0.00000   0.00053   0.00053   1.88063
   A20        1.89465  -0.00004   0.00000  -0.00171  -0.00171   1.89294
   A21        3.03740   0.00046   0.00000   0.01754   0.01754   3.05494
    D1        1.68049  -0.00001   0.00000   0.00765   0.00765   1.68814
    D2        1.10987   0.00017   0.00000  -0.47104  -0.47104   0.63883
    D3       -1.05924  -0.00012   0.00000  -0.00153  -0.00152  -1.06077
    D4        0.85703   0.00001   0.00000  -0.01515  -0.01515   0.84188
    D5       -3.03905  -0.00010   0.00000  -0.01658  -0.01659  -3.05564
    D6        3.09806  -0.00010   0.00000   0.00066   0.00066   3.09873
    D7       -1.26885   0.00003   0.00000  -0.01297  -0.01297  -1.28181
    D8        1.11826  -0.00008   0.00000  -0.01440  -0.01440   1.10386
    D9        1.08530  -0.00003   0.00000   0.00255   0.00256   1.08785
   D10        3.00157   0.00010   0.00000  -0.01107  -0.01107   2.99050
   D11       -0.89451  -0.00001   0.00000  -0.01250  -0.01251  -0.90701
   D12       -1.02294   0.00003   0.00000  -0.02567  -0.02567  -1.04861
   D13       -3.11969   0.00004   0.00000  -0.02668  -0.02668   3.13681
   D14        1.05806   0.00007   0.00000  -0.02466  -0.02466   1.03341
   D15        1.09138   0.00000   0.00000  -0.02805  -0.02805   1.06333
   D16       -1.00537   0.00002   0.00000  -0.02906  -0.02906  -1.03443
   D17       -3.11080   0.00005   0.00000  -0.02704  -0.02704  -3.13784
   D18        3.12204  -0.00005   0.00000  -0.03026  -0.03027   3.09177
   D19        1.02529  -0.00004   0.00000  -0.03128  -0.03128   0.99401
   D20       -1.08014  -0.00001   0.00000  -0.02925  -0.02925  -1.10940
   D21        0.53767   0.00014   0.00000   0.61260   0.61256   1.15022
   D22       -1.56033   0.00002   0.00000   0.61758   0.61758  -0.94275
   D23        2.67878   0.00008   0.00000   0.61997   0.62002  -2.98439
         Item               Value     Threshold  Converged?
 Maximum Force            0.000493     0.000450     NO 
 RMS     Force            0.000131     0.000300     YES
 Maximum Displacement     0.312087     0.001800     NO 
 RMS     Displacement     0.081741     0.001200     NO 
 Predicted change in Energy=-1.022280D-04
 Lowest energy point so far.  Saving SCF results.
 GradGradGradGradGradGradGradGradGradGradGradGradGradGradGradGradGradGrad

 Leave Link  103 at Fri Sep  6 11:23:44 2019, MaxMem=   671088640 cpu:             238.4 elap:             119.3
 (Enter /shared/centos7/gaussian/g16/l202.exe)
                          Input orientation:                          
 ---------------------------------------------------------------------
 Center     Atomic      Atomic             Coordinates (Angstroms)
 Number     Number       Type             X           Y           Z
 ---------------------------------------------------------------------
      1          8           0        1.986036   -0.757093   -0.233182
      2          8           0        1.520370    0.167881    0.692179
      3          6           0       -1.661200    0.424876    0.169054
      4          6           0       -0.492584    1.112689   -0.476722
      5          6           0       -1.594347   -1.092282    0.037366
      6          1           0       -2.583676    0.796225   -0.293813
      7          1           0       -1.719072    0.710223    1.221267
      8          1           0        0.584971    0.660949    0.163493
      9          1           0       -0.257616    0.783149   -1.487961
     10          1           0       -0.430240    2.190138   -0.350980
     11          1           0       -1.587067   -1.388018   -1.012474
     12          1           0       -2.448837   -1.567447    0.516884
     13          1           0       -0.683817   -1.475550    0.496769
     14          1           0        2.693916   -0.278579   -0.681577
 ---------------------------------------------------------------------
                    Distance matrix (angstroms):
                    1          2          3          4          5
     1  O    0.000000
     2  O    1.388782   0.000000
     3  C    3.855020   3.234516   0.000000
     4  C    3.114314   2.512166   1.501924   0.000000
     5  C    3.606202   3.423193   1.524329   2.517949   0.000000
     6  H    4.826877   4.267340   1.096862   2.122798   2.157524
     7  H    4.242200   3.326868   1.091753   2.132937   2.160138
     8  H    2.032530   1.182199   2.258550   1.332318   2.799849
     9  H    2.996797   2.879723   2.200933   1.089225   2.762375
    10  H    3.812930   2.997096   2.214011   1.086552   3.504317
    11  H    3.711122   3.870766   2.165199   2.781808   1.090724
    12  H    4.570271   4.335515   2.170417   3.463713   1.088978
    13  H    2.859568   2.756355   2.162011   2.771865   1.089500
    14  H    0.964950   1.861113   4.492823   3.483012   4.423595
                    6          7          8          9         10
     6  H    0.000000
     7  H    1.746540   0.000000
     8  H    3.204333   2.535730   0.000000
     9  H    2.614711   3.079138   1.858007   0.000000
    10  H    2.565842   2.514597   1.906242   1.817180   0.000000
    11  H    2.506117   3.067513   3.209192   2.589883   3.818249
    12  H    2.502470   2.493289   3.780823   3.787632   4.352857
    13  H    3.065199   2.524728   2.507095   3.036861   3.770974
    14  H    5.399865   4.906425   2.458557   3.238682   3.995524
                   11         12         13         14
    11  H    0.000000
    12  H    1.764591   0.000000
    13  H    1.761061   1.767525   0.000000
    14  H    4.434768   5.435568   3.772310   0.000000
 Stoichiometry    C3H9O2(2)
 Framework group  C1[X(C3H9O2)]
 Deg. of freedom    36
 Full point group                 C1      NOp   1
 RotChk:  IX=3 Diff= 4.51D-02
 Largest Abelian subgroup         C1      NOp   1
 Largest concise Abelian subgroup C1      NOp   1
                         Standard orientation:                         
 ---------------------------------------------------------------------
 Center     Atomic      Atomic             Coordinates (Angstroms)
 Number     Number       Type             X           Y           Z
 ---------------------------------------------------------------------
      1          8           0        2.043588    0.567340    0.325709
      2          8           0        1.535555   -0.253293   -0.672880
      3          6           0       -1.664292   -0.342005   -0.208980
      4          6           0       -0.552962   -1.150760    0.396525
      5          6           0       -1.503068    1.153420    0.038588
      6          1           0       -2.616240   -0.686489    0.213197
      7          1           0       -1.722497   -0.543082   -1.280477
      8          1           0        0.561842   -0.723006   -0.194498
      9          1           0       -0.314539   -0.914113    1.432654
     10          1           0       -0.557335   -2.217475    0.189899
     11          1           0       -1.494642    1.368295    1.107903
     12          1           0       -2.317317    1.717706   -0.413576
     13          1           0       -0.562339    1.510280   -0.379372
     14          1           0        2.711857    0.011570    0.744831
 ---------------------------------------------------------------------
 Rotational constants (GHZ):           7.1289570           2.3908878           2.0396470
 Leave Link  202 at Fri Sep  6 11:23:46 2019, MaxMem=   671088640 cpu:               3.8 elap:               1.9
 (Enter /shared/centos7/gaussian/g16/l301.exe)
 Standard basis: CC-pVTZ (5D, 7F)
 Ernie: Thresh=  0.10000D-02 Tol=  0.10000D-05 Strict=F.
 Ernie:  15 primitive shells out of 202 were deleted.
 There are   310 symmetry adapted cartesian basis functions of A   symmetry.
 There are   276 symmetry adapted basis functions of A   symmetry.
   276 basis functions,   413 primitive gaussians,   310 cartesian basis functions
    22 alpha electrons       21 beta electrons
       nuclear repulsion energy       186.3489153644 Hartrees.
 IExCor= 4336 DFT=T Ex+Corr=M062X ExCW=0 ScaHFX=  0.540000
 ScaDFX=  1.000000  1.000000  1.000000  1.000000 ScalE2=  1.000000  1.000000
 IRadAn=      5 IRanWt=     -1 IRanGd=            0 ICorTp=0 IEmpDi=  4
 NAtoms=   14 NActive=   14 NUniq=   14 SFac= 1.00D+00 NAtFMM=   60 NAOKFM=F Big=F
 Integral buffers will be    131072 words long.
 Raffenetti 2 integral format.
 Two-electron integral symmetry is turned on.
 Leave Link  301 at Fri Sep  6 11:23:47 2019, MaxMem=   671088640 cpu:               1.9 elap:               1.0
 (Enter /shared/centos7/gaussian/g16/l302.exe)
 NPDir=0 NMtPBC=     1 NCelOv=     1 NCel=       1 NClECP=     1 NCelD=      1
         NCelK=      1 NCelE2=     1 NClLst=     1 CellRange=     0.0.
 One-electron integrals computed using PRISM.
 One-electron integral symmetry used in STVInt
 NBasis=   276 RedAO= T EigKep=  7.83D-04  NBF=   276
 NBsUse=   276 1.00D-06 EigRej= -1.00D+00 NBFU=   276
 Precomputing XC quadrature grid using
 IXCGrd= 4 IRadAn=           5 IRanWt=          -1 IRanGd=           0 AccXCQ= 0.00D+00.
 Generated NRdTot=       0 NPtTot=           0 NUsed=           0 NTot=          32
 NSgBfM=   310   310   310   310   310 MxSgAt=    14 MxSgA2=    14.
 Leave Link  302 at Fri Sep  6 11:24:47 2019, MaxMem=   671088640 cpu:             119.9 elap:              60.0
 (Enter /shared/centos7/gaussian/g16/l303.exe)
 DipDrv:  MaxL=1.
 Leave Link  303 at Fri Sep  6 11:24:51 2019, MaxMem=   671088640 cpu:               9.3 elap:               4.7
 (Enter /shared/centos7/gaussian/g16/l401.exe)
 Initial guess from the checkpoint file:  "/scratch/harms.n/gauss_scrdir/Gau-24559.chk"
 B after Tr=    -0.000000   -0.000000    0.000000
         Rot=    0.999887   -0.009813   -0.004826   -0.010325 Ang=  -1.72 deg.
 Guess basis will be translated and rotated to current coordinates.
 JPrj=2 DoOrth=T DoCkMO=T.
 Initial guess <Sx>= 0.0000 <Sy>= 0.0000 <Sz>= 0.5000 <S**2>= 0.7599 S= 0.5049
 Generating alternative initial guess.
 ExpMin= 1.03D-01 ExpMax= 1.53D+04 ExpMxC= 5.22D+02 IAcc=2 IRadAn=         4 AccDes= 0.00D+00
 Harris functional with IExCor= 1009 and IRadAn=       4 diagonalized for initial guess.
 HarFok:  IExCor= 1009 AccDes= 0.00D+00 IRadAn=         4 IDoV= 1 UseB2=F ITyADJ=14
 ICtDFT=  3500011 ScaDFX=  1.000000  1.000000  1.000000  1.000000
 FoFCou: FMM=F IPFlag=           0 FMFlag=      100000 FMFlg1=           0
         NFxFlg=           0 DoJE=T BraDBF=F KetDBF=T FulRan=T
         wScrn=  0.000000 ICntrl=       500 IOpCl=  0 I1Cent=   200000004 NGrid=           0
         NMat0=    1 NMatS0=      1 NMatT0=    0 NMatD0=    1 NMtDS0=    0 NMtDT0=    0
 Petite list used in FoFCou.
 Harris En= -269.920696347913    
 Leave Link  401 at Fri Sep  6 11:25:53 2019, MaxMem=   671088640 cpu:             123.6 elap:              61.8
 (Enter /shared/centos7/gaussian/g16/l502.exe)
 Integral symmetry usage will be decided dynamically.
 UHF open shell SCF:
 Using DIIS extrapolation, IDIIS=  1040.
 NGot=   671088640 LenX=   670887394 LenY=   670790853
 Requested convergence on RMS density matrix=1.00D-08 within 900 cycles.
 Requested convergence on MAX density matrix=1.00D-06.
 Requested convergence on             energy=1.00D-06.
 No special actions if energy rises.
 Fock matrices will be formed incrementally for  20 cycles.
 Integral accuracy reduced to 1.0D-05 until final iterations.

 Cycle   1  Pass 0  IDiag  1:
 FoFJK:  IHMeth= 1 ICntrl=       0 DoSepK=F KAlg= 0 I1Cent=           0 FoldK=F
 IRaf= 970000000 NMat=       1 IRICut=       1 DoRegI=T DoRafI=F ISym2E= 0 IDoP0=0 IntGTp=1.
 FoFCou: FMM=F IPFlag=           0 FMFlag=      100000 FMFlg1=           0
         NFxFlg=           0 DoJE=F BraDBF=F KetDBF=F FulRan=T
         wScrn=  0.000000 ICntrl=         0 IOpCl=  1 I1Cent=           0 NGrid=           0
         NMat0=    1 NMatS0=      1 NMatT0=    0 NMatD0=    1 NMtDS0=    0 NMtDT0=    0
 Symmetry not used in FoFCou.
 E= -269.974019658049    
 DIIS: error= 5.30D-03 at cycle   1 NSaved=   1.
 NSaved= 1 IEnMin= 1 EnMin= -269.974019658049     IErMin= 1 ErrMin= 5.30D-03
 ErrMax= 5.30D-03  0.00D+00 EMaxC= 1.00D-01 BMatC= 2.45D-02 BMatP= 2.45D-02
 IDIUse=3 WtCom= 9.47D-01 WtEn= 5.30D-02
 Coeff-Com:  0.100D+01
 Coeff-En:   0.100D+01
 Coeff:      0.100D+01
 Gap=     0.791 Goal=   None    Shift=    0.000
 Gap=     0.825 Goal=   None    Shift=    0.000
 GapD=    0.791 DampG=2.000 DampE=1.000 DampFc=2.0000 IDamp=-1.
 RMSDP=2.81D-04 MaxDP=8.88D-03              OVMax= 3.13D-02

 Cycle   2  Pass 0  IDiag  1:
 RMSU=  2.81D-04    CP:  9.99D-01
 E= -269.983110110444     Delta-E=       -0.009090452395 Rises=F Damp=F
 DIIS: error= 1.07D-03 at cycle   2 NSaved=   2.
 NSaved= 2 IEnMin= 2 EnMin= -269.983110110444     IErMin= 2 ErrMin= 1.07D-03
 ErrMax= 1.07D-03  0.00D+00 EMaxC= 1.00D-01 BMatC= 1.44D-03 BMatP= 2.45D-02
 IDIUse=3 WtCom= 9.89D-01 WtEn= 1.07D-02
 Coeff-Com: -0.123D+00 0.112D+01
 Coeff-En:   0.000D+00 0.100D+01
 Coeff:     -0.122D+00 0.112D+01
 Gap=     0.361 Goal=   None    Shift=    0.000
 Gap=     0.275 Goal=   None    Shift=    0.000
 RMSDP=9.91D-05 MaxDP=3.71D-03 DE=-9.09D-03 OVMax= 1.37D-02

 Cycle   3  Pass 0  IDiag  1:
 RMSU=  7.63D-05    CP:  9.99D-01  1.22D+00
 E= -269.983572278381     Delta-E=       -0.000462167937 Rises=F Damp=F
 DIIS: error= 8.63D-04 at cycle   3 NSaved=   3.
 NSaved= 3 IEnMin= 3 EnMin= -269.983572278381     IErMin= 3 ErrMin= 8.63D-04
 ErrMax= 8.63D-04  0.00D+00 EMaxC= 1.00D-01 BMatC= 1.56D-03 BMatP= 1.44D-03
 IDIUse=3 WtCom= 9.91D-01 WtEn= 8.63D-03
 Coeff-Com: -0.108D+00 0.637D+00 0.471D+00
 Coeff-En:   0.000D+00 0.000D+00 0.100D+01
 Coeff:     -0.107D+00 0.632D+00 0.476D+00
 Gap=     0.360 Goal=   None    Shift=    0.000
 Gap=     0.275 Goal=   None    Shift=    0.000
 RMSDP=4.09D-05 MaxDP=1.90D-03 DE=-4.62D-04 OVMax= 5.40D-03

 Cycle   4  Pass 0  IDiag  1:
 RMSU=  2.85D-05    CP:  9.99D-01  1.28D+00  6.74D-01
 E= -269.983843984466     Delta-E=       -0.000271706085 Rises=F Damp=F
 DIIS: error= 1.58D-04 at cycle   4 NSaved=   4.
 NSaved= 4 IEnMin= 4 EnMin= -269.983843984466     IErMin= 4 ErrMin= 1.58D-04
 ErrMax= 1.58D-04  0.00D+00 EMaxC= 1.00D-01 BMatC= 5.97D-05 BMatP= 1.44D-03
 IDIUse=3 WtCom= 9.98D-01 WtEn= 1.58D-03
 Coeff-Com:  0.634D-02-0.123D+00 0.960D-01 0.102D+01
 Coeff-En:   0.000D+00 0.000D+00 0.000D+00 0.100D+01
 Coeff:      0.633D-02-0.122D+00 0.958D-01 0.102D+01
 Gap=     0.360 Goal=   None    Shift=    0.000
 Gap=     0.274 Goal=   None    Shift=    0.000
 RMSDP=1.79D-05 MaxDP=7.84D-04 DE=-2.72D-04 OVMax= 2.78D-03

 Cycle   5  Pass 0  IDiag  1:
 RMSU=  8.78D-06    CP:  9.99D-01  1.31D+00  8.33D-01  1.20D+00
 E= -269.983864613923     Delta-E=       -0.000020629457 Rises=F Damp=F
 DIIS: error= 7.13D-05 at cycle   5 NSaved=   5.
 NSaved= 5 IEnMin= 5 EnMin= -269.983864613923     IErMin= 5 ErrMin= 7.13D-05
 ErrMax= 7.13D-05  0.00D+00 EMaxC= 1.00D-01 BMatC= 8.28D-06 BMatP= 5.97D-05
 IDIUse=1 WtCom= 1.00D+00 WtEn= 0.00D+00
 Coeff-Com:  0.103D-01-0.989D-01 0.763D-02 0.442D+00 0.639D+00
 Coeff:      0.103D-01-0.989D-01 0.763D-02 0.442D+00 0.639D+00
 Gap=     0.360 Goal=   None    Shift=    0.000
 Gap=     0.274 Goal=   None    Shift=    0.000
 RMSDP=4.33D-06 MaxDP=1.47D-04 DE=-2.06D-05 OVMax= 7.16D-04

 Initial convergence to 1.0D-05 achieved.  Increase integral accuracy.
 Cycle   6  Pass 1  IDiag  1:
 E= -269.983858397869     Delta-E=        0.000006216054 Rises=F Damp=F
 DIIS: error= 2.23D-05 at cycle   1 NSaved=   1.
 NSaved= 1 IEnMin= 1 EnMin= -269.983858397869     IErMin= 1 ErrMin= 2.23D-05
 ErrMax= 2.23D-05  0.00D+00 EMaxC= 1.00D-01 BMatC= 1.55D-06 BMatP= 1.55D-06
 IDIUse=1 WtCom= 1.00D+00 WtEn= 0.00D+00
 Coeff-Com:  0.100D+01
 Coeff:      0.100D+01
 Gap=     0.360 Goal=   None    Shift=    0.000
 Gap=     0.274 Goal=   None    Shift=    0.000
 RMSDP=4.33D-06 MaxDP=1.47D-04 DE= 6.22D-06 OVMax= 4.89D-04

 Cycle   7  Pass 1  IDiag  1:
 RMSU=  5.45D-06    CP:  1.00D+00
 E= -269.983858725614     Delta-E=       -0.000000327746 Rises=F Damp=F
 DIIS: error= 2.08D-05 at cycle   2 NSaved=   2.
 NSaved= 2 IEnMin= 2 EnMin= -269.983858725614     IErMin= 2 ErrMin= 2.08D-05
 ErrMax= 2.08D-05  0.00D+00 EMaxC= 1.00D-01 BMatC= 6.93D-07 BMatP= 1.55D-06
 IDIUse=1 WtCom= 1.00D+00 WtEn= 0.00D+00
 Coeff-Com:  0.353D+00 0.647D+00
 Coeff:      0.353D+00 0.647D+00
 Gap=     0.360 Goal=   None    Shift=    0.000
 Gap=     0.274 Goal=   None    Shift=    0.000
 RMSDP=1.34D-06 MaxDP=4.35D-05 DE=-3.28D-07 OVMax= 2.54D-04

 Cycle   8  Pass 1  IDiag  1:
 RMSU=  1.34D-06    CP:  1.00D+00  1.03D+00
 E= -269.983858867827     Delta-E=       -0.000000142212 Rises=F Damp=F
 DIIS: error= 9.17D-06 at cycle   3 NSaved=   3.
 NSaved= 3 IEnMin= 3 EnMin= -269.983858867827     IErMin= 3 ErrMin= 9.17D-06
 ErrMax= 9.17D-06  0.00D+00 EMaxC= 1.00D-01 BMatC= 1.57D-07 BMatP= 6.93D-07
 IDIUse=1 WtCom= 1.00D+00 WtEn= 0.00D+00
 Coeff-Com: -0.792D-01 0.284D+00 0.795D+00
 Coeff:     -0.792D-01 0.284D+00 0.795D+00
 Gap=     0.360 Goal=   None    Shift=    0.000
 Gap=     0.274 Goal=   None    Shift=    0.000
 RMSDP=7.84D-07 MaxDP=3.07D-05 DE=-1.42D-07 OVMax= 1.84D-04

 Cycle   9  Pass 1  IDiag  1:
 RMSU=  6.70D-07    CP:  1.00D+00  1.10D+00  9.81D-01
