 Entering Gaussian System, Link 0=g16
 Input=med/ts/CCC+[O]O_[CH2]CC+OO/conformers/CCC+[O]O_[CH2]CC+OO_forward_7.com
 Output=med/ts/CCC+[O]O_[CH2]CC+OO/conformers/CCC+[O]O_[CH2]CC+OO_forward_7.log
 Initial command:
 /shared/centos7/gaussian/g16/l1.exe "/scratch/harms.n/gauss_scrdir/Gau-4918.inp" -scrdir="/scratch/harms.n/gauss_scrdir/"
 Entering Link 1 = /shared/centos7/gaussian/g16/l1.exe PID=      4919.
  
 Copyright (c) 1988,1990,1992,1993,1995,1998,2003,2009,2016,
            Gaussian, Inc.  All Rights Reserved.
  
 This is part of the Gaussian(R) 16 program.  It is based on
 the Gaussian(R) 09 system (copyright 2009, Gaussian, Inc.),
 the Gaussian(R) 03 system (copyright 2003, Gaussian, Inc.),
 the Gaussian(R) 98 system (copyright 1998, Gaussian, Inc.),
 the Gaussian(R) 94 system (copyright 1995, Gaussian, Inc.),
 the Gaussian 92(TM) system (copyright 1992, Gaussian, Inc.),
 the Gaussian 90(TM) system (copyright 1990, Gaussian, Inc.),
 the Gaussian 88(TM) system (copyright 1988, Gaussian, Inc.),
 the Gaussian 86(TM) system (copyright 1986, Carnegie Mellon
 University), and the Gaussian 82(TM) system (copyright 1983,
 Carnegie Mellon University). Gaussian is a federally registered
 trademark of Gaussian, Inc.
  
 This software contains proprietary and confidential information,
 including trade secrets, belonging to Gaussian, Inc.
  
 This software is provided under written license and may be
 used, copied, transmitted, or stored only in accord with that
 written license.
  
 The following legend is applicable only to US Government
 contracts under FAR:
  
                    RESTRICTED RIGHTS LEGEND
  
 Use, reproduction and disclosure by the US Government is
 subject to restrictions as set forth in subparagraphs (a)
 and (c) of the Commercial Computer Software - Restricted
 Rights clause in FAR 52.227-19.
  
 Gaussian, Inc.
 340 Quinnipiac St., Bldg. 40, Wallingford CT 06492
  
  
 ---------------------------------------------------------------
 Warning -- This program may not be used in any manner that
 competes with the business of Gaussian, Inc. or will provide
 assistance to any competitor of Gaussian, Inc.  The licensee
 of this program is prohibited from giving any competitor of
 Gaussian, Inc. access to this program.  By using this program,
 the user acknowledges that Gaussian, Inc. is engaged in the
 business of creating and licensing software in the field of
 computational chemistry and represents and warrants to the
 licensee that it is not a competitor of Gaussian, Inc. and that
 it will not use this program in any manner prohibited above.
 ---------------------------------------------------------------
  

 Cite this work as:
 Gaussian 16, Revision A.03,
 M. J. Frisch, G. W. Trucks, H. B. Schlegel, G. E. Scuseria, 
 M. A. Robb, J. R. Cheeseman, G. Scalmani, V. Barone, 
 G. A. Petersson, H. Nakatsuji, X. Li, M. Caricato, A. V. Marenich, 
 J. Bloino, B. G. Janesko, R. Gomperts, B. Mennucci, H. P. Hratchian, 
 J. V. Ortiz, A. F. Izmaylov, J. L. Sonnenberg, D. Williams-Young, 
 F. Ding, F. Lipparini, F. Egidi, J. Goings, B. Peng, A. Petrone, 
 T. Henderson, D. Ranasinghe, V. G. Zakrzewski, J. Gao, N. Rega, 
 G. Zheng, W. Liang, M. Hada, M. Ehara, K. Toyota, R. Fukuda, 
 J. Hasegawa, M. Ishida, T. Nakajima, Y. Honda, O. Kitao, H. Nakai, 
 T. Vreven, K. Throssell, J. A. Montgomery, Jr., J. E. Peralta, 
 F. Ogliaro, M. J. Bearpark, J. J. Heyd, E. N. Brothers, K. N. Kudin, 
 V. N. Staroverov, T. A. Keith, R. Kobayashi, J. Normand, 
 K. Raghavachari, A. P. Rendell, J. C. Burant, S. S. Iyengar, 
 J. Tomasi, M. Cossi, J. M. Millam, M. Klene, C. Adamo, R. Cammi, 
 J. W. Ochterski, R. L. Martin, K. Morokuma, O. Farkas, 
 J. B. Foresman, and D. J. Fox, Gaussian, Inc., Wallingford CT, 2016.
 
 ******************************************
 Gaussian 16:  EM64L-G16RevA.03 25-Dec-2016
                 5-Sep-2019 
 ******************************************
 %nprocshared=20
 Will use up to   20 processors via shared memory.
 %mem=5GB
 ----------------------------------------------------------------------
 #p m062x/cc-pVTZ opt=(ts,calcfc,noeigentest,maxcycles=900) freq scf=(m
 axcycle=900) IOP(7/33=1,2/16=3)
 ----------------------------------------------------------------------
 1/5=1,6=900,10=4,11=1,18=20,26=3,38=1/1,3;
 2/9=110,12=2,16=3,17=6,18=5,40=1/2;
 3/5=16,6=1,11=2,25=1,30=1,71=2,74=-55,140=1/1,2,3;
 4//1;
 5/5=2,7=900,38=5/2;
 8/6=4,10=90,11=11/1;
 11/6=1,8=1,9=11,15=111,16=1/1,2,10;
 10/6=1,13=1/2;
 6/7=2,8=2,9=2,10=2,28=1/1;
 7/10=1,18=20,25=1,33=1/1,2,3,16;
 1/5=1,6=900,10=4,11=1,18=20,26=3/3(2);
 2/9=110,16=3/2;
 99//99;
 2/9=110,16=3/2;
 3/5=16,6=1,11=2,25=1,30=1,71=1,74=-55/1,2,3;
 4/5=5,16=3,69=1/1;
 5/5=2,7=900,38=5/2;
 7/33=1/1,2,3,16;
 1/5=1,6=900,11=1,18=20,26=3/3(-5);
 2/9=110,16=3/2;
 6/7=2,8=2,9=2,10=2,19=2,28=1/1;
 99/9=1/99;
 Leave Link    1 at Thu Sep  5 17:56:01 2019, MaxMem=   671088640 cpu:               4.9 elap:               2.4
 (Enter /shared/centos7/gaussian/g16/l101.exe)
 ------------------------------
 Gaussian input prepared by ASE
 ------------------------------
 Symbolic Z-matrix:
 Charge =  0 Multiplicity = 2
 O                    -2.46141  -0.62525  -0.24984 
 O                    -2.00378   0.65832   0.0352 
 C                     1.42879   0.2542   -0.49277 
 C                     0.31104   0.12626   0.50461 
 C                     2.74359  -0.29099   0.07858 
 H                     1.56394   1.30014  -0.77018 
 H                     1.17638  -0.28913  -1.40416 
 H                    -0.84605   0.58157  -0.06741 
 H                    -0.00208  -0.89041   0.73147 
 H                     0.39326   0.75083   1.39002 
 H                     3.02672   0.24995   0.98088 
 H                     3.55165  -0.19158  -0.64563 
 H                     2.64429  -1.34538   0.33587 
 H                    -2.68716  -0.96736   0.6237 
 
 Add virtual bond connecting atoms H8         and O2         Dist= 2.20D+00.
 Add virtual bond connecting atoms H8         and C4         Dist= 2.59D+00.
 ITRead=  0  0  0  0  0  0  0  0  0  0  0  0  0  0
 MicOpt= -1 -1 -1 -1 -1 -1 -1 -1 -1 -1 -1 -1 -1 -1
 NAtoms=     14 NQM=       14 NQMF=       0 NMMI=      0 NMMIF=      0
                NMic=       0 NMicF=      0.
                    Isotopes and Nuclear Properties:
 (Nuclear quadrupole moments (NQMom) in fm**2, nuclear magnetic moments (NMagM)
  in nuclear magnetons)

  Atom         1           2           3           4           5           6           7           8           9          10
 IAtWgt=          16          16          12          12          12           1           1           1           1           1
 AtmWgt=  15.9949146  15.9949146  12.0000000  12.0000000  12.0000000   1.0078250   1.0078250   1.0078250   1.0078250   1.0078250
 NucSpn=           0           0           0           0           0           1           1           1           1           1
 AtZEff=  -0.0000000  -0.0000000  -0.0000000  -0.0000000  -0.0000000  -0.0000000  -0.0000000  -0.0000000  -0.0000000  -0.0000000
 NQMom=    0.0000000   0.0000000   0.0000000   0.0000000   0.0000000   0.0000000   0.0000000   0.0000000   0.0000000   0.0000000
 NMagM=    0.0000000   0.0000000   0.0000000   0.0000000   0.0000000   2.7928460   2.7928460   2.7928460   2.7928460   2.7928460
 AtZNuc=   8.0000000   8.0000000   6.0000000   6.0000000   6.0000000   1.0000000   1.0000000   1.0000000   1.0000000   1.0000000

  Atom        11          12          13          14
 IAtWgt=           1           1           1           1
 AtmWgt=   1.0078250   1.0078250   1.0078250   1.0078250
 NucSpn=           1           1           1           1
 AtZEff=  -0.0000000  -0.0000000  -0.0000000  -0.0000000
 NQMom=    0.0000000   0.0000000   0.0000000   0.0000000
 NMagM=    2.7928460   2.7928460   2.7928460   2.7928460
 AtZNuc=   1.0000000   1.0000000   1.0000000   1.0000000
 Leave Link  101 at Thu Sep  5 17:56:04 2019, MaxMem=   671088640 cpu:               4.4 elap:               2.2
 (Enter /shared/centos7/gaussian/g16/l103.exe)

 GradGradGradGradGradGradGradGradGradGradGradGradGradGradGradGradGradGrad
 Berny optimization.
 Initialization pass.
                           ----------------------------
                           !    Initial Parameters    !
                           ! (Angstroms and Degrees)  !
 --------------------------                            --------------------------
 ! Name  Definition              Value          Derivative Info.                !
 --------------------------------------------------------------------------------
 ! R1    R(1,2)                  1.3922         calculate D2E/DX2 analytically  !
 ! R2    R(1,14)                 0.9649         calculate D2E/DX2 analytically  !
 ! R3    R(2,8)                  1.1648         calculate D2E/DX2 analytically  !
 ! R4    R(3,4)                  1.5035         calculate D2E/DX2 analytically  !
 ! R5    R(3,5)                  1.5337         calculate D2E/DX2 analytically  !
 ! R6    R(3,6)                  1.0905         calculate D2E/DX2 analytically  !
 ! R7    R(3,7)                  1.0907         calculate D2E/DX2 analytically  !
 ! R8    R(4,8)                  1.3687         calculate D2E/DX2 analytically  !
 ! R9    R(4,9)                  1.0877         calculate D2E/DX2 analytically  !
 ! R10   R(4,10)                 1.0866         calculate D2E/DX2 analytically  !
 ! R11   R(5,11)                 1.0895         calculate D2E/DX2 analytically  !
 ! R12   R(5,12)                 1.0896         calculate D2E/DX2 analytically  !
 ! R13   R(5,13)                 1.0899         calculate D2E/DX2 analytically  !
 ! A1    A(2,1,14)             102.6175         calculate D2E/DX2 analytically  !
 ! A2    A(1,2,8)              104.3552         calculate D2E/DX2 analytically  !
 ! A3    A(4,3,5)              111.0968         calculate D2E/DX2 analytically  !
 ! A4    A(4,3,6)              110.0298         calculate D2E/DX2 analytically  !
 ! A5    A(4,3,7)              109.8702         calculate D2E/DX2 analytically  !
 ! A6    A(5,3,6)              109.2358         calculate D2E/DX2 analytically  !
 ! A7    A(5,3,7)              109.4268         calculate D2E/DX2 analytically  !
 ! A8    A(6,3,7)              107.0917         calculate D2E/DX2 analytically  !
 ! A9    A(3,4,8)              108.8408         calculate D2E/DX2 analytically  !
 ! A10   A(3,4,9)              115.5885         calculate D2E/DX2 analytically  !
 ! A11   A(3,4,10)             115.8081         calculate D2E/DX2 analytically  !
 ! A12   A(8,4,9)               98.9013         calculate D2E/DX2 analytically  !
 ! A13   A(8,4,10)             102.3154         calculate D2E/DX2 analytically  !
 ! A14   A(9,4,10)             112.8969         calculate D2E/DX2 analytically  !
 ! A15   A(3,5,11)             110.7819         calculate D2E/DX2 analytically  !
 ! A16   A(3,5,12)             110.8371         calculate D2E/DX2 analytically  !
 ! A17   A(3,5,13)             110.7156         calculate D2E/DX2 analytically  !
 ! A18   A(11,5,12)            108.2054         calculate D2E/DX2 analytically  !
 ! A19   A(11,5,13)            107.9696         calculate D2E/DX2 analytically  !
 ! A20   A(12,5,13)            108.2242         calculate D2E/DX2 analytically  !
 ! A21   A(2,8,4)              145.6251         calculate D2E/DX2 analytically  !
 ! D1    D(14,1,2,8)           104.3784         calculate D2E/DX2 analytically  !
 ! D2    D(1,2,8,4)            -74.3136         calculate D2E/DX2 analytically  !
 ! D3    D(5,3,4,8)           -177.912          calculate D2E/DX2 analytically  !
 ! D4    D(5,3,4,9)            -67.7501         calculate D2E/DX2 analytically  !
 ! D5    D(5,3,4,10)            67.5466         calculate D2E/DX2 analytically  !
 ! D6    D(6,3,4,8)             60.9896         calculate D2E/DX2 analytically  !
 ! D7    D(6,3,4,9)            171.1516         calculate D2E/DX2 analytically  !
 ! D8    D(6,3,4,10)           -53.5518         calculate D2E/DX2 analytically  !
 ! D9    D(7,3,4,8)            -56.6805         calculate D2E/DX2 analytically  !
 ! D10   D(7,3,4,9)             53.4814         calculate D2E/DX2 analytically  !
 ! D11   D(7,3,4,10)          -171.2219         calculate D2E/DX2 analytically  !
 ! D12   D(4,3,5,11)           -59.5797         calculate D2E/DX2 analytically  !
 ! D13   D(4,3,5,12)          -179.7116         calculate D2E/DX2 analytically  !
 ! D14   D(4,3,5,13)            60.1766         calculate D2E/DX2 analytically  !
 ! D15   D(6,3,5,11)            61.984          calculate D2E/DX2 analytically  !
 ! D16   D(6,3,5,12)           -58.1479         calculate D2E/DX2 analytically  !
 ! D17   D(6,3,5,13)          -178.2597         calculate D2E/DX2 analytically  !
 ! D18   D(7,3,5,11)           178.9291         calculate D2E/DX2 analytically  !
 ! D19   D(7,3,5,12)            58.7972         calculate D2E/DX2 analytically  !
 ! D20   D(7,3,5,13)           -61.3146         calculate D2E/DX2 analytically  !
 ! D21   D(3,4,8,2)            169.3836         calculate D2E/DX2 analytically  !
 ! D22   D(9,4,8,2)             48.362          calculate D2E/DX2 analytically  !
 ! D23   D(10,4,8,2)           -67.5688         calculate D2E/DX2 analytically  !
 --------------------------------------------------------------------------------
 Trust Radius=3.00D-01 FncErr=1.00D-07 GrdErr=1.00D-06 EigMax=2.50D+02 EigMin=1.00D-04
 Number of steps in this run=    100 maximum allowed number of steps=    100.
 Search for a saddle point of order  1.
 GradGradGradGradGradGradGradGradGradGradGradGradGradGradGradGradGradGrad

 Leave Link  103 at Thu Sep  5 17:56:05 2019, MaxMem=   671088640 cpu:               2.0 elap:               1.1
 (Enter /shared/centos7/gaussian/g16/l202.exe)
                          Input orientation:                          
 ---------------------------------------------------------------------
 Center     Atomic      Atomic             Coordinates (Angstroms)
 Number     Number       Type             X           Y           Z
 ---------------------------------------------------------------------
      1          8           0       -2.461408   -0.625252   -0.249835
      2          8           0       -2.003775    0.658323    0.035195
      3          6           0        1.428792    0.254197   -0.492765
      4          6           0        0.311040    0.126256    0.504614
      5          6           0        2.743587   -0.290986    0.078575
      6          1           0        1.563941    1.300135   -0.770182
      7          1           0        1.176380   -0.289127   -1.404157
      8          1           0       -0.846045    0.581572   -0.067405
      9          1           0       -0.002082   -0.890412    0.731468
     10          1           0        0.393263    0.750828    1.390022
     11          1           0        3.026720    0.249953    0.980876
     12          1           0        3.551647   -0.191576   -0.645626
     13          1           0        2.644286   -1.345378    0.335872
     14          1           0       -2.687159   -0.967357    0.623699
 ---------------------------------------------------------------------
                    Distance matrix (angstroms):
                    1          2          3          4          5
     1  O    0.000000
     2  O    1.392205   0.000000
     3  C    3.995760   3.496366   0.000000
     4  C    2.969920   2.421119   1.503497   0.000000
     5  C    5.226046   4.841541   1.533734   2.504573   0.000000
     6  H    4.492361   3.713375   1.090510   2.138424   2.154906
     7  H    3.831311   3.617013   1.090664   2.136531   2.157460
     8  H    2.024624   1.164799   2.337304   1.368709   3.697043
     9  H    2.661118   2.624910   2.203696   1.087714   2.885183
    10  H    3.568175   2.754978   2.205414   1.086645   2.886051
    11  H    5.692116   5.134877   2.173709   2.759899   1.089462
    12  H    6.041652   5.661145   2.174533   3.453347   1.089638
    13  H    5.189388   5.070473   2.173179   2.763733   1.089865
    14  H    0.964915   1.859082   4.436185   3.193645   5.499785
                    6          7          8          9         10
     6  H    0.000000
     7  H    1.754389   0.000000
     8  H    2.611180   2.575893   0.000000
     9  H    3.083160   2.512212   1.875422   0.000000
    10  H    2.517679   3.082566   1.920579   1.812087   0.000000
    11  H    2.511734   3.066390   4.025813   3.245963   2.711710
    12  H    2.488311   2.495351   4.502421   3.874758   3.873936
    13  H    3.064187   2.509605   4.007266   2.714176   3.251525
    14  H    5.015603   4.415782   2.503299   2.688340   3.609489
                   11         12         13         14
    11  H    0.000000
    12  H    1.765221   0.000000
    13  H    1.762773   1.765758   0.000000
    14  H    5.853019   6.413714   5.352574   0.000000
 Stoichiometry    C3H9O2(2)
 Framework group  C1[X(C3H9O2)]
 Deg. of freedom    36
 Full point group                 C1      NOp   1
 Largest Abelian subgroup         C1      NOp   1
 Largest concise Abelian subgroup C1      NOp   1
                         Standard orientation:                         
 ---------------------------------------------------------------------
 Center     Atomic      Atomic             Coordinates (Angstroms)
 Number     Number       Type             X           Y           Z
 ---------------------------------------------------------------------
      1          8           0        2.461408    0.625252   -0.249835
      2          8           0        2.003775   -0.658323    0.035195
      3          6           0       -1.428792   -0.254197   -0.492765
      4          6           0       -0.311040   -0.126256    0.504614
      5          6           0       -2.743587    0.290986    0.078575
      6          1           0       -1.563941   -1.300135   -0.770182
      7          1           0       -1.176380    0.289127   -1.404157
      8          1           0        0.846045   -0.581572   -0.067405
      9          1           0        0.002082    0.890412    0.731468
     10          1           0       -0.393263   -0.750828    1.390022
     11          1           0       -3.026720   -0.249953    0.980876
     12          1           0       -3.551647    0.191576   -0.645626
     13          1           0       -2.644286    1.345378    0.335872
     14          1           0        2.687159    0.967358    0.623699
 ---------------------------------------------------------------------
 Rotational constants (GHZ):          14.2274892           1.5266752           1.4917422
 Leave Link  202 at Thu Sep  5 17:56:06 2019, MaxMem=   671088640 cpu:               2.5 elap:               1.3
 (Enter /shared/centos7/gaussian/g16/l301.exe)
 Standard basis: CC-pVTZ (5D, 7F)
 Ernie: Thresh=  0.10000D-02 Tol=  0.10000D-05 Strict=F.
 Ernie:  15 primitive shells out of 202 were deleted.
 There are   310 symmetry adapted cartesian basis functions of A   symmetry.
 There are   276 symmetry adapted basis functions of A   symmetry.
   276 basis functions,   413 primitive gaussians,   310 cartesian basis functions
    22 alpha electrons       21 beta electrons
       nuclear repulsion energy       179.8018923820 Hartrees.
 IExCor= 4336 DFT=T Ex+Corr=M062X ExCW=0 ScaHFX=  0.540000
 ScaDFX=  1.000000  1.000000  1.000000  1.000000 ScalE2=  1.000000  1.000000
 IRadAn=      5 IRanWt=     -1 IRanGd=            0 ICorTp=0 IEmpDi=  4
 NAtoms=   14 NActive=   14 NUniq=   14 SFac= 1.00D+00 NAtFMM=   60 NAOKFM=F Big=F
 Integral buffers will be    131072 words long.
 Raffenetti 2 integral format.
 Two-electron integral symmetry is turned on.
 Leave Link  301 at Thu Sep  5 17:56:07 2019, MaxMem=   671088640 cpu:               2.0 elap:               1.0
 (Enter /shared/centos7/gaussian/g16/l302.exe)
 NPDir=0 NMtPBC=     1 NCelOv=     1 NCel=       1 NClECP=     1 NCelD=      1
         NCelK=      1 NCelE2=     1 NClLst=     1 CellRange=     0.0.
 One-electron integrals computed using PRISM.
 One-electron integral symmetry used in STVInt
 NBasis=   276 RedAO= T EigKep=  7.67D-04  NBF=   276
 NBsUse=   276 1.00D-06 EigRej= -1.00D+00 NBFU=   276
 Precomputing XC quadrature grid using
 IXCGrd= 4 IRadAn=           5 IRanWt=          -1 IRanGd=           0 AccXCQ= 0.00D+00.
 Generated NRdTot=       0 NPtTot=           0 NUsed=           0 NTot=          32
 NSgBfM=   310   310   310   310   310 MxSgAt=    14 MxSgA2=    14.
 Leave Link  302 at Thu Sep  5 17:57:14 2019, MaxMem=   671088640 cpu:             134.0 elap:              67.0
 (Enter /shared/centos7/gaussian/g16/l303.exe)
 DipDrv:  MaxL=1.
 Leave Link  303 at Thu Sep  5 17:57:19 2019, MaxMem=   671088640 cpu:               9.1 elap:               4.6
 (Enter /shared/centos7/gaussian/g16/l401.exe)
 ExpMin= 1.03D-01 ExpMax= 1.53D+04 ExpMxC= 5.22D+02 IAcc=3 IRadAn=         5 AccDes= 0.00D+00
 Harris functional with IExCor= 1009 and IRadAn=       5 diagonalized for initial guess.
 HarFok:  IExCor= 1009 AccDes= 0.00D+00 IRadAn=         5 IDoV= 1 UseB2=F ITyADJ=14
 ICtDFT=  3500011 ScaDFX=  1.000000  1.000000  1.000000  1.000000
 FoFCou: FMM=F IPFlag=           0 FMFlag=      100000 FMFlg1=           0
         NFxFlg=           0 DoJE=T BraDBF=F KetDBF=T FulRan=T
         wScrn=  0.000000 ICntrl=       500 IOpCl=  0 I1Cent=   200000004 NGrid=           0
         NMat0=    1 NMatS0=      1 NMatT0=    0 NMatD0=    1 NMtDS0=    0 NMtDT0=    0
 Petite list used in FoFCou.
 Harris En= -269.915705509351    
 JPrj=0 DoOrth=F DoCkMO=F.
 Initial guess <Sx>= 0.0000 <Sy>= 0.0000 <Sz>= 0.5000 <S**2>= 0.7500 S= 0.5000
 Leave Link  401 at Thu Sep  5 17:57:57 2019, MaxMem=   671088640 cpu:              75.8 elap:              37.9
 (Enter /shared/centos7/gaussian/g16/l502.exe)
 Integral symmetry usage will be decided dynamically.
 UHF open shell SCF:
 Using DIIS extrapolation, IDIIS=  1040.
 NGot=   671088640 LenX=   670887394 LenY=   670790853
 Requested convergence on RMS density matrix=1.00D-08 within 900 cycles.
 Requested convergence on MAX density matrix=1.00D-06.
 Requested convergence on             energy=1.00D-06.
 No special actions if energy rises.
 Fock matrices will be formed incrementally for  20 cycles.
 Integral accuracy reduced to 1.0D-05 until final iterations.

 Cycle   1  Pass 0  IDiag  1:
 FoFJK:  IHMeth= 1 ICntrl=       0 DoSepK=F KAlg= 0 I1Cent=           0 FoldK=F
 IRaf= 940000000 NMat=       1 IRICut=       1 DoRegI=T DoRafI=F ISym2E= 0 IDoP0=0 IntGTp=1.
 FoFCou: FMM=F IPFlag=           0 FMFlag=      100000 FMFlg1=           0
         NFxFlg=           0 DoJE=F BraDBF=F KetDBF=F FulRan=T
         wScrn=  0.000000 ICntrl=         0 IOpCl=  1 I1Cent=           0 NGrid=           0
         NMat0=    1 NMatS0=      1 NMatT0=    0 NMatD0=    1 NMtDS0=    0 NMtDT0=    0
 Symmetry not used in FoFCou.
 E= -269.774348400288    
 DIIS: error= 3.73D-02 at cycle   1 NSaved=   1.
 NSaved= 1 IEnMin= 1 EnMin= -269.774348400288     IErMin= 1 ErrMin= 3.73D-02
 ErrMax= 3.73D-02  0.00D+00 EMaxC= 1.00D-01 BMatC= 9.02D-01 BMatP= 9.02D-01
 IDIUse=3 WtCom= 6.27D-01 WtEn= 3.73D-01
 Coeff-Com:  0.100D+01
 Coeff-En:   0.100D+01
 Coeff:      0.100D+01
 Gap=     0.333 Goal=   None    Shift=    0.000
 Gap=     0.345 Goal=   None    Shift=    0.000
 GapD=    0.333 DampG=1.000 DampE=0.500 DampFc=0.5000 IDamp=-1.
 Damping current iteration by 5.00D-01
 RMSDP=2.16D-03 MaxDP=1.03D-01              OVMax= 2.36D-01

 Cycle   2  Pass 0  IDiag  1:
 RMSU=  1.08D-03    CP:  9.97D-01
 E= -269.873790342027     Delta-E=       -0.099441941739 Rises=F Damp=T
 DIIS: error= 4.95D-03 at cycle   2 NSaved=   2.
 NSaved= 2 IEnMin= 2 EnMin= -269.873790342027     IErMin= 2 ErrMin= 4.95D-03
 ErrMax= 4.95D-03  0.00D+00 EMaxC= 1.00D-01 BMatC= 7.34D-02 BMatP= 9.02D-01
 IDIUse=3 WtCom= 9.51D-01 WtEn= 4.95D-02
 Coeff-Com: -0.909D-01 0.109D+01
 Coeff-En:   0.000D+00 0.100D+01
 Coeff:     -0.864D-01 0.109D+01
 Gap=     0.360 Goal=   None    Shift=    0.000
 Gap=     0.335 Goal=   None    Shift=    0.000
 RMSDP=5.53D-04 MaxDP=1.97D-02 DE=-9.94D-02 OVMax= 1.20D-01

 Cycle   3  Pass 0  IDiag  1:
 RMSU=  5.46D-04    CP:  1.00D+00  9.46D-01
 E= -269.971075256889     Delta-E=       -0.097284914862 Rises=F Damp=F
 DIIS: error= 5.31D-03 at cycle   3 NSaved=   3.
 NSaved= 3 IEnMin= 3 EnMin= -269.971075256889     IErMin= 2 ErrMin= 4.95D-03
 ErrMax= 5.31D-03  0.00D+00 EMaxC= 1.00D-01 BMatC= 2.41D-02 BMatP= 7.34D-02
 IDIUse=3 WtCom= 9.47D-01 WtEn= 5.31D-02
 Coeff-Com: -0.830D-01 0.387D+00 0.696D+00
 Coeff-En:   0.000D+00 0.000D+00 0.100D+01
 Coeff:     -0.786D-01 0.367D+00 0.712D+00
 Gap=     0.350 Goal=   None    Shift=    0.000
 Gap=     0.267 Goal=   None    Shift=    0.000
 RMSDP=2.51D-04 MaxDP=1.06D-02 DE=-9.73D-02 OVMax= 6.65D-02

 Cycle   4  Pass 0  IDiag  1:
 RMSU=  2.22D-04    CP:  1.00D+00  1.01D+00  8.23D-01
 E= -269.975597970484     Delta-E=       -0.004522713594 Rises=F Damp=F
 DIIS: error= 2.40D-03 at cycle   4 NSaved=   4.
 NSaved= 4 IEnMin= 4 EnMin= -269.975597970484     IErMin= 4 ErrMin= 2.40D-03
 ErrMax= 2.40D-03  0.00D+00 EMaxC= 1.00D-01 BMatC= 8.16D-03 BMatP= 2.41D-02
 IDIUse=3 WtCom= 9.76D-01 WtEn= 2.40D-02
 Coeff-Com: -0.299D-01 0.757D-01 0.388D+00 0.567D+00
 Coeff-En:   0.000D+00 0.000D+00 0.107D+00 0.893D+00
 Coeff:     -0.292D-01 0.739D-01 0.381D+00 0.574D+00
 Gap=     0.347 Goal=   None    Shift=    0.000
 Gap=     0.271 Goal=   None    Shift=    0.000
 RMSDP=1.06D-04 MaxDP=5.63D-03 DE=-4.52D-03 OVMax= 1.38D-02

 Cycle   5  Pass 0  IDiag  1:
 RMSU=  6.94D-05    CP:  1.00D+00  1.00D+00  9.45D-01  7.98D-01
 E= -269.977188823373     Delta-E=       -0.001590852890 Rises=F Damp=F
 DIIS: error= 6.19D-04 at cycle   5 NSaved=   5.
 NSaved= 5 IEnMin= 5 EnMin= -269.977188823373     IErMin= 5 ErrMin= 6.19D-04
 ErrMax= 6.19D-04  0.00D+00 EMaxC= 1.00D-01 BMatC= 4.95D-04 BMatP= 8.16D-03
 IDIUse=3 WtCom= 9.94D-01 WtEn= 6.19D-03
 Coeff-Com: -0.214D-02-0.897D-02 0.846D-01 0.196D+00 0.730D+00
 Coeff-En:   0.000D+00 0.000D+00 0.000D+00 0.000D+00 0.100D+01
 Coeff:     -0.213D-02-0.892D-02 0.841D-01 0.195D+00 0.732D+00
 Gap=     0.349 Goal=   None    Shift=    0.000
 Gap=     0.272 Goal=   None    Shift=    0.000
 RMSDP=4.57D-05 MaxDP=1.72D-03 DE=-1.59D-03 OVMax= 1.16D-02

 Cycle   6  Pass 0  IDiag  1:
 RMSU=  2.89D-05    CP:  1.00D+00  9.95D-01  9.73D-01  9.16D-01  1.24D+00
 E= -269.977402553088     Delta-E=       -0.000213729715 Rises=F Damp=F
 DIIS: error= 3.69D-04 at cycle   6 NSaved=   6.
 NSaved= 6 IEnMin= 6 EnMin= -269.977402553088     IErMin= 6 ErrMin= 3.69D-04
 ErrMax= 3.69D-04  0.00D+00 EMaxC= 1.00D-01 BMatC= 1.69D-04 BMatP= 4.95D-04
 IDIUse=3 WtCom= 9.96D-01 WtEn= 3.69D-03
 Coeff-Com:  0.849D-02-0.250D-01-0.693D-01-0.105D+00 0.302D+00 0.889D+00
 Coeff-En:   0.000D+00 0.000D+00 0.000D+00 0.000D+00 0.000D+00 0.100D+01
 Coeff:      0.846D-02-0.249D-01-0.691D-01-0.105D+00 0.301D+00 0.889D+00
 Gap=     0.350 Goal=   None    Shift=    0.000
 Gap=     0.275 Goal=   None    Shift=    0.000
 RMSDP=4.09D-05 MaxDP=1.53D-03 DE=-2.14D-04 OVMax= 1.31D-02

 Cycle   7  Pass 0  IDiag  1:
 RMSU=  1.65D-05    CP:  1.00D+00  9.92D-01  9.95D-01  9.98D-01  1.66D+00
                    CP:  1.22D+00
 E= -269.977516043737     Delta-E=       -0.000113490649 Rises=F Damp=F
 DIIS: error= 1.95D-04 at cycle   7 NSaved=   7.
 NSaved= 7 IEnMin= 7 EnMin= -269.977516043737     IErMin= 7 ErrMin= 1.95D-04
 ErrMax= 1.95D-04  0.00D+00 EMaxC= 1.00D-01 BMatC= 4.20D-05 BMatP= 1.69D-04
 IDIUse=3 WtCom= 9.98D-01 WtEn= 1.95D-03
 Coeff-Com:  0.307D-02-0.529D-02-0.410D-01-0.101D+00-0.114D+00 0.333D+00
 Coeff-Com:  0.926D+00
 Coeff-En:   0.000D+00 0.000D+00 0.000D+00 0.000D+00 0.000D+00 0.000D+00
 Coeff-En:   0.100D+01
 Coeff:      0.306D-02-0.528D-02-0.409D-01-0.101D+00-0.113D+00 0.332D+00
 Coeff:      0.926D+00
 Gap=     0.351 Goal=   None    Shift=    0.000
 Gap=     0.276 Goal=   None    Shift=    0.000
 RMSDP=2.62D-05 MaxDP=9.70D-04 DE=-1.13D-04 OVMax= 7.83D-03

 Cycle   8  Pass 0  IDiag  1:
 RMSU=  7.70D-06    CP:  1.00D+00  9.89D-01  1.01D+00  1.04D+00  1.91D+00
                    CP:  1.61D+00  1.32D+00
 E= -269.977549255339     Delta-E=       -0.000033211602 Rises=F Damp=F
 DIIS: error= 7.89D-05 at cycle   8 NSaved=   8.
 NSaved= 8 IEnMin= 8 EnMin= -269.977549255339     IErMin= 8 ErrMin= 7.89D-05
 ErrMax= 7.89D-05  0.00D+00 EMaxC= 1.00D-01 BMatC= 5.47D-06 BMatP= 4.20D-05
 IDIUse=1 WtCom= 1.00D+00 WtEn= 0.00D+00
 Coeff-Com: -0.104D-02 0.372D-02 0.100D-01 0.305D-02-0.453D-01-0.798D-01
 Coeff-Com:  0.123D+00 0.987D+00
 Coeff:     -0.104D-02 0.372D-02 0.100D-01 0.305D-02-0.453D-01-0.798D-01
 Coeff:      0.123D+00 0.987D+00
 Gap=     0.351 Goal=   None    Shift=    0.000
 Gap=     0.276 Goal=   None    Shift=    0.000
 RMSDP=9.18D-06 MaxDP=4.83D-04 DE=-3.32D-05 OVMax= 3.18D-03

 Initial convergence to 1.0D-05 achieved.  Increase integral accuracy.
 Cycle   9  Pass 1  IDiag  1:
 E= -269.977543980771     Delta-E=        0.000005274568 Rises=F Damp=F
 DIIS: error= 3.67D-05 at cycle   1 NSaved=   1.
 NSaved= 1 IEnMin= 1 EnMin= -269.977543980771     IErMin= 1 ErrMin= 3.67D-05
 ErrMax= 3.67D-05  0.00D+00 EMaxC= 1.00D-01 BMatC= 3.26D-06 BMatP= 3.26D-06
 IDIUse=1 WtCom= 1.00D+00 WtEn= 0.00D+00
 Coeff-Com:  0.100D+01
 Coeff:      0.100D+01
 Gap=     0.351 Goal=   None    Shift=    0.000
 Gap=     0.276 Goal=   None    Shift=    0.000
 RMSDP=9.18D-06 MaxDP=4.83D-04 DE= 5.27D-06 OVMax= 1.14D-03

 Cycle  10  Pass 1  IDiag  1:
 RMSU=  6.74D-06    CP:  1.00D+00
 E= -269.977545902773     Delta-E=       -0.000001922001 Rises=F Damp=F
 DIIS: error= 5.18D-05 at cycle   2 NSaved=   2.
 NSaved= 2 IEnMin= 2 EnMin= -269.977545902773     IErMin= 1 ErrMin= 3.67D-05
 ErrMax= 5.18D-05  0.00D+00 EMaxC= 1.00D-01 BMatC= 1.48D-06 BMatP= 3.26D-06
 IDIUse=1 WtCom= 1.00D+00 WtEn= 0.00D+00
 Coeff-Com:  0.330D+00 0.670D+00
 Coeff:      0.330D+00 0.670D+00
 Gap=     0.351 Goal=   None    Shift=    0.000
 Gap=     0.276 Goal=   None    Shift=    0.000
 RMSDP=2.42D-06 MaxDP=1.20D-04 DE=-1.92D-06 OVMax= 8.49D-04

 Cycle  11  Pass 1  IDiag  1:
 RMSU=  2.27D-06    CP:  1.00D+00  1.12D+00
 E= -269.977546706135     Delta-E=       -0.000000803362 Rises=F Damp=F
 DIIS: error= 2.05D-05 at cycle   3 NSaved=   3.
 NSaved= 3 IEnMin= 3 EnMin= -269.977546706135     IErMin= 3 ErrMin= 2.05D-05
 ErrMax= 2.05D-05  0.00D+00 EMaxC= 1.00D-01 BMatC= 5.85D-07 BMatP= 1.48D-06
 IDIUse=1 WtCom= 1.00D+00 WtEn= 0.00D+00
 Coeff-Com: -0.223D+00 0.232D+00 0.991D+00
 Coeff:     -0.223D+00 0.232D+00 0.991D+00
 Gap=     0.351 Goal=   None    Shift=    0.000
 Gap=     0.276 Goal=   None    Shift=    0.000
 RMSDP=3.03D-06 MaxDP=1.73D-04 DE=-8.03D-07 OVMax= 8.66D-04

 Cycle  12  Pass 1  IDiag  1:
 RMSU=  1.71D-06    CP:  1.00D+00  1.44D+00  1.59D+00
 E= -269.977547373481     Delta-E=       -0.000000667346 Rises=F Damp=F
 DIIS: error= 1.80D-05 at cycle   4 NSaved=   4.
 NSaved= 4 IEnMin= 4 EnMin= -269.977547373481     IErMin= 4 ErrMin= 1.80D-05
 ErrMax= 1.80D-05  0.00D+00 EMaxC= 1.00D-01 BMatC= 1.42D-07 BMatP= 5.85D-07
 IDIUse=1 WtCom= 1.00D+00 WtEn= 0.00D+00
 Coeff-Com: -0.159D+00-0.921D-01 0.169D+00 0.108D+01
 Coeff:     -0.159D+00-0.921D-01 0.169D+00 0.108D+01
 Gap=     0.351 Goal=   None    Shift=    0.000
 Gap=     0.276 Goal=   None    Shift=    0.000
 RMSDP=2.33D-06 MaxDP=1.41D-04 DE=-6.67D-07 OVMax= 7.99D-04

 Cycle  13  Pass 1  IDiag  1:
 RMSU=  6.12D-07    CP:  1.00D+00  1.66D+00  2.20D+00  1.56D+00
 E= -269.977547644596     Delta-E=       -0.000000271115 Rises=F Damp=F
 DIIS: error= 6.28D-06 at cycle   5 NSaved=   5.
 NSaved= 5 IEnMin= 5 EnMin= -269.977547644596     IErMin= 5 ErrMin= 6.28D-06
 ErrMax= 6.28D-06  0.00D+00 EMaxC= 1.00D-01 BMatC= 7.68D-08 BMatP= 1.42D-07
 IDIUse=1 WtCom= 1.00D+00 WtEn= 0.00D+00
 Coeff-Com:  0.124D-01-0.155D+00-0.410D+00 0.647D+00 0.905D+00
 Coeff:      0.124D-01-0.155D+00-0.410D+00 0.647D+00 0.905D+00
 Gap=     0.351 Goal=   None    Shift=    0.000
 Gap=     0.276 Goal=   None    Shift=    0.000
 RMSDP=1.77D-06 MaxDP=1.05D-04 DE=-2.71D-07 OVMax= 5.44D-04

 Cycle  14  Pass 1  IDiag  1:
 RMSU=  2.16D-07    CP:  1.00D+00  1.82D+00  2.65D+00  2.11D+00  1.01D+00
 E= -269.977547726045     Delta-E=       -0.000000081449 Rises=F Damp=F
 DIIS: error= 2.63D-06 at cycle   6 NSaved=   6.
 NSaved= 6 IEnMin= 6 EnMin= -269.977547726045     IErMin= 6 ErrMin= 2.63D-06
 ErrMax= 2.63D-06  0.00D+00 EMaxC= 1.00D-01 BMatC= 9.72D-09 BMatP= 7.68D-08
 IDIUse=1 WtCom= 1.00D+00 WtEn= 0.00D+00
 Coeff-Com:  0.218D-01-0.738D-01-0.231D+00 0.244D+00 0.490D+00 0.549D+00
 Coeff:      0.218D-01-0.738D-01-0.231D+00 0.244D+00 0.490D+00 0.549D+00
 Gap=     0.351 Goal=   None    Shift=    0.000
 Gap=     0.276 Goal=   None    Shift=    0.000
 RMSDP=2.04D-07 MaxDP=1.18D-05 DE=-8.14D-08 OVMax= 5.55D-05

 Cycle  15  Pass 1  IDiag  1:
 RMSU=  9.43D-08    CP:  1.00D+00  1.83D+00  2.70D+00  2.16D+00  1.09D+00
                    CP:  9.56D-01
 E= -269.977547729034     Delta-E=       -0.000000002989 Rises=F Damp=F
 DIIS: error= 6.63D-07 at cycle   7 NSaved=   7.
 NSaved= 7 IEnMin= 7 EnMin= -269.977547729034     IErMin= 7 ErrMin= 6.63D-07
 ErrMax= 6.63D-07  0.00D+00 EMaxC= 1.00D-01 BMatC= 7.73D-10 BMatP= 9.72D-09
 IDIUse=1 WtCom= 1.00D+00 WtEn= 0.00D+00
 Coeff-Com: -0.353D-03 0.256D-01 0.715D-01-0.134D+00-0.127D+00 0.699D-01
 Coeff-Com:  0.109D+01
 Coeff:     -0.353D-03 0.256D-01 0.715D-01-0.134D+00-0.127D+00 0.699D-01
 Coeff:      0.109D+01
 Gap=     0.351 Goal=   None    Shift=    0.000
 Gap=     0.276 Goal=   None    Shift=    0.000
 RMSDP=1.05D-07 MaxDP=5.15D-06 DE=-2.99D-09 OVMax= 2.86D-05

 Cycle  16  Pass 1  IDiag  1:
 RMSU=  4.08D-08    CP:  1.00D+00  1.84D+00  2.72D+00  2.18D+00  1.15D+00
                    CP:  1.21D+00  1.33D+00
 E= -269.977547729652     Delta-E=       -0.000000000618 Rises=F Damp=F
 DIIS: error= 3.58D-07 at cycle   8 NSaved=   8.
 NSaved= 8 IEnMin= 8 EnMin= -269.977547729652     IErMin= 8 ErrMin= 3.58D-07
 ErrMax= 3.58D-07  0.00D+00 EMaxC= 1.00D-01 BMatC= 1.28D-10 BMatP= 7.73D-10
 IDIUse=1 WtCom= 1.00D+00 WtEn= 0.00D+00
 Coeff-Com: -0.353D-02 0.181D-01 0.581D-01-0.789D-01-0.111D+00-0.832D-01
 Coeff-Com:  0.257D+00 0.944D+00
 Coeff:     -0.353D-02 0.181D-01 0.581D-01-0.789D-01-0.111D+00-0.832D-01
 Coeff:      0.257D+00 0.944D+00
 Gap=     0.351 Goal=   None    Shift=    0.000
 Gap=     0.276 Goal=   None    Shift=    0.000
 RMSDP=4.62D-08 MaxDP=2.15D-06 DE=-6.18D-10 OVMax= 1.47D-05

 Cycle  17  Pass 1  IDiag  1:
 RMSU=  1.72D-08    CP:  1.00D+00  1.84D+00  2.73D+00  2.18D+00  1.18D+00
                    CP:  1.30D+00  1.57D+00  1.31D+00
 E= -269.977547729748     Delta-E=       -0.000000000096 Rises=F Damp=F
 DIIS: error= 1.68D-07 at cycle   9 NSaved=   9.
 NSaved= 9 IEnMin= 9 EnMin= -269.977547729748     IErMin= 9 ErrMin= 1.68D-07
 ErrMax= 1.68D-07  0.00D+00 EMaxC= 1.00D-01 BMatC= 2.37D-11 BMatP= 1.28D-10
 IDIUse=1 WtCom= 1.00D+00 WtEn= 0.00D+00
 Coeff-Com: -0.917D-03 0.113D-02 0.756D-02-0.488D-02-0.123D-01-0.344D-01
 Coeff-Com: -0.937D-01 0.298D+00 0.840D+00
 Coeff:     -0.917D-03 0.113D-02 0.756D-02-0.488D-02-0.123D-01-0.344D-01
 Coeff:     -0.937D-01 0.298D+00 0.840D+00
 Gap=     0.351 Goal=   None    Shift=    0.000
 Gap=     0.276 Goal=   None    Shift=    0.000
 RMSDP=1.54D-08 MaxDP=4.62D-07 DE=-9.62D-11 OVMax= 3.79D-06

 Cycle  18  Pass 1  IDiag  1:
 RMSU=  6.13D-09    CP:  1.00D+00  1.84D+00  2.73D+00  2.18D+00  1.18D+00
                    CP:  1.33D+00  1.64D+00  1.55D+00  1.09D+00
 E= -269.977547729768     Delta-E=       -0.000000000020 Rises=F Damp=F
 DIIS: error= 4.18D-08 at cycle  10 NSaved=  10.
 NSaved=10 IEnMin=10 EnMin= -269.977547729768     IErMin=10 ErrMin= 4.18D-08
 ErrMax= 4.18D-08  0.00D+00 EMaxC= 1.00D-01 BMatC= 2.60D-12 BMatP= 2.37D-11
 IDIUse=1 WtCom= 1.00D+00 WtEn= 0.00D+00
 Coeff-Com:  0.439D-03-0.313D-02-0.796D-02 0.120D-01 0.173D-01 0.910D-02
 Coeff-Com: -0.659D-01-0.945D-01 0.123D+00 0.101D+01
 Coeff:      0.439D-03-0.313D-02-0.796D-02 0.120D-01 0.173D-01 0.910D-02
 Coeff:     -0.659D-01-0.945D-01 0.123D+00 0.101D+01
 Gap=     0.351 Goal=   None    Shift=    0.000
 Gap=     0.276 Goal=   None    Shift=    0.000
 RMSDP=6.89D-09 MaxDP=1.96D-07 DE=-2.04D-11 OVMax= 1.70D-06

 SCF Done:  E(UM062X) =  -269.977547730     A.U. after   18 cycles
            NFock= 18  Conv=0.69D-08     -V/T= 2.0054
 <Sx>= 0.0000 <Sy>= 0.0000 <Sz>= 0.5000 <S**2>= 0.7599 S= 0.5050
 <L.S>= 0.000000000000E+00
 KE= 2.685191899610D+02 PE=-9.916407598732D+02 EE= 2.733421298004D+02
 Annihilation of the first spin contaminant:
 S**2 before annihilation     0.7599,   after     0.7500
 Leave Link  502 at Thu Sep  5 18:23:22 2019, MaxMem=   671088640 cpu:            3050.6 elap:            1525.5
 (Enter /shared/centos7/gaussian/g16/l801.exe)
 DoSCS=F DFT=T ScalE2(SS,OS)=  1.000000  1.000000
 Range of M.O.s used for correlation:     1   276
 NBasis=   276 NAE=    22 NBE=    21 NFC=     0 NFV=     0
 NROrb=    276 NOA=    22 NOB=    21 NVA=   254 NVB=   255

 **** Warning!!: The largest alpha MO coefficient is  0.12085351D+02


 **** Warning!!: The largest beta MO coefficient is  0.12085706D+02

 Leave Link  801 at Thu Sep  5 18:23:23 2019, MaxMem=   671088640 cpu:               1.9 elap:               1.0
 (Enter /shared/centos7/gaussian/g16/l1101.exe)
 Using compressed storage, NAtomX=    14.
 Will process     15 centers per pass.
 Leave Link 1101 at Thu Sep  5 18:23:54 2019, MaxMem=   671088640 cpu:              61.7 elap:              30.9
 (Enter /shared/centos7/gaussian/g16/l1102.exe)
 Symmetrizing basis deriv contribution to polar:
 IMax=3 JMax=2 DiffMx= 0.00D+00
 Leave Link 1102 at Thu Sep  5 18:23:57 2019, MaxMem=   671088640 cpu:               6.4 elap:               3.2
 (Enter /shared/centos7/gaussian/g16/l1110.exe)
 Forming Gx(P) for the SCF density, NAtomX=    14.
 Integral derivatives from FoFJK, PRISM(SPDF).
 Do as many integral derivatives as possible in FoFJK.
 G2DrvN: MDV=     671087496.
 G2DrvN: will do    15 centers at a time, making    1 passes.
 Calling FoFCou, ICntrl=  3107 FMM=F I1Cent=   0 AccDes= 0.00D+00.
 FoFJK:  IHMeth= 1 ICntrl=    3107 DoSepK=F KAlg= 0 I1Cent=           0 FoldK=F
 IRaf=         0 NMat=       1 IRICut=       1 DoRegI=T DoRafI=F ISym2E= 0 IDoP0=0 IntGTp=1.
 FoFCou: FMM=F IPFlag=           0 FMFlag=      100000 FMFlg1=           0
         NFxFlg=           0 DoJE=F BraDBF=F KetDBF=F FulRan=T
         wScrn=  0.000000 ICntrl=      3107 IOpCl=  1 I1Cent=           0 NGrid=           0
         NMat0=    1 NMatS0=      1 NMatT0=    0 NMatD0=    1 NMtDS0=    0 NMtDT0=    0
 Symmetry not used in FoFCou.
 End of G2Drv F.D. properties file   721 does not exist.
 End of G2Drv F.D. properties file   722 does not exist.
 End of G2Drv F.D. properties file   788 does not exist.
 Leave Link 1110 at Thu Sep  5 18:54:13 2019, MaxMem=   671088640 cpu:            3631.4 elap:            1815.9
 (Enter /shared/centos7/gaussian/g16/l1002.exe)
 Minotr:  UHF open shell wavefunction.
          IDoAtm=11111111111111
          Direct CPHF calculation.
          Differentiating once with respect to nuclear coordinates.
          Requested convergence is 1.0D-08 RMS, and 1.0D-07 maximum.
          Secondary convergence is 1.0D-12 RMS, and 1.0D-12 maximum.
          NewPWx=T KeepS1=F KeepF1=F KeepIn=T MapXYZ=F SortEE=F KeepMc=T.
         4201 words used for storage of precomputed grid.
 Two-electron integrals replicated using symmetry.
          MDV=     671088640 using IRadAn=       1.
          Solving linear equations simultaneously, MaxMat=     380.
 FoF2E skips out because all densities are zero.
 CalDSu exits because no D1Ps are significant.
 FoFJK:  IHMeth= 1 ICntrl=       0 DoSepK=F KAlg= 0 I1Cent=           0 FoldK=F
 IRaf= 930000000 NMat=      42 IRICut=     105 DoRegI=T DoRafI=T ISym2E= 2 IDoP0=3 IntGTp=3.
 FoFCou: FMM=F IPFlag=           0 FMFlag=      100000 FMFlg1=           0
         NFxFlg=           0 DoJE=F BraDBF=F KetDBF=F FulRan=T
         wScrn=  0.000000 ICntrl=         0 IOpCl=  1 I1Cent=           0 NGrid=           0
         NMat0=   42 NMatS0=     42 NMatT0=    0 NMatD0=   42 NMtDS0=    0 NMtDT0=    0
 Integrals replicated using symmetry in FoFCou.
 Raff kept on since  90.18% of shell-pairs survive, threshold=   0.20 IRatSp=90.
          There are    45 degrees of freedom in the 1st order CPHF.  IDoFFX=6 NUNeed=     0.
     39 vectors produced by pass  0 Test12= 2.43D-14 2.22D-09 XBig12= 1.38D-01 1.39D-01.
 AX will form    39 AO Fock derivatives at one time.
     39 vectors produced by pass  1 Test12= 2.43D-14 2.22D-09 XBig12= 1.86D-02 3.07D-02.
     39 vectors produced by pass  2 Test12= 2.43D-14 2.22D-09 XBig12= 1.15D-03 6.41D-03.
     39 vectors produced by pass  3 Test12= 2.43D-14 2.22D-09 XBig12= 2.79D-05 7.73D-04.
     39 vectors produced by pass  4 Test12= 2.43D-14 2.22D-09 XBig12= 4.71D-07 9.15D-05.
     39 vectors produced by pass  5 Test12= 2.43D-14 2.22D-09 XBig12= 5.60D-09 1.30D-05.
     36 vectors produced by pass  6 Test12= 2.43D-14 2.22D-09 XBig12= 4.96D-11 1.02D-06.
     18 vectors produced by pass  7 Test12= 2.43D-14 2.22D-09 XBig12= 4.07D-13 6.08D-08.
      3 vectors produced by pass  8 Test12= 2.43D-14 2.22D-09 XBig12= 2.52D-15 4.24D-09.
 InvSVY:  IOpt=1 It=  1 EMax= 1.67D-15
 Solved reduced A of dimension   291 with    39 vectors.
 End of Minotr F.D. properties file   721 does not exist.
 End of Minotr F.D. properties file   722 does not exist.
 End of Minotr F.D. properties file   788 does not exist.
 Leave Link 1002 at Thu Sep  5 19:45:14 2019, MaxMem=   671088640 cpu:            6120.8 elap:            3060.7
 (Enter /shared/centos7/gaussian/g16/l601.exe)
 Copying SCF densities to generalized density rwf, IOpCl= 1 IROHF=0.

 **********************************************************************

            Population analysis using the SCF density.

 **********************************************************************

 Orbital symmetries:
 Alpha Orbitals:
       Occupied  (A) (A) (A) (A) (A) (A) (A) (A) (A) (A) (A) (A)
                 (A) (A) (A) (A) (A) (A) (A) (A) (A) (A)
       Virtual   (A) (A) (A) (A) (A) (A) (A) (A) (A) (A) (A) (A)
                 (A) (A) (A) (A) (A) (A) (A) (A) (A) (A) (A) (A)
                 (A) (A) (A) (A) (A) (A) (A) (A) (A) (A) (A) (A)
                 (A) (A) (A) (A) (A) (A) (A) (A) (A) (A) (A) (A)
                 (A) (A) (A) (A) (A) (A) (A) (A) (A) (A) (A) (A)
                 (A) (A) (A) (A) (A) (A) (A) (A) (A) (A) (A) (A)
                 (A) (A) (A) (A) (A) (A) (A) (A) (A) (A) (A) (A)
                 (A) (A) (A) (A) (A) (A) (A) (A) (A) (A) (A) (A)
                 (A) (A) (A) (A) (A) (A) (A) (A) (A) (A) (A) (A)
                 (A) (A) (A) (A) (A) (A) (A) (A) (A) (A) (A) (A)
                 (A) (A) (A) (A) (A) (A) (A) (A) (A) (A) (A) (A)
                 (A) (A) (A) (A) (A) (A) (A) (A) (A) (A) (A) (A)
                 (A) (A) (A) (A) (A) (A) (A) (A) (A) (A) (A) (A)
                 (A) (A) (A) (A) (A) (A) (A) (A) (A) (A) (A) (A)
                 (A) (A) (A) (A) (A) (A) (A) (A) (A) (A) (A) (A)
                 (A) (A) (A) (A) (A) (A) (A) (A) (A) (A) (A) (A)
                 (A) (A) (A) (A) (A) (A) (A) (A) (A) (A) (A) (A)
                 (A) (A) (A) (A) (A) (A) (A) (A) (A) (A) (A) (A)
                 (A) (A) (A) (A) (A) (A) (A) (A) (A) (A) (A) (A)
                 (A) (A) (A) (A) (A) (A) (A) (A) (A) (A) (A) (A)
                 (A) (A) (A) (A) (A) (A) (A) (A) (A) (A) (A) (A)
                 (A) (A)
 Beta  Orbitals:
       Occupied  (A) (A) (A) (A) (A) (A) (A) (A) (A) (A) (A) (A)
                 (A) (A) (A) (A) (A) (A) (A) (A) (A)
       Virtual   (A) (A) (A) (A) (A) (A) (A) (A) (A) (A) (A) (A)
                 (A) (A) (A) (A) (A) (A) (A) (A) (A) (A) (A) (A)
                 (A) (A) (A) (A) (A) (A) (A) (A) (A) (A) (A) (A)
                 (A) (A) (A) (A) (A) (A) (A) (A) (A) (A) (A) (A)
                 (A) (A) (A) (A) (A) (A) (A) (A) (A) (A) (A) (A)
                 (A) (A) (A) (A) (A) (A) (A) (A) (A) (A) (A) (A)
                 (A) (A) (A) (A) (A) (A) (A) (A) (A) (A) (A) (A)
                 (A) (A) (A) (A) (A) (A) (A) (A) (A) (A) (A) (A)
                 (A) (A) (A) (A) (A) (A) (A) (A) (A) (A) (A) (A)
                 (A) (A) (A) (A) (A) (A) (A) (A) (A) (A) (A) (A)
                 (A) (A) (A) (A) (A) (A) (A) (A) (A) (A) (A) (A)
                 (A) (A) (A) (A) (A) (A) (A) (A) (A) (A) (A) (A)
                 (A) (A) (A) (A) (A) (A) (A) (A) (A) (A) (A) (A)
                 (A) (A) (A) (A) (A) (A) (A) (A) (A) (A) (A) (A)
                 (A) (A) (A) (A) (A) (A) (A) (A) (A) (A) (A) (A)
                 (A) (A) (A) (A) (A) (A) (A) (A) (A) (A) (A) (A)
                 (A) (A) (A) (A) (A) (A) (A) (A) (A) (A) (A) (A)
                 (A) (A) (A) (A) (A) (A) (A) (A) (A) (A) (A) (A)
                 (A) (A) (A) (A) (A) (A) (A) (A) (A) (A) (A) (A)
                 (A) (A) (A) (A) (A) (A) (A) (A) (A) (A) (A) (A)
                 (A) (A) (A) (A) (A) (A) (A) (A) (A) (A) (A) (A)
                 (A) (A) (A)
 The electronic state is 2-A.
 Alpha  occ. eigenvalues --  -19.68464 -19.68331 -10.55349 -10.54494 -10.53473
 Alpha  occ. eigenvalues --   -1.26530  -0.98945  -0.89827  -0.78594  -0.68534
 Alpha  occ. eigenvalues --   -0.61486  -0.58546  -0.55023  -0.52092  -0.50017
 Alpha  occ. eigenvalues --   -0.46849  -0.46392  -0.41997  -0.40585  -0.39427
 Alpha  occ. eigenvalues --   -0.37273  -0.28938
 Alpha virt. eigenvalues --    0.06165   0.06995   0.10574   0.11103   0.11573
 Alpha virt. eigenvalues --    0.13995   0.15150   0.16204   0.17374   0.18461
 Alpha virt. eigenvalues --    0.21954   0.25331   0.28364   0.28665   0.32102
 Alpha virt. eigenvalues --    0.32381   0.34487   0.38957   0.40965   0.43125
 Alpha virt. eigenvalues --    0.45251   0.45891   0.47408   0.48320   0.49825
 Alpha virt. eigenvalues --    0.50247   0.50863   0.52403   0.53003   0.53559
 Alpha virt. eigenvalues --    0.56249   0.58920   0.59919   0.60515   0.65116
 Alpha virt. eigenvalues --    0.69754   0.71569   0.72175   0.73184   0.74346
 Alpha virt. eigenvalues --    0.76578   0.77352   0.81660   0.82359   0.84755
 Alpha virt. eigenvalues --    0.90077   0.91520   0.93008   0.95791   0.99493
 Alpha virt. eigenvalues --    1.02168   1.04584   1.06255   1.06686   1.07861
 Alpha virt. eigenvalues --    1.10974   1.12097   1.13602   1.15262   1.18115
 Alpha virt. eigenvalues --    1.18747   1.20440   1.21421   1.22966   1.27461
 Alpha virt. eigenvalues --    1.28941   1.29943   1.31499   1.33009   1.36397
 Alpha virt. eigenvalues --    1.37530   1.40531   1.41447   1.42970   1.44495
 Alpha virt. eigenvalues --    1.49363   1.51890   1.54298   1.56234   1.57824
 Alpha virt. eigenvalues --    1.58957   1.63532   1.65290   1.67111   1.69578
 Alpha virt. eigenvalues --    1.81084   1.91849   1.94112   1.97033   2.09950
 Alpha virt. eigenvalues --    2.16021   2.19603   2.24303   2.27428   2.28824
 Alpha virt. eigenvalues --    2.29442   2.34398   2.37806   2.42063   2.44440
 Alpha virt. eigenvalues --    2.48610   2.50158   2.50964   2.54483   2.54926
 Alpha virt. eigenvalues --    2.59998   2.62997   2.67982   2.70327   2.72793
 Alpha virt. eigenvalues --    2.77630   2.79569   2.81902   2.82763   2.85101
 Alpha virt. eigenvalues --    2.85394   2.88807   2.91081   2.97717   2.98390
 Alpha virt. eigenvalues --    3.03724   3.03866   3.05573   3.06825   3.07302
 Alpha virt. eigenvalues --    3.08544   3.10964   3.12409   3.14612   3.16761
 Alpha virt. eigenvalues --    3.18819   3.21586   3.24876   3.25468   3.26903
 Alpha virt. eigenvalues --    3.29588   3.32451   3.34746   3.35428   3.36648
 Alpha virt. eigenvalues --    3.39841   3.41421   3.44180   3.46070   3.47860
 Alpha virt. eigenvalues --    3.48848   3.49904   3.53164   3.54952   3.59724
 Alpha virt. eigenvalues --    3.66385   3.68746   3.69229   3.70353   3.71380
 Alpha virt. eigenvalues --    3.73189   3.74750   3.75315   3.76765   3.78497
 Alpha virt. eigenvalues --    3.79650   3.81116   3.84263   3.85084   3.88185
 Alpha virt. eigenvalues --    3.88859   3.89705   3.91449   3.93619   3.96606
 Alpha virt. eigenvalues --    4.00193   4.00358   4.04156   4.04808   4.05591
 Alpha virt. eigenvalues --    4.06739   4.09272   4.12265   4.12471   4.14505
 Alpha virt. eigenvalues --    4.19176   4.20233   4.22237   4.23961   4.25679
 Alpha virt. eigenvalues --    4.25964   4.33776   4.34751   4.38273   4.44656
 Alpha virt. eigenvalues --    4.45847   4.47790   4.51069   4.60486   4.61104
 Alpha virt. eigenvalues --    4.71392   4.72781   4.76732   4.79309   4.80005
 Alpha virt. eigenvalues --    4.82956   4.84534   4.85917   4.87053   4.91825
 Alpha virt. eigenvalues --    4.94869   4.97286   4.99530   5.02816   5.08185
 Alpha virt. eigenvalues --    5.11068   5.15110   5.17063   5.19220   5.24817
 Alpha virt. eigenvalues --    5.27466   5.29387   5.30455   5.32614   5.37692
 Alpha virt. eigenvalues --    5.40463   5.42496   5.45327   5.45765   5.52035
 Alpha virt. eigenvalues --    5.57070   5.74572   5.78067   5.80174   5.81687
 Alpha virt. eigenvalues --    5.87293   5.94719   6.12401   6.19486   6.30501
 Alpha virt. eigenvalues --    6.35710   6.37353   6.46815   6.53302   6.58656
 Alpha virt. eigenvalues --    6.63051   6.68765   6.72088   6.83155   6.87144
 Alpha virt. eigenvalues --    7.13313   7.20676   7.43000   7.58940   9.91464
 Alpha virt. eigenvalues --   11.17060  12.18963  12.87660  13.39853
  Beta  occ. eigenvalues --  -19.68339 -19.67387 -10.54811 -10.54510 -10.53398
  Beta  occ. eigenvalues --   -1.24928  -0.96606  -0.88947  -0.77097  -0.67728
  Beta  occ. eigenvalues --   -0.60163  -0.55420  -0.54458  -0.50613  -0.48818
  Beta  occ. eigenvalues --   -0.46144  -0.44881  -0.41471  -0.40349  -0.37046
  Beta  occ. eigenvalues --   -0.34706
  Beta virt. eigenvalues --   -0.07090   0.06308   0.07088   0.10686   0.11094
  Beta virt. eigenvalues --    0.11685   0.14263   0.15190   0.16579   0.17675
  Beta virt. eigenvalues --    0.18968   0.22284   0.25587   0.28393   0.28672
  Beta virt. eigenvalues --    0.32428   0.32785   0.35265   0.39267   0.41317
  Beta virt. eigenvalues --    0.43764   0.45481   0.46157   0.48520   0.48657
  Beta virt. eigenvalues --    0.50320   0.50861   0.51543   0.52765   0.53592
  Beta virt. eigenvalues --    0.54005   0.56878   0.59113   0.60255   0.61152
  Beta virt. eigenvalues --    0.65431   0.69984   0.71907   0.72339   0.73313
  Beta virt. eigenvalues --    0.74753   0.76714   0.77528   0.81813   0.82793
  Beta virt. eigenvalues --    0.84995   0.90260   0.92017   0.93066   0.95829
  Beta virt. eigenvalues --    0.99604   1.02464   1.04930   1.06552   1.06998
  Beta virt. eigenvalues --    1.08025   1.11198   1.12253   1.13925   1.15747
  Beta virt. eigenvalues --    1.18251   1.18758   1.20508   1.21573   1.23057
  Beta virt. eigenvalues --    1.27707   1.29362   1.30312   1.31777   1.33295
  Beta virt. eigenvalues --    1.37049   1.38315   1.40954   1.41541   1.43199
  Beta virt. eigenvalues --    1.44960   1.49645   1.52132   1.54544   1.56615
  Beta virt. eigenvalues --    1.58341   1.59994   1.64045   1.65798   1.67663
  Beta virt. eigenvalues --    1.70406   1.81776   1.92203   1.95402   1.97220
  Beta virt. eigenvalues --    2.11062   2.16242   2.20196   2.24585   2.28090
  Beta virt. eigenvalues --    2.29426   2.29831   2.34653   2.38722   2.42475
  Beta virt. eigenvalues --    2.44964   2.48836   2.50404   2.51839   2.55184
  Beta virt. eigenvalues --    2.55626   2.60685   2.63512   2.69066   2.71398
  Beta virt. eigenvalues --    2.72717   2.78528   2.81070   2.83190   2.84012
  Beta virt. eigenvalues --    2.85620   2.86122   2.90131   2.91544   2.98639
  Beta virt. eigenvalues --    3.00584   3.04655   3.05647   3.06931   3.08060
  Beta virt. eigenvalues --    3.08197   3.09379   3.12258   3.13882   3.15410
  Beta virt. eigenvalues --    3.16850   3.19027   3.22086   3.25133   3.25722
  Beta virt. eigenvalues --    3.27505   3.29894   3.34160   3.36061   3.36705
  Beta virt. eigenvalues --    3.37132   3.40372   3.41924   3.44604   3.46414
  Beta virt. eigenvalues --    3.48333   3.49207   3.50308   3.53810   3.55616
  Beta virt. eigenvalues --    3.60044   3.66736   3.69181   3.69735   3.70824
  Beta virt. eigenvalues --    3.71961   3.73569   3.75024   3.75721   3.77004
  Beta virt. eigenvalues --    3.78874   3.80284   3.81959   3.84934   3.86020
  Beta virt. eigenvalues --    3.88732   3.89089   3.90297   3.91617   3.93717
  Beta virt. eigenvalues --    3.97058   4.00337   4.00804   4.04623   4.05236
  Beta virt. eigenvalues --    4.05677   4.06901   4.10043   4.12483   4.13023
  Beta virt. eigenvalues --    4.14846   4.19555   4.21137   4.22690   4.24030
  Beta virt. eigenvalues --    4.25976   4.26841   4.34462   4.35219   4.39328
  Beta virt. eigenvalues --    4.45484   4.46775   4.48460   4.51792   4.61227
  Beta virt. eigenvalues --    4.61851   4.71728   4.73729   4.77970   4.79799
  Beta virt. eigenvalues --    4.80526   4.83360   4.84745   4.86228   4.87356
  Beta virt. eigenvalues --    4.93457   4.96270   4.97902   5.00411   5.03948
  Beta virt. eigenvalues --    5.09722   5.12182   5.15687   5.18115   5.19733
  Beta virt. eigenvalues --    5.26030   5.28213   5.29787   5.30879   5.32912
  Beta virt. eigenvalues --    5.39774   5.41541   5.43329   5.46932   5.47174
  Beta virt. eigenvalues --    5.53562   5.58413   5.77208   5.79063   5.80438
  Beta virt. eigenvalues --    5.84017   5.87246   5.95196   6.12757   6.21880
  Beta virt. eigenvalues --    6.31342   6.36171   6.37317   6.47445   6.54047
  Beta virt. eigenvalues --    6.60476   6.65202   6.69285   6.73714   6.83420
  Beta virt. eigenvalues --    6.88552   7.13491   7.21393   7.43321   7.59149
  Beta virt. eigenvalues --    9.92299  11.17230  12.19918  12.88402  13.39862
          Condensed to atoms (all electrons):
               1          2          3          4          5          6
     1  O    7.897883   0.054155  -0.000597   0.000810  -0.000041  -0.000140
     2  O    0.054155   8.086876   0.004813  -0.083178   0.000090   0.000269
     3  C   -0.000597   0.004813   5.005423   0.292553   0.291912   0.412329
     4  C    0.000810  -0.083178   0.292553   5.300458  -0.053690  -0.042302
     5  C   -0.000041   0.000090   0.291912  -0.053690   4.979171  -0.039362
     6  H   -0.000140   0.000269   0.412329  -0.042302  -0.039362   0.584317
     7  H    0.001383  -0.000030   0.408630  -0.041471  -0.039479  -0.038949
     8  H   -0.030850   0.198418  -0.017326   0.227769   0.002415  -0.001893
     9  H    0.011354  -0.007147  -0.035837   0.380847  -0.004579   0.006471
    10  H    0.000905   0.000639  -0.034794   0.386863  -0.004147  -0.005901
    11  H    0.000001   0.000001  -0.040680  -0.002725   0.403110  -0.006171
    12  H    0.000001   0.000008  -0.032775   0.007811   0.398863  -0.004494
    13  H   -0.000044   0.000017  -0.039121  -0.003168   0.402949   0.007566
    14  H    0.313274  -0.030822   0.000123  -0.005021  -0.000016   0.000011
               7          8          9         10         11         12
     1  O    0.001383  -0.030850   0.011354   0.000905   0.000001   0.000001
     2  O   -0.000030   0.198418  -0.007147   0.000639   0.000001   0.000008
     3  C    0.408630  -0.017326  -0.035837  -0.034794  -0.040680  -0.032775
     4  C   -0.041471   0.227769   0.380847   0.386863  -0.002725   0.007811
     5  C   -0.039479   0.002415  -0.004579  -0.004147   0.403110   0.398863
     6  H   -0.038949  -0.001893   0.006471  -0.005901  -0.006171  -0.004494
     7  H    0.582849  -0.002836  -0.004613   0.006980   0.007500  -0.004394
     8  H   -0.002836   0.393203  -0.012299  -0.008285  -0.000049  -0.000156
     9  H   -0.004613  -0.012299   0.567344  -0.034767  -0.000070  -0.000037
    10  H    0.006980  -0.008285  -0.034767   0.551503   0.002424  -0.000049
    11  H    0.007500  -0.000049  -0.000070   0.002424   0.595694  -0.031753
    12  H   -0.004394  -0.000156  -0.000037  -0.000049  -0.031753   0.580275
    13  H   -0.006466  -0.000008   0.002099  -0.000264  -0.040330  -0.031126
    14  H   -0.000042   0.002325   0.001879  -0.000313   0.000002  -0.000000
              13         14
     1  O   -0.000044   0.313274
     2  O    0.000017  -0.030822
     3  C   -0.039121   0.000123
     4  C   -0.003168  -0.005021
     5  C    0.402949  -0.000016
     6  H    0.007566   0.000011
     7  H   -0.006466  -0.000042
     8  H   -0.000008   0.002325
     9  H    0.002099   0.001879
    10  H   -0.000264  -0.000313
    11  H   -0.040330   0.000002
    12  H   -0.031126  -0.000000
    13  H    0.593854   0.000001
    14  H    0.000001   0.451220
          Atomic-Atomic Spin Densities.
               1          2          3          4          5          6
     1  O    0.057682  -0.041680  -0.001088   0.016342   0.000066  -0.000045
     2  O   -0.041680   0.553223   0.006045  -0.110576  -0.000426   0.000616
     3  C   -0.001088   0.006045  -0.023831  -0.037785   0.013016   0.005289
     4  C    0.016342  -0.110576  -0.037785   0.768749  -0.019626  -0.005932
     5  C    0.000066  -0.000426   0.013016  -0.019626   0.058730  -0.004456
     6  H   -0.000045   0.000616   0.005289  -0.005932  -0.004456   0.006566
     7  H   -0.000128   0.000430   0.004865  -0.004985  -0.002970   0.001229
     8  H    0.008626  -0.036386  -0.002834   0.058792   0.000402  -0.000934
     9  H   -0.001448   0.002196   0.001694  -0.001222   0.000134  -0.000128
    10  H   -0.000346   0.002775   0.003326  -0.004649  -0.000823   0.000973
    11  H   -0.000001   0.000009   0.000950  -0.000044  -0.000583   0.000098
    12  H   -0.000003   0.000017  -0.003020   0.002471  -0.006734   0.001066
    13  H   -0.000007   0.000022   0.000794   0.000651  -0.001484   0.000050
    14  H    0.000616  -0.001173   0.000009   0.000174   0.000005  -0.000001
               7          8          9         10         11         12
     1  O   -0.000128   0.008626  -0.001448  -0.000346  -0.000001  -0.000003
     2  O    0.000430  -0.036386   0.002196   0.002775   0.000009   0.000017
     3  C    0.004865  -0.002834   0.001694   0.003326   0.000950  -0.003020
     4  C   -0.004985   0.058792  -0.001222  -0.004649  -0.000044   0.002471
     5  C   -0.002970   0.000402   0.000134  -0.000823  -0.000583  -0.006734
     6  H    0.001229  -0.000934  -0.000128   0.000973   0.000098   0.001066
     7  H    0.004380  -0.000205   0.000463  -0.000201  -0.000026   0.000696
     8  H   -0.000205  -0.053887   0.003416   0.001195  -0.000027  -0.000058
     9  H    0.000463   0.003416  -0.043716   0.002836  -0.000003   0.000088
    10  H   -0.000201   0.001195   0.002836  -0.041198  -0.000218   0.000160
    11  H   -0.000026  -0.000027  -0.000003  -0.000218  -0.003010   0.000327
    12  H    0.000696  -0.000058   0.000088   0.000160   0.000327   0.016865
    13  H    0.000147  -0.000076  -0.000102   0.000091   0.000563   0.000659
    14  H   -0.000002   0.000118  -0.000279  -0.000017  -0.000000  -0.000000
              13         14
     1  O   -0.000007   0.000616
     2  O    0.000022  -0.001173
     3  C    0.000794   0.000009
     4  C    0.000651   0.000174
     5  C   -0.001484   0.000005
     6  H    0.000050  -0.000001
     7  H    0.000147  -0.000002
     8  H   -0.000076   0.000118
     9  H   -0.000102  -0.000279
    10  H    0.000091  -0.000017
    11  H    0.000563  -0.000000
    12  H    0.000659  -0.000000
    13  H   -0.002664  -0.000000
    14  H   -0.000000  -0.001433
 Mulliken charges and spin densities:
               1          2
     1  O   -0.248095   0.038585
     2  O   -0.224109   0.375091
     3  C   -0.214654  -0.032571
     4  C   -0.365556   0.662361
     5  C   -0.337196   0.035251
     6  H    0.128249   0.004391
     7  H    0.130937   0.003691
     8  H    0.249573  -0.021861
     9  H    0.129354  -0.036070
    10  H    0.139206  -0.036097
    11  H    0.113045  -0.001965
    12  H    0.117825   0.012535
    13  H    0.114041  -0.001356
    14  H    0.267381  -0.001984
 Sum of Mulliken charges =  -0.00000   1.00000
 Mulliken charges and spin densities with hydrogens summed into heavy atoms:
               1          2
     1  O    0.019286   0.036601
     2  O    0.025464   0.353230
     3  C    0.044533  -0.024489
     4  C   -0.096996   0.590194
     5  C    0.007714   0.044464
 APT charges:
               1
     1  O   -0.545111
     2  O   -0.104778
     3  C   -0.537653
     4  C   -0.657783
     5  C   -1.242728
     6  H    0.356239
     7  H    0.286409
     8  H    0.150991
     9  H    0.256709
    10  H    0.349677
    11  H    0.350674
    12  H    0.520552
    13  H    0.288153
    14  H    0.528649
 Sum of APT charges =  -0.00000
 APT charges with hydrogens summed into heavy atoms:
               1
     1  O   -0.016462
     2  O    0.046213
     3  C    0.104995
     4  C   -0.051397
     5  C   -0.083349
 Electronic spatial extent (au):  <R**2>=            800.6823
 Charge=             -0.0000 electrons
 Dipole moment (field-independent basis, Debye):
    X=             -1.7038    Y=              0.9559    Z=              1.3905  Tot=              2.3980
 Quadrupole moment (field-independent basis, Debye-Ang):
   XX=            -34.5272   YY=            -32.1359   ZZ=            -32.2604
   XY=              3.6760   XZ=              4.3639   YZ=              1.3818
 Traceless Quadrupole moment (field-independent basis, Debye-Ang):
   XX=             -1.5527   YY=              0.8386   ZZ=              0.7141
   XY=              3.6760   XZ=              4.3639   YZ=              1.3818
 Octapole moment (field-independent basis, Debye-Ang**2):
  XXX=             16.2194  YYY=              2.2517  ZZZ=              0.0279  XYY=              7.1281
  XXY=              8.5816  XXZ=              9.6431  XZZ=              7.0432  YZZ=              0.4670
  YYZ=              1.8504  XYZ=              4.7934
 Hexadecapole moment (field-independent basis, Debye-Ang**3):
 XXXX=           -836.1094 YYYY=            -86.6017 ZZZZ=            -80.1273 XXXY=             30.7486
 XXXZ=             37.0938 YYYX=              8.9198 YYYZ=              2.1367 ZZZX=              2.1106
 ZZZY=             -1.8337 XXYY=           -150.8559 XXZZ=           -148.0263 YYZZ=            -27.6671
 XXYZ=             10.9230 YYXZ=              3.8366 ZZXY=              4.8156
 N-N= 1.798018923820D+02 E-N=-9.916407639627D+02  KE= 2.685191899610D+02
  Exact polarizability:   0.000   0.000   0.000   0.000   0.000   0.000
 Approx polarizability:  78.728   1.809  58.313  -2.135  -0.064  53.070
                          Isotropic Fermi Contact Couplings
        Atom                 a.u.       MegaHertz       Gauss      10(-4) cm-1
     1  O(17)              0.00063      -0.38109      -0.13598      -0.12712
     2  O(17)              0.11371     -68.93004     -24.59595     -22.99259
     3  C(13)             -0.00850      -9.55987      -3.41120      -3.18883
     4  C(13)              0.18285     205.55818      73.34827      68.56683
     5  C(13)              0.05025      56.49400      20.15847      18.84437
     6  H(1)               0.00285      12.75866       4.55261       4.25583
     7  H(1)               0.00271      12.09731       4.31662       4.03523
     8  H(1)              -0.03016    -134.80322     -48.10114     -44.96551
     9  H(1)              -0.00786     -35.14664     -12.54120     -11.72366
    10  H(1)              -0.00769     -34.37658     -12.26642     -11.46679
    11  H(1)              -0.00048      -2.15308      -0.76827      -0.71819
    12  H(1)               0.00398      17.80479       6.35319       5.93904
    13  H(1)              -0.00050      -2.21704      -0.79110      -0.73952
    14  H(1)              -0.00101      -4.49841      -1.60514      -1.50051
 --------------------------------------------------------
       Center         ----  Spin Dipole Couplings  ----
                      3XX-RR        3YY-RR        3ZZ-RR
 --------------------------------------------------------
     1   Atom        0.321785     -0.200688     -0.121096
     2   Atom        1.601319     -0.660300     -0.941019
     3   Atom        0.031125     -0.017923     -0.013202
     4   Atom        0.351076     -0.199876     -0.151199
     5   Atom        0.051731     -0.023187     -0.028544
     6   Atom        0.003218     -0.001513     -0.001705
     7   Atom       -0.001355     -0.006941      0.008296
     8   Atom        0.198076     -0.101813     -0.096263
     9   Atom       -0.006459      0.040700     -0.034241
    10   Atom       -0.017934     -0.006763      0.024697
    11   Atom        0.006954     -0.006263     -0.000691
    12   Atom        0.004778     -0.004696     -0.000083
    13   Atom        0.002463      0.003601     -0.006064
    14   Atom       -0.000376      0.001874     -0.001498
 --------------------------------------------------------
                        XY            XZ            YZ
 --------------------------------------------------------
     1   Atom       -0.050349     -0.063065      0.032111
     2   Atom       -0.830017     -0.191163      0.050205
     3   Atom       -0.007449      0.011120      0.000029
     4   Atom       -0.331543     -0.386326      0.178577
     5   Atom       -0.024866     -0.012424      0.003835
     6   Atom        0.007541      0.007324      0.006882
     7   Atom       -0.003256      0.008492     -0.004634
     8   Atom       -0.050694     -0.040306      0.017103
     9   Atom        0.015469     -0.010099      0.023848
    10   Atom       -0.009085     -0.019371     -0.038487
    11   Atom        0.001689     -0.005122     -0.002345
    12   Atom       -0.000475      0.004619      0.000980
    13   Atom       -0.006650      0.000318      0.002263
    14   Atom        0.010021      0.004343      0.011760
 --------------------------------------------------------


 ---------------------------------------------------------------------------------
              Anisotropic Spin Dipole Couplings in Principal Axis System
 ---------------------------------------------------------------------------------

       Atom             a.u.   MegaHertz   Gauss  10(-4) cm-1        Axes

              Baa    -0.2135    15.448     5.512     5.153  0.0551  0.9542 -0.2940
     1 O(17)  Bbb    -0.1226     8.872     3.166     2.959  0.1660  0.2816  0.9451
              Bcc     0.3361   -24.320    -8.678    -8.112  0.9846 -0.1009 -0.1429
 
              Baa    -0.9598    69.451    24.782    23.166  0.1829  0.3532  0.9175
     2 O(17)  Bbb    -0.9272    67.091    23.940    22.379  0.2601  0.8826 -0.3916
              Bcc     1.8870  -136.542   -48.722   -45.546  0.9481 -0.3103 -0.0696
 
              Baa    -0.0197    -2.643    -0.943    -0.881  0.2134  0.9043 -0.3697
     3 C(13)  Bbb    -0.0151    -2.021    -0.721    -0.674 -0.1519  0.4045  0.9018
              Bcc     0.0348     4.664     1.664     1.556  0.9651 -0.1363  0.2237
 
              Baa    -0.3610   -48.447   -17.287   -16.160  0.5268  0.1585  0.8351
     4 C(13)  Bbb    -0.3546   -47.582   -16.978   -15.872  0.2478  0.9111 -0.3293
              Bcc     0.7156    96.029    34.266    32.032  0.8130 -0.3804 -0.4407
 
              Baa    -0.0307    -4.121    -1.471    -1.375  0.2392  0.9310 -0.2758
     5 C(13)  Bbb    -0.0304    -4.080    -1.456    -1.361  0.2125  0.2269  0.9505
              Bcc     0.0611     8.202     2.927     2.736  0.9474 -0.2860 -0.1435
 
              Baa    -0.0085    -4.532    -1.617    -1.512 -0.0219  0.7138 -0.7000
     6 H(1)   Bbb    -0.0063    -3.369    -1.202    -1.124  0.7404 -0.4590 -0.4911
              Bcc     0.0148     7.901     2.819     2.635  0.6718  0.5290  0.5184
 
              Baa    -0.0085    -4.541    -1.620    -1.515  0.3023  0.9470  0.1083
     7 H(1)   Bbb    -0.0062    -3.307    -1.180    -1.103  0.8166 -0.1987 -0.5419
              Bcc     0.0147     7.848     2.800     2.618  0.4917 -0.2523  0.8334
 
              Baa    -0.1171   -62.500   -22.302   -20.848  0.0616  0.8271 -0.5587
     8 H(1)   Bbb    -0.0951   -50.766   -18.115   -16.934  0.2053  0.5373  0.8180
              Bcc     0.2123   113.266    40.416    37.782  0.9768 -0.1651 -0.1367
 
              Baa    -0.0463   -24.713    -8.818    -8.243  0.3433 -0.3045  0.8885
     9 H(1)   Bbb    -0.0040    -2.122    -0.757    -0.708  0.9143 -0.1082 -0.3904
              Bcc     0.0503    26.835     9.575     8.951  0.2150  0.9463  0.2413
 
              Baa    -0.0454   -24.241    -8.650    -8.086  0.5717  0.6423  0.5104
    10 H(1)   Bbb    -0.0069    -3.703    -1.321    -1.235  0.8039 -0.5628 -0.1924
              Bcc     0.0524    27.944     9.971     9.321 -0.1637 -0.5203  0.8381
 
              Baa    -0.0071    -3.800    -1.356    -1.267  0.0168  0.9349  0.3544
    11 H(1)   Bbb    -0.0028    -1.499    -0.535    -0.500  0.4830 -0.3180  0.8159
              Bcc     0.0099     5.299     1.891     1.767  0.8755  0.1575 -0.4569
 
              Baa    -0.0052    -2.775    -0.990    -0.926  0.2120  0.9066 -0.3649
    12 H(1)   Bbb    -0.0024    -1.263    -0.451    -0.421 -0.4723  0.4219  0.7739
              Bcc     0.0076     4.038     1.441     1.347  0.8556  0.0083  0.5176
 
              Baa    -0.0071    -3.784    -1.350    -1.262 -0.2826 -0.3636  0.8877
    13 H(1)   Bbb    -0.0027    -1.467    -0.523    -0.489  0.6918  0.5638  0.4512
              Bcc     0.0098     5.251     1.874     1.751 -0.6645  0.7416  0.0922
 
              Baa    -0.0130    -6.932    -2.474    -2.312 -0.3640  0.7163 -0.5953
    14 H(1)   Bbb    -0.0051    -2.709    -0.966    -0.903  0.7868 -0.1055 -0.6081
              Bcc     0.0181     9.641     3.440     3.216  0.4984  0.6898  0.5252
 

 ---------------------------------------------------------------------------------

 No NMR shielding tensors so no spin-rotation constants.
 Leave Link  601 at Thu Sep  5 19:46:14 2019, MaxMem=   671088640 cpu:             118.7 elap:              59.4
 (Enter /shared/centos7/gaussian/g16/l701.exe)
 SCFChk:  SCF convergence  6.89D-09 required  1.00D-08
 ... and contract with generalized density number  0.
 Compute integral second derivatives.
 Entering OneElI...
 Calculate overlap and kinetic energy integrals
    NBasis = 310  MinDer = 2  MaxDer = 2
 Requested accuracy = 0.1000D-12
 PrmmSu-InSpLW:  IPartL=    0 NPrtUS=   20 NPrtUL=    1 DoSpLW=F IThBeg=    0 IThEnd=   19 NThAct=   20.
 PrsmSu:  NPrtUS=  20 ThrOK=T IAlg=1 NPAlg=1 LenDen=           0 ISkipM=0 DoSpLW=F IThBeg=    0 IThEnd=   19.
 Prism:   IPart=     0 DynPar=F LinDyn=F Incr=           2.
 PRISM was handed    33406245 working-precision words and  5365 shell-pairs
 PRISM was handed    33406245 working-precision words and  5365 shell-pairs
 PRISM was handed    33406245 working-precision words and  5365 shell-pairs
 PRISM was handed    33406245 working-precision words and  5365 shell-pairs
 PRISM was handed    33406245 working-precision words and  5365 shell-pairs
 PRISM was handed    33406245 working-precision words and  5365 shell-pairs
 PRISM was handed    33406245 working-precision words and  5365 shell-pairs
 PRISM was handed    33406245 working-precision words and  5365 shell-pairs
 PRISM was handed    33406245 working-precision words and  5365 shell-pairs
 PRISM was handed    33406245 working-precision words and  5365 shell-pairs
 PRISM was handed    33406245 working-precision words and  5365 shell-pairs
 PRISM was handed    33406245 working-precision words and  5365 shell-pairs
 PRISM was handed    33406245 working-precision words and  5365 shell-pairs
 PRISM was handed    33406245 working-precision words and  5365 shell-pairs
 PRISM was handed    33406245 working-precision words and  5365 shell-pairs
 PRISM was handed    33406245 working-precision words and  5365 shell-pairs
 PRISM was handed    33406245 working-precision words and  5365 shell-pairs
 PRISM was handed    33406245 working-precision words and  5365 shell-pairs
 PRISM was handed    33406245 working-precision words and  5365 shell-pairs
 PRISM was handed    33406245 working-precision words and  5365 shell-pairs
 IPart= 16 NShTot=         251 NBatch=          27 AvBLen=         9.3
 IPart=  2 NShTot=         294 NBatch=          55 AvBLen=         5.3
 IPart=  4 NShTot=         284 NBatch=          48 AvBLen=         5.9
 IPart=  0 NShTot=         315 NBatch=          72 AvBLen=         4.4
 IPart=  3 NShTot=         289 NBatch=          53 AvBLen=         5.5
 IPart= 10 NShTot=         262 NBatch=          34 AvBLen=         7.7
 IPart= 14 NShTot=         255 NBatch=          30 AvBLen=         8.5
 IPart=  7 NShTot=         268 NBatch=          37 AvBLen=         7.2
 IPart= 11 NShTot=         259 NBatch=          31 AvBLen=         8.4
 IPart=  8 NShTot=         265 NBatch=          35 AvBLen=         7.6
 IPart=  5 NShTot=         277 NBatch=          42 AvBLen=         6.6
 IPart= 15 NShTot=         253 NBatch=          29 AvBLen=         8.7
 IPart= 12 NShTot=         257 NBatch=          31 AvBLen=         8.3
 IPart=  9 NShTot=         265 NBatch=          35 AvBLen=         7.6
 IPart=  1 NShTot=         302 NBatch=          60 AvBLen=         5.0
 IPart= 18 NShTot=         248 NBatch=          27 AvBLen=         9.2
 IPart= 13 NShTot=         256 NBatch=          30 AvBLen=         8.5
 IPart=  6 NShTot=         270 NBatch=          38 AvBLen=         7.1
 IPart= 19 NShTot=         247 NBatch=          27 AvBLen=         9.1
 IPart= 17 NShTot=         248 NBatch=          27 AvBLen=         9.2
 PrSmSu:  NxtVal=             41.
 Entering OneElI...
 Calculate potential energy integrals
    NBasis = 310  MinDer = 2  MaxDer = 2
 Requested accuracy = 0.1000D-12
 PrmmSu-InSpLW:  IPartL=    0 NPrtUS=   20 NPrtUL=    1 DoSpLW=F IThBeg=    0 IThEnd=   19 NThAct=   20.
 PrsmSu:  NPrtUS=  20 ThrOK=T IAlg=1 NPAlg=1 LenDen=           0 ISkipM=0 DoSpLW=F IThBeg=    0 IThEnd=   19.
 Prism:   IPart=     0 DynPar=F LinDyn=F Incr=          34.
 PRISM was handed    33430472 working-precision words and  4896 shell-pairs
 PRISM was handed    33430472 working-precision words and  4896 shell-pairs
 PRISM was handed    33430472 working-precision words and  4896 shell-pairs
 PRISM was handed    33430472 working-precision words and  4896 shell-pairs
 PRISM was handed    33430472 working-precision words and  4896 shell-pairs
 PRISM was handed    33430472 working-precision words and  4896 shell-pairs
 PRISM was handed    33430472 working-precision words and  4896 shell-pairs
 PRISM was handed    33430472 working-precision words and  4896 shell-pairs
 PRISM was handed    33430472 working-precision words and  4896 shell-pairs
 PRISM was handed    33430472 working-precision words and  4896 shell-pairs
 PRISM was handed    33430472 working-precision words and  4896 shell-pairs
 PRISM was handed    33430472 working-precision words and  4896 shell-pairs
 PRISM was handed    33430472 working-precision words and  4896 shell-pairs
 PRISM was handed    33430472 working-precision words and  4896 shell-pairs
 PRISM was handed    33430472 working-precision words and  4896 shell-pairs
 PRISM was handed    33430472 working-precision words and  4896 shell-pairs
 PRISM was handed    33430472 working-precision words and  4896 shell-pairs
 PRISM was handed    33430472 working-precision words and  4896 shell-pairs
 PRISM was handed    33430472 working-precision words and  4896 shell-pairs
 PRISM was handed    33430472 working-precision words and  4896 shell-pairs
 IPart= 18 NShTot=        3136 NBatch=         224 AvBLen=        14.0
 IPart=  3 NShTot=        3682 NBatch=         263 AvBLen=        14.0
 IPart=  6 NShTot=        3472 NBatch=         248 AvBLen=        14.0
 IPart= 12 NShTot=        3290 NBatch=         235 AvBLen=        14.0
 IPart= 15 NShTot=        3234 NBatch=         231 AvBLen=        14.0
 IPart=  4 NShTot=        3612 NBatch=         258 AvBLen=        14.0
 IPart= 11 NShTot=        3332 NBatch=         238 AvBLen=        14.0
 IPart=  2 NShTot=        3780 NBatch=         270 AvBLen=        14.0
 IPart=  8 NShTot=        3416 NBatch=         244 AvBLen=        14.0
 IPart= 16 NShTot=        3206 NBatch=         229 AvBLen=        14.0
 IPart= 13 NShTot=        3248 NBatch=         232 AvBLen=        14.0
 IPart= 17 NShTot=        3164 NBatch=         226 AvBLen=        14.0
 IPart= 14 NShTot=        3248 NBatch=         232 AvBLen=        14.0
 IPart=  5 NShTot=        3514 NBatch=         251 AvBLen=        14.0
 IPart=  7 NShTot=        3444 NBatch=         246 AvBLen=        14.0
 IPart=  9 NShTot=        3360 NBatch=         240 AvBLen=        14.0
 IPart=  1 NShTot=        3906 NBatch=         279 AvBLen=        14.0
 IPart= 19 NShTot=        3136 NBatch=         224 AvBLen=        14.0
 IPart=  0 NShTot=        4018 NBatch=         287 AvBLen=        14.0
 IPart= 10 NShTot=        3346 NBatch=         239 AvBLen=        14.0
 PrSmSu:  NxtVal=            681.
 Polarizability after L701:
                1             2             3 
      1  0.000000D+00
      2  0.000000D+00  0.000000D+00
      3  0.000000D+00  0.000000D+00  0.000000D+00
 Dipole Derivatives after L701:
                 1             2             3             4             5 
      1  -0.615242D+00 -0.892106D+00 -0.111059D+01  0.123432D+00  0.319771D+00
      2  -0.876695D-01 -0.437026D+00 -0.451636D+00 -0.155537D+00 -0.225071D+00
      3  -0.895200D-01 -0.143106D+00 -0.583066D+00 -0.580328D-01  0.315045D-01
                 6             7             8             9            10 
      1  -0.491328D-01  0.279774D-03 -0.479426D+00 -0.677398D+00 -0.209071D+00
      2   0.802304D-02 -0.135017D+00 -0.825274D+00 -0.289182D-01 -0.109694D+00
      3  -0.212695D+00  0.948610D-01 -0.765791D-02 -0.787966D+00 -0.109471D+00
                11            12            13            14            15 
      1  -0.112070D+00  0.133329D+00 -0.190825D+01  0.393479D+00  0.394849D+00
      2  -0.910386D+00  0.210113D+00 -0.158645D-01 -0.947817D+00  0.224504D-01
      3   0.113952D+00 -0.853892D+00 -0.108228D+00  0.629250D-01 -0.872120D+00
                16            17            18            19            20 
      1   0.219010D+00  0.543756D+00  0.172401D+00  0.533477D-01 -0.187562D+00
      2   0.702326D-01  0.642721D+00  0.130160D+00  0.291422D-01  0.218786D+00
      3   0.367002D-01  0.255188D+00  0.206986D+00 -0.118354D+00 -0.272679D+00
                21            22            23            24            25 
      1   0.358605D+00 -0.113637D-01  0.708629D-01  0.314713D-02  0.850834D-01
      2  -0.125437D+00  0.116352D+00  0.235344D+00  0.518448D-01  0.102869D+00
      3   0.587095D+00  0.808086D-01 -0.296331D-02  0.228992D+00  0.113479D+00
                26            27            28            29            30 
      1  -0.407773D-02  0.219916D-01  0.117859D+00  0.111042D+00 -0.129205D+00
      2   0.507112D+00  0.771918D-01  0.423975D-01  0.324178D+00 -0.284317D+00
      3   0.241124D+00  0.177933D+00 -0.266762D-01 -0.335280D+00  0.606993D+00
                31            32            33            34            35 
      1   0.402652D+00  0.457284D+00 -0.881860D+00  0.113654D+01  0.103492D+00
      2   0.268358D-01  0.199690D+00 -0.130258D+00 -0.461297D-01  0.101382D+00
      3  -0.112748D+00 -0.208801D+00  0.449680D+00  0.222869D+00  0.365332D-01
                36            37            38            39            40 
      1   0.864617D+00  0.744667D-01 -0.829297D+00 -0.255439D+00  0.531253D+00
      2  -0.259797D-01  0.569912D-01  0.654321D+00  0.135617D+00  0.105090D+00
      3   0.323733D+00 -0.593818D-03  0.121292D+00  0.135671D+00  0.749052D-01
                41            42 
      1   0.504850D+00  0.115469D+01
      2   0.462041D+00  0.411144D+00
      3   0.107968D+00  0.592654D+00
 Hessian after L701:
                1             2             3             4             5 
      1  0.957811D+01
      2 -0.362786D+01  0.366580D+01
      3  0.368323D-01  0.212891D+00  0.834262D+01
      4 -0.511026D+01  0.287513D+01 -0.633168D+00  0.365609D+01
      5  0.285749D+01  0.170588D+01 -0.169560D+01 -0.257580D+01  0.185902D+01
[...]
 Leave Link 9999 at Fri Sep  6 11:28:55 2019, MaxMem=   671088640 cpu:               2.3 elap:               1.2
 Job cpu time:       1 days 11 hours  3 minutes 43.6 seconds.
 Elapsed time:       0 days 17 hours 32 minutes 40.0 seconds.
 File lengths (MBytes):  RWF=   1392 Int=      0 D2E=      0 Chk=     32 Scr=     32
 Normal termination of Gaussian 16 at Fri Sep  6 11:28:55 2019.
 (Enter /shared/centos7/gaussian/g16/l1.exe)
 Link1:  Proceeding to internal job step number  2.
 ----------------------------------------------------------------------
 #P Geom=AllCheck Guess=TCheck SCRF=Check Test GenChk UM062X/CC-pVTZ Fr
 eq
 ----------------------------------------------------------------------
 1/5=1,6=900,10=4,11=1,29=7,30=1,38=1,40=1/1,3;
 2/12=2,40=1/2;
 3/5=16,6=1,11=2,14=-4,25=1,30=1,70=2,71=2,74=-55,116=2,140=1/1,2,3;
 4/5=101/1;
 5/5=2,7=900,38=6,98=1/2;
 8/6=4,10=90,11=11/1;
 11/6=1,8=1,9=11,15=111,16=1/1,2,10;
 10/6=1/2;
 6/7=2,8=2,9=2,10=2,28=1/1;
 7/8=1,10=1,25=1/1,2,3,16;
 1/5=1,6=900,10=4,11=1,30=1/3;
 99//99;
 Leave Link    1 at Fri Sep  6 11:28:56 2019, MaxMem=   671088640 cpu:               0.3 elap:               0.1
 (Enter /shared/centos7/gaussian/g16/l101.exe)
 Structure from the checkpoint file:  "/scratch/harms.n/gauss_scrdir/Gau-4919.chk"
 ------------------------------
 Gaussian input prepared by ASE
 ------------------------------
 Charge =  0 Multiplicity = 2
 Redundant internal coordinates found in file.  (old form).
 O,0,-1.949829558,0.6784142945,-0.7438627712
 O,0,-2.0049610768,0.0832939414,0.5094287112
 C,0,1.062632165,-0.1885709919,-0.2734782225
 C,0,0.4367101531,-0.0042447971,1.0778875136
 C,0,2.5933667695,-0.2027654435,-0.1915620714
 H,0,0.7409317229,0.6164492844,-0.9361544619
 H,0,0.7161291628,-1.1258313135,-0.7146012278
 H,0,-0.8867332849,0.0446060668,0.8560397294
 H,0,0.5293384666,-0.8432304132,1.7637610585
 H,0,0.6210351546,0.955513662,1.5548956711
 H,0,2.964982919,0.7339700619,0.2236340977
 H,0,3.0339212448,-0.335215034,-1.1793242607
 H,0,2.9402062398,-1.0141746895,0.4482277961
 H,0,-1.9585430783,-0.0770386284,-1.344540562
 Recover connectivity data from disk.
 ITRead=  0  0  0  0  0  0  0  0  0  0  0  0  0  0
 MicOpt= -1 -1 -1 -1 -1 -1 -1 -1 -1 -1 -1 -1 -1 -1
 NAtoms=     14 NQM=       14 NQMF=       0 NMMI=      0 NMMIF=      0
                NMic=       0 NMicF=      0.
                    Isotopes and Nuclear Properties:
 (Nuclear quadrupole moments (NQMom) in fm**2, nuclear magnetic moments (NMagM)
  in nuclear magnetons)

  Atom         1           2           3           4           5           6           7           8           9          10
 IAtWgt=          16          16          12          12          12           1           1           1           1           1
 AtmWgt=  15.9949146  15.9949146  12.0000000  12.0000000  12.0000000   1.0078250   1.0078250   1.0078250   1.0078250   1.0078250
 NucSpn=           0           0           0           0           0           1           1           1           1           1
 AtZEff=   5.6000000   5.6000000   3.6000000   3.6000000   3.6000000   1.0000000   1.0000000   1.0000000   1.0000000   1.0000000
 NQMom=    0.0000000   0.0000000   0.0000000   0.0000000   0.0000000   0.0000000   0.0000000   0.0000000   0.0000000   0.0000000
 NMagM=    0.0000000   0.0000000   0.0000000   0.0000000   0.0000000   2.7928460   2.7928460   2.7928460   2.7928460   2.7928460
 AtZNuc=   8.0000000   8.0000000   6.0000000   6.0000000   6.0000000   1.0000000   1.0000000   1.0000000   1.0000000   1.0000000

  Atom        11          12          13          14
 IAtWgt=           1           1           1           1
 AtmWgt=   1.0078250   1.0078250   1.0078250   1.0078250
 NucSpn=           1           1           1           1
 AtZEff=   1.0000000   1.0000000   1.0000000   1.0000000
 NQMom=    0.0000000   0.0000000   0.0000000   0.0000000
 NMagM=    2.7928460   2.7928460   2.7928460   2.7928460
 AtZNuc=   1.0000000   1.0000000   1.0000000   1.0000000
 Leave Link  101 at Fri Sep  6 11:28:57 2019, MaxMem=   671088640 cpu:               2.8 elap:               1.4
 (Enter /shared/centos7/gaussian/g16/l103.exe)

 GradGradGradGradGradGradGradGradGradGradGradGradGradGradGradGradGradGrad
 Berny optimization.
 Initialization pass.
                           ----------------------------
                           !    Initial Parameters    !
                           ! (Angstroms and Degrees)  !
 --------------------------                            --------------------------
 ! Name  Definition              Value          Derivative Info.                !
 --------------------------------------------------------------------------------
 ! R1    R(1,2)                  1.3885         calculate D2E/DX2 analytically  !
 ! R2    R(1,14)                 0.9652         calculate D2E/DX2 analytically  !
 ! R3    R(2,8)                  1.1714         calculate D2E/DX2 analytically  !
 ! R4    R(3,4)                  1.5006         calculate D2E/DX2 analytically  !
 ! R5    R(3,5)                  1.533          calculate D2E/DX2 analytically  !
 ! R6    R(3,6)                  1.0912         calculate D2E/DX2 analytically  !
 ! R7    R(3,7)                  1.0923         calculate D2E/DX2 analytically  !
 ! R8    R(4,8)                  1.3428         calculate D2E/DX2 analytically  !
 ! R9    R(4,9)                  1.0876         calculate D2E/DX2 analytically  !
 ! R10   R(4,10)                 1.0875         calculate D2E/DX2 analytically  !
 ! R11   R(5,11)                 1.0899         calculate D2E/DX2 analytically  !
 ! R12   R(5,12)                 1.0896         calculate D2E/DX2 analytically  !
 ! R13   R(5,13)                 1.09           calculate D2E/DX2 analytically  !
 ! A1    A(2,1,14)             103.0564         calculate D2E/DX2 analytically  !
 ! A2    A(1,2,8)              104.0839         calculate D2E/DX2 analytically  !
 ! A3    A(4,3,5)              111.6851         calculate D2E/DX2 analytically  !
 ! A4    A(4,3,6)              109.4691         calculate D2E/DX2 analytically  !
 ! A5    A(4,3,7)              109.6794         calculate D2E/DX2 analytically  !
 ! A6    A(5,3,6)              109.4914         calculate D2E/DX2 analytically  !
 ! A7    A(5,3,7)              109.2926         calculate D2E/DX2 analytically  !
 ! A8    A(6,3,7)              107.1128         calculate D2E/DX2 analytically  !
 ! A9    A(3,4,8)              105.4727         calculate D2E/DX2 analytically  !
 ! A10   A(3,4,9)              115.9518         calculate D2E/DX2 analytically  !
 ! A11   A(3,4,10)             115.6392         calculate D2E/DX2 analytically  !
 ! A12   A(8,4,9)              102.4854         calculate D2E/DX2 analytically  !
 ! A13   A(8,4,10)             101.9708         calculate D2E/DX2 analytically  !
 ! A14   A(9,4,10)             112.9388         calculate D2E/DX2 analytically  !
 ! A15   A(3,5,11)             110.6616         calculate D2E/DX2 analytically  !
 ! A16   A(3,5,12)             110.8795         calculate D2E/DX2 analytically  !
 ! A17   A(3,5,13)             110.855          calculate D2E/DX2 analytically  !
 ! A18   A(11,5,12)            108.1761         calculate D2E/DX2 analytically  !
 ! A19   A(11,5,13)            107.9208         calculate D2E/DX2 analytically  !
 ! A20   A(12,5,13)            108.2376         calculate D2E/DX2 analytically  !
 ! A21   A(2,8,4)              172.2966         calculate D2E/DX2 analytically  !
 ! D1    D(14,1,2,8)            96.8044         calculate D2E/DX2 analytically  !
 ! D2    D(1,2,8,4)            -27.2724         calculate D2E/DX2 analytically  !
 ! D3    D(5,3,4,8)            177.5385         calculate D2E/DX2 analytically  !
 ! D4    D(5,3,4,9)            -69.8675         calculate D2E/DX2 analytically  !
 ! D5    D(5,3,4,10)            65.7257         calculate D2E/DX2 analytically  !
 ! D6    D(6,3,4,8)             56.1105         calculate D2E/DX2 analytically  !
 ! D7    D(6,3,4,9)            168.7045         calculate D2E/DX2 analytically  !
 ! D8    D(6,3,4,10)           -55.7024         calculate D2E/DX2 analytically  !
 ! D9    D(7,3,4,8)            -61.1407         calculate D2E/DX2 analytically  !
 ! D10   D(7,3,4,9)             51.4533         calculate D2E/DX2 analytically  !
 ! D11   D(7,3,4,10)          -172.9536         calculate D2E/DX2 analytically  !
 ! D12   D(4,3,5,11)           -59.8443         calculate D2E/DX2 analytically  !
 ! D13   D(4,3,5,12)          -179.888          calculate D2E/DX2 analytically  !
 ! D14   D(4,3,5,13)            59.8631         calculate D2E/DX2 analytically  !
 ! D15   D(6,3,5,11)            61.5708         calculate D2E/DX2 analytically  !
 ! D16   D(6,3,5,12)           -58.4728         calculate D2E/DX2 analytically  !
 ! D17   D(6,3,5,13)          -178.7217         calculate D2E/DX2 analytically  !
 ! D18   D(7,3,5,11)           178.611          calculate D2E/DX2 analytically  !
 ! D19   D(7,3,5,12)            58.5673         calculate D2E/DX2 analytically  !
 ! D20   D(7,3,5,13)           -61.6815         calculate D2E/DX2 analytically  !
 ! D21   D(3,4,8,2)             -5.4522         calculate D2E/DX2 analytically  !
 ! D22   D(9,4,8,2)           -127.2122         calculate D2E/DX2 analytically  !
 ! D23   D(10,4,8,2)           115.7223         calculate D2E/DX2 analytically  !
 --------------------------------------------------------------------------------
 Trust Radius=3.00D-01 FncErr=1.00D-07 GrdErr=1.00D-07 EigMax=2.50D+02 EigMin=1.00D-04
 Number of steps in this run=      2 maximum allowed number of steps=      2.
 Search for a saddle point of order  1.
 GradGradGradGradGradGradGradGradGradGradGradGradGradGradGradGradGradGrad

 Leave Link  103 at Fri Sep  6 11:28:58 2019, MaxMem=   671088640 cpu:               1.5 elap:               0.8
 (Enter /shared/centos7/gaussian/g16/l202.exe)
                          Input orientation:                          
 ---------------------------------------------------------------------
 Center     Atomic      Atomic             Coordinates (Angstroms)
 Number     Number       Type             X           Y           Z
 ---------------------------------------------------------------------
      1          8           0       -1.949830    0.678414   -0.743863
      2          8           0       -2.004961    0.083294    0.509429
      3          6           0        1.062632   -0.188571   -0.273478
      4          6           0        0.436710   -0.004245    1.077888
      5          6           0        2.593367   -0.202765   -0.191562
      6          1           0        0.740932    0.616449   -0.936154
      7          1           0        0.716129   -1.125831   -0.714601
      8          1           0       -0.886733    0.044606    0.856040
      9          1           0        0.529338   -0.843230    1.763761
     10          1           0        0.621035    0.955514    1.554896
     11          1           0        2.964983    0.733970    0.223634
     12          1           0        3.033921   -0.335215   -1.179324
     13          1           0        2.940206   -1.014175    0.448228
     14          1           0       -1.958543   -0.077039   -1.344541
 ---------------------------------------------------------------------
                    Distance matrix (angstroms):
                    1          2          3          4          5
     1  O    0.000000
     2  O    1.388505   0.000000
     3  C    3.169834   3.177575   0.000000
     4  C    3.079021   2.508499   1.500648   0.000000
     5  C    4.660702   4.660240   1.532991   2.510394   0.000000
     6  H    2.698335   3.148633   1.091187   2.129361   2.158019
     7  H    3.219238   3.219404   1.092296   2.132850   2.156303
     8  H    2.022764   1.171354   2.264996   1.342798   3.642768
     9  H    3.840554   2.975646   2.205295   1.087612   2.914395
    10  H    3.459829   2.957976   2.201565   1.087497   2.877815
    11  H    5.009443   5.020498   2.171898   2.768912   1.089936
    12  H    5.104394   5.330795   2.174406   3.456885   1.089635
    13  H    5.310215   5.065853   2.174343   2.771989   1.089960
    14  H    0.965194   1.861468   3.207353   3.407447   4.697345
                    6          7          8          9         10
     6  H    0.000000
     7  H    1.756486   0.000000
     8  H    2.487621   2.531009   0.000000
     9  H    3.076521   2.501406   1.901965   0.000000
    10  H    2.516877   3.080853   1.895130   1.813150   0.000000
    11  H    2.511040   3.065369   3.963695   3.285105   2.704705
    12  H    2.494513   2.492629   4.433791   3.897790   3.868328
    13  H    3.067940   2.512202   3.991590   2.751751   3.237737
    14  H    2.816890   2.941201   2.450740   4.054398   4.015858
                   11         12         13         14
    11  H    0.000000
    12  H    1.765277   0.000000
    13  H    1.762687   1.765983   0.000000
    14  H    5.230489   5.001865   5.299999   0.000000
 Stoichiometry    C3H9O2(2)
 Framework group  C1[X(C3H9O2)]
 Deg. of freedom    36
 Full point group                 C1      NOp   1
 RotChk:  IX=0 Diff= 9.61D-16
 Largest Abelian subgroup         C1      NOp   1
 Largest concise Abelian subgroup C1      NOp   1
                         Standard orientation:                         
 ---------------------------------------------------------------------
 Center     Atomic      Atomic             Coordinates (Angstroms)
 Number     Number       Type             X           Y           Z
 ---------------------------------------------------------------------
      1          8           0        2.069414   -0.793717    0.244052
      2          8           0        2.016523    0.526856   -0.181666
      3          6           0       -1.041346   -0.336795   -0.158746
      4          6           0       -0.427544    1.003643    0.121285
      5          6           0       -2.561920   -0.315081    0.034759
      6          1           0       -0.600712   -1.084016    0.503214
      7          1           0       -0.812169   -0.639583   -1.182908
      8          1           0        0.895414    0.830518   -0.030099
      9          1           0       -0.646220    1.787386   -0.600398
     10          1           0       -0.493854    1.345590    1.151491
     11          1           0       -2.815459   -0.038922    1.058191
     12          1           0       -2.993467   -1.294470   -0.169862
     13          1           0       -3.027788    0.409277   -0.633288
     14          1           0        1.991618   -1.291495   -0.579212
 ---------------------------------------------------------------------
 Rotational constants (GHZ):          10.6927478           1.8961309           1.6877554
 Leave Link  202 at Fri Sep  6 11:29:00 2019, MaxMem=   671088640 cpu:               4.4 elap:               2.2
 (Enter /shared/centos7/gaussian/g16/l301.exe)
 Standard basis: CC-pVTZ (5D, 7F)
 Ernie: Thresh=  0.10000D-02 Tol=  0.10000D-05 Strict=F.
 Ernie:  15 primitive shells out of 202 were deleted.
 There are   310 symmetry adapted cartesian basis functions of A   symmetry.
 There are   276 symmetry adapted basis functions of A   symmetry.
   276 basis functions,   413 primitive gaussians,   310 cartesian basis functions
    22 alpha electrons       21 beta electrons
       nuclear repulsion energy       183.5931537569 Hartrees.
 IExCor= 4336 DFT=T Ex+Corr=M062X ExCW=0 ScaHFX=  0.540000
 ScaDFX=  1.000000  1.000000  1.000000  1.000000 ScalE2=  1.000000  1.000000
 IRadAn=      5 IRanWt=     -1 IRanGd=            0 ICorTp=0 IEmpDi=  4
 NAtoms=   14 NActive=   14 NUniq=   14 SFac= 1.00D+00 NAtFMM=   60 NAOKFM=F Big=F
 Integral buffers will be    131072 words long.
 Raffenetti 2 integral format.
 Two-electron integral symmetry is turned on.
 Leave Link  301 at Fri Sep  6 11:29:02 2019, MaxMem=   671088640 cpu:               2.0 elap:               1.0
 (Enter /shared/centos7/gaussian/g16/l302.exe)
 NPDir=0 NMtPBC=     1 NCelOv=     1 NCel=       1 NClECP=     1 NCelD=      1
         NCelK=      1 NCelE2=     1 NClLst=     1 CellRange=     0.0.
 One-electron integrals computed using PRISM.
 One-electron integral symmetry used in STVInt
 NBasis=   276 RedAO= T EigKep=  8.14D-04  NBF=   276
 NBsUse=   276 1.00D-06 EigRej= -1.00D+00 NBFU=   276
 Precomputing XC quadrature grid using
 IXCGrd= 4 IRadAn=           5 IRanWt=          -1 IRanGd=           0 AccXCQ= 0.00D+00.
 Generated NRdTot=       0 NPtTot=           0 NUsed=           0 NTot=          32
 NSgBfM=   310   310   310   310   310 MxSgAt=    14 MxSgA2=    14.
 Leave Link  302 at Fri Sep  6 11:30:20 2019, MaxMem=   671088640 cpu:             156.1 elap:              78.1
 (Enter /shared/centos7/gaussian/g16/l303.exe)
 DipDrv:  MaxL=1.
 Leave Link  303 at Fri Sep  6 11:30:25 2019, MaxMem=   671088640 cpu:               9.9 elap:               5.0
 (Enter /shared/centos7/gaussian/g16/l401.exe)
 Initial guess from the checkpoint file:  "/scratch/harms.n/gauss_scrdir/Gau-4919.chk"
 B after Tr=    -0.000000   -0.000000    0.000000
         Rot=    1.000000    0.000000    0.000000    0.000000 Ang=   0.00 deg.
 Guess basis will be translated and rotated to current coordinates.
 JPrj=2 DoOrth=T DoCkMO=T.
 Initial guess <Sx>= 0.0000 <Sy>= 0.0000 <Sz>= 0.5000 <S**2>= 0.7598 S= 0.5049
 Leave Link  401 at Fri Sep  6 11:31:53 2019, MaxMem=   671088640 cpu:             177.0 elap:              88.5
 (Enter /shared/centos7/gaussian/g16/l502.exe)
 Integral symmetry usage will be decided dynamically.
 UHF open shell SCF:
 Using DIIS extrapolation, IDIIS=  1040.
 NGot=   671088640 LenX=   670887394 LenY=   670790853
 Requested convergence on RMS density matrix=1.00D-08 within 900 cycles.
 Requested convergence on MAX density matrix=1.00D-06.
 Requested convergence on             energy=1.00D-06.
 No special actions if energy rises.
 Fock matrices will be formed incrementally for  20 cycles.

 Cycle   1  Pass 1  IDiag  1:
 FoFJK:  IHMeth= 1 ICntrl=       0 DoSepK=F KAlg= 0 I1Cent=           0 FoldK=F
 IRaf= 960000000 NMat=       1 IRICut=       1 DoRegI=T DoRafI=F ISym2E= 0 IDoP0=0 IntGTp=1.
 FoFCou: FMM=F IPFlag=           0 FMFlag=      100000 FMFlg1=           0
         NFxFlg=           0 DoJE=F BraDBF=F KetDBF=F FulRan=T
         wScrn=  0.000000 ICntrl=         0 IOpCl=  1 I1Cent=           0 NGrid=           0
         NMat0=    1 NMatS0=      1 NMatT0=    0 NMatD0=    1 NMtDS0=    0 NMtDT0=    0
 Symmetry not used in FoFCou.
 E= -269.983400492522    
 DIIS: error= 3.94D-09 at cycle   1 NSaved=   1.
 NSaved= 1 IEnMin= 1 EnMin= -269.983400492522     IErMin= 1 ErrMin= 3.94D-09
 ErrMax= 3.94D-09  0.00D+00 EMaxC= 1.00D-01 BMatC= 1.87D-14 BMatP= 1.87D-14
 IDIUse=1 WtCom= 1.00D+00 WtEn= 0.00D+00
 Coeff-Com:  0.100D+01
 Coeff:      0.100D+01
 Gap=     0.350 Goal=   None    Shift=    0.000
 Gap=     0.276 Goal=   None    Shift=    0.000
 RMSDP=4.16D-10 MaxDP=1.37D-08              OVMax= 9.92D-08

 SCF Done:  E(UM062X) =  -269.983400493     A.U. after    1 cycles
            NFock=  1  Conv=0.42D-09     -V/T= 2.0055
 <Sx>= 0.0000 <Sy>= 0.0000 <Sz>= 0.5000 <S**2>= 0.7598 S= 0.5049
 <L.S>= 0.000000000000E+00
 KE= 2.685102103836D+02 PE=-9.991703043952D+02 EE= 2.770835397621D+02
 Annihilation of the first spin contaminant:
 S**2 before annihilation     0.7598,   after     0.7500
 Leave Link  502 at Fri Sep  6 11:33:46 2019, MaxMem=   671088640 cpu:             225.6 elap:             112.8
 (Enter /shared/centos7/gaussian/g16/l801.exe)
 DoSCS=F DFT=T ScalE2(SS,OS)=  1.000000  1.000000
 Range of M.O.s used for correlation:     1   276
 NBasis=   276 NAE=    22 NBE=    21 NFC=     0 NFV=     0
 NROrb=    276 NOA=    22 NOB=    21 NVA=   254 NVB=   255

 **** Warning!!: The largest alpha MO coefficient is  0.12259674D+02


 **** Warning!!: The largest beta MO coefficient is  0.12572765D+02

 Leave Link  801 at Fri Sep  6 11:33:47 2019, MaxMem=   671088640 cpu:               1.9 elap:               1.0
