 Entering Gaussian System, Link 0=g16
 Input=med/ts/CCC+[O]O_[CH2]CC+OO/conformers/CCC+[O]O_[CH2]CC+OO_forward_shell_5.com
 Output=med/ts/CCC+[O]O_[CH2]CC+OO/conformers/CCC+[O]O_[CH2]CC+OO_forward_shell_5.log
 Initial command:
 /shared/centos7/gaussian/g16/l1.exe "/scratch/harms.n/gauss_scrdir/Gau-35265.inp" -scrdir="/scratch/harms.n/gauss_scrdir/"
 Entering Link 1 = /shared/centos7/gaussian/g16/l1.exe PID=     35266.
  
 Copyright (c) 1988,1990,1992,1993,1995,1998,2003,2009,2016,
            Gaussian, Inc.  All Rights Reserved.
  
 This is part of the Gaussian(R) 16 program.  It is based on
 the Gaussian(R) 09 system (copyright 2009, Gaussian, Inc.),
 the Gaussian(R) 03 system (copyright 2003, Gaussian, Inc.),
 the Gaussian(R) 98 system (copyright 1998, Gaussian, Inc.),
 the Gaussian(R) 94 system (copyright 1995, Gaussian, Inc.),
 the Gaussian 92(TM) system (copyright 1992, Gaussian, Inc.),
 the Gaussian 90(TM) system (copyright 1990, Gaussian, Inc.),
 the Gaussian 88(TM) system (copyright 1988, Gaussian, Inc.),
 the Gaussian 86(TM) system (copyright 1986, Carnegie Mellon
 University), and the Gaussian 82(TM) system (copyright 1983,
 Carnegie Mellon University). Gaussian is a federally registered
 trademark of Gaussian, Inc.
  
 This software contains proprietary and confidential information,
 including trade secrets, belonging to Gaussian, Inc.
  
 This software is provided under written license and may be
 used, copied, transmitted, or stored only in accord with that
 written license.
  
 The following legend is applicable only to US Government
 contracts under FAR:
  
                    RESTRICTED RIGHTS LEGEND
  
 Use, reproduction and disclosure by the US Government is
 subject to restrictions as set forth in subparagraphs (a)
 and (c) of the Commercial Computer Software - Restricted
 Rights clause in FAR 52.227-19.
  
 Gaussian, Inc.
 340 Quinnipiac St., Bldg. 40, Wallingford CT 06492
  
  
 ---------------------------------------------------------------
 Warning -- This program may not be used in any manner that
 competes with the business of Gaussian, Inc. or will provide
 assistance to any competitor of Gaussian, Inc.  The licensee
 of this program is prohibited from giving any competitor of
 Gaussian, Inc. access to this program.  By using this program,
 the user acknowledges that Gaussian, Inc. is engaged in the
 business of creating and licensing software in the field of
 computational chemistry and represents and warrants to the
 licensee that it is not a competitor of Gaussian, Inc. and that
 it will not use this program in any manner prohibited above.
 ---------------------------------------------------------------
  

 Cite this work as:
 Gaussian 16, Revision A.03,
 M. J. Frisch, G. W. Trucks, H. B. Schlegel, G. E. Scuseria, 
 M. A. Robb, J. R. Cheeseman, G. Scalmani, V. Barone, 
 G. A. Petersson, H. Nakatsuji, X. Li, M. Caricato, A. V. Marenich, 
 J. Bloino, B. G. Janesko, R. Gomperts, B. Mennucci, H. P. Hratchian, 
 J. V. Ortiz, A. F. Izmaylov, J. L. Sonnenberg, D. Williams-Young, 
 F. Ding, F. Lipparini, F. Egidi, J. Goings, B. Peng, A. Petrone, 
 T. Henderson, D. Ranasinghe, V. G. Zakrzewski, J. Gao, N. Rega, 
 G. Zheng, W. Liang, M. Hada, M. Ehara, K. Toyota, R. Fukuda, 
 J. Hasegawa, M. Ishida, T. Nakajima, Y. Honda, O. Kitao, H. Nakai, 
 T. Vreven, K. Throssell, J. A. Montgomery, Jr., J. E. Peralta, 
 F. Ogliaro, M. J. Bearpark, J. J. Heyd, E. N. Brothers, K. N. Kudin, 
 V. N. Staroverov, T. A. Keith, R. Kobayashi, J. Normand, 
 K. Raghavachari, A. P. Rendell, J. C. Burant, S. S. Iyengar, 
 J. Tomasi, M. Cossi, J. M. Millam, M. Klene, C. Adamo, R. Cammi, 
 J. W. Ochterski, R. L. Martin, K. Morokuma, O. Farkas, 
 J. B. Foresman, and D. J. Fox, Gaussian, Inc., Wallingford CT, 2016.
 
 ******************************************
 Gaussian 16:  EM64L-G16RevA.03 25-Dec-2016
                 5-Sep-2019 
 ******************************************
 %nprocshared=20
 Will use up to   20 processors via shared memory.
 %mem=5GB
 ----------------------------------------------------------------------
 #p m062x/cc-pVTZ Opt=(ModRedun,Loose,maxcycles=900) Int(Grid=SG1) scf=
 (maxcycle=900)
 ----------------------------------------------------------------------
 1/6=900,7=-1,18=120,19=15,26=2,38=1/1,3;
 2/9=110,12=2,17=6,18=5,40=1/2;
 3/5=16,6=1,11=2,25=1,30=1,71=1,74=-55,75=1/1,2,3;
 4//1;
 5/5=2,7=900,38=5/2;
 6/7=2,8=2,9=2,10=2,28=1/1;
 7//1,2,3,16;
 1/6=900,7=-1,18=20,19=15,26=2/3(2);
 2/9=110/2;
 99//99;
 2/9=110/2;
 3/5=16,6=1,11=2,25=1,30=1,71=1,74=-55,75=1/1,2,3;
 4/5=5,16=3,69=1/1;
 5/5=2,7=900,38=5/2;
 7//1,2,3,16;
 1/6=900,7=-1,18=20,19=15,26=2/3(-5);
 2/9=110/2;
 6/7=2,8=2,9=2,10=2,19=2,28=1/1;
 99/9=1/99;
 Leave Link    1 at Thu Sep  5 11:07:24 2019, MaxMem=   671088640 cpu:               4.3 elap:               2.2
 (Enter /shared/centos7/gaussian/g16/l101.exe)
 ------------------------------
 Gaussian input prepared by ASE
 ------------------------------
 Symbolic Z-matrix:
 Charge =  0 Multiplicity = 2
 O                     3.42552   0.51656  -0.65128 
 O                     3.62318  -0.78223  -0.57359 
 C                     0.24684  -1.43502   0.04371 
 C                     1.64937  -1.48655   0.63876 
 C                    -0.44268  -2.79338  -0.03817 
 H                     0.28181  -1.00569  -0.98047 
 H                    -0.37645  -0.73649   0.64192 
 H                     2.57375  -1.22896  -0.33722 
 H                     1.83074  -0.68449   1.38575 
 H                     1.92848  -2.47554   1.06083 
 H                     0.10494  -3.47048  -0.72803 
 H                    -1.47696  -2.67226  -0.42361 
 H                    -0.49907  -3.28142   0.9582 
 H                     3.10737   0.64834  -1.57971 
 
 Add virtual bond connecting atoms H8         and O2         Dist= 2.20D+00.
 Add virtual bond connecting atoms H8         and C4         Dist= 2.59D+00.
 The following ModRedundant input section has been read:
 B       4       8 F                                                           
 B       2       8 F                                                           
 A       2       8       4 F                                                   
 
 ITRead=  0  0  0  0  0  0  0  0  0  0  0  0  0  0
 MicOpt= -1 -1 -1 -1 -1 -1 -1 -1 -1 -1 -1 -1 -1 -1
 NAtoms=     14 NQM=       14 NQMF=       0 NMMI=      0 NMMIF=      0
                NMic=       0 NMicF=      0.
                    Isotopes and Nuclear Properties:
 (Nuclear quadrupole moments (NQMom) in fm**2, nuclear magnetic moments (NMagM)
  in nuclear magnetons)

  Atom         1           2           3           4           5           6           7           8           9          10
 IAtWgt=          16          16          12          12          12           1           1           1           1           1
 AtmWgt=  15.9949146  15.9949146  12.0000000  12.0000000  12.0000000   1.0078250   1.0078250   1.0078250   1.0078250   1.0078250
 NucSpn=           0           0           0           0           0           1           1           1           1           1
 AtZEff=  -0.0000000  -0.0000000  -0.0000000  -0.0000000  -0.0000000  -0.0000000  -0.0000000  -0.0000000  -0.0000000  -0.0000000
 NQMom=    0.0000000   0.0000000   0.0000000   0.0000000   0.0000000   0.0000000   0.0000000   0.0000000   0.0000000   0.0000000
 NMagM=    0.0000000   0.0000000   0.0000000   0.0000000   0.0000000   2.7928460   2.7928460   2.7928460   2.7928460   2.7928460
 AtZNuc=   8.0000000   8.0000000   6.0000000   6.0000000   6.0000000   1.0000000   1.0000000   1.0000000   1.0000000   1.0000000

  Atom        11          12          13          14
 IAtWgt=           1           1           1           1
 AtmWgt=   1.0078250   1.0078250   1.0078250   1.0078250
 NucSpn=           1           1           1           1
 AtZEff=  -0.0000000  -0.0000000  -0.0000000  -0.0000000
 NQMom=    0.0000000   0.0000000   0.0000000   0.0000000
 NMagM=    2.7928460   2.7928460   2.7928460   2.7928460
 AtZNuc=   1.0000000   1.0000000   1.0000000   1.0000000
 Leave Link  101 at Thu Sep  5 11:07:26 2019, MaxMem=   671088640 cpu:               4.0 elap:               2.0
 (Enter /shared/centos7/gaussian/g16/l103.exe)

 GradGradGradGradGradGradGradGradGradGradGradGradGradGradGradGradGradGrad
 Berny optimization.
 Initialization pass.
                           ----------------------------
                           !    Initial Parameters    !
                           ! (Angstroms and Degrees)  !
 --------------------------                            --------------------------
 ! Name  Definition              Value          Derivative Info.                !
 --------------------------------------------------------------------------------
 ! R1    R(1,2)                  1.316          estimate D2E/DX2                !
 ! R2    R(1,14)                 0.9902         estimate D2E/DX2                !
 ! R3    R(2,8)                  1.1648         Frozen                          !
 ! R4    R(3,4)                  1.5244         estimate D2E/DX2                !
 ! R5    R(3,5)                  1.5255         estimate D2E/DX2                !
 ! R6    R(3,6)                  1.1111         estimate D2E/DX2                !
 ! R7    R(3,7)                  1.111          estimate D2E/DX2                !
 ! R8    R(4,8)                  1.3687         Frozen                          !
 ! R9    R(4,9)                  1.1109         estimate D2E/DX2                !
 ! R10   R(4,10)                 1.1109         estimate D2E/DX2                !
 ! R11   R(5,11)                 1.111          estimate D2E/DX2                !
 ! R12   R(5,12)                 1.1104         estimate D2E/DX2                !
 ! R13   R(5,13)                 1.1109         estimate D2E/DX2                !
 ! A1    A(2,1,14)             103.5883         estimate D2E/DX2                !
 ! A2    A(1,2,8)              104.783          estimate D2E/DX2                !
 ! A3    A(4,3,5)              113.9977         estimate D2E/DX2                !
 ! A4    A(4,3,6)              110.1164         estimate D2E/DX2                !
 ! A5    A(4,3,7)              109.1015         estimate D2E/DX2                !
 ! A6    A(5,3,6)              107.9872         estimate D2E/DX2                !
 ! A7    A(5,3,7)              109.5827         estimate D2E/DX2                !
 ! A8    A(6,3,7)              105.7263         estimate D2E/DX2                !
 ! A9    A(3,4,8)              109.6738         estimate D2E/DX2                !
 ! A10   A(3,4,9)              112.8465         estimate D2E/DX2                !
 ! A11   A(3,4,10)             114.1767         estimate D2E/DX2                !
 ! A12   A(8,4,9)              103.4929         estimate D2E/DX2                !
 ! A13   A(8,4,10)             105.5919         estimate D2E/DX2                !
 ! A14   A(9,4,10)             110.2577         estimate D2E/DX2                !
 ! A15   A(3,5,11)             110.6834         estimate D2E/DX2                !
 ! A16   A(3,5,12)             110.0302         estimate D2E/DX2                !
 ! A17   A(3,5,13)             111.4672         estimate D2E/DX2                !
 ! A18   A(11,5,12)            108.0634         estimate D2E/DX2                !
 ! A19   A(11,5,13)            108.3127         estimate D2E/DX2                !
 ! A20   A(12,5,13)            108.1785         estimate D2E/DX2                !
 ! A21   A(2,8,4)              145.6251         Frozen                          !
 ! D1    D(14,1,2,8)           -83.3946         estimate D2E/DX2                !
 ! D2    D(1,2,8,4)            -81.1268         estimate D2E/DX2                !
 ! D3    D(5,3,4,8)            110.2428         estimate D2E/DX2                !
 ! D4    D(5,3,4,9)           -134.9529         estimate D2E/DX2                !
 ! D5    D(5,3,4,10)            -8.0124         estimate D2E/DX2                !
 ! D6    D(6,3,4,8)            -11.2936         estimate D2E/DX2                !
 ! D7    D(6,3,4,9)            103.5107         estimate D2E/DX2                !
 ! D8    D(6,3,4,10)          -129.5489         estimate D2E/DX2                !
 ! D9    D(7,3,4,8)           -126.9081         estimate D2E/DX2                !
 ! D10   D(7,3,4,9)            -12.1038         estimate D2E/DX2                !
 ! D11   D(7,3,4,10)           114.8366         estimate D2E/DX2                !
 ! D12   D(4,3,5,11)           -63.9468         estimate D2E/DX2                !
 ! D13   D(4,3,5,12)           176.6859         estimate D2E/DX2                !
 ! D14   D(4,3,5,13)            56.6738         estimate D2E/DX2                !
 ! D15   D(6,3,5,11)            58.7609         estimate D2E/DX2                !
 ! D16   D(6,3,5,12)           -60.6065         estimate D2E/DX2                !
 ! D17   D(6,3,5,13)           179.3814         estimate D2E/DX2                !
 ! D18   D(7,3,5,11)           173.467          estimate D2E/DX2                !
 ! D19   D(7,3,5,12)            54.0997         estimate D2E/DX2                !
 ! D20   D(7,3,5,13)           -65.9124         estimate D2E/DX2                !
 ! D21   D(3,4,8,2)            149.6689         estimate D2E/DX2                !
 ! D22   D(9,4,8,2)             29.0165         estimate D2E/DX2                !
 ! D23   D(10,4,8,2)           -86.8727         estimate D2E/DX2                !
 --------------------------------------------------------------------------------
 Trust Radius=3.00D-01 FncErr=1.00D-05 GrdErr=1.00D-04 EigMax=2.50D+02 EigMin=1.00D-04
 Number of steps in this run=    100 maximum allowed number of steps=    100.
 GradGradGradGradGradGradGradGradGradGradGradGradGradGradGradGradGradGrad

 Leave Link  103 at Thu Sep  5 11:07:27 2019, MaxMem=   671088640 cpu:               1.5 elap:               0.8
 (Enter /shared/centos7/gaussian/g16/l202.exe)
                          Input orientation:                          
 ---------------------------------------------------------------------
 Center     Atomic      Atomic             Coordinates (Angstroms)
 Number     Number       Type             X           Y           Z
 ---------------------------------------------------------------------
      1          8           0        3.425521    0.516559   -0.651279
      2          8           0        3.623184   -0.782226   -0.573593
      3          6           0        0.246844   -1.435019    0.043711
      4          6           0        1.649368   -1.486552    0.638757
      5          6           0       -0.442685   -2.793380   -0.038171
      6          1           0        0.281809   -1.005694   -0.980474
      7          1           0       -0.376445   -0.736491    0.641918
      8          1           0        2.573749   -1.228957   -0.337219
      9          1           0        1.830737   -0.684490    1.385746
     10          1           0        1.928475   -2.475541    1.060834
     11          1           0        0.104944   -3.470480   -0.728033
     12          1           0       -1.476959   -2.672264   -0.423612
     13          1           0       -0.499068   -3.281418    0.958203
     14          1           0        3.107368    0.648345   -1.579708
 ---------------------------------------------------------------------
                    Distance matrix (angstroms):
                    1          2          3          4          5
     1  O    0.000000
     2  O    1.316034   0.000000
     3  C    3.794161   3.493834   0.000000
     4  C    2.971761   2.421119   1.524404   0.000000
     5  C    5.127827   4.567571   1.525549   2.557873   0.000000
     6  H    3.508354   3.373466   1.111080   2.173327   2.146777
     7  H    4.206833   4.180502   1.110983   2.160213   2.167418
     8  H    1.967479   1.164798   2.366866   1.368709   3.411118
     9  H    2.852249   2.657335   2.207502   1.110941   3.412243
    10  H    3.758343   2.900122   2.223760   1.110923   2.632724
    11  H    5.189277   4.430415   2.181473   2.861700   1.110977
    12  H    5.852754   5.441158   2.172708   3.508341   1.110386
    13  H    5.693633   5.058194   2.191317   2.817688   1.110910
    14  H    0.990238   1.823421   3.893391   3.406631   5.179255
                    6          7          8          9         10
     6  H    0.000000
     7  H    1.771419   0.000000
     8  H    2.390944   3.147202   0.000000
     9  H    2.846286   2.329729   1.953745   0.000000
    10  H    3.006477   2.917610   1.981137   1.822905   0.000000
    11  H    2.483984   3.095673   3.357404   3.899764   2.741389
    12  H    2.486125   2.468542   4.301027   4.262143   3.720116
    13  H    3.089848   2.567436   3.915727   3.514942   2.559871
    14  H    3.328469   4.357791   2.313610   3.492872   4.256867
                   11         12         13         14
    11  H    0.000000
    12  H    1.797842   0.000000
    13  H    1.801101   1.799097   0.000000
    14  H    5.167651   5.777460   5.906810   0.000000
 Stoichiometry    C3H9O2(2)
 Framework group  C1[X(C3H9O2)]
 Deg. of freedom    36
 Full point group                 C1      NOp   1
 Largest Abelian subgroup         C1      NOp   1
 Largest concise Abelian subgroup C1      NOp   1
                         Standard orientation:                         
 ---------------------------------------------------------------------
 Center     Atomic      Atomic             Coordinates (Angstroms)
 Number     Number       Type             X           Y           Z
 ---------------------------------------------------------------------
      1          8           0        2.437083    0.508333    0.094491
      2          8           0        1.897066   -0.581244   -0.408648
      3          6           0       -1.355386    0.538334    0.203704
      4          6           0       -0.312940   -0.509227    0.577509
      5          6           0       -2.638739   -0.044237   -0.380176
      6          1           0       -0.933190    1.249942   -0.537823
      7          1           0       -1.597308    1.146887    1.101156
      8          1           0        0.749116   -0.429673   -0.282184
      9          1           0        0.145036   -0.325968    1.572931
     10          1           0       -0.675571   -1.556992    0.507956
     11          1           0       -2.433557   -0.558405   -1.343401
     12          1           0       -3.371777    0.767334   -0.572432
     13          1           0       -3.105540   -0.775739    0.313454
     14          1           0        2.391991    1.156683   -0.652623
 ---------------------------------------------------------------------
 Rotational constants (GHZ):          12.4162032           1.6215930           1.5764297
 Leave Link  202 at Thu Sep  5 11:07:28 2019, MaxMem=   671088640 cpu:               3.9 elap:               2.0
 (Enter /shared/centos7/gaussian/g16/l301.exe)
 Standard basis: CC-pVTZ (5D, 7F)
 Ernie: Thresh=  0.10000D-02 Tol=  0.10000D-05 Strict=F.
 Ernie:  15 primitive shells out of 202 were deleted.
 There are   310 symmetry adapted cartesian basis functions of A   symmetry.
 There are   276 symmetry adapted basis functions of A   symmetry.
   276 basis functions,   413 primitive gaussians,   310 cartesian basis functions
    22 alpha electrons       21 beta electrons
       nuclear repulsion energy       181.2028957701 Hartrees.
 IExCor= 4336 DFT=T Ex+Corr=M062X ExCW=0 ScaHFX=  0.540000
 ScaDFX=  1.000000  1.000000  1.000000  1.000000 ScalE2=  1.000000  1.000000
 IRadAn=      1 IRanWt=     -1 IRanGd=            0 ICorTp=0 IEmpDi=  4
 NAtoms=   14 NActive=   14 NUniq=   14 SFac= 1.00D+00 NAtFMM=   60 NAOKFM=F Big=F
 Integral buffers will be    131072 words long.
 Raffenetti 2 integral format.
 Two-electron integral symmetry is turned on.
 Leave Link  301 at Thu Sep  5 11:07:29 2019, MaxMem=   671088640 cpu:               1.7 elap:               0.9
 (Enter /shared/centos7/gaussian/g16/l302.exe)
 NPDir=0 NMtPBC=     1 NCelOv=     1 NCel=       1 NClECP=     1 NCelD=      1
         NCelK=      1 NCelE2=     1 NClLst=     1 CellRange=     0.0.
 One-electron integrals computed using PRISM.
 One-electron integral symmetry used in STVInt
 NBasis=   276 RedAO= T EigKep=  7.15D-04  NBF=   276
 NBsUse=   276 1.00D-06 EigRej= -1.00D+00 NBFU=   276
 Precomputing XC quadrature grid using
 IXCGrd= 4 IRadAn=           1 IRanWt=          -1 IRanGd=           0 AccXCQ= 0.00D+00.
 Generated NRdTot=       0 NPtTot=           0 NUsed=           0 NTot=          32
 NSgBfM=   310   310   310   310   310 MxSgAt=    14 MxSgA2=    14.
 Leave Link  302 at Thu Sep  5 11:08:23 2019, MaxMem=   671088640 cpu:             106.3 elap:              53.2
 (Enter /shared/centos7/gaussian/g16/l303.exe)
 DipDrv:  MaxL=1.
 Leave Link  303 at Thu Sep  5 11:08:26 2019, MaxMem=   671088640 cpu:               7.3 elap:               3.7
 (Enter /shared/centos7/gaussian/g16/l401.exe)
 ExpMin= 1.03D-01 ExpMax= 1.53D+04 ExpMxC= 5.22D+02 IAcc=1 IRadAn=         1 AccDes= 0.00D+00
 Harris functional with IExCor= 1009 and IRadAn=       1 diagonalized for initial guess.
 HarFok:  IExCor= 1009 AccDes= 0.00D+00 IRadAn=         1 IDoV= 1 UseB2=F ITyADJ=14
 ICtDFT=  3500011 ScaDFX=  1.000000  1.000000  1.000000  1.000000
 FoFCou: FMM=F IPFlag=           0 FMFlag=      100000 FMFlg1=           0
         NFxFlg=           0 DoJE=T BraDBF=F KetDBF=T FulRan=T
         wScrn=  0.000000 ICntrl=       500 IOpCl=  0 I1Cent=   200000004 NGrid=           0
         NMat0=    1 NMatS0=      1 NMatT0=    0 NMatD0=    1 NMtDS0=    0 NMtDT0=    0
 Petite list used in FoFCou.
 Harris En= -269.898913398456    
 JPrj=0 DoOrth=F DoCkMO=F.
 Initial guess <Sx>= 0.0000 <Sy>= 0.0000 <Sz>= 0.5000 <S**2>= 0.7500 S= 0.5000
 Leave Link  401 at Thu Sep  5 11:08:51 2019, MaxMem=   671088640 cpu:              49.4 elap:              24.7
 (Enter /shared/centos7/gaussian/g16/l502.exe)
 Integral symmetry usage will be decided dynamically.
 UHF open shell SCF:
 Using DIIS extrapolation, IDIIS=  1040.
 NGot=   671088640 LenX=   670887394 LenY=   670790853
 Requested convergence on RMS density matrix=1.00D-08 within 900 cycles.
 Requested convergence on MAX density matrix=1.00D-06.
 Requested convergence on             energy=1.00D-06.
 No special actions if energy rises.
 Fock matrices will be formed incrementally for  20 cycles.

 Cycle   1  Pass 1  IDiag  1:
 FoFJK:  IHMeth= 1 ICntrl=       0 DoSepK=F KAlg= 0 I1Cent=           0 FoldK=F
 IRaf= 950000000 NMat=       1 IRICut=       1 DoRegI=T DoRafI=F ISym2E= 0 IDoP0=0 IntGTp=1.
 FoFCou: FMM=F IPFlag=           0 FMFlag=      100000 FMFlg1=           0
         NFxFlg=           0 DoJE=F BraDBF=F KetDBF=F FulRan=T
         wScrn=  0.000000 ICntrl=         0 IOpCl=  1 I1Cent=           0 NGrid=           0
         NMat0=    1 NMatS0=      1 NMatT0=    0 NMatD0=    1 NMtDS0=    0 NMtDT0=    0
 Symmetry not used in FoFCou.
 E= -269.766647710901    
 DIIS: error= 2.59D-02 at cycle   1 NSaved=   1.
 NSaved= 1 IEnMin= 1 EnMin= -269.766647710901     IErMin= 1 ErrMin= 2.59D-02
 ErrMax= 2.59D-02  0.00D+00 EMaxC= 1.00D-01 BMatC= 8.82D-01 BMatP= 8.82D-01
 IDIUse=3 WtCom= 7.41D-01 WtEn= 2.59D-01
 Coeff-Com:  0.100D+01
 Coeff-En:   0.100D+01
 Coeff:      0.100D+01
 Gap=     0.330 Goal=   None    Shift=    0.000
 Gap=     0.339 Goal=   None    Shift=    0.000
 GapD=    0.330 DampG=1.000 DampE=0.500 DampFc=0.5000 IDamp=-1.
 Damping current iteration by 5.00D-01
 RMSDP=2.13D-03 MaxDP=1.01D-01              OVMax= 2.37D-01

 Cycle   2  Pass 1  IDiag  1:
 RMSU=  1.07D-03    CP:  9.98D-01
 E= -269.864439150779     Delta-E=       -0.097791439878 Rises=F Damp=T
 DIIS: error= 4.40D-03 at cycle   2 NSaved=   2.
 NSaved= 2 IEnMin= 2 EnMin= -269.864439150779     IErMin= 2 ErrMin= 4.40D-03
 ErrMax= 4.40D-03  0.00D+00 EMaxC= 1.00D-01 BMatC= 7.22D-02 BMatP= 8.82D-01
 IDIUse=3 WtCom= 9.56D-01 WtEn= 4.40D-02
 Coeff-Com: -0.922D-01 0.109D+01
 Coeff-En:   0.000D+00 0.100D+01
 Coeff:     -0.882D-01 0.109D+01
 Gap=     0.346 Goal=   None    Shift=    0.000
 Gap=     0.336 Goal=   None    Shift=    0.000
 RMSDP=5.46D-04 MaxDP=2.24D-02 DE=-9.78D-02 OVMax= 1.23D-01

 Cycle   3  Pass 1  IDiag  1:
 RMSU=  5.41D-04    CP:  1.00D+00  9.64D-01
 E= -269.960219300100     Delta-E=       -0.095780149321 Rises=F Damp=F
 DIIS: error= 4.47D-03 at cycle   3 NSaved=   3.
 NSaved= 3 IEnMin= 3 EnMin= -269.960219300100     IErMin= 2 ErrMin= 4.40D-03
 ErrMax= 4.47D-03  0.00D+00 EMaxC= 1.00D-01 BMatC= 2.05D-02 BMatP= 7.22D-02
 IDIUse=3 WtCom= 9.55D-01 WtEn= 4.47D-02
 Coeff-Com: -0.807D-01 0.365D+00 0.716D+00
 Coeff-En:   0.000D+00 0.000D+00 0.100D+01
 Coeff:     -0.771D-01 0.349D+00 0.729D+00
 Gap=     0.333 Goal=   None    Shift=    0.000
 Gap=     0.265 Goal=   None    Shift=    0.000
 RMSDP=2.39D-04 MaxDP=7.30D-03 DE=-9.58D-02 OVMax= 6.78D-02

 Cycle   4  Pass 1  IDiag  1:
 RMSU=  2.08D-04    CP:  1.00D+00  1.03D+00  8.35D-01
 E= -269.964429521884     Delta-E=       -0.004210221784 Rises=F Damp=F
 DIIS: error= 1.96D-03 at cycle   4 NSaved=   4.
 NSaved= 4 IEnMin= 4 EnMin= -269.964429521884     IErMin= 4 ErrMin= 1.96D-03
 ErrMax= 1.96D-03  0.00D+00 EMaxC= 1.00D-01 BMatC= 6.54D-03 BMatP= 2.05D-02
 IDIUse=3 WtCom= 9.80D-01 WtEn= 1.96D-02
 Coeff-Com: -0.285D-01 0.681D-01 0.383D+00 0.578D+00
 Coeff-En:   0.000D+00 0.000D+00 0.718D-01 0.928D+00
 Coeff:     -0.280D-01 0.667D-01 0.377D+00 0.584D+00
 Gap=     0.333 Goal=   None    Shift=    0.000
 Gap=     0.269 Goal=   None    Shift=    0.000
 RMSDP=1.04D-04 MaxDP=4.01D-03 DE=-4.21D-03 OVMax= 1.08D-02

 Cycle   5  Pass 1  IDiag  1:
 RMSU=  6.85D-05    CP:  1.00D+00  1.03D+00  9.53D-01  7.96D-01
 E= -269.965783898222     Delta-E=       -0.001354376338 Rises=F Damp=F
 DIIS: error= 4.20D-04 at cycle   5 NSaved=   5.
 NSaved= 5 IEnMin= 5 EnMin= -269.965783898222     IErMin= 5 ErrMin= 4.20D-04
 ErrMax= 4.20D-04  0.00D+00 EMaxC= 1.00D-01 BMatC= 2.63D-04 BMatP= 6.54D-03
 IDIUse=3 WtCom= 9.96D-01 WtEn= 4.20D-03
 Coeff-Com:  0.505D-02-0.253D-01 0.917D-02 0.755D-01 0.936D+00
 Coeff-En:   0.000D+00 0.000D+00 0.000D+00 0.000D+00 0.100D+01
 Coeff:      0.503D-02-0.252D-01 0.913D-02 0.752D-01 0.936D+00
 Gap=     0.335 Goal=   None    Shift=    0.000
 Gap=     0.271 Goal=   None    Shift=    0.000
 RMSDP=5.04D-05 MaxDP=1.79D-03 DE=-1.35D-03 OVMax= 1.47D-02

 Cycle   6  Pass 1  IDiag  1:
 RMSU=  2.48D-05    CP:  1.00D+00  1.02D+00  9.83D-01  9.40D-01  1.39D+00
 E= -269.965981741530     Delta-E=       -0.000197843308 Rises=F Damp=F
 DIIS: error= 3.56D-04 at cycle   6 NSaved=   6.
 NSaved= 6 IEnMin= 6 EnMin= -269.965981741530     IErMin= 6 ErrMin= 3.56D-04
 ErrMax= 3.56D-04  0.00D+00 EMaxC= 1.00D-01 BMatC= 1.08D-04 BMatP= 2.63D-04
 IDIUse=3 WtCom= 9.96D-01 WtEn= 3.56D-03
 Coeff-Com:  0.772D-02-0.201D-01-0.709D-01-0.137D+00 0.266D+00 0.955D+00
 Coeff-En:   0.000D+00 0.000D+00 0.000D+00 0.000D+00 0.000D+00 0.100D+01
 Coeff:      0.769D-02-0.200D-01-0.707D-01-0.137D+00 0.265D+00 0.955D+00
 Gap=     0.336 Goal=   None    Shift=    0.000
 Gap=     0.274 Goal=   None    Shift=    0.000
 RMSDP=3.74D-05 MaxDP=1.31D-03 DE=-1.98D-04 OVMax= 9.83D-03

 Cycle   7  Pass 1  IDiag  1:
 RMSU=  1.41D-05    CP:  1.00D+00  1.02D+00  1.01D+00  1.01D+00  1.80D+00
                    CP:  1.32D+00
 E= -269.966056675017     Delta-E=       -0.000074933487 Rises=F Damp=F
 DIIS: error= 1.37D-04 at cycle   7 NSaved=   7.
 NSaved= 7 IEnMin= 7 EnMin= -269.966056675017     IErMin= 7 ErrMin= 1.37D-04
 ErrMax= 1.37D-04  0.00D+00 EMaxC= 1.00D-01 BMatC= 3.97D-05 BMatP= 1.08D-04
 IDIUse=3 WtCom= 9.99D-01 WtEn= 1.37D-03
 Coeff-Com:  0.277D-02-0.435D-02-0.376D-01-0.103D+00-0.943D-01 0.514D+00
 Coeff-Com:  0.723D+00
 Coeff-En:   0.000D+00 0.000D+00 0.000D+00 0.000D+00 0.000D+00 0.000D+00
 Coeff-En:   0.100D+01
 Coeff:      0.277D-02-0.435D-02-0.376D-01-0.103D+00-0.942D-01 0.513D+00
 Coeff:      0.724D+00
 Gap=     0.337 Goal=   None    Shift=    0.000
 Gap=     0.274 Goal=   None    Shift=    0.000
 RMSDP=1.90D-05 MaxDP=6.31D-04 DE=-7.49D-05 OVMax= 5.33D-03

 Cycle   8  Pass 1  IDiag  1:
 RMSU=  6.25D-06    CP:  1.00D+00  1.01D+00  1.02D+00  1.04D+00  1.99D+00
                    CP:  1.64D+00  1.11D+00
 E= -269.966076238455     Delta-E=       -0.000019563438 Rises=F Damp=F
 DIIS: error= 6.39D-05 at cycle   8 NSaved=   8.
 NSaved= 8 IEnMin= 8 EnMin= -269.966076238455     IErMin= 8 ErrMin= 6.39D-05
 ErrMax= 6.39D-05  0.00D+00 EMaxC= 1.00D-01 BMatC= 4.63D-06 BMatP= 3.97D-05
 IDIUse=1 WtCom= 1.00D+00 WtEn= 0.00D+00
 Coeff-Com: -0.926D-03 0.320D-02 0.969D-02 0.359D-02-0.417D-01-0.773D-01
 Coeff-Com:  0.141D+00 0.963D+00
 Coeff:     -0.926D-03 0.320D-02 0.969D-02 0.359D-02-0.417D-01-0.773D-01
 Coeff:      0.141D+00 0.963D+00
 Gap=     0.336 Goal=   None    Shift=    0.000
 Gap=     0.274 Goal=   None    Shift=    0.000
 RMSDP=7.71D-06 MaxDP=3.42D-04 DE=-1.96D-05 OVMax= 2.49D-03

 Cycle   9  Pass 1  IDiag  1:
 RMSU=  3.42D-06    CP:  1.00D+00  1.01D+00  1.02D+00  1.04D+00  2.05D+00
                    CP:  1.76D+00  1.38D+00  1.40D+00
 E= -269.966080120978     Delta-E=       -0.000003882522 Rises=F Damp=F
 DIIS: error= 2.87D-05 at cycle   9 NSaved=   9.
 NSaved= 9 IEnMin= 9 EnMin= -269.966080120978     IErMin= 9 ErrMin= 2.87D-05
 ErrMax= 2.87D-05  0.00D+00 EMaxC= 1.00D-01 BMatC= 1.81D-06 BMatP= 4.63D-06
 IDIUse=1 WtCom= 1.00D+00 WtEn= 0.00D+00
 Coeff-Com: -0.110D-02 0.221D-02 0.158D-01 0.303D-01 0.148D-01-0.208D+00
 Coeff-Com: -0.168D+00 0.413D+00 0.901D+00
 Coeff:     -0.110D-02 0.221D-02 0.158D-01 0.303D-01 0.148D-01-0.208D+00
 Coeff:     -0.168D+00 0.413D+00 0.901D+00
 Gap=     0.337 Goal=   None    Shift=    0.000
 Gap=     0.274 Goal=   None    Shift=    0.000
 RMSDP=6.32D-06 MaxDP=2.85D-04 DE=-3.88D-06 OVMax= 1.92D-03

 Cycle  10  Pass 1  IDiag  1:
 RMSU=  1.65D-06    CP:  1.00D+00  1.01D+00  1.02D+00  1.05D+00  2.10D+00
                    CP:  1.84D+00  1.56D+00  1.88D+00  1.34D+00
 E= -269.966081991109     Delta-E=       -0.000001870131 Rises=F Damp=F
 DIIS: error= 1.62D-05 at cycle  10 NSaved=  10.
 NSaved=10 IEnMin=10 EnMin= -269.966081991109     IErMin=10 ErrMin= 1.62D-05
 ErrMax= 1.62D-05  0.00D+00 EMaxC= 1.00D-01 BMatC= 2.21D-07 BMatP= 1.81D-06
 IDIUse=1 WtCom= 1.00D+00 WtEn= 0.00D+00
 Coeff-Com:  0.369D-03-0.933D-03-0.306D-02-0.466D-02 0.101D-01 0.288D-01
 Coeff-Com: -0.101D-01-0.239D+00-0.104D+00 0.132D+01
 Coeff:      0.369D-03-0.933D-03-0.306D-02-0.466D-02 0.101D-01 0.288D-01
 Coeff:     -0.101D-01-0.239D+00-0.104D+00 0.132D+01
 Gap=     0.337 Goal=   None    Shift=    0.000
 Gap=     0.274 Goal=   None    Shift=    0.000
 RMSDP=3.65D-06 MaxDP=1.86D-04 DE=-1.87D-06 OVMax= 1.07D-03

 Cycle  11  Pass 1  IDiag  1:
 RMSU=  8.23D-07    CP:  1.00D+00  1.01D+00  1.02D+00  1.05D+00  2.13D+00
                    CP:  1.88D+00  1.65D+00  2.15D+00  1.81D+00  1.70D+00
 E= -269.966082466316     Delta-E=       -0.000000475207 Rises=F Damp=F
 DIIS: error= 6.78D-06 at cycle  11 NSaved=  11.
 NSaved=11 IEnMin=11 EnMin= -269.966082466316     IErMin=11 ErrMin= 6.78D-06
 ErrMax= 6.78D-06  0.00D+00 EMaxC= 1.00D-01 BMatC= 3.92D-08 BMatP= 2.21D-07
 IDIUse=1 WtCom= 1.00D+00 WtEn= 0.00D+00
 Coeff-Com:  0.201D-03-0.420D-03-0.308D-02-0.556D-02-0.180D-02 0.387D-01
 Coeff-Com:  0.318D-01-0.945D-01-0.167D+00 0.707D-01 0.113D+01
 Coeff:      0.201D-03-0.420D-03-0.308D-02-0.556D-02-0.180D-02 0.387D-01
 Coeff:      0.318D-01-0.945D-01-0.167D+00 0.707D-01 0.113D+01
 Gap=     0.337 Goal=   None    Shift=    0.000
 Gap=     0.274 Goal=   None    Shift=    0.000
 RMSDP=1.43D-06 MaxDP=7.32D-05 DE=-4.75D-07 OVMax= 4.56D-04

 Cycle  12  Pass 1  IDiag  1:
 RMSU=  3.56D-07    CP:  1.00D+00  1.01D+00  1.02D+00  1.05D+00  2.13D+00
                    CP:  1.89D+00  1.68D+00  2.25D+00  1.99D+00  2.14D+00
                    CP:  1.53D+00
 E= -269.966082548496     Delta-E=       -0.000000082180 Rises=F Damp=F
 DIIS: error= 2.67D-06 at cycle  12 NSaved=  12.
 NSaved=12 IEnMin=12 EnMin= -269.966082548496     IErMin=12 ErrMin= 2.67D-06
 ErrMax= 2.67D-06  0.00D+00 EMaxC= 1.00D-01 BMatC= 8.41D-09 BMatP= 3.92D-08
 IDIUse=1 WtCom= 1.00D+00 WtEn= 0.00D+00
 Coeff-Com: -0.123D-03 0.286D-03 0.937D-03 0.185D-02-0.215D-02-0.104D-01
 Coeff-Com: -0.991D-03 0.575D-01 0.564D-01-0.295D+00-0.232D+00 0.142D+01
 Coeff:     -0.123D-03 0.286D-03 0.937D-03 0.185D-02-0.215D-02-0.104D-01
 Coeff:     -0.991D-03 0.575D-01 0.564D-01-0.295D+00-0.232D+00 0.142D+01
 Gap=     0.337 Goal=   None    Shift=    0.000
 Gap=     0.274 Goal=   None    Shift=    0.000
 RMSDP=7.73D-07 MaxDP=3.40D-05 DE=-8.22D-08 OVMax= 2.74D-04

 Cycle  13  Pass 1  IDiag  1:
 RMSU=  1.32D-07    CP:  1.00D+00  1.01D+00  1.02D+00  1.05D+00  2.13D+00
                    CP:  1.90D+00  1.69D+00  2.30D+00  2.08D+00  2.36D+00
                    CP:  2.03D+00  1.74D+00
 E= -269.966082566027     Delta-E=       -0.000000017531 Rises=F Damp=F
 DIIS: error= 7.71D-07 at cycle  13 NSaved=  13.
 NSaved=13 IEnMin=13 EnMin= -269.966082566027     IErMin=13 ErrMin= 7.71D-07
 ErrMax= 7.71D-07  0.00D+00 EMaxC= 1.00D-01 BMatC= 7.59D-10 BMatP= 8.41D-09
 IDIUse=1 WtCom= 1.00D+00 WtEn= 0.00D+00
 Coeff-Com: -0.168D-04 0.389D-04 0.313D-03 0.605D-03 0.608D-04-0.416D-02
 Coeff-Com: -0.434D-02 0.960D-02 0.199D-01 0.104D-01-0.159D+00-0.532D-01
 Coeff-Com:  0.118D+01
 Coeff:     -0.168D-04 0.389D-04 0.313D-03 0.605D-03 0.608D-04-0.416D-02
 Coeff:     -0.434D-02 0.960D-02 0.199D-01 0.104D-01-0.159D+00-0.532D-01
 Coeff:      0.118D+01
 Gap=     0.337 Goal=   None    Shift=    0.000
 Gap=     0.274 Goal=   None    Shift=    0.000
 RMSDP=2.11D-07 MaxDP=7.31D-06 DE=-1.75D-08 OVMax= 7.32D-05

 Cycle  14  Pass 1  IDiag  1:
 RMSU=  4.05D-08    CP:  1.00D+00  1.01D+00  1.02D+00  1.05D+00  2.13D+00
                    CP:  1.90D+00  1.69D+00  2.31D+00  2.09D+00  2.41D+00
                    CP:  2.16D+00  2.05D+00  1.45D+00
 E= -269.966082567275     Delta-E=       -0.000000001248 Rises=F Damp=F
 DIIS: error= 2.71D-07 at cycle  14 NSaved=  14.
 NSaved=14 IEnMin=14 EnMin= -269.966082567275     IErMin=14 ErrMin= 2.71D-07
 ErrMax= 2.71D-07  0.00D+00 EMaxC= 1.00D-01 BMatC= 7.58D-11 BMatP= 7.59D-10
 IDIUse=1 WtCom= 1.00D+00 WtEn= 0.00D+00
 Coeff-Com:  0.133D-04-0.296D-04-0.108D-03-0.166D-03 0.118D-03 0.120D-02
 Coeff-Com:  0.273D-03-0.599D-02-0.543D-02 0.300D-01 0.206D-01-0.137D+00
 Coeff-Com: -0.151D-01 0.111D+01
 Coeff:      0.133D-04-0.296D-04-0.108D-03-0.166D-03 0.118D-03 0.120D-02
 Coeff:      0.273D-03-0.599D-02-0.543D-02 0.300D-01 0.206D-01-0.137D+00
 Coeff:     -0.151D-01 0.111D+01
 Gap=     0.337 Goal=   None    Shift=    0.000
 Gap=     0.274 Goal=   None    Shift=    0.000
 RMSDP=4.87D-08 MaxDP=1.62D-06 DE=-1.25D-09 OVMax= 1.42D-05

 Cycle  15  Pass 1  IDiag  1:
 RMSU=  1.33D-08    CP:  1.00D+00  1.01D+00  1.02D+00  1.05D+00  2.13D+00
                    CP:  1.90D+00  1.69D+00  2.31D+00  2.10D+00  2.42D+00
                    CP:  2.18D+00  2.11D+00  1.63D+00  1.41D+00
 E= -269.966082567340     Delta-E=       -0.000000000065 Rises=F Damp=F
 DIIS: error= 7.76D-08 at cycle  15 NSaved=  15.
 NSaved=15 IEnMin=15 EnMin= -269.966082567340     IErMin=15 ErrMin= 7.76D-08
 ErrMax= 7.76D-08  0.00D+00 EMaxC= 1.00D-01 BMatC= 8.98D-12 BMatP= 7.58D-11
 IDIUse=1 WtCom= 1.00D+00 WtEn= 0.00D+00
 Coeff-Com:  0.661D-06-0.195D-05-0.241D-04-0.275D-04-0.397D-05 0.312D-03
 Coeff-Com:  0.286D-03-0.104D-02-0.113D-02 0.459D-03 0.110D-01-0.916D-03
 Coeff-Com: -0.866D-01 0.151D-01 0.106D+01
 Coeff:      0.661D-06-0.195D-05-0.241D-04-0.275D-04-0.397D-05 0.312D-03
 Coeff:      0.286D-03-0.104D-02-0.113D-02 0.459D-03 0.110D-01-0.916D-03
 Coeff:     -0.866D-01 0.151D-01 0.106D+01
 Gap=     0.337 Goal=   None    Shift=    0.000
 Gap=     0.274 Goal=   None    Shift=    0.000
 RMSDP=1.32D-08 MaxDP=3.74D-07 DE=-6.51D-11 OVMax= 2.70D-06

 Cycle  16  Pass 1  IDiag  1:
 RMSU=  4.55D-09    CP:  1.00D+00  1.01D+00  1.02D+00  1.05D+00  2.13D+00
                    CP:  1.90D+00  1.69D+00  2.31D+00  2.10D+00  2.42D+00
                    CP:  2.19D+00  2.12D+00  1.66D+00  1.56D+00  1.25D+00
 E= -269.966082567348     Delta-E=       -0.000000000008 Rises=F Damp=F
 DIIS: error= 2.83D-08 at cycle  16 NSaved=  16.
 NSaved=16 IEnMin=16 EnMin= -269.966082567348     IErMin=16 ErrMin= 2.83D-08
 ErrMax= 2.83D-08  0.00D+00 EMaxC= 1.00D-01 BMatC= 1.34D-12 BMatP= 8.98D-12
 IDIUse=1 WtCom= 1.00D+00 WtEn= 0.00D+00
 Coeff-Com: -0.137D-05 0.292D-05 0.518D-05 0.114D-04-0.107D-04-0.478D-04
 Coeff-Com:  0.258D-04 0.347D-03 0.337D-03-0.293D-02 0.242D-03 0.141D-01
 Coeff-Com: -0.172D-01-0.130D+00 0.263D+00 0.872D+00
 Coeff:     -0.137D-05 0.292D-05 0.518D-05 0.114D-04-0.107D-04-0.478D-04
 Coeff:      0.258D-04 0.347D-03 0.337D-03-0.293D-02 0.242D-03 0.141D-01
 Coeff:     -0.172D-01-0.130D+00 0.263D+00 0.872D+00
 Gap=     0.337 Goal=   None    Shift=    0.000
 Gap=     0.274 Goal=   None    Shift=    0.000
 RMSDP=3.79D-09 MaxDP=1.29D-07 DE=-7.73D-12 OVMax= 7.34D-07

 SCF Done:  E(UM062X) =  -269.966082567     A.U. after   16 cycles
            NFock= 16  Conv=0.38D-08     -V/T= 2.0058
 <Sx>= 0.0000 <Sy>= 0.0000 <Sz>= 0.5000 <S**2>= 0.7600 S= 0.5050
 <L.S>= 0.000000000000E+00
 KE= 2.683960554980D+02 PE=-9.942686304081D+02 EE= 2.747035965726D+02
 Annihilation of the first spin contaminant:
 S**2 before annihilation     0.7600,   after     0.7500
 Leave Link  502 at Thu Sep  5 11:23:53 2019, MaxMem=   671088640 cpu:            1804.0 elap:             902.1
 (Enter /shared/centos7/gaussian/g16/l601.exe)
 Copying SCF densities to generalized density rwf, IOpCl= 1 IROHF=0.

 **********************************************************************

            Population analysis using the SCF density.

 **********************************************************************

 Orbital symmetries:
 Alpha Orbitals:
       Occupied  (A) (A) (A) (A) (A) (A) (A) (A) (A) (A) (A) (A)
                 (A) (A) (A) (A) (A) (A) (A) (A) (A) (A)
       Virtual   (A) (A) (A) (A) (A) (A) (A) (A) (A) (A) (A) (A)
                 (A) (A) (A) (A) (A) (A) (A) (A) (A) (A) (A) (A)
                 (A) (A) (A) (A) (A) (A) (A) (A) (A) (A) (A) (A)
                 (A) (A) (A) (A) (A) (A) (A) (A) (A) (A) (A) (A)
                 (A) (A) (A) (A) (A) (A) (A) (A) (A) (A) (A) (A)
                 (A) (A) (A) (A) (A) (A) (A) (A) (A) (A) (A) (A)
                 (A) (A) (A) (A) (A) (A) (A) (A) (A) (A) (A) (A)
                 (A) (A) (A) (A) (A) (A) (A) (A) (A) (A) (A) (A)
                 (A) (A) (A) (A) (A) (A) (A) (A) (A) (A) (A) (A)
                 (A) (A) (A) (A) (A) (A) (A) (A) (A) (A) (A) (A)
                 (A) (A) (A) (A) (A) (A) (A) (A) (A) (A) (A) (A)
                 (A) (A) (A) (A) (A) (A) (A) (A) (A) (A) (A) (A)
                 (A) (A) (A) (A) (A) (A) (A) (A) (A) (A) (A) (A)
                 (A) (A) (A) (A) (A) (A) (A) (A) (A) (A) (A) (A)
                 (A) (A) (A) (A) (A) (A) (A) (A) (A) (A) (A) (A)
                 (A) (A) (A) (A) (A) (A) (A) (A) (A) (A) (A) (A)
                 (A) (A) (A) (A) (A) (A) (A) (A) (A) (A) (A) (A)
                 (A) (A) (A) (A) (A) (A) (A) (A) (A) (A) (A) (A)
                 (A) (A) (A) (A) (A) (A) (A) (A) (A) (A) (A) (A)
                 (A) (A) (A) (A) (A) (A) (A) (A) (A) (A) (A) (A)
                 (A) (A) (A) (A) (A) (A) (A) (A) (A) (A) (A) (A)
                 (A) (A)
 Beta  Orbitals:
       Occupied  (A) (A) (A) (A) (A) (A) (A) (A) (A) (A) (A) (A)
                 (A) (A) (A) (A) (A) (A) (A) (A) (A)
       Virtual   (A) (A) (A) (A) (A) (A) (A) (A) (A) (A) (A) (A)
                 (A) (A) (A) (A) (A) (A) (A) (A) (A) (A) (A) (A)
                 (A) (A) (A) (A) (A) (A) (A) (A) (A) (A) (A) (A)
                 (A) (A) (A) (A) (A) (A) (A) (A) (A) (A) (A) (A)
                 (A) (A) (A) (A) (A) (A) (A) (A) (A) (A) (A) (A)
                 (A) (A) (A) (A) (A) (A) (A) (A) (A) (A) (A) (A)
                 (A) (A) (A) (A) (A) (A) (A) (A) (A) (A) (A) (A)
                 (A) (A) (A) (A) (A) (A) (A) (A) (A) (A) (A) (A)
                 (A) (A) (A) (A) (A) (A) (A) (A) (A) (A) (A) (A)
                 (A) (A) (A) (A) (A) (A) (A) (A) (A) (A) (A) (A)
                 (A) (A) (A) (A) (A) (A) (A) (A) (A) (A) (A) (A)
                 (A) (A) (A) (A) (A) (A) (A) (A) (A) (A) (A) (A)
                 (A) (A) (A) (A) (A) (A) (A) (A) (A) (A) (A) (A)
                 (A) (A) (A) (A) (A) (A) (A) (A) (A) (A) (A) (A)
                 (A) (A) (A) (A) (A) (A) (A) (A) (A) (A) (A) (A)
                 (A) (A) (A) (A) (A) (A) (A) (A) (A) (A) (A) (A)
                 (A) (A) (A) (A) (A) (A) (A) (A) (A) (A) (A) (A)
                 (A) (A) (A) (A) (A) (A) (A) (A) (A) (A) (A) (A)
                 (A) (A) (A) (A) (A) (A) (A) (A) (A) (A) (A) (A)
                 (A) (A) (A) (A) (A) (A) (A) (A) (A) (A) (A) (A)
                 (A) (A) (A) (A) (A) (A) (A) (A) (A) (A) (A) (A)
                 (A) (A) (A)
 The electronic state is 2-A.
 Alpha  occ. eigenvalues --  -19.69464 -19.68455 -10.55175 -10.54904 -10.53775
 Alpha  occ. eigenvalues --   -1.31263  -0.97674  -0.88842  -0.77635  -0.67781
 Alpha  occ. eigenvalues --   -0.64280  -0.59448  -0.54232  -0.52955  -0.50476
 Alpha  occ. eigenvalues --   -0.47518  -0.43516  -0.41075  -0.40277  -0.39109
 Alpha  occ. eigenvalues --   -0.36841  -0.28770
 Alpha virt. eigenvalues --    0.04889   0.07421   0.10493   0.10844   0.12386
 Alpha virt. eigenvalues --    0.14088   0.14265   0.16737   0.18702   0.21845
 Alpha virt. eigenvalues --    0.24368   0.25362   0.28035   0.29514   0.31585
 Alpha virt. eigenvalues --    0.33368   0.34866   0.38253   0.39471   0.42142
 Alpha virt. eigenvalues --    0.44564   0.45136   0.47698   0.48042   0.48548
 Alpha virt. eigenvalues --    0.49129   0.50790   0.52224   0.52388   0.53572
 Alpha virt. eigenvalues --    0.55360   0.56125   0.58652   0.60118   0.64522
 Alpha virt. eigenvalues --    0.65943   0.68384   0.70294   0.72332   0.74747
 Alpha virt. eigenvalues --    0.78495   0.82597   0.83701   0.85671   0.86474
 Alpha virt. eigenvalues --    0.89691   0.92418   0.93272   0.93958   0.98685
 Alpha virt. eigenvalues --    1.00802   1.02872   1.06003   1.06253   1.09579
 Alpha virt. eigenvalues --    1.10078   1.11838   1.12539   1.15077   1.17144
 Alpha virt. eigenvalues --    1.18018   1.20129   1.20821   1.22741   1.25334
 Alpha virt. eigenvalues --    1.27055   1.28944   1.31165   1.32705   1.37023
 Alpha virt. eigenvalues --    1.37838   1.39256   1.41106   1.42978   1.43452
 Alpha virt. eigenvalues --    1.48220   1.48915   1.50781   1.53683   1.55120
 Alpha virt. eigenvalues --    1.56591   1.59209   1.66298   1.67669   1.69095
 Alpha virt. eigenvalues --    1.79234   1.95799   1.97669   2.01950   2.09975
 Alpha virt. eigenvalues --    2.17899   2.22248   2.23170   2.24275   2.27669
 Alpha virt. eigenvalues --    2.28958   2.33084   2.38200   2.40334   2.42954
 Alpha virt. eigenvalues --    2.49435   2.50466   2.51719   2.56849   2.60562
 Alpha virt. eigenvalues --    2.63795   2.64503   2.68401   2.69292   2.71426
 Alpha virt. eigenvalues --    2.76768   2.80619   2.80910   2.82827   2.84173
 Alpha virt. eigenvalues --    2.88060   2.89048   2.93307   2.94466   2.96460
 Alpha virt. eigenvalues --    2.99145   3.00484   3.03763   3.06564   3.07599
 Alpha virt. eigenvalues --    3.09282   3.10702   3.11537   3.14235   3.18224
 Alpha virt. eigenvalues --    3.20931   3.22286   3.22941   3.24248   3.27090
 Alpha virt. eigenvalues --    3.27460   3.29239   3.31738   3.33857   3.37982
 Alpha virt. eigenvalues --    3.39798   3.40902   3.42209   3.43865   3.45378
 Alpha virt. eigenvalues --    3.48233   3.50414   3.51822   3.52428   3.55994
 Alpha virt. eigenvalues --    3.60444   3.61206   3.65083   3.68256   3.69908
 Alpha virt. eigenvalues --    3.71500   3.73997   3.74463   3.76002   3.76854
 Alpha virt. eigenvalues --    3.79808   3.81693   3.82741   3.83366   3.86238
 Alpha virt. eigenvalues --    3.86739   3.88240   3.90179   3.91523   3.95009
 Alpha virt. eigenvalues --    3.95656   3.98357   4.01642   4.02305   4.04291
 Alpha virt. eigenvalues --    4.04804   4.05818   4.06849   4.09887   4.10514
 Alpha virt. eigenvalues --    4.15245   4.18134   4.21987   4.23096   4.25098
 Alpha virt. eigenvalues --    4.28338   4.29959   4.32801   4.35264   4.37175
 Alpha virt. eigenvalues --    4.39377   4.43836   4.46635   4.51664   4.61364
 Alpha virt. eigenvalues --    4.67921   4.68448   4.72350   4.73817   4.75582
 Alpha virt. eigenvalues --    4.77380   4.82832   4.85371   4.87290   4.88426
 Alpha virt. eigenvalues --    4.91775   4.93740   4.96524   4.99889   5.03504
 Alpha virt. eigenvalues --    5.04301   5.11729   5.12841   5.14109   5.15265
 Alpha virt. eigenvalues --    5.17232   5.21864   5.23755   5.24817   5.30336
 Alpha virt. eigenvalues --    5.33706   5.35712   5.37261   5.43295   5.54520
 Alpha virt. eigenvalues --    5.67560   5.73002   5.76083   5.78230   5.79573
 Alpha virt. eigenvalues --    5.85575   6.05824   6.17015   6.27289   6.30116
 Alpha virt. eigenvalues --    6.34734   6.42678   6.45033   6.52261   6.54542
 Alpha virt. eigenvalues --    6.58834   6.63425   6.75275   6.84847   6.89214
 Alpha virt. eigenvalues --    7.22098   7.26982   7.51049   7.66736   9.95056
 Alpha virt. eigenvalues --   11.23660  11.64833  12.56185  13.18404
  Beta  occ. eigenvalues --  -19.69251 -19.67487 -10.54916 -10.54634 -10.53764
  Beta  occ. eigenvalues --   -1.29493  -0.95208  -0.88149  -0.76353  -0.66722
  Beta  occ. eigenvalues --   -0.62922  -0.55991  -0.52591  -0.52218  -0.49573
  Beta  occ. eigenvalues --   -0.46905  -0.42497  -0.40591  -0.39795  -0.35990
  Beta  occ. eigenvalues --   -0.34330
  Beta virt. eigenvalues --   -0.06918   0.04946   0.07314   0.10579   0.10849
  Beta virt. eigenvalues --    0.12480   0.14175   0.14385   0.17005   0.19184
  Beta virt. eigenvalues --    0.22207   0.25073   0.25494   0.28159   0.29717
  Beta virt. eigenvalues --    0.31661   0.33809   0.35127   0.38796   0.39652
  Beta virt. eigenvalues --    0.42385   0.44815   0.45434   0.48137   0.48310
  Beta virt. eigenvalues --    0.48786   0.50155   0.51418   0.52712   0.53212
  Beta virt. eigenvalues --    0.53958   0.55640   0.56397   0.59036   0.60436
  Beta virt. eigenvalues --    0.65253   0.66138   0.68502   0.70621   0.72643
  Beta virt. eigenvalues --    0.75092   0.78459   0.82734   0.83879   0.85845
  Beta virt. eigenvalues --    0.86681   0.89930   0.92539   0.93502   0.94179
  Beta virt. eigenvalues --    0.98905   1.00872   1.02936   1.06216   1.06498
  Beta virt. eigenvalues --    1.09619   1.10051   1.12105   1.12691   1.15071
  Beta virt. eigenvalues --    1.17481   1.18138   1.20252   1.21416   1.23191
  Beta virt. eigenvalues --    1.25692   1.27316   1.29291   1.31163   1.33349
  Beta virt. eigenvalues --    1.37219   1.38080   1.39444   1.41463   1.43315
  Beta virt. eigenvalues --    1.43837   1.48665   1.49256   1.51108   1.53975
  Beta virt. eigenvalues --    1.55577   1.57380   1.59360   1.66495   1.68839
  Beta virt. eigenvalues --    1.69734   1.79926   1.96784   1.98029   2.02367
  Beta virt. eigenvalues --    2.11007   2.18567   2.22526   2.23428   2.24871
  Beta virt. eigenvalues --    2.28046   2.29302   2.33417   2.38868   2.40705
  Beta virt. eigenvalues --    2.43590   2.49733   2.51220   2.52053   2.57072
  Beta virt. eigenvalues --    2.62086   2.64472   2.64807   2.69212   2.69376
  Beta virt. eigenvalues --    2.71052   2.77753   2.81240   2.81644   2.83591
  Beta virt. eigenvalues --    2.85101   2.89359   2.89717   2.94247   2.95818
  Beta virt. eigenvalues --    2.97729   3.00351   3.01544   3.05235   3.07598
  Beta virt. eigenvalues --    3.08245   3.09724   3.11742   3.12424   3.14468
  Beta virt. eigenvalues --    3.18625   3.21427   3.23194   3.23356   3.24336
  Beta virt. eigenvalues --    3.27887   3.28313   3.29833   3.32459   3.34745
  Beta virt. eigenvalues --    3.38441   3.40120   3.41109   3.43321   3.44299
  Beta virt. eigenvalues --    3.45825   3.49613   3.50887   3.52530   3.53168
  Beta virt. eigenvalues --    3.56250   3.60969   3.61402   3.65647   3.68438
  Beta virt. eigenvalues --    3.70190   3.71706   3.74285   3.74949   3.76242
  Beta virt. eigenvalues --    3.77230   3.80103   3.81900   3.83122   3.83893
  Beta virt. eigenvalues --    3.86560   3.87481   3.88657   3.90348   3.91876
  Beta virt. eigenvalues --    3.95143   3.95824   3.98882   4.01826   4.02443
  Beta virt. eigenvalues --    4.04762   4.05110   4.05875   4.07325   4.10488
  Beta virt. eigenvalues --    4.10875   4.15424   4.18512   4.21942   4.23916
  Beta virt. eigenvalues --    4.25663   4.29200   4.30560   4.33306   4.35827
  Beta virt. eigenvalues --    4.38144   4.39720   4.44512   4.47816   4.52562
  Beta virt. eigenvalues --    4.61918   4.68621   4.68852   4.73245   4.74147
  Beta virt. eigenvalues --    4.75992   4.77655   4.83460   4.86303   4.87810
  Beta virt. eigenvalues --    4.89104   4.92803   4.94935   4.97738   5.00926
  Beta virt. eigenvalues --    5.04423   5.05717   5.12669   5.13548   5.14754
  Beta virt. eigenvalues --    5.15698   5.18740   5.22010   5.24285   5.25691
  Beta virt. eigenvalues --    5.31197   5.34295   5.36701   5.39575   5.43757
  Beta virt. eigenvalues --    5.56638   5.68228   5.74531   5.76339   5.78838
  Beta virt. eigenvalues --    5.81411   5.87241   6.06392   6.19035   6.27613
  Beta virt. eigenvalues --    6.30781   6.34757   6.43540   6.45638   6.53424
  Beta virt. eigenvalues --    6.56314   6.60571   6.66041   6.76402   6.85278
  Beta virt. eigenvalues --    6.90462   7.21989   7.28040   7.51326   7.66959
  Beta virt. eigenvalues --    9.95740  11.24494  11.65165  12.56952  13.18543
          Condensed to atoms (all electrons):
               1          2          3          4          5          6
     1  O    7.902660   0.028037   0.001680  -0.001525   0.000179   0.001761
     2  O    0.028037   8.113212   0.004017  -0.087575  -0.000371   0.000961
     3  C    0.001680   0.004017   5.052408   0.265398   0.300003   0.401734
     4  C   -0.001525  -0.087575   0.265398   5.319353  -0.046848  -0.054643
     5  C    0.000179  -0.000371   0.300003  -0.046848   4.946092  -0.037388
     6  H    0.001761   0.000961   0.401734  -0.054643  -0.037388   0.627220
     7  H   -0.000399  -0.000146   0.396683  -0.033323  -0.036242  -0.044839
     8  H   -0.029990   0.192639  -0.026866   0.235997   0.000508  -0.007868
     9  H    0.002232  -0.002398  -0.044383   0.393200   0.005259   0.003239
    10  H    0.001036   0.000047  -0.048279   0.379844  -0.001718   0.006015
    11  H   -0.000004  -0.000053  -0.040516  -0.000505   0.400531  -0.008824
    12  H    0.000003   0.000000  -0.038019   0.007201   0.404802  -0.004098
    13  H   -0.000004   0.000021  -0.037400  -0.005670   0.400902   0.007945
    14  H    0.314146  -0.046469   0.001243   0.000032  -0.000005   0.000604
               7          8          9         10         11         12
     1  O   -0.000399  -0.029990   0.002232   0.001036  -0.000004   0.000003
     2  O   -0.000146   0.192639  -0.002398   0.000047  -0.000053   0.000000
     3  C    0.396683  -0.026866  -0.044383  -0.048279  -0.040516  -0.038019
     4  C   -0.033323   0.235997   0.393200   0.379844  -0.000505   0.007201
     5  C   -0.036242   0.000508   0.005259  -0.001718   0.400531   0.404802
     6  H   -0.044839  -0.007868   0.003239   0.006015  -0.008824  -0.004098
     7  H    0.608903   0.003222  -0.011711   0.002579   0.008269  -0.006808
     8  H    0.003222   0.442628  -0.006881  -0.008245   0.000626  -0.000183
     9  H   -0.011711  -0.006881   0.544888  -0.030109  -0.000204  -0.000379
    10  H    0.002579  -0.008245  -0.030109   0.566184  -0.000134   0.000350
    11  H    0.008269   0.000626  -0.000204  -0.000134   0.596616  -0.031234
    12  H   -0.006808  -0.000183  -0.000379   0.000350  -0.031234   0.589004
    13  H   -0.005862  -0.000073   0.000378   0.002133  -0.038109  -0.030735
    14  H   -0.000084  -0.009897  -0.000400  -0.000050  -0.000010   0.000002
              13         14
     1  O   -0.000004   0.314146
     2  O    0.000021  -0.046469
     3  C   -0.037400   0.001243
     4  C   -0.005670   0.000032
     5  C    0.400902  -0.000005
     6  H    0.007945   0.000604
     7  H   -0.005862  -0.000084
     8  H   -0.000073  -0.009897
     9  H    0.000378  -0.000400
    10  H    0.002133  -0.000050
    11  H   -0.038109  -0.000010
    12  H   -0.030735   0.000002
    13  H    0.597038   0.000002
    14  H    0.000002   0.477825
          Atomic-Atomic Spin Densities.
               1          2          3          4          5          6
     1  O    0.107292  -0.062852  -0.001975   0.022410   0.000058  -0.001250
     2  O   -0.062852   0.578467   0.006680  -0.112165  -0.000472   0.002751
     3  C   -0.001975   0.006680  -0.030021  -0.037065  -0.002062   0.015530
     4  C    0.022410  -0.112165  -0.037065   0.730361  -0.004760  -0.017663
     5  C    0.000058  -0.000472  -0.002062  -0.004760   0.019153  -0.006519
     6  H   -0.001250   0.002751   0.015530  -0.017663  -0.006519   0.040267
     7  H    0.000371  -0.000693   0.000583  -0.005850   0.008582  -0.009043
     8  H    0.011419  -0.032982  -0.002624   0.058809   0.001500  -0.001903
     9  H   -0.002020   0.004298   0.005154  -0.010396  -0.001123   0.000816
    10  H   -0.000284   0.002370   0.006514  -0.006430  -0.001890   0.000424
    11  H    0.000014  -0.000140  -0.001490   0.000773   0.001979  -0.001447
    12  H   -0.000003   0.000015   0.000727   0.000401  -0.002334   0.001346
    13  H   -0.000004   0.000036   0.001203   0.001504  -0.002917   0.000543
    14  H    0.001027  -0.000279  -0.000125  -0.000179   0.000001  -0.000061
               7          8          9         10         11         12
     1  O    0.000371   0.011419  -0.002020  -0.000284   0.000014  -0.000003
     2  O   -0.000693  -0.032982   0.004298   0.002370  -0.000140   0.000015
     3  C    0.000583  -0.002624   0.005154   0.006514  -0.001490   0.000727
     4  C   -0.005850   0.058809  -0.010396  -0.006430   0.000773   0.000401
     5  C    0.008582   0.001500  -0.001123  -0.001890   0.001979  -0.002334
     6  H   -0.009043  -0.001903   0.000816   0.000424  -0.001447   0.001346
     7  H    0.031389   0.000374  -0.001102  -0.000815   0.000513  -0.001168
     8  H    0.000374  -0.067651  -0.000376   0.001226   0.000116  -0.000006
     9  H   -0.001102  -0.000376  -0.032499   0.004181  -0.000059   0.000052
    10  H   -0.000815   0.001226   0.004181  -0.034990  -0.000314   0.000049
    11  H    0.000513   0.000116  -0.000059  -0.000314   0.001978  -0.000730
    12  H   -0.001168  -0.000006   0.000052   0.000049  -0.000730   0.002775
    13  H   -0.001129  -0.000138   0.000093   0.000543  -0.001067   0.001389
    14  H    0.000018   0.001049  -0.000027  -0.000003   0.000002  -0.000001
              13         14
     1  O   -0.000004   0.001027
     2  O    0.000036  -0.000279
     3  C    0.001203  -0.000125
     4  C    0.001504  -0.000179
     5  C   -0.002917   0.000001
     6  H    0.000543  -0.000061
     7  H   -0.001129   0.000018
     8  H   -0.000138   0.001049
     9  H    0.000093  -0.000027
    10  H    0.000543  -0.000003
    11  H   -0.001067   0.000002
    12  H    0.001389  -0.000001
    13  H   -0.000467  -0.000000
    14  H   -0.000000  -0.005071
 Mulliken charges and spin densities:
               1          2
     1  O   -0.219811   0.074204
     2  O   -0.201923   0.385031
     3  C   -0.187704  -0.038970
     4  C   -0.370937   0.619752
     5  C   -0.335703   0.009197
     6  H    0.108181   0.023789
     7  H    0.119758   0.022029
     8  H    0.214383  -0.031186
     9  H    0.147268  -0.033008
    10  H    0.130347  -0.029419
    11  H    0.113552   0.000127
    12  H    0.110094   0.002513
    13  H    0.109434  -0.000412
    14  H    0.263062  -0.003648
 Sum of Mulliken charges =  -0.00000   1.00000
 Mulliken charges and spin densities with hydrogens summed into heavy atoms:
               1          2
     1  O    0.043251   0.070556
     2  O    0.012459   0.353845
     3  C    0.040234   0.006848
     4  C   -0.093321   0.557325
     5  C   -0.002623   0.011426
 Electronic spatial extent (au):  <R**2>=            769.9449
 Charge=             -0.0000 electrons
 Dipole moment (field-independent basis, Debye):
    X=             -1.5708    Y=              1.5562    Z=             -0.7053  Tot=              2.3209
 Quadrupole moment (field-independent basis, Debye-Ang):
   XX=            -36.1894   YY=            -31.4691   ZZ=            -32.2037
   XY=              3.7268   XZ=             -2.5848   YZ=             -2.0308
 Traceless Quadrupole moment (field-independent basis, Debye-Ang):
   XX=             -2.9020   YY=              1.8183   ZZ=              1.0837
   XY=              3.7268   XZ=             -2.5848   YZ=             -2.0308
 Octapole moment (field-independent basis, Debye-Ang**2):
  XXX=             12.1585  YYY=              3.3920  ZZZ=             -1.0104  XYY=              8.8611
  XXY=              9.8639  XXZ=             -6.0376  XZZ=              7.6288  YZZ=              1.8486
  YYZ=             -2.4052  XYZ=             -4.4562
 Hexadecapole moment (field-independent basis, Debye-Ang**3):
 XXXX=           -812.3163 YYYY=           -101.9293 ZZZZ=            -83.3637 XXXY=             16.9140
 XXXZ=            -23.3516 YYYX=             11.6517 YYYZ=             -2.3669 ZZZX=             -4.2179
 ZZZY=              0.8157 XXYY=           -137.7079 XXZZ=           -143.4384 YYZZ=            -30.6024
 XXYZ=            -12.1642 YYXZ=             -6.1552 ZZXY=              3.7263
 N-N= 1.812028957701D+02 E-N=-9.942686274713D+02  KE= 2.683960554980D+02
                          Isotropic Fermi Contact Couplings
        Atom                 a.u.       MegaHertz       Gauss      10(-4) cm-1
     1  O(17)              0.00367      -2.22454      -0.79377      -0.74203
     2  O(17)              0.10937     -66.30069     -23.65774     -22.11553
     3  C(13)             -0.00566      -6.35934      -2.26917      -2.12125
     4  C(13)              0.20521     230.69354      82.31719      76.95108
     5  C(13)              0.00665       7.48104       2.66942       2.49541
     6  H(1)               0.01254      56.03352      19.99415      18.69077
     7  H(1)               0.00896      40.05169      14.29144      13.35980
     8  H(1)              -0.03452    -154.30357     -55.05935     -51.47013
     9  H(1)              -0.00684     -30.56342     -10.90579     -10.19486
    10  H(1)              -0.00515     -23.03834      -8.22065      -7.68476
    11  H(1)               0.00000       0.01664       0.00594       0.00555
    12  H(1)               0.00081       3.61189       1.28881       1.20480
    13  H(1)              -0.00029      -1.30518      -0.46572      -0.43536
    14  H(1)              -0.00179      -7.98535      -2.84937      -2.66363
 --------------------------------------------------------
       Center         ----  Spin Dipole Couplings  ----
                      3XX-RR        3YY-RR        3ZZ-RR
 --------------------------------------------------------
     1   Atom        0.403835     -0.224997     -0.178839
     2   Atom        1.464826     -0.832861     -0.631965
     3   Atom        0.025714     -0.008989     -0.016725
     4   Atom        0.236340     -0.324132      0.087791
     5   Atom        0.010436     -0.007953     -0.002483
     6   Atom       -0.003892      0.007337     -0.003445
     7   Atom        0.000634      0.002095     -0.002728
     8   Atom        0.180739     -0.116443     -0.064296
     9   Atom       -0.001536     -0.037239      0.038775
    10   Atom       -0.013222      0.037070     -0.023848
    11   Atom        0.003313     -0.003810      0.000496
    12   Atom        0.003293     -0.001381     -0.001912
    13   Atom        0.006824     -0.003071     -0.003753
    14   Atom       -0.006706      0.011854     -0.005148
 --------------------------------------------------------
                        XY            XZ            YZ
 --------------------------------------------------------
     1   Atom       -0.088855     -0.172137     -0.007289
     2   Atom       -0.633138     -0.943652      0.236171
     3   Atom       -0.022461     -0.013232      0.001694
     4   Atom        0.051601     -0.482377     -0.039722
     5   Atom       -0.000277      0.010292      0.000280
     6   Atom       -0.005856      0.002881     -0.009893
     7   Atom       -0.006818     -0.001421      0.005386
     8   Atom       -0.012332     -0.095397      0.000263
     9   Atom        0.009731      0.014463      0.010527
    10   Atom        0.024485     -0.014712      0.006917
    11   Atom        0.000358      0.004856      0.000843
    12   Atom       -0.002018      0.001827     -0.000454
    13   Atom        0.001836      0.000770     -0.000320
    14   Atom        0.005185     -0.002324     -0.016938
 --------------------------------------------------------


 ---------------------------------------------------------------------------------
              Anisotropic Spin Dipole Couplings in Principal Axis System
 ---------------------------------------------------------------------------------

       Atom             a.u.   MegaHertz   Gauss  10(-4) cm-1        Axes

              Baa    -0.2612    18.898     6.743     6.304  0.2572  0.7538  0.6046
     1 O(17)  Bbb    -0.2000    14.470     5.163     4.827  0.1200 -0.6457  0.7541
              Bcc     0.4611   -33.368   -11.906   -11.130  0.9589 -0.1215 -0.2565
 
              Baa    -1.0006    72.401    25.835    24.150  0.4044  0.7036  0.5844
     2 O(17)  Bbb    -0.9882    71.506    25.515    23.852  0.1087 -0.6714  0.7331
              Bcc     1.9888  -143.907   -51.350   -48.002  0.9081 -0.2329 -0.3480
 
              Baa    -0.0240    -3.222    -1.150    -1.075  0.4458  0.5908  0.6724
     3 C(13)  Bbb    -0.0156    -2.091    -0.746    -0.697 -0.1496 -0.6915  0.7067
              Bcc     0.0396     5.313     1.896     1.772  0.8825 -0.4157 -0.2199
 
              Baa    -0.3309   -44.401   -15.843   -14.810 -0.4161  0.8156 -0.4020
     4 C(13)  Bbb    -0.3236   -43.420   -15.493   -14.483  0.5031  0.5748  0.6454
              Bcc     0.6544    87.821    31.337    29.294  0.7575  0.0663 -0.6495
 
              Baa    -0.0085    -1.135    -0.405    -0.379 -0.3895 -0.5999  0.6989
     5 C(13)  Bbb    -0.0077    -1.029    -0.367    -0.343 -0.2872  0.8001  0.5267
              Bcc     0.0161     2.164     0.772     0.722  0.8751 -0.0045  0.4839
 
              Baa    -0.0094    -5.012    -1.788    -1.672  0.1400  0.5398  0.8300
     6 H(1)   Bbb    -0.0060    -3.208    -1.145    -1.070  0.9372  0.1984 -0.2870
              Bcc     0.0154     8.220     2.933     2.742 -0.3196  0.8181 -0.4782
 
              Baa    -0.0075    -4.004    -1.429    -1.336  0.4442  0.6572 -0.6089
     7 H(1)   Bbb    -0.0027    -1.431    -0.510    -0.477  0.6863  0.1872  0.7028
              Bcc     0.0102     5.435     1.939     1.813 -0.5759  0.7301  0.3679
 
              Baa    -0.1175   -62.719   -22.380   -20.921  0.0915  0.9830  0.1591
     8 H(1)   Bbb    -0.0964   -51.418   -18.347   -17.151  0.3130 -0.1801  0.9325
              Bcc     0.2139   114.136    40.727    38.072  0.9453 -0.0355 -0.3242
 
              Baa    -0.0403   -21.516    -7.677    -7.177 -0.2102  0.9734 -0.0911
     9 H(1)   Bbb    -0.0052    -2.755    -0.983    -0.919  0.9239  0.1673 -0.3442
              Bcc     0.0455    24.270     8.660     8.096  0.3198  0.1565  0.9345
 
              Baa    -0.0398   -21.210    -7.568    -7.075  0.6454 -0.2700  0.7145
    10 H(1)   Bbb    -0.0073    -3.885    -1.386    -1.296 -0.6662  0.2587  0.6995
              Bcc     0.0470    25.094     8.954     8.371  0.3737  0.9275  0.0129
 
              Baa    -0.0041    -2.183    -0.779    -0.728  0.2118  0.8966 -0.3890
    11 H(1)   Bbb    -0.0029    -1.562    -0.557    -0.521 -0.5678  0.4369  0.6976
              Bcc     0.0070     3.745     1.336     1.249  0.7954  0.0731  0.6016
 
              Baa    -0.0025    -1.360    -0.485    -0.454 -0.3828 -0.3254  0.8647
    12 H(1)   Bbb    -0.0020    -1.085    -0.387    -0.362  0.1924  0.8873  0.4191
              Bcc     0.0046     2.445     0.873     0.816  0.9036 -0.3268  0.2770
 
              Baa    -0.0041    -2.183    -0.779    -0.728 -0.1479  0.5283  0.8361
    13 H(1)   Bbb    -0.0031    -1.658    -0.592    -0.553 -0.1114  0.8311 -0.5449
              Bcc     0.0072     3.841     1.371     1.281  0.9827  0.1737  0.0640
 
              Baa    -0.0157    -8.359    -2.983    -2.788 -0.0912  0.5344  0.8403
    14 H(1)   Bbb    -0.0077    -4.105    -1.465    -1.369  0.9786 -0.1080  0.1749
              Bcc     0.0234    12.464     4.447     4.158  0.1842  0.8383 -0.5131
 

 ---------------------------------------------------------------------------------

 No NMR shielding tensors so no spin-rotation constants.
 Leave Link  601 at Thu Sep  5 11:24:54 2019, MaxMem=   671088640 cpu:             121.8 elap:              60.9
 (Enter /shared/centos7/gaussian/g16/l701.exe)
 ... and contract with generalized density number  0.
 Compute integral first derivatives.
 Leave Link  701 at Thu Sep  5 11:25:20 2019, MaxMem=   671088640 cpu:              52.8 elap:              26.4
 (Enter /shared/centos7/gaussian/g16/l702.exe)
 L702 exits ... SP integral derivatives will be done elsewhere.
 Leave Link  702 at Thu Sep  5 11:25:21 2019, MaxMem=   671088640 cpu:               1.7 elap:               0.9
 (Enter /shared/centos7/gaussian/g16/l703.exe)
 Integral derivatives from FoFJK, PRISM(SPDF).
 Compute integral first derivatives, UseDBF=F ICtDFT=           0.
 Calling FoFJK, ICntrl=      2127 FMM=F ISym2X=0 I1Cent= 0 IOpClX= 1 NMat=1 NMatS=1 NMatT=0.
 FoFJK:  IHMeth= 1 ICntrl=    2127 DoSepK=F KAlg= 0 I1Cent=           0 FoldK=F
 IRaf=         0 NMat=       1 IRICut=       1 DoRegI=T DoRafI=F ISym2E= 0 IDoP0=0 IntGTp=1.
 FoFCou: FMM=F IPFlag=           0 FMFlag=      100000 FMFlg1=         800
         NFxFlg=           0 DoJE=F BraDBF=F KetDBF=F FulRan=T
         wScrn=  0.000000 ICntrl=      2127 IOpCl=  1 I1Cent=           0 NGrid=           0
         NMat0=    1 NMatS0=      1 NMatT0=    0 NMatD0=    1 NMtDS0=    0 NMtDT0=    0
 Symmetry not used in FoFCou.
 Leave Link  703 at Thu Sep  5 11:27:15 2019, MaxMem=   671088640 cpu:             226.3 elap:             113.2
 (Enter /shared/centos7/gaussian/g16/l716.exe)
 Dipole        =-6.17991978D-01 6.12246123D-01-2.77486414D-01
 ***** Axes restored to original set *****
 -------------------------------------------------------------------
 Center     Atomic                   Forces (Hartrees/Bohr)
 Number     Number              X              Y              Z
 -------------------------------------------------------------------
      1        8          -0.015635279    0.057564025   -0.028304144
      2        8           0.012665658   -0.055495599   -0.003814042
      3        6          -0.002650091    0.008319415   -0.003901101
      4        6          -0.009906534   -0.002960283    0.014167315
      5        6          -0.005367368   -0.008971817   -0.002128839
      6        1          -0.001093573   -0.001695285    0.009754632
      7        1           0.006546572   -0.006739200   -0.006424933
      8        1          -0.001369072   -0.004678245    0.020263774
      9        1           0.003307791   -0.009677136   -0.013570465
     10        1          -0.000550327    0.011742360   -0.008156986
     11        1          -0.006309282    0.006917653    0.008702296
     12        1           0.011860159   -0.003349276    0.004428694
     13        1           0.000865866    0.005838709   -0.011732186
     14        1           0.007635479    0.003184679    0.020715986
 -------------------------------------------------------------------
 Cartesian Forces:  Max     0.057564025 RMS     0.015651278
 Leave Link  716 at Thu Sep  5 11:27:16 2019, MaxMem=   671088640 cpu:               2.8 elap:               1.4
 (Enter /shared/centos7/gaussian/g16/l103.exe)

 GradGradGradGradGradGradGradGradGradGradGradGradGradGradGradGradGradGrad
 Berny optimization.
 FormGI is forming the generalized inverse of G from B-inverse, IUseBI=4.
 Internal  Forces:  Max     0.061564614 RMS     0.010389284
 Search for a local minimum.
 Step number   1 out of a maximum of  100
 All quantities printed in internal units (Hartrees-Bohrs-Radians)
 RMS Force = .10293D-01 SwitMx=.10000D-02 MixMth= 1
 Mixed Optimization -- RFO/linear search
 Second derivative matrix not updated -- first step.
 ITU=  0
     Eigenvalues ---    0.00230   0.00230   0.00428   0.00443   0.02406
     Eigenvalues ---    0.03438   0.04760   0.04836   0.05104   0.05538
     Eigenvalues ---    0.05689   0.08621   0.11506   0.12402   0.13607
     Eigenvalues ---    0.16000   0.16000   0.16000   0.16000   0.16000
     Eigenvalues ---    0.16000   0.21904   0.29838   0.29946   0.32486
     Eigenvalues ---    0.32496   0.32497   0.32501   0.32502   0.32504
     Eigenvalues ---    0.32559   0.49447   0.629301000.000001000.00000
     Eigenvalues --- 1000.000001000.000001000.000001000.000001000.00000
     Eigenvalues --- 1000.000001000.000001000.000001000.000001000.00000
     Eigenvalues --- 1000.000001000.000001000.000001000.000001000.00000
     Eigenvalues --- 1000.000001000.000001000.000001000.000001000.00000
     Eigenvalues --- 1000.000001000.00000
 RFO step:  Lambda=-1.28501946D-02 EMin= 2.30000000D-03
 Linear search not attempted -- first point.
 Iteration  1 RMS(Cart)=  0.05635261 RMS(Int)=  0.00285153
 Iteration  2 RMS(Cart)=  0.00381138 RMS(Int)=  0.00032045
 Iteration  3 RMS(Cart)=  0.00001404 RMS(Int)=  0.00032033
 Iteration  4 RMS(Cart)=  0.00000000 RMS(Int)=  0.00032033
 Iteration  1 RMS(Cart)=  0.00000000 RMS(Int)=  0.00000000
 ITry= 1 IFail=0 DXMaxC= 2.38D-01 DCOld= 1.00D+10 DXMaxT= 3.00D-01 DXLimC= 3.00D+00 Rises=F
 Variable       Old X    -DE/DX   Delta X   Delta X   Delta X     New X
                                 (Linear)    (Quad)   (Total)
    R1        2.48694   0.06156   0.00000   0.09587   0.09587   2.58282
    R2        1.87128  -0.02147   0.00000  -0.04233  -0.04233   1.82895
    R3        2.20115   0.00855   0.00000   0.00000  -0.00000   2.20115
    R4        2.88071  -0.00299   0.00000  -0.00957  -0.00957   2.87114
    R5        2.88287  -0.00080   0.00000  -0.00258  -0.00258   2.88029
    R6        2.09964  -0.00966   0.00000  -0.02860  -0.02860   2.07104
    R7        2.09945  -0.01138   0.00000  -0.03370  -0.03370   2.06575
    R8        2.58649  -0.00403   0.00000   0.00000  -0.00000   2.58649
    R9        2.09937  -0.01555   0.00000  -0.04603  -0.04603   2.05335
   R10        2.09934  -0.01371   0.00000  -0.04057  -0.04057   2.05877
   R11        2.09944  -0.01271   0.00000  -0.03763  -0.03763   2.06181
   R12        2.09832  -0.01295   0.00000  -0.03827  -0.03827   2.06006
   R13        2.09932  -0.01314   0.00000  -0.03889  -0.03889   2.06042
    A1        1.80796   0.01114   0.00000   0.06444   0.06444   1.87240
    A2        1.82881   0.00685   0.00000   0.03962   0.03962   1.86843
    A3        1.98964  -0.00358   0.00000  -0.01419  -0.01416   1.97547
    A4        1.92189   0.00090   0.00000   0.00267   0.00270   1.92460
    A5        1.90418   0.00105   0.00000   0.00401   0.00404   1.90822
    A6        1.88473   0.00156   0.00000   0.00866   0.00865   1.89339
    A7        1.91258   0.00151   0.00000   0.00883   0.00883   1.92141
    A8        1.84527  -0.00128   0.00000  -0.00968  -0.00971   1.83556
    A9        1.91417   0.00009   0.00000  -0.01273  -0.01245   1.90172
   A10        1.96954   0.00488   0.00000   0.04373   0.04294   2.01248
   A11        1.99276   0.00111   0.00000   0.01331   0.01229   2.00505
   A12        1.80629  -0.00408   0.00000  -0.03719  -0.03682   1.76947
   A13        1.84293  -0.00260   0.00000  -0.03348  -0.03344   1.80948
   A14        1.92436  -0.00044   0.00000   0.01518   0.01348   1.93784
   A15        1.93179   0.00067   0.00000   0.00319   0.00312   1.93491
   A16        1.92039   0.00299   0.00000   0.02002   0.01998   1.94037
   A17        1.94547  -0.00108   0.00000  -0.00832  -0.00832   1.93715
   A18        1.88606  -0.00128   0.00000  -0.00337  -0.00348   1.88259
   A19        1.89041  -0.00054   0.00000  -0.00828  -0.00830   1.88211
   A20        1.88807  -0.00085   0.00000  -0.00369  -0.00366   1.88441
   A21        2.54164   0.01850   0.00000   0.00000   0.00000   2.54164
    D1       -1.45551  -0.00237   0.00000  -0.06413  -0.06413  -1.51964
    D2       -1.41593   0.00134   0.00000   0.08841   0.08841  -1.32752
    D3        1.92410  -0.00059   0.00000  -0.03007  -0.02999   1.89411
    D4       -2.35537  -0.00270   0.00000  -0.05826  -0.05870  -2.41407
    D5       -0.13984   0.00194   0.00000   0.01286   0.01322  -0.12662
    D6       -0.19711  -0.00077   0.00000  -0.03336  -0.03329  -0.23040
    D7        1.80660  -0.00288   0.00000  -0.06154  -0.06199   1.74461
    D8       -2.26105   0.00175   0.00000   0.00957   0.00993  -2.25113
    D9       -2.21496  -0.00034   0.00000  -0.02551  -0.02542  -2.24039
   D10       -0.21125  -0.00245   0.00000  -0.05369  -0.05413  -0.26538
   D11        2.00428   0.00219   0.00000   0.01742   0.01779   2.02207
   D12       -1.11608   0.00082   0.00000   0.02218   0.02221  -1.09388
   D13        3.08375   0.00008   0.00000   0.01156   0.01153   3.09528
   D14        0.98914  -0.00013   0.00000   0.00828   0.00829   0.99744
   D15        1.02557   0.00072   0.00000   0.02247   0.02248   1.04805
   D16       -1.05778  -0.00001   0.00000   0.01185   0.01180  -1.04599
   D17        3.13080  -0.00023   0.00000   0.00856   0.00856   3.13936
   D18        3.02757   0.00084   0.00000   0.02031   0.02035   3.04793
   D19        0.94422   0.00010   0.00000   0.00969   0.00967   0.95389
   D20       -1.15039  -0.00011   0.00000   0.00641   0.00644  -1.14395
   D21        2.61221   0.00108   0.00000   0.00260   0.00252   2.61473
   D22        0.50643  -0.00239   0.00000  -0.02157  -0.02136   0.48507
   D23       -1.51621   0.00088   0.00000  -0.00914  -0.00928  -1.52549
         Item               Value     Threshold  Converged?
 Maximum Force            0.061565     0.002500     NO 
 RMS     Force            0.010293     0.001667     NO 
 Maximum Displacement     0.238069     0.010000     NO 
 RMS     Displacement     0.057171     0.006667     NO 
 Predicted change in Energy=-6.828148D-03
 Lowest energy point so far.  Saving SCF results.
 GradGradGradGradGradGradGradGradGradGradGradGradGradGradGradGradGradGrad

 Leave Link  103 at Thu Sep  5 11:29:17 2019, MaxMem=   671088640 cpu:             239.1 elap:             120.7
 (Enter /shared/centos7/gaussian/g16/l202.exe)
                          Input orientation:                          
 ---------------------------------------------------------------------
 Center     Atomic      Atomic             Coordinates (Angstroms)
 Number     Number       Type             X           Y           Z
 ---------------------------------------------------------------------
      1          8           0        3.473494    0.522047   -0.636785
      2          8           0        3.588124   -0.839770   -0.617562
      3          6           0        0.224611   -1.436279    0.042289
      4          6           0        1.621244   -1.484300    0.638536
      5          6           0       -0.446182   -2.803227   -0.025730
      6          1           0        0.257698   -1.014796   -0.968828
      7          1           0       -0.392274   -0.743689    0.620864
      8          1           0        2.536842   -1.267386   -0.355443
      9          1           0        1.859473   -0.679722    1.328873
     10          1           0        1.911239   -2.450722    1.049443
     11          1           0        0.110798   -3.477327   -0.678250
     12          1           0       -1.461609   -2.724661   -0.414484
     13          1           0       -0.498696   -3.262103    0.961939
     14          1           0        3.192079    0.774325   -1.527782
 ---------------------------------------------------------------------
                    Distance matrix (angstroms):
                    1          2          3          4          5
     1  O    0.000000
     2  O    1.366768   0.000000
     3  C    3.853755   3.479144   0.000000
     4  C    3.013753   2.421119   1.519342   0.000000
     5  C    5.176360   4.525600   1.524184   2.540682   0.000000
     6  H    3.579593   3.353469   1.095948   2.159470   2.140880
     7  H    4.257691   4.169711   1.093149   2.145477   2.159325
     8  H    2.039250   1.164798   2.352260   1.368709   3.371343
     9  H    2.813028   2.608152   2.213696   1.086584   3.414713
    10  H    3.757840   2.861122   2.210920   1.089455   2.614898
    11  H    5.225366   4.364881   2.167489   2.826222   1.091063
    12  H    5.911495   5.393872   2.170693   3.485875   1.090135
    13  H    5.714369   5.006458   2.168539   2.785555   1.090328
    14  H    0.967840   1.894902   4.019672   3.501692   5.319021
                    6          7          8          9         10
     6  H    0.000000
     7  H    1.738701   0.000000
     8  H    2.373719   3.131637   0.000000
     9  H    2.820884   2.361299   1.908165   0.000000
    10  H    2.978171   2.898933   1.940456   1.793655   0.000000
    11  H    2.483964   3.068152   3.297535   3.861735   2.698227
    12  H    2.487359   2.477836   4.256142   4.272078   3.687035
    13  H    3.057840   2.543633   3.863792   3.516290   2.544363
    14  H    3.481950   4.446192   2.443829   3.471393   4.322450
                   11         12         13         14
    11  H    0.000000
    12  H    1.763106   0.000000
    13  H    1.762959   1.763685   0.000000
    14  H    5.319074   5.927828   6.009433   0.000000
 Stoichiometry    C3H9O2(2)
 Framework group  C1[X(C3H9O2)]
 Deg. of freedom    36
 Full point group                 C1      NOp   1
 RotChk:  IX=0 Diff= 1.72D-01
 Largest Abelian subgroup         C1      NOp   1
 Largest concise Abelian subgroup C1      NOp   1
                         Standard orientation:                         
 ---------------------------------------------------------------------
 Center     Atomic      Atomic             Coordinates (Angstroms)
 Number     Number       Type             X           Y           Z
 ---------------------------------------------------------------------
      1          8           0        2.485512    0.492336    0.061124
      2          8           0        1.853363   -0.635653   -0.381690
      3          6           0       -1.366591    0.575509    0.137374
      4          6           0       -0.329563   -0.413728    0.641737
      5          6           0       -2.639709   -0.094250   -0.366342
      6          1           0       -0.949112    1.182733   -0.673854
      7          1           0       -1.605681    1.286237    0.932784
      8          1           0        0.709527   -0.461044   -0.247881
      9          1           0        0.183025   -0.124121    1.554998
     10          1           0       -0.669978   -1.447242    0.695384
     11          1           0       -2.428428   -0.735521   -1.223401
     12          1           0       -3.377809    0.645724   -0.676246
     13          1           0       -3.089369   -0.712835    0.410817
     14          1           0        2.532006    1.107418   -0.684682
 ---------------------------------------------------------------------
 Rotational constants (GHZ):          12.4223010           1.6090697           1.5649782
 Leave Link  202 at Thu Sep  5 11:29:19 2019, MaxMem=   671088640 cpu:               5.0 elap:               2.6
 (Enter /shared/centos7/gaussian/g16/l301.exe)
 Standard basis: CC-pVTZ (5D, 7F)
 Ernie: Thresh=  0.10000D-02 Tol=  0.10000D-05 Strict=F.
 Ernie:  15 primitive shells out of 202 were deleted.
 There are   310 symmetry adapted cartesian basis functions of A   symmetry.
 There are   276 symmetry adapted basis functions of A   symmetry.
[...]
  Beta virt. eigenvalues --    1.46034   1.49118   1.53329   1.54080   1.54666
  Beta virt. eigenvalues --    1.58535   1.60812   1.62820   1.65186   1.68919
  Beta virt. eigenvalues --    1.78686   1.84328   1.93565   1.96113   2.01152
  Beta virt. eigenvalues --    2.11241   2.17665   2.20885   2.24017   2.26049
  Beta virt. eigenvalues --    2.29989   2.35519   2.37468   2.38466   2.43758
  Beta virt. eigenvalues --    2.46286   2.49101   2.52025   2.55675   2.56658
  Beta virt. eigenvalues --    2.60920   2.63821   2.65899   2.67887   2.70974
  Beta virt. eigenvalues --    2.72407   2.80039   2.80221   2.80681   2.83834
  Beta virt. eigenvalues --    2.87072   2.89803   2.92100   2.95388   3.00447
  Beta virt. eigenvalues --    3.01477   3.03652   3.04716   3.05841   3.06969
  Beta virt. eigenvalues --    3.09074   3.10343   3.13406   3.16240   3.16829
  Beta virt. eigenvalues --    3.19988   3.22939   3.23434   3.24100   3.26302
  Beta virt. eigenvalues --    3.29357   3.30647   3.33606   3.34025   3.35042
  Beta virt. eigenvalues --    3.39776   3.41856   3.43066   3.44238   3.47862
  Beta virt. eigenvalues --    3.49599   3.52071   3.52855   3.56046   3.56849
  Beta virt. eigenvalues --    3.58450   3.63647   3.66943   3.69710   3.70705
  Beta virt. eigenvalues --    3.73680   3.75429   3.75894   3.76184   3.78298
  Beta virt. eigenvalues --    3.79228   3.81442   3.83005   3.85605   3.87116
  Beta virt. eigenvalues --    3.88934   3.90238   3.92088   3.96432   3.97619
  Beta virt. eigenvalues --    3.99035   3.99202   4.02416   4.03077   4.06598
  Beta virt. eigenvalues --    4.07170   4.09861   4.11503   4.12796   4.14775
  Beta virt. eigenvalues --    4.16788   4.19248   4.22559   4.23984   4.24117
  Beta virt. eigenvalues --    4.28165   4.30190   4.32606   4.34773   4.40285
  Beta virt. eigenvalues --    4.43034   4.46046   4.51937   4.54324   4.59992
  Beta virt. eigenvalues --    4.63750   4.71952   4.72432   4.77108   4.80975
  Beta virt. eigenvalues --    4.81834   4.85685   4.86897   4.88366   4.90673
  Beta virt. eigenvalues --    4.92784   4.97185   5.00886   5.03724   5.07940
  Beta virt. eigenvalues --    5.09805   5.13644   5.14889   5.17707   5.18294
  Beta virt. eigenvalues --    5.23493   5.29773   5.30940   5.32418   5.34227
  Beta virt. eigenvalues --    5.38863   5.41984   5.45532   5.48276   5.51056
  Beta virt. eigenvalues --    5.57969   5.58862   5.77675   5.80685   5.81341
  Beta virt. eigenvalues --    5.87327   5.91407   5.96077   6.11560   6.21155
  Beta virt. eigenvalues --    6.34330   6.38283   6.39547   6.49008   6.58735
  Beta virt. eigenvalues --    6.59603   6.64661   6.71034   6.73687   6.85759
  Beta virt. eigenvalues --    6.89804   7.14647   7.20304   7.44107   7.59310
  Beta virt. eigenvalues --    9.93733  11.26814  12.29172  12.82618  13.43898
          Condensed to atoms (all electrons):
               1          2          3          4          5          6
     1  O    7.896607   0.059581   0.002327  -0.004641  -0.002070   0.014649
     2  O    0.059581   8.092319   0.004791  -0.095714  -0.001136  -0.002448
     3  C    0.002327   0.004791   5.088603   0.272221   0.308199   0.407499
     4  C   -0.004641  -0.095714   0.272221   5.325819  -0.055850  -0.047491
     5  C   -0.002070  -0.001136   0.308199  -0.055850   4.947112  -0.042932
     6  H    0.014649  -0.002448   0.407499  -0.047491  -0.042932   0.568732
     7  H    0.000793  -0.000275   0.385634  -0.039046  -0.033217  -0.037184
     8  H   -0.030367   0.197826  -0.025034   0.234294  -0.000751  -0.006056
     9  H    0.001281   0.000109  -0.041353   0.402765   0.006364  -0.003528
    10  H    0.000768   0.000718  -0.033043   0.376988  -0.005300   0.008039
    11  H    0.000707   0.004419  -0.040451  -0.004532   0.398688  -0.008219
    12  H   -0.000066  -0.000025  -0.037452   0.008189   0.406846  -0.004705
    13  H    0.000024  -0.000066  -0.036604  -0.003705   0.403014   0.007719
    14  H    0.307812  -0.034138   0.002258  -0.003210   0.000829  -0.000696
               7          8          9         10         11         12
     1  O    0.000793  -0.030367   0.001281   0.000768   0.000707  -0.000066
     2  O   -0.000275   0.197826   0.000109   0.000718   0.004419  -0.000025
     3  C    0.385634  -0.025034  -0.041353  -0.033043  -0.040451  -0.037452
     4  C   -0.039046   0.234294   0.402765   0.376988  -0.004532   0.008189
     5  C   -0.033217  -0.000751   0.006364  -0.005300   0.398688   0.406846
     6  H   -0.037184  -0.006056  -0.003528   0.008039  -0.008219  -0.004705
     7  H    0.595396   0.003645  -0.002774  -0.005176   0.008781  -0.004940
     8  H    0.003645   0.411189  -0.008452  -0.011448   0.004765   0.000212
     9  H   -0.002774  -0.008452   0.504759  -0.024311   0.000015  -0.000344
    10  H   -0.005176  -0.011448  -0.024311   0.552518  -0.000376  -0.000256
    11  H    0.008781   0.004765   0.000015  -0.000376   0.603103  -0.032536
    12  H   -0.004940   0.000212  -0.000344  -0.000256  -0.032536   0.580432
    13  H   -0.007706  -0.001413  -0.000032   0.003630  -0.040172  -0.031670
    14  H   -0.000066  -0.002708  -0.000040  -0.000059  -0.000700  -0.000031
              13         14
     1  O    0.000024   0.307812
     2  O   -0.000066  -0.034138
     3  C   -0.036604   0.002258
     4  C   -0.003705  -0.003210
     5  C    0.403014   0.000829
     6  H    0.007719  -0.000696
     7  H   -0.007706  -0.000066
     8  H   -0.001413  -0.002708
     9  H   -0.000032  -0.000040
    10  H    0.003630  -0.000059
    11  H   -0.040172  -0.000700
    12  H   -0.031670  -0.000031
    13  H    0.593947   0.000049
    14  H    0.000049   0.459596
          Atomic-Atomic Spin Densities.
               1          2          3          4          5          6
     1  O    0.052950  -0.038896  -0.003523   0.018899  -0.000553  -0.002795
     2  O   -0.038896   0.543474   0.008537  -0.112065   0.001130   0.001823
     3  C   -0.003523   0.008537  -0.038923  -0.040898   0.009460   0.006103
     4  C    0.018899  -0.112065  -0.040898   0.779016  -0.005377  -0.005409
     5  C   -0.000553   0.001130   0.009460  -0.005377   0.003362   0.002096
     6  H   -0.002795   0.001823   0.006103  -0.005409   0.002096   0.011902
     7  H    0.000557  -0.001083   0.005960  -0.019207  -0.003500  -0.006556
     8  H    0.009014  -0.040586  -0.003238   0.071346  -0.001041   0.000448
     9  H   -0.001437   0.004411   0.005021  -0.010530  -0.000198   0.000560
    10  H   -0.000387   0.003585   0.006394  -0.008339   0.000514   0.000014
    11  H    0.000312  -0.001502  -0.000957   0.003311  -0.001264  -0.000559
    12  H    0.000040  -0.000048   0.000111   0.000213  -0.000582  -0.000171
    13  H   -0.000028   0.000148   0.001060  -0.000759   0.000272   0.000237
    14  H    0.000602  -0.000721   0.000221  -0.000761   0.000006  -0.000193
               7          8          9         10         11         12
     1  O    0.000557   0.009014  -0.001437  -0.000387   0.000312   0.000040
     2  O   -0.001083  -0.040586   0.004411   0.003585  -0.001502  -0.000048
     3  C    0.005960  -0.003238   0.005021   0.006394  -0.000957   0.000111
     4  C   -0.019207   0.071346  -0.010530  -0.008339   0.003311   0.000213
     5  C   -0.003500  -0.001041  -0.000198   0.000514  -0.001264  -0.000582
     6  H   -0.006556   0.000448   0.000560   0.000014  -0.000559  -0.000171
     7  H    0.073777   0.001171  -0.001860  -0.002994   0.000790   0.000978
     8  H    0.001171  -0.054989  -0.000332  -0.001497   0.000466   0.000075
     9  H   -0.001860  -0.000332  -0.038533   0.005145  -0.000086   0.000003
    10  H   -0.002994  -0.001497   0.005145  -0.031887  -0.000310  -0.000061
    11  H    0.000790   0.000466  -0.000086  -0.000310   0.002238   0.000233
    12  H    0.000978   0.000075   0.000003  -0.000061   0.000233   0.000047
    13  H   -0.001515  -0.000280   0.000068   0.000462  -0.000892  -0.000182
    14  H   -0.000011   0.000047   0.000022   0.000006   0.000097  -0.000004
              13         14
     1  O   -0.000028   0.000602
     2  O    0.000148  -0.000721
     3  C    0.001060   0.000221
     4  C   -0.000759  -0.000761
     5  C    0.000272   0.000006
     6  H    0.000237  -0.000193
     7  H   -0.001515  -0.000011
     8  H   -0.000280   0.000047
     9  H    0.000068   0.000022
    10  H    0.000462   0.000006
    11  H   -0.000892   0.000097
    12  H   -0.000182  -0.000004
    13  H    0.001498   0.000002
    14  H    0.000002  -0.001504
 Mulliken charges and spin densities:
               1          2
     1  O   -0.247406   0.034755
     2  O   -0.225962   0.368209
     3  C   -0.257597  -0.044672
     4  C   -0.366087   0.669440
     5  C   -0.329797   0.004325
     6  H    0.146622   0.007501
     7  H    0.136135   0.046507
     8  H    0.234300  -0.019394
     9  H    0.165540  -0.037747
    10  H    0.137308  -0.029352
    11  H    0.106511   0.001875
    12  H    0.116345   0.000651
    13  H    0.112985   0.000090
    14  H    0.271103  -0.002188
 Sum of Mulliken charges =  -0.00000   1.00000
 Mulliken charges and spin densities with hydrogens summed into heavy atoms:
               1          2
     1  O    0.023697   0.032566
     2  O    0.008338   0.348815
     3  C    0.025161   0.009336
     4  C   -0.063238   0.602341
     5  C    0.006043   0.006941
 Electronic spatial extent (au):  <R**2>=            594.8370
 Charge=              0.0000 electrons
 Dipole moment (field-independent basis, Debye):
    X=             -2.1934    Y=              0.8978    Z=              0.2869  Tot=              2.3873
 Quadrupole moment (field-independent basis, Debye-Ang):
   XX=            -37.0486   YY=            -28.8729   ZZ=            -33.7815
   XY=              2.4563   XZ=              0.4553   YZ=              0.6682
 Traceless Quadrupole moment (field-independent basis, Debye-Ang):
   XX=             -3.8143   YY=              4.3615   ZZ=             -0.5472
   XY=              2.4563   XZ=              0.4553   YZ=              0.6682
 Octapole moment (field-independent basis, Debye-Ang**2):
  XXX=              2.5052  YYY=              7.7667  ZZZ=              0.1624  XYY=              9.8907
  XXY=              3.8747  XXZ=              1.2113  XZZ=              2.2546  YZZ=             -0.2225
  YYZ=              1.4178  XYZ=             -0.6764
 Hexadecapole moment (field-independent basis, Debye-Ang**3):
 XXXX=           -506.8267 YYYY=           -155.5418 ZZZZ=           -108.6740 XXXY=             10.4751
 XXXZ=             -1.6883 YYYX=             13.4007 YYYZ=              4.7097 ZZZX=              0.1045
 ZZZY=              3.5399 XXYY=            -99.8528 XXZZ=           -102.3457 YYZZ=            -43.1320
 XXYZ=              1.9386 YYXZ=              2.1372 ZZXY=              2.8367
 N-N= 1.894439814951D+02 E-N=-1.010897622778D+03  KE= 2.685166273626D+02
                          Isotropic Fermi Contact Couplings
        Atom                 a.u.       MegaHertz       Gauss      10(-4) cm-1
     1  O(17)              0.00142      -0.86137      -0.30736      -0.28732
     2  O(17)              0.11080     -67.16727     -23.96695     -22.40459
     3  C(13)             -0.01141     -12.82802      -4.57736      -4.27897
     4  C(13)              0.17893     201.14693      71.77423      67.09539
     5  C(13)              0.00737       8.28036       2.95464       2.76203
     6  H(1)               0.00461      20.60999       7.35416       6.87475
     7  H(1)               0.02190      97.87486      34.92418      32.64754
     8  H(1)              -0.02966    -132.56182     -47.30135     -44.21786
     9  H(1)              -0.00782     -34.94754     -12.47015     -11.65725
    10  H(1)              -0.00337     -15.06439      -5.37535      -5.02494
    11  H(1)              -0.00024      -1.05568      -0.37669      -0.35214
    12  H(1)              -0.00032      -1.43044      -0.51042      -0.47714
    13  H(1)              -0.00013      -0.58171      -0.20757      -0.19404
    14  H(1)              -0.00082      -3.67425      -1.31107      -1.22560
 --------------------------------------------------------
       Center         ----  Spin Dipole Couplings  ----
                      3XX-RR        3YY-RR        3ZZ-RR
 --------------------------------------------------------
     1   Atom        0.271691     -0.071448     -0.200243
     2   Atom        1.372047     -0.611119     -0.760928
     3   Atom        0.020428     -0.012457     -0.007971
     4   Atom        0.166217     -0.062660     -0.103558
     5   Atom        0.003162      0.001389     -0.004552
     6   Atom       -0.005354      0.001931      0.003423
     7   Atom        0.004015     -0.002693     -0.001321
     8   Atom        0.129225     -0.049278     -0.079948
     9   Atom        0.006308     -0.006056     -0.000252
    10   Atom       -0.013048     -0.010563      0.023611
    11   Atom       -0.000505      0.004625     -0.004120
    12   Atom        0.001175      0.001570     -0.002745
    13   Atom        0.004422     -0.002250     -0.002172
    14   Atom       -0.006291      0.016028     -0.009737
 --------------------------------------------------------
                        XY            XZ            YZ
 --------------------------------------------------------
     1   Atom        0.140957     -0.009355     -0.026913
     2   Atom        0.869745     -0.600048     -0.217349
     3   Atom        0.001280     -0.020445     -0.000041
     4   Atom        0.401278     -0.368252     -0.278535
     5   Atom       -0.010687      0.004518     -0.004328
     6   Atom       -0.001872     -0.003873      0.010638
     7   Atom       -0.000946     -0.010313     -0.000258
     8   Atom        0.129136     -0.054672     -0.037720
     9   Atom       -0.012159      0.020196     -0.041928
    10   Atom        0.033694      0.015327      0.027352
    11   Atom       -0.005628      0.001603     -0.004076
    12   Atom       -0.003824     -0.000333     -0.000265
    13   Atom       -0.004021      0.003691     -0.002151
    14   Atom       -0.000241      0.001225      0.007728
 --------------------------------------------------------


 ---------------------------------------------------------------------------------
              Anisotropic Spin Dipole Couplings in Principal Axis System
 ---------------------------------------------------------------------------------

       Atom             a.u.   MegaHertz   Gauss  10(-4) cm-1        Axes

              Baa    -0.2067    14.953     5.336     4.988 -0.0546  0.2493  0.9669
     1 O(17)  Bbb    -0.1161     8.403     2.998     2.803 -0.3359  0.9073 -0.2529
              Bcc     0.3228   -23.356    -8.334    -7.791  0.9403  0.3386 -0.0342
 
              Baa    -0.9410    68.088    24.296    22.712 -0.4023  0.8669 -0.2944
     2 O(17)  Bbb    -0.9141    66.146    23.603    22.064  0.1049  0.3631  0.9258
              Bcc     1.8551  -134.234   -47.898   -44.776  0.9095  0.3416 -0.2370
 
              Baa    -0.0187    -2.511    -0.896    -0.838  0.4634 -0.0891  0.8816
     3 C(13)  Bbb    -0.0124    -1.669    -0.596    -0.557  0.0179  0.9957  0.0912
              Bcc     0.0312     4.180     1.492     1.394  0.8860  0.0264 -0.4630
 
              Baa    -0.3655   -49.051   -17.503   -16.362 -0.5668  0.8204  0.0754
     4 C(13)  Bbb    -0.3605   -48.376   -17.262   -16.136  0.4387  0.2231  0.8705
              Bcc     0.7260    97.427    34.765    32.498  0.6973  0.5265 -0.4863
 
              Baa    -0.0085    -1.135    -0.405    -0.378  0.6631  0.7461  0.0598
     5 C(13)  Bbb    -0.0065    -0.878    -0.313    -0.293 -0.2660  0.1602  0.9506
              Bcc     0.0150     2.013     0.718     0.671  0.6997 -0.6462  0.3047
 
              Baa    -0.0086    -4.606    -1.643    -1.536  0.4507 -0.5925  0.6677
     6 H(1)   Bbb    -0.0056    -2.975    -1.062    -0.992  0.8685  0.4639 -0.1745
              Bcc     0.0142     7.581     2.705     2.529 -0.2063  0.6586  0.7237
 
              Baa    -0.0094    -5.014    -1.789    -1.672  0.6106  0.1162  0.7834
     7 H(1)   Bbb    -0.0026    -1.401    -0.500    -0.467 -0.0395  0.9924 -0.1164
              Bcc     0.0120     6.415     2.289     2.140  0.7910 -0.0401 -0.6105
 
              Baa    -0.1195   -63.755   -22.749   -21.266 -0.3881  0.8728  0.2960
     8 H(1)   Bbb    -0.0924   -49.284   -17.586   -16.439  0.3280 -0.1693  0.9294
              Bcc     0.2119   113.039    40.335    37.706  0.8613  0.4578 -0.2205
 
              Baa    -0.0457   -24.386    -8.702    -8.134 -0.1063  0.7069  0.6993
     9 H(1)   Bbb    -0.0052    -2.758    -0.984    -0.920  0.8808  0.3933 -0.2637
              Bcc     0.0509    27.144     9.686     9.054  0.4615 -0.5879  0.6644
 
              Baa    -0.0466   -24.881    -8.878    -8.300 -0.6693  0.7300 -0.1382
    10 H(1)   Bbb    -0.0068    -3.628    -1.295    -1.210 -0.5996 -0.4208  0.6807
              Bcc     0.0534    28.509    10.173     9.510  0.4388  0.5385  0.7194
 
              Baa    -0.0059    -3.123    -1.114    -1.042  0.2179  0.4533  0.8643
    11 H(1)   Bbb    -0.0037    -1.997    -0.712    -0.666  0.8380  0.3670 -0.4038
              Bcc     0.0096     5.120     1.827     1.708 -0.5002  0.8123 -0.2998
 
              Baa    -0.0030    -1.627    -0.580    -0.543  0.4250  0.3985  0.8128
    12 H(1)   Bbb    -0.0022    -1.149    -0.410    -0.383  0.5873  0.5618 -0.5826
              Bcc     0.0052     2.776     0.990     0.926 -0.6888  0.7250  0.0047
 
              Baa    -0.0044    -2.349    -0.838    -0.783  0.1387  0.8176  0.5588
    13 H(1)   Bbb    -0.0037    -1.962    -0.700    -0.654 -0.5391 -0.4110  0.7351
              Bcc     0.0081     4.311     1.538     1.438  0.8307 -0.4033  0.3838
 
              Baa    -0.0121    -6.478    -2.312    -2.161 -0.2080 -0.2604  0.9428
    14 H(1)   Bbb    -0.0060    -3.215    -1.147    -1.073  0.9781 -0.0592  0.1995
              Bcc     0.0182     9.694     3.459     3.233  0.0039  0.9637  0.2670
 

 ---------------------------------------------------------------------------------

 No NMR shielding tensors so no spin-rotation constants.
 Leave Link  601 at Thu Sep  5 18:45:08 2019, MaxMem=   671088640 cpu:              95.8 elap:              47.9
 (Enter /shared/centos7/gaussian/g16/l9999.exe)
 1\1\GINC-C0219\FOpt\UM062X\CC-pVTZ\C3H9O2(2)\HARMS.N\05-Sep-2019\0\\#p
  m062x/cc-pVTZ Opt=(ModRedun,Loose,maxcycles=900) Int(Grid=SG1) scf=(m
 axcycle=900)\\Gaussian input prepared by ASE\\0,2\O,2.7136290654,-0.00
 7033622,-1.1610806745\O,3.3326184701,-1.1258261501,-0.6107951659\C,0.3
 020966829,-1.2554041662,0.3442058502\C,1.6086144353,-1.3626570494,1.07
 25168501\C,-0.0473478291,-2.5220104237,-0.4281899046\H,0.3321549148,-0
 .3954239072,-0.3260772332\H,-0.4880551941,-1.0376814764,1.0724871498\H
 ,2.5415743593,-1.6011875576,0.0998635476\H,2.0016037137,-0.4515849117,
 1.5078112009\H,1.7207122003,-2.2366049038,1.7122463406\H,0.7188449909,
 -2.7398837323,-1.1738420084\H,-1.0022433171,-2.4257923622,-0.941270323
 4\H,-0.1082309847,-3.3818848146,0.2388220169\H,2.3508698488,-0.3446337
 977,-1.9896174859\\Version=EM64L-G16RevA.03\State=2-A\HF=-269.97979\S2
 =0.759849\S2-1=0.\S2A=0.750048\RMSD=3.614e-09\RMSF=3.258e-03\Dipole=-0
 .8817564,-0.3103748,-0.0915017\Quadrupole=-2.8726856,-0.7753543,3.6480
 399,-1.1116188,0.4658086,-0.7237284\PG=C01 [X(C3H9O2)]\\@


 CLIMB THE MOUNTAINS AND GET THEIR GOOD TIDINGS.
 NATURE'S PEACE WILL FLOW INTO YOU AS SUNSHINE FLOWS INTO TREES.
 THE WINDS WILL BLOW THEIR OWN FRESHNESS INTO YOU, 
 AND CARES WILL DROP OFF LIKE AUTUMN LEAVES.

                                         -- JOHN MUIR
 Job cpu time:       0 days 15 hours 10 minutes 52.6 seconds.
 Elapsed time:       0 days  7 hours 37 minutes 43.9 seconds.
 File lengths (MBytes):  RWF=    304 Int=      0 D2E=      0 Chk=     32 Scr=     32
 Normal termination of Gaussian 16 at Thu Sep  5 18:45:09 2019.
