 Entering Gaussian System, Link 0=g16
 Input=med/ts/CCC+[O]O_[CH2]CC+OO/conformers/CCC+[O]O_[CH2]CC+OO_forward_0.com
 Output=med/ts/CCC+[O]O_[CH2]CC+OO/conformers/CCC+[O]O_[CH2]CC+OO_forward_0.log
 Initial command:
 /shared/centos7/gaussian/g16/l1.exe "/scratch/harms.n/gauss_scrdir/Gau-19126.inp" -scrdir="/scratch/harms.n/gauss_scrdir/"
 Entering Link 1 = /shared/centos7/gaussian/g16/l1.exe PID=     19128.
  
 Copyright (c) 1988,1990,1992,1993,1995,1998,2003,2009,2016,
            Gaussian, Inc.  All Rights Reserved.
  
 This is part of the Gaussian(R) 16 program.  It is based on
 the Gaussian(R) 09 system (copyright 2009, Gaussian, Inc.),
 the Gaussian(R) 03 system (copyright 2003, Gaussian, Inc.),
 the Gaussian(R) 98 system (copyright 1998, Gaussian, Inc.),
 the Gaussian(R) 94 system (copyright 1995, Gaussian, Inc.),
 the Gaussian 92(TM) system (copyright 1992, Gaussian, Inc.),
 the Gaussian 90(TM) system (copyright 1990, Gaussian, Inc.),
 the Gaussian 88(TM) system (copyright 1988, Gaussian, Inc.),
 the Gaussian 86(TM) system (copyright 1986, Carnegie Mellon
 University), and the Gaussian 82(TM) system (copyright 1983,
 Carnegie Mellon University). Gaussian is a federally registered
 trademark of Gaussian, Inc.
  
 This software contains proprietary and confidential information,
 including trade secrets, belonging to Gaussian, Inc.
  
 This software is provided under written license and may be
 used, copied, transmitted, or stored only in accord with that
 written license.
  
 The following legend is applicable only to US Government
 contracts under FAR:
  
                    RESTRICTED RIGHTS LEGEND
  
 Use, reproduction and disclosure by the US Government is
 subject to restrictions as set forth in subparagraphs (a)
 and (c) of the Commercial Computer Software - Restricted
 Rights clause in FAR 52.227-19.
  
 Gaussian, Inc.
 340 Quinnipiac St., Bldg. 40, Wallingford CT 06492
  
  
 ---------------------------------------------------------------
 Warning -- This program may not be used in any manner that
 competes with the business of Gaussian, Inc. or will provide
 assistance to any competitor of Gaussian, Inc.  The licensee
 of this program is prohibited from giving any competitor of
 Gaussian, Inc. access to this program.  By using this program,
 the user acknowledges that Gaussian, Inc. is engaged in the
 business of creating and licensing software in the field of
 computational chemistry and represents and warrants to the
 licensee that it is not a competitor of Gaussian, Inc. and that
 it will not use this program in any manner prohibited above.
 ---------------------------------------------------------------
  

 Cite this work as:
 Gaussian 16, Revision A.03,
 M. J. Frisch, G. W. Trucks, H. B. Schlegel, G. E. Scuseria, 
 M. A. Robb, J. R. Cheeseman, G. Scalmani, V. Barone, 
 G. A. Petersson, H. Nakatsuji, X. Li, M. Caricato, A. V. Marenich, 
 J. Bloino, B. G. Janesko, R. Gomperts, B. Mennucci, H. P. Hratchian, 
 J. V. Ortiz, A. F. Izmaylov, J. L. Sonnenberg, D. Williams-Young, 
 F. Ding, F. Lipparini, F. Egidi, J. Goings, B. Peng, A. Petrone, 
 T. Henderson, D. Ranasinghe, V. G. Zakrzewski, J. Gao, N. Rega, 
 G. Zheng, W. Liang, M. Hada, M. Ehara, K. Toyota, R. Fukuda, 
 J. Hasegawa, M. Ishida, T. Nakajima, Y. Honda, O. Kitao, H. Nakai, 
 T. Vreven, K. Throssell, J. A. Montgomery, Jr., J. E. Peralta, 
 F. Ogliaro, M. J. Bearpark, J. J. Heyd, E. N. Brothers, K. N. Kudin, 
 V. N. Staroverov, T. A. Keith, R. Kobayashi, J. Normand, 
 K. Raghavachari, A. P. Rendell, J. C. Burant, S. S. Iyengar, 
 J. Tomasi, M. Cossi, J. M. Millam, M. Klene, C. Adamo, R. Cammi, 
 J. W. Ochterski, R. L. Martin, K. Morokuma, O. Farkas, 
 J. B. Foresman, and D. J. Fox, Gaussian, Inc., Wallingford CT, 2016.
 
 ******************************************
 Gaussian 16:  EM64L-G16RevA.03 25-Dec-2016
                 5-Sep-2019 
 ******************************************
 %nprocshared=20
 Will use up to   20 processors via shared memory.
 %mem=5GB
 ----------------------------------------------------------------------
 #p m062x/cc-pVTZ opt=(ts,calcfc,noeigentest,maxcycles=900) freq scf=(m
 axcycle=900) IOP(7/33=1,2/16=3)
 ----------------------------------------------------------------------
 1/5=1,6=900,10=4,11=1,18=20,26=3,38=1/1,3;
 2/9=110,12=2,16=3,17=6,18=5,40=1/2;
 3/5=16,6=1,11=2,25=1,30=1,71=2,74=-55,140=1/1,2,3;
 4//1;
 5/5=2,7=900,38=5/2;
 8/6=4,10=90,11=11/1;
 11/6=1,8=1,9=11,15=111,16=1/1,2,10;
 10/6=1,13=1/2;
 6/7=2,8=2,9=2,10=2,28=1/1;
 7/10=1,18=20,25=1,33=1/1,2,3,16;
 1/5=1,6=900,10=4,11=1,18=20,26=3/3(2);
 2/9=110,16=3/2;
 99//99;
 2/9=110,16=3/2;
 3/5=16,6=1,11=2,25=1,30=1,71=1,74=-55/1,2,3;
 4/5=5,16=3,69=1/1;
 5/5=2,7=900,38=5/2;
 7/33=1/1,2,3,16;
 1/5=1,6=900,11=1,18=20,26=3/3(-5);
 2/9=110,16=3/2;
 6/7=2,8=2,9=2,10=2,19=2,28=1/1;
 99/9=1/99;
 Leave Link    1 at Thu Sep  5 18:34:29 2019, MaxMem=   671088640 cpu:               4.7 elap:               2.4
 (Enter /shared/centos7/gaussian/g16/l101.exe)
 ------------------------------
 Gaussian input prepared by ASE
 ------------------------------
 Symbolic Z-matrix:
 Charge =  0 Multiplicity = 2
 O                    -1.77035  -0.64864   0.48644 
 O                    -1.65661   0.03197  -0.72188 
 C                     1.22598   0.17924   0.62072 
 C                     0.35841   1.19829  -0.05763 
 C                     1.89529  -0.76977  -0.36616 
 H                     0.62716  -0.388     1.3337 
 H                     1.98764   0.70437   1.20952 
 H                    -0.57156   0.45541  -0.73339 
 H                    -0.25955   1.81883   0.58278 
 H                     0.82819   1.75725  -0.86576 
 H                     1.14297  -1.32388  -0.92785 
 H                     2.53133  -1.48906   0.14572 
 H                     2.51185  -0.2227   -1.07963 
 H                    -2.26043  -0.02548   1.03682 
 
 Add virtual bond connecting atoms H8         and O2         Dist= 2.20D+00.
 Add virtual bond connecting atoms H8         and C4         Dist= 2.59D+00.
 ITRead=  0  0  0  0  0  0  0  0  0  0  0  0  0  0
 MicOpt= -1 -1 -1 -1 -1 -1 -1 -1 -1 -1 -1 -1 -1 -1
 NAtoms=     14 NQM=       14 NQMF=       0 NMMI=      0 NMMIF=      0
                NMic=       0 NMicF=      0.
                    Isotopes and Nuclear Properties:
 (Nuclear quadrupole moments (NQMom) in fm**2, nuclear magnetic moments (NMagM)
  in nuclear magnetons)

  Atom         1           2           3           4           5           6           7           8           9          10
 IAtWgt=          16          16          12          12          12           1           1           1           1           1
 AtmWgt=  15.9949146  15.9949146  12.0000000  12.0000000  12.0000000   1.0078250   1.0078250   1.0078250   1.0078250   1.0078250
 NucSpn=           0           0           0           0           0           1           1           1           1           1
 AtZEff=  -0.0000000  -0.0000000  -0.0000000  -0.0000000  -0.0000000  -0.0000000  -0.0000000  -0.0000000  -0.0000000  -0.0000000
 NQMom=    0.0000000   0.0000000   0.0000000   0.0000000   0.0000000   0.0000000   0.0000000   0.0000000   0.0000000   0.0000000
 NMagM=    0.0000000   0.0000000   0.0000000   0.0000000   0.0000000   2.7928460   2.7928460   2.7928460   2.7928460   2.7928460
 AtZNuc=   8.0000000   8.0000000   6.0000000   6.0000000   6.0000000   1.0000000   1.0000000   1.0000000   1.0000000   1.0000000

  Atom        11          12          13          14
 IAtWgt=           1           1           1           1
 AtmWgt=   1.0078250   1.0078250   1.0078250   1.0078250
 NucSpn=           1           1           1           1
 AtZEff=  -0.0000000  -0.0000000  -0.0000000  -0.0000000
 NQMom=    0.0000000   0.0000000   0.0000000   0.0000000
 NMagM=    2.7928460   2.7928460   2.7928460   2.7928460
 AtZNuc=   1.0000000   1.0000000   1.0000000   1.0000000
 Leave Link  101 at Thu Sep  5 18:34:31 2019, MaxMem=   671088640 cpu:               3.6 elap:               1.8
 (Enter /shared/centos7/gaussian/g16/l103.exe)

 GradGradGradGradGradGradGradGradGradGradGradGradGradGradGradGradGradGrad
 Berny optimization.
 Initialization pass.
                           ----------------------------
                           !    Initial Parameters    !
                           ! (Angstroms and Degrees)  !
 --------------------------                            --------------------------
 ! Name  Definition              Value          Derivative Info.                !
 --------------------------------------------------------------------------------
 ! R1    R(1,2)                  1.3915         calculate D2E/DX2 analytically  !
 ! R2    R(1,14)                 0.9651         calculate D2E/DX2 analytically  !
 ! R3    R(2,8)                  1.1648         calculate D2E/DX2 analytically  !
 ! R4    R(3,4)                  1.5004         calculate D2E/DX2 analytically  !
 ! R5    R(3,5)                  1.524          calculate D2E/DX2 analytically  !
 ! R6    R(3,6)                  1.0903         calculate D2E/DX2 analytically  !
 ! R7    R(3,7)                  1.0966         calculate D2E/DX2 analytically  !
 ! R8    R(4,8)                  1.3687         calculate D2E/DX2 analytically  !
 ! R9    R(4,9)                  1.0849         calculate D2E/DX2 analytically  !
 ! R10   R(4,10)                 1.0891         calculate D2E/DX2 analytically  !
 ! R11   R(5,11)                 1.0902         calculate D2E/DX2 analytically  !
 ! R12   R(5,12)                 1.0881         calculate D2E/DX2 analytically  !
 ! R13   R(5,13)                 1.0902         calculate D2E/DX2 analytically  !
 ! A1    A(2,1,14)             102.7616         calculate D2E/DX2 analytically  !
 ! A2    A(1,2,8)              105.2207         calculate D2E/DX2 analytically  !
 ! A3    A(4,3,5)              112.5883         calculate D2E/DX2 analytically  !
 ! A4    A(4,3,6)              109.3552         calculate D2E/DX2 analytically  !
 ! A5    A(4,3,7)              108.6091         calculate D2E/DX2 analytically  !
 ! A6    A(5,3,6)              109.9202         calculate D2E/DX2 analytically  !
 ! A7    A(5,3,7)              109.9287         calculate D2E/DX2 analytically  !
 ! A8    A(6,3,7)              106.2308         calculate D2E/DX2 analytically  !
 ! A9    A(3,4,8)              104.3265         calculate D2E/DX2 analytically  !
 ! A10   A(3,4,9)              116.8038         calculate D2E/DX2 analytically  !
 ! A11   A(3,4,10)             115.7605         calculate D2E/DX2 analytically  !
 ! A12   A(8,4,9)              102.4077         calculate D2E/DX2 analytically  !
 ! A13   A(8,4,10)             101.8463         calculate D2E/DX2 analytically  !
 ! A14   A(9,4,10)             112.9629         calculate D2E/DX2 analytically  !
 ! A15   A(3,5,11)             110.3085         calculate D2E/DX2 analytically  !
 ! A16   A(3,5,12)             111.3299         calculate D2E/DX2 analytically  !
 ! A17   A(3,5,13)             111.0822         calculate D2E/DX2 analytically  !
 ! A18   A(11,5,12)            108.0448         calculate D2E/DX2 analytically  !
 ! A19   A(11,5,13)            107.9475         calculate D2E/DX2 analytically  !
 ! A20   A(12,5,13)            108.0001         calculate D2E/DX2 analytically  !
 ! A21   A(2,8,4)              145.6251         calculate D2E/DX2 analytically  !
 ! D1    D(14,1,2,8)           101.3952         calculate D2E/DX2 analytically  !
 ! D2    D(1,2,8,4)            -53.4561         calculate D2E/DX2 analytically  !
 ! D3    D(5,3,4,8)             59.4769         calculate D2E/DX2 analytically  !
 ! D4    D(5,3,4,9)            171.655          calculate D2E/DX2 analytically  !
 ! D5    D(5,3,4,10)           -51.5312         calculate D2E/DX2 analytically  !
 ! D6    D(6,3,4,8)            -63.0206         calculate D2E/DX2 analytically  !
 ! D7    D(6,3,4,9)             49.1575         calculate D2E/DX2 analytically  !
 ! D8    D(6,3,4,10)          -174.0287         calculate D2E/DX2 analytically  !
 ! D9    D(7,3,4,8)           -178.5436         calculate D2E/DX2 analytically  !
 ! D10   D(7,3,4,9)            -66.3655         calculate D2E/DX2 analytically  !
 ! D11   D(7,3,4,10)            70.4483         calculate D2E/DX2 analytically  !
 ! D12   D(4,3,5,11)           -60.98           calculate D2E/DX2 analytically  !
 ! D13   D(4,3,5,12)           179.0801         calculate D2E/DX2 analytically  !
 ! D14   D(4,3,5,13)            58.6773         calculate D2E/DX2 analytically  !
 ! D15   D(6,3,5,11)            61.1991         calculate D2E/DX2 analytically  !
 ! D16   D(6,3,5,12)           -58.7409         calculate D2E/DX2 analytically  !
 ! D17   D(6,3,5,13)          -179.1437         calculate D2E/DX2 analytically  !
 ! D18   D(7,3,5,11)           177.7902         calculate D2E/DX2 analytically  !
 ! D19   D(7,3,5,12)            57.8503         calculate D2E/DX2 analytically  !
 ! D20   D(7,3,5,13)           -62.5525         calculate D2E/DX2 analytically  !
 ! D21   D(3,4,8,2)             98.7298         calculate D2E/DX2 analytically  !
 ! D22   D(9,4,8,2)            -23.4602         calculate D2E/DX2 analytically  !
 ! D23   D(10,4,8,2)          -140.4804         calculate D2E/DX2 analytically  !
 --------------------------------------------------------------------------------
 Trust Radius=3.00D-01 FncErr=1.00D-07 GrdErr=1.00D-06 EigMax=2.50D+02 EigMin=1.00D-04
 Number of steps in this run=    100 maximum allowed number of steps=    100.
 Search for a saddle point of order  1.
 GradGradGradGradGradGradGradGradGradGradGradGradGradGradGradGradGradGrad

 Leave Link  103 at Thu Sep  5 18:34:31 2019, MaxMem=   671088640 cpu:               1.8 elap:               0.9
 (Enter /shared/centos7/gaussian/g16/l202.exe)
                          Input orientation:                          
 ---------------------------------------------------------------------
 Center     Atomic      Atomic             Coordinates (Angstroms)
 Number     Number       Type             X           Y           Z
 ---------------------------------------------------------------------
      1          8           0       -1.770354   -0.648640    0.486442
      2          8           0       -1.656607    0.031971   -0.721880
      3          6           0        1.225981    0.179240    0.620722
      4          6           0        0.358406    1.198294   -0.057630
      5          6           0        1.895294   -0.769765   -0.366158
      6          1           0        0.627157   -0.387999    1.333695
      7          1           0        1.987639    0.704374    1.209518
      8          1           0       -0.571562    0.455407   -0.733385
      9          1           0       -0.259552    1.818830    0.582778
     10          1           0        0.828189    1.757245   -0.865762
     11          1           0        1.142973   -1.323879   -0.927854
     12          1           0        2.531332   -1.489064    0.145721
     13          1           0        2.511851   -0.222701   -1.079630
     14          1           0       -2.260425   -0.025475    1.036818
 ---------------------------------------------------------------------
                    Distance matrix (angstroms):
                    1          2          3          4          5
     1  O    0.000000
     2  O    1.391478   0.000000
     3  C    3.111501   3.183329   0.000000
     4  C    2.870331   2.421119   1.500440   0.000000
     5  C    3.765445   3.658595   1.523982   2.516043   0.000000
     6  H    2.556136   3.101184   1.090266   2.127049   2.154859
     7  H    4.059064   4.178870   1.096617   2.122268   2.159715
     8  H    2.035682   1.164797   2.267385   1.368710   2.778719
     9  H    2.894859   2.616631   2.212804   1.084924   3.499238
    10  H    3.790668   3.028446   2.204081   1.089128   2.788207
    11  H    3.308120   3.117435   2.159709   2.781042   1.090198
    12  H    4.396238   4.539285   2.170900   3.461915   1.088097
    13  H    4.579442   4.191525   2.169381   2.775074   1.090167
    14  H    0.965100   1.860353   3.517111   3.090906   4.448855
                    6          7          8          9         10
     6  H    0.000000
     7  H    1.749174   0.000000
     8  H    2.533985   3.222789   0.000000
     9  H    2.494038   2.585475   1.920562   0.000000
    10  H    3.078977   2.599932   1.916144   1.812523   0.000000
    11  H    2.501308   3.065229   2.478570   3.758418   3.097785
    12  H    2.499902   2.497686   3.765866   4.349967   3.802935
    13  H    3.066518   2.524770   3.176028   3.822581   2.607804
    14  H    2.925353   4.313763   2.493416   2.758823   4.041960
                   11         12         13         14
    11  H    0.000000
    12  H    1.762779   0.000000
    13  H    1.763365   1.762254   0.000000
    14  H    4.138708   5.088918   5.224258   0.000000
 Stoichiometry    C3H9O2(2)
 Framework group  C1[X(C3H9O2)]
 Deg. of freedom    36
 Full point group                 C1      NOp   1
 Largest Abelian subgroup         C1      NOp   1
 Largest concise Abelian subgroup C1      NOp   1
                         Standard orientation:                         
 ---------------------------------------------------------------------
 Center     Atomic      Atomic             Coordinates (Angstroms)
 Number     Number       Type             X           Y           Z
 ---------------------------------------------------------------------
      1          8           0       -1.770354   -0.648640    0.486442
      2          8           0       -1.656607    0.031971   -0.721880
      3          6           0        1.225981    0.179240    0.620722
      4          6           0        0.358406    1.198294   -0.057630
      5          6           0        1.895294   -0.769765   -0.366158
      6          1           0        0.627157   -0.387999    1.333695
      7          1           0        1.987639    0.704374    1.209518
      8          1           0       -0.571562    0.455407   -0.733385
      9          1           0       -0.259552    1.818830    0.582778
     10          1           0        0.828189    1.757245   -0.865762
     11          1           0        1.142973   -1.323879   -0.927854
     12          1           0        2.531332   -1.489064    0.145721
     13          1           0        2.511851   -0.222701   -1.079630
     14          1           0       -2.260425   -0.025475    1.036818
 ---------------------------------------------------------------------
 Rotational constants (GHZ):           7.3142317           2.4365694           2.2579482
 Leave Link  202 at Thu Sep  5 18:34:33 2019, MaxMem=   671088640 cpu:               2.8 elap:               1.4
 (Enter /shared/centos7/gaussian/g16/l301.exe)
 Standard basis: CC-pVTZ (5D, 7F)
 Ernie: Thresh=  0.10000D-02 Tol=  0.10000D-05 Strict=F.
 Ernie:  15 primitive shells out of 202 were deleted.
 There are   310 symmetry adapted cartesian basis functions of A   symmetry.
 There are   276 symmetry adapted basis functions of A   symmetry.
   276 basis functions,   413 primitive gaussians,   310 cartesian basis functions
    22 alpha electrons       21 beta electrons
       nuclear repulsion energy       189.1549036816 Hartrees.
 IExCor= 4336 DFT=T Ex+Corr=M062X ExCW=0 ScaHFX=  0.540000
 ScaDFX=  1.000000  1.000000  1.000000  1.000000 ScalE2=  1.000000  1.000000
 IRadAn=      5 IRanWt=     -1 IRanGd=            0 ICorTp=0 IEmpDi=  4
 NAtoms=   14 NActive=   14 NUniq=   14 SFac= 1.00D+00 NAtFMM=   60 NAOKFM=F Big=F
 Integral buffers will be    131072 words long.
 Raffenetti 2 integral format.
 Two-electron integral symmetry is turned on.
 Leave Link  301 at Thu Sep  5 18:34:34 2019, MaxMem=   671088640 cpu:               1.8 elap:               0.9
 (Enter /shared/centos7/gaussian/g16/l302.exe)
 NPDir=0 NMtPBC=     1 NCelOv=     1 NCel=       1 NClECP=     1 NCelD=      1
         NCelK=      1 NCelE2=     1 NClLst=     1 CellRange=     0.0.
 One-electron integrals computed using PRISM.
 One-electron integral symmetry used in STVInt
 NBasis=   276 RedAO= T EigKep=  7.29D-04  NBF=   276
 NBsUse=   276 1.00D-06 EigRej= -1.00D+00 NBFU=   276
 Precomputing XC quadrature grid using
 IXCGrd= 4 IRadAn=           5 IRanWt=          -1 IRanGd=           0 AccXCQ= 0.00D+00.
 Generated NRdTot=       0 NPtTot=           0 NUsed=           0 NTot=          32
 NSgBfM=   310   310   310   310   310 MxSgAt=    14 MxSgA2=    14.
 Leave Link  302 at Thu Sep  5 18:35:33 2019, MaxMem=   671088640 cpu:             118.0 elap:              59.0
 (Enter /shared/centos7/gaussian/g16/l303.exe)
 DipDrv:  MaxL=1.
 Leave Link  303 at Thu Sep  5 18:35:38 2019, MaxMem=   671088640 cpu:               9.9 elap:               5.0
 (Enter /shared/centos7/gaussian/g16/l401.exe)
 ExpMin= 1.03D-01 ExpMax= 1.53D+04 ExpMxC= 5.22D+02 IAcc=3 IRadAn=         5 AccDes= 0.00D+00
 Harris functional with IExCor= 1009 and IRadAn=       5 diagonalized for initial guess.
 HarFok:  IExCor= 1009 AccDes= 0.00D+00 IRadAn=         5 IDoV= 1 UseB2=F ITyADJ=14
 ICtDFT=  3500011 ScaDFX=  1.000000  1.000000  1.000000  1.000000
 FoFCou: FMM=F IPFlag=           0 FMFlag=      100000 FMFlg1=           0
         NFxFlg=           0 DoJE=T BraDBF=F KetDBF=T FulRan=T
         wScrn=  0.000000 ICntrl=       500 IOpCl=  0 I1Cent=   200000004 NGrid=           0
         NMat0=    1 NMatS0=      1 NMatT0=    0 NMatD0=    1 NMtDS0=    0 NMtDT0=    0
 Petite list used in FoFCou.
 Harris En= -269.915401055463    
 JPrj=0 DoOrth=F DoCkMO=F.
 Initial guess <Sx>= 0.0000 <Sy>= 0.0000 <Sz>= 0.5000 <S**2>= 0.7500 S= 0.5000
 Leave Link  401 at Thu Sep  5 18:36:12 2019, MaxMem=   671088640 cpu:              68.0 elap:              34.1
 (Enter /shared/centos7/gaussian/g16/l502.exe)
 Integral symmetry usage will be decided dynamically.
 UHF open shell SCF:
 Using DIIS extrapolation, IDIIS=  1040.
 NGot=   671088640 LenX=   670887394 LenY=   670790853
 Requested convergence on RMS density matrix=1.00D-08 within 900 cycles.
 Requested convergence on MAX density matrix=1.00D-06.
 Requested convergence on             energy=1.00D-06.
 No special actions if energy rises.
 Fock matrices will be formed incrementally for  20 cycles.
 Integral accuracy reduced to 1.0D-05 until final iterations.

 Cycle   1  Pass 0  IDiag  1:
 FoFJK:  IHMeth= 1 ICntrl=       0 DoSepK=F KAlg= 0 I1Cent=           0 FoldK=F
 IRaf= 970000000 NMat=       1 IRICut=       1 DoRegI=T DoRafI=F ISym2E= 0 IDoP0=0 IntGTp=1.
 FoFCou: FMM=F IPFlag=           0 FMFlag=      100000 FMFlg1=           0
         NFxFlg=           0 DoJE=F BraDBF=F KetDBF=F FulRan=T
         wScrn=  0.000000 ICntrl=         0 IOpCl=  1 I1Cent=           0 NGrid=           0
         NMat0=    1 NMatS0=      1 NMatT0=    0 NMatD0=    1 NMtDS0=    0 NMtDT0=    0
 Symmetry not used in FoFCou.
 E= -269.780898233753    
 DIIS: error= 2.82D-02 at cycle   1 NSaved=   1.
 NSaved= 1 IEnMin= 1 EnMin= -269.780898233753     IErMin= 1 ErrMin= 2.82D-02
 ErrMax= 2.82D-02  0.00D+00 EMaxC= 1.00D-01 BMatC= 8.95D-01 BMatP= 8.95D-01
 IDIUse=3 WtCom= 7.18D-01 WtEn= 2.82D-01
 Coeff-Com:  0.100D+01
 Coeff-En:   0.100D+01
 Coeff:      0.100D+01
 Gap=     0.325 Goal=   None    Shift=    0.000
 Gap=     0.350 Goal=   None    Shift=    0.000
 GapD=    0.325 DampG=1.000 DampE=0.500 DampFc=0.5000 IDamp=-1.
 Damping current iteration by 5.00D-01
 RMSDP=2.06D-03 MaxDP=1.07D-01              OVMax= 2.29D-01

 Cycle   2  Pass 0  IDiag  1:
 RMSU=  1.03D-03    CP:  9.97D-01
 E= -269.879832210312     Delta-E=       -0.098933976559 Rises=F Damp=T
 DIIS: error= 5.60D-03 at cycle   2 NSaved=   2.
 NSaved= 2 IEnMin= 2 EnMin= -269.879832210312     IErMin= 2 ErrMin= 5.60D-03
 ErrMax= 5.60D-03  0.00D+00 EMaxC= 1.00D-01 BMatC= 7.16D-02 BMatP= 8.95D-01
 IDIUse=3 WtCom= 9.44D-01 WtEn= 5.60D-02
 Coeff-Com: -0.107D+00 0.111D+01
 Coeff-En:   0.000D+00 0.100D+01
 Coeff:     -0.101D+00 0.110D+01
 Gap=     0.346 Goal=   None    Shift=    0.000
 Gap=     0.350 Goal=   None    Shift=    0.000
 RMSDP=5.25D-04 MaxDP=1.99D-02 DE=-9.89D-02 OVMax= 9.15D-02

 Cycle   3  Pass 0  IDiag  1:
 RMSU=  5.22D-04    CP:  1.00D+00  9.91D-01
 E= -269.974830893075     Delta-E=       -0.094998682762 Rises=F Damp=F
 DIIS: error= 3.98D-03 at cycle   3 NSaved=   3.
 NSaved= 3 IEnMin= 3 EnMin= -269.974830893075     IErMin= 3 ErrMin= 3.98D-03
 ErrMax= 3.98D-03  0.00D+00 EMaxC= 1.00D-01 BMatC= 1.85D-02 BMatP= 7.16D-02
 IDIUse=3 WtCom= 9.60D-01 WtEn= 3.98D-02
 Coeff-Com: -0.822D-01 0.355D+00 0.727D+00
 Coeff-En:   0.000D+00 0.000D+00 0.100D+01
 Coeff:     -0.789D-01 0.341D+00 0.738D+00
 Gap=     0.340 Goal=   None    Shift=    0.000
 Gap=     0.278 Goal=   None    Shift=    0.000
 RMSDP=2.13D-04 MaxDP=7.28D-03 DE=-9.50D-02 OVMax= 5.66D-02

 Cycle   4  Pass 0  IDiag  1:
 RMSU=  1.90D-04    CP:  1.00D+00  1.05D+00  8.67D-01
 E= -269.978272566882     Delta-E=       -0.003441673807 Rises=F Damp=F
 DIIS: error= 2.30D-03 at cycle   4 NSaved=   4.
 NSaved= 4 IEnMin= 4 EnMin= -269.978272566882     IErMin= 4 ErrMin= 2.30D-03
 ErrMax= 2.30D-03  0.00D+00 EMaxC= 1.00D-01 BMatC= 6.94D-03 BMatP= 1.85D-02
 IDIUse=3 WtCom= 9.77D-01 WtEn= 2.30D-02
 Coeff-Com: -0.307D-01 0.780D-01 0.403D+00 0.550D+00
 Coeff-En:   0.000D+00 0.000D+00 0.115D+00 0.885D+00
 Coeff:     -0.300D-01 0.762D-01 0.396D+00 0.557D+00
 Gap=     0.338 Goal=   None    Shift=    0.000
 Gap=     0.280 Goal=   None    Shift=    0.000
 RMSDP=9.45D-05 MaxDP=4.65D-03 DE=-3.44D-03 OVMax= 1.28D-02

 Cycle   5  Pass 0  IDiag  1:
 RMSU=  6.57D-05    CP:  1.00D+00  1.05D+00  9.66D-01  7.69D-01
 E= -269.979599398156     Delta-E=       -0.001326831274 Rises=F Damp=F
 DIIS: error= 4.32D-04 at cycle   5 NSaved=   5.
 NSaved= 5 IEnMin= 5 EnMin= -269.979599398156     IErMin= 5 ErrMin= 4.32D-04
 ErrMax= 4.32D-04  0.00D+00 EMaxC= 1.00D-01 BMatC= 4.23D-04 BMatP= 6.94D-03
 IDIUse=3 WtCom= 9.96D-01 WtEn= 4.32D-03
 Coeff-Com: -0.144D-02-0.101D-01 0.781D-01 0.192D+00 0.741D+00
 Coeff-En:   0.000D+00 0.000D+00 0.000D+00 0.000D+00 0.100D+01
 Coeff:     -0.144D-02-0.101D-01 0.778D-01 0.192D+00 0.742D+00
 Gap=     0.340 Goal=   None    Shift=    0.000
 Gap=     0.280 Goal=   None    Shift=    0.000
 RMSDP=4.20D-05 MaxDP=1.57D-03 DE=-1.33D-03 OVMax= 1.04D-02

 Cycle   6  Pass 0  IDiag  1:
 RMSU=  2.67D-05    CP:  1.00D+00  1.05D+00  9.96D-01  8.95D-01  1.22D+00
 E= -269.979774954740     Delta-E=       -0.000175556584 Rises=F Damp=F
 DIIS: error= 3.08D-04 at cycle   6 NSaved=   6.
 NSaved= 6 IEnMin= 6 EnMin= -269.979774954740     IErMin= 6 ErrMin= 3.08D-04
 ErrMax= 3.08D-04  0.00D+00 EMaxC= 1.00D-01 BMatC= 1.25D-04 BMatP= 4.23D-04
 IDIUse=3 WtCom= 9.97D-01 WtEn= 3.08D-03
 Coeff-Com:  0.739D-02-0.219D-01-0.612D-01-0.847D-01 0.272D+00 0.888D+00
 Coeff-En:   0.000D+00 0.000D+00 0.000D+00 0.000D+00 0.000D+00 0.100D+01
 Coeff:      0.736D-02-0.219D-01-0.610D-01-0.845D-01 0.272D+00 0.888D+00
 Gap=     0.341 Goal=   None    Shift=    0.000
 Gap=     0.283 Goal=   None    Shift=    0.000
 RMSDP=3.30D-05 MaxDP=1.13D-03 DE=-1.76D-04 OVMax= 1.05D-02

 Cycle   7  Pass 0  IDiag  1:
 RMSU=  1.55D-05    CP:  1.00D+00  1.04D+00  1.01D+00  9.72D-01  1.56D+00
                    CP:  1.19D+00
 E= -269.979854436831     Delta-E=       -0.000079482091 Rises=F Damp=F
 DIIS: error= 1.41D-04 at cycle   7 NSaved=   7.
 NSaved= 7 IEnMin= 7 EnMin= -269.979854436831     IErMin= 7 ErrMin= 1.41D-04
 ErrMax= 1.41D-04  0.00D+00 EMaxC= 1.00D-01 BMatC= 3.99D-05 BMatP= 1.25D-04
 IDIUse=3 WtCom= 9.99D-01 WtEn= 1.41D-03
 Coeff-Com:  0.308D-02-0.538D-02-0.431D-01-0.104D+00-0.122D+00 0.406D+00
 Coeff-Com:  0.866D+00
 Coeff-En:   0.000D+00 0.000D+00 0.000D+00 0.000D+00 0.000D+00 0.000D+00
 Coeff-En:   0.100D+01
 Coeff:      0.307D-02-0.537D-02-0.430D-01-0.104D+00-0.122D+00 0.406D+00
 Coeff:      0.866D+00
 Gap=     0.342 Goal=   None    Shift=    0.000
 Gap=     0.283 Goal=   None    Shift=    0.000
 RMSDP=2.21D-05 MaxDP=6.20D-04 DE=-7.95D-05 OVMax= 6.09D-03

 Cycle   8  Pass 0  IDiag  1:
 RMSU=  7.07D-06    CP:  1.00D+00  1.04D+00  1.03D+00  1.01D+00  1.79D+00
                    CP:  1.56D+00  1.19D+00
 E= -269.979878878084     Delta-E=       -0.000024441253 Rises=F Damp=F
 DIIS: error= 5.85D-05 at cycle   8 NSaved=   8.
 NSaved= 8 IEnMin= 8 EnMin= -269.979878878084     IErMin= 8 ErrMin= 5.85D-05
 ErrMax= 5.85D-05  0.00D+00 EMaxC= 1.00D-01 BMatC= 3.24D-06 BMatP= 3.99D-05
 IDIUse=1 WtCom= 1.00D+00 WtEn= 0.00D+00
 Coeff-Com: -0.971D-03 0.311D-02 0.977D-02 0.493D-02-0.324D-01-0.838D-01
 Coeff-Com:  0.350D-01 0.106D+01
 Coeff:     -0.971D-03 0.311D-02 0.977D-02 0.493D-02-0.324D-01-0.838D-01
 Coeff:      0.350D-01 0.106D+01
 Gap=     0.342 Goal=   None    Shift=    0.000
 Gap=     0.284 Goal=   None    Shift=    0.000
 RMSDP=7.49D-06 MaxDP=2.75D-04 DE=-2.44D-05 OVMax= 2.67D-03

 Initial convergence to 1.0D-05 achieved.  Increase integral accuracy.
 Cycle   9  Pass 1  IDiag  1:
 E= -269.979877468600     Delta-E=        0.000001409484 Rises=F Damp=F
 DIIS: error= 3.76D-05 at cycle   1 NSaved=   1.
 NSaved= 1 IEnMin= 1 EnMin= -269.979877468600     IErMin= 1 ErrMin= 3.76D-05
 ErrMax= 3.76D-05  0.00D+00 EMaxC= 1.00D-01 BMatC= 2.17D-06 BMatP= 2.17D-06
 IDIUse=1 WtCom= 1.00D+00 WtEn= 0.00D+00
 Coeff-Com:  0.100D+01
 Coeff:      0.100D+01
 Gap=     0.342 Goal=   None    Shift=    0.000
 Gap=     0.283 Goal=   None    Shift=    0.000
 RMSDP=7.49D-06 MaxDP=2.75D-04 DE= 1.41D-06 OVMax= 8.88D-04

 Cycle  10  Pass 1  IDiag  1:
 RMSU=  5.96D-06    CP:  1.00D+00
 E= -269.979878513723     Delta-E=       -0.000001045123 Rises=F Damp=F
 DIIS: error= 2.97D-05 at cycle   2 NSaved=   2.
 NSaved= 2 IEnMin= 2 EnMin= -269.979878513723     IErMin= 2 ErrMin= 2.97D-05
 ErrMax= 2.97D-05  0.00D+00 EMaxC= 1.00D-01 BMatC= 8.16D-07 BMatP= 2.17D-06
 IDIUse=1 WtCom= 1.00D+00 WtEn= 0.00D+00
 Coeff-Com:  0.296D+00 0.704D+00
 Coeff:      0.296D+00 0.704D+00
 Gap=     0.342 Goal=   None    Shift=    0.000
 Gap=     0.284 Goal=   None    Shift=    0.000
 RMSDP=1.79D-06 MaxDP=7.63D-05 DE=-1.05D-06 OVMax= 6.31D-04

 Cycle  11  Pass 1  IDiag  1:
 RMSU=  1.70D-06    CP:  1.00D+00  1.09D+00
 E= -269.979878928917     Delta-E=       -0.000000415194 Rises=F Damp=F
 DIIS: error= 1.95D-05 at cycle   3 NSaved=   3.
 NSaved= 3 IEnMin= 3 EnMin= -269.979878928917     IErMin= 3 ErrMin= 1.95D-05
 ErrMax= 1.95D-05  0.00D+00 EMaxC= 1.00D-01 BMatC= 3.48D-07 BMatP= 8.16D-07
 IDIUse=1 WtCom= 1.00D+00 WtEn= 0.00D+00
 Coeff-Com: -0.136D+00 0.294D+00 0.842D+00
 Coeff:     -0.136D+00 0.294D+00 0.842D+00
 Gap=     0.342 Goal=   None    Shift=    0.000
 Gap=     0.284 Goal=   None    Shift=    0.000
 RMSDP=1.81D-06 MaxDP=7.99D-05 DE=-4.15D-07 OVMax= 5.19D-04

 Cycle  12  Pass 1  IDiag  1:
 RMSU=  1.21D-06    CP:  1.00D+00  1.28D+00  1.44D+00
 E= -269.979879220132     Delta-E=       -0.000000291215 Rises=F Damp=F
 DIIS: error= 1.09D-05 at cycle   4 NSaved=   4.
 NSaved= 4 IEnMin= 4 EnMin= -269.979879220132     IErMin= 4 ErrMin= 1.09D-05
 ErrMax= 1.09D-05  0.00D+00 EMaxC= 1.00D-01 BMatC= 8.49D-08 BMatP= 3.48D-07
 IDIUse=1 WtCom= 1.00D+00 WtEn= 0.00D+00
 Coeff-Com: -0.117D+00-0.667D-01 0.167D+00 0.102D+01
 Coeff:     -0.117D+00-0.667D-01 0.167D+00 0.102D+01
 Gap=     0.342 Goal=   None    Shift=    0.000
 Gap=     0.284 Goal=   None    Shift=    0.000
 RMSDP=1.46D-06 MaxDP=6.71D-05 DE=-2.91D-07 OVMax= 5.22D-04

 Cycle  13  Pass 1  IDiag  1:
 RMSU=  4.78D-07    CP:  1.00D+00  1.41D+00  1.98D+00  1.59D+00
 E= -269.979879355106     Delta-E=       -0.000000134974 Rises=F Damp=F
 DIIS: error= 7.10D-06 at cycle   5 NSaved=   5.
 NSaved= 5 IEnMin= 5 EnMin= -269.979879355106     IErMin= 5 ErrMin= 7.10D-06
 ErrMax= 7.10D-06  0.00D+00 EMaxC= 1.00D-01 BMatC= 5.30D-08 BMatP= 8.49D-08
 IDIUse=1 WtCom= 1.00D+00 WtEn= 0.00D+00
 Coeff-Com:  0.105D-01-0.207D+00-0.441D+00 0.659D+00 0.978D+00
 Coeff:      0.105D-01-0.207D+00-0.441D+00 0.659D+00 0.978D+00
 Gap=     0.342 Goal=   None    Shift=    0.000
 Gap=     0.284 Goal=   None    Shift=    0.000
 RMSDP=1.44D-06 MaxDP=6.28D-05 DE=-1.35D-07 OVMax= 4.82D-04

 Cycle  14  Pass 1  IDiag  1:
 RMSU=  2.00D-07    CP:  1.00D+00  1.52D+00  2.50D+00  2.30D+00  1.16D+00
 E= -269.979879414773     Delta-E=       -0.000000059667 Rises=F Damp=F
 DIIS: error= 1.76D-06 at cycle   6 NSaved=   6.
 NSaved= 6 IEnMin= 6 EnMin= -269.979879414773     IErMin= 6 ErrMin= 1.76D-06
 ErrMax= 1.76D-06  0.00D+00 EMaxC= 1.00D-01 BMatC= 5.23D-09 BMatP= 5.30D-08
 IDIUse=1 WtCom= 1.00D+00 WtEn= 0.00D+00
 Coeff-Com:  0.148D-01-0.960D-01-0.226D+00 0.223D+00 0.481D+00 0.604D+00
 Coeff:      0.148D-01-0.960D-01-0.226D+00 0.223D+00 0.481D+00 0.604D+00
 Gap=     0.342 Goal=   None    Shift=    0.000
 Gap=     0.284 Goal=   None    Shift=    0.000
 RMSDP=2.10D-07 MaxDP=1.03D-05 DE=-5.97D-08 OVMax= 5.80D-05

 Cycle  15  Pass 1  IDiag  1:
 RMSU=  8.17D-08    CP:  1.00D+00  1.54D+00  2.57D+00  2.40D+00  1.27D+00
                    CP:  1.05D+00
 E= -269.979879417144     Delta-E=       -0.000000002370 Rises=F Damp=F
 DIIS: error= 5.98D-07 at cycle   7 NSaved=   7.
 NSaved= 7 IEnMin= 7 EnMin= -269.979879417144     IErMin= 7 ErrMin= 5.98D-07
 ErrMax= 5.98D-07  0.00D+00 EMaxC= 1.00D-01 BMatC= 6.18D-10 BMatP= 5.23D-09
 IDIUse=1 WtCom= 1.00D+00 WtEn= 0.00D+00
 Coeff-Com: -0.378D-03 0.394D-01 0.898D-01-0.157D+00-0.169D+00 0.100D+00
 Coeff-Com:  0.110D+01
 Coeff:     -0.378D-03 0.394D-01 0.898D-01-0.157D+00-0.169D+00 0.100D+00
 Coeff:      0.110D+01
 Gap=     0.342 Goal=   None    Shift=    0.000
 Gap=     0.284 Goal=   None    Shift=    0.000
 RMSDP=1.06D-07 MaxDP=6.32D-06 DE=-2.37D-09 OVMax= 2.83D-05

 Cycle  16  Pass 1  IDiag  1:
 RMSU=  4.39D-08    CP:  1.00D+00  1.54D+00  2.60D+00  2.43D+00  1.35D+00
                    CP:  1.31D+00  1.29D+00
 E= -269.979879417688     Delta-E=       -0.000000000545 Rises=F Damp=F
 DIIS: error= 2.70D-07 at cycle   8 NSaved=   8.
 NSaved= 8 IEnMin= 8 EnMin= -269.979879417688     IErMin= 8 ErrMin= 2.70D-07
 ErrMax= 2.70D-07  0.00D+00 EMaxC= 1.00D-01 BMatC= 9.03D-11 BMatP= 6.18D-10
 IDIUse=1 WtCom= 1.00D+00 WtEn= 0.00D+00
 Coeff-Com: -0.257D-02 0.263D-01 0.652D-01-0.837D-01-0.127D+00-0.716D-01
 Coeff-Com:  0.252D+00 0.941D+00
 Coeff:     -0.257D-02 0.263D-01 0.652D-01-0.837D-01-0.127D+00-0.716D-01
 Coeff:      0.252D+00 0.941D+00
 Gap=     0.342 Goal=   None    Shift=    0.000
 Gap=     0.284 Goal=   None    Shift=    0.000
 RMSDP=3.92D-08 MaxDP=2.60D-06 DE=-5.45D-10 OVMax= 1.27D-05

 Cycle  17  Pass 1  IDiag  1:
 RMSU=  1.59D-08    CP:  1.00D+00  1.54D+00  2.61D+00  2.43D+00  1.37D+00
                    CP:  1.40D+00  1.49D+00  1.36D+00
 E= -269.979879417774     Delta-E=       -0.000000000086 Rises=F Damp=F
 DIIS: error= 1.10D-07 at cycle   9 NSaved=   9.
 NSaved= 9 IEnMin= 9 EnMin= -269.979879417774     IErMin= 9 ErrMin= 1.10D-07
 ErrMax= 1.10D-07  0.00D+00 EMaxC= 1.00D-01 BMatC= 1.45D-11 BMatP= 9.03D-11
 IDIUse=1 WtCom= 1.00D+00 WtEn= 0.00D+00
 Coeff-Com: -0.339D-03-0.214D-02-0.160D-02 0.807D-02 0.675D-02-0.182D-01
 Coeff-Com: -0.143D+00 0.164D+00 0.987D+00
 Coeff:     -0.339D-03-0.214D-02-0.160D-02 0.807D-02 0.675D-02-0.182D-01
 Coeff:     -0.143D+00 0.164D+00 0.987D+00
 Gap=     0.342 Goal=   None    Shift=    0.000
 Gap=     0.284 Goal=   None    Shift=    0.000
 RMSDP=1.52D-08 MaxDP=7.45D-07 DE=-8.58D-11 OVMax= 4.04D-06

 Cycle  18  Pass 1  IDiag  1:
 RMSU=  5.79D-09    CP:  1.00D+00  1.54D+00  2.61D+00  2.43D+00  1.37D+00
                    CP:  1.43D+00  1.54D+00  1.61D+00  1.24D+00
 E= -269.979879417783     Delta-E=       -0.000000000009 Rises=F Damp=F
 DIIS: error= 3.33D-08 at cycle  10 NSaved=  10.
 NSaved=10 IEnMin=10 EnMin= -269.979879417783     IErMin=10 ErrMin= 3.33D-08
 ErrMax= 3.33D-08  0.00D+00 EMaxC= 1.00D-01 BMatC= 2.13D-12 BMatP= 1.45D-11
 IDIUse=1 WtCom= 1.00D+00 WtEn= 0.00D+00
 Coeff-Com:  0.284D-03-0.453D-02-0.939D-02 0.136D-01 0.203D-01 0.777D-02
 Coeff-Com: -0.817D-01-0.843D-01 0.272D+00 0.866D+00
 Coeff:      0.284D-03-0.453D-02-0.939D-02 0.136D-01 0.203D-01 0.777D-02
 Coeff:     -0.817D-01-0.843D-01 0.272D+00 0.866D+00
 Gap=     0.342 Goal=   None    Shift=    0.000
 Gap=     0.284 Goal=   None    Shift=    0.000
 RMSDP=5.31D-09 MaxDP=1.98D-07 DE=-9.09D-12 OVMax= 1.54D-06

 SCF Done:  E(UM062X) =  -269.979879418     A.U. after   18 cycles
            NFock= 18  Conv=0.53D-08     -V/T= 2.0054
 <Sx>= 0.0000 <Sy>= 0.0000 <Sz>= 0.5000 <S**2>= 0.7598 S= 0.5049
 <L.S>= 0.000000000000E+00
 KE= 2.685261807765D+02 PE=-1.010394455521D+03 EE= 2.827334916448D+02
 Annihilation of the first spin contaminant:
 S**2 before annihilation     0.7598,   after     0.7500
 Leave Link  502 at Thu Sep  5 19:01:04 2019, MaxMem=   671088640 cpu:            2982.6 elap:            1491.8
 (Enter /shared/centos7/gaussian/g16/l801.exe)
 DoSCS=F DFT=T ScalE2(SS,OS)=  1.000000  1.000000
 Range of M.O.s used for correlation:     1   276
 NBasis=   276 NAE=    22 NBE=    21 NFC=     0 NFV=     0
 NROrb=    276 NOA=    22 NOB=    21 NVA=   254 NVB=   255

 **** Warning!!: The largest alpha MO coefficient is  0.12117267D+02


 **** Warning!!: The largest beta MO coefficient is  0.12115546D+02

 Leave Link  801 at Thu Sep  5 19:01:05 2019, MaxMem=   671088640 cpu:               1.6 elap:               0.9
 (Enter /shared/centos7/gaussian/g16/l1101.exe)
 Using compressed storage, NAtomX=    14.
 Will process     15 centers per pass.
 Leave Link 1101 at Thu Sep  5 19:01:34 2019, MaxMem=   671088640 cpu:              58.4 elap:              29.2
 (Enter /shared/centos7/gaussian/g16/l1102.exe)
 Symmetrizing basis deriv contribution to polar:
 IMax=3 JMax=2 DiffMx= 0.00D+00
 Leave Link 1102 at Thu Sep  5 19:01:37 2019, MaxMem=   671088640 cpu:               5.2 elap:               2.6
 (Enter /shared/centos7/gaussian/g16/l1110.exe)
 Forming Gx(P) for the SCF density, NAtomX=    14.
 Integral derivatives from FoFJK, PRISM(SPDF).
 Do as many integral derivatives as possible in FoFJK.
 G2DrvN: MDV=     671087496.
 G2DrvN: will do    15 centers at a time, making    1 passes.
 Calling FoFCou, ICntrl=  3107 FMM=F I1Cent=   0 AccDes= 0.00D+00.
 FoFJK:  IHMeth= 1 ICntrl=    3107 DoSepK=F KAlg= 0 I1Cent=           0 FoldK=F
 IRaf=         0 NMat=       1 IRICut=       1 DoRegI=T DoRafI=F ISym2E= 0 IDoP0=0 IntGTp=1.
 FoFCou: FMM=F IPFlag=           0 FMFlag=      100000 FMFlg1=           0
         NFxFlg=           0 DoJE=F BraDBF=F KetDBF=F FulRan=T
         wScrn=  0.000000 ICntrl=      3107 IOpCl=  1 I1Cent=           0 NGrid=           0
         NMat0=    1 NMatS0=      1 NMatT0=    0 NMatD0=    1 NMtDS0=    0 NMtDT0=    0
 Symmetry not used in FoFCou.
 End of G2Drv F.D. properties file   721 does not exist.
 End of G2Drv F.D. properties file   722 does not exist.
 End of G2Drv F.D. properties file   788 does not exist.
 Leave Link 1110 at Thu Sep  5 19:33:53 2019, MaxMem=   671088640 cpu:            3870.8 elap:            1935.7
 (Enter /shared/centos7/gaussian/g16/l1002.exe)
 Minotr:  UHF open shell wavefunction.
          IDoAtm=11111111111111
          Direct CPHF calculation.
          Differentiating once with respect to nuclear coordinates.
          Requested convergence is 1.0D-08 RMS, and 1.0D-07 maximum.
          Secondary convergence is 1.0D-12 RMS, and 1.0D-12 maximum.
          NewPWx=T KeepS1=F KeepF1=F KeepIn=T MapXYZ=F SortEE=F KeepMc=T.
         4173 words used for storage of precomputed grid.
 Two-electron integrals replicated using symmetry.
          MDV=     671088640 using IRadAn=       1.
          Solving linear equations simultaneously, MaxMat=     380.
 FoF2E skips out because all densities are zero.
 CalDSu exits because no D1Ps are significant.
 FoFJK:  IHMeth= 1 ICntrl=       0 DoSepK=F KAlg= 0 I1Cent=           0 FoldK=F
 IRaf= 970000000 NMat=      42 IRICut=     105 DoRegI=T DoRafI=T ISym2E= 2 IDoP0=3 IntGTp=3.
 FoFCou: FMM=F IPFlag=           0 FMFlag=      100000 FMFlg1=           0
         NFxFlg=           0 DoJE=F BraDBF=F KetDBF=F FulRan=T
         wScrn=  0.000000 ICntrl=         0 IOpCl=  1 I1Cent=           0 NGrid=           0
         NMat0=   42 NMatS0=     42 NMatT0=    0 NMatD0=   42 NMtDS0=    0 NMtDT0=    0
 Integrals replicated using symmetry in FoFCou.
 Raff kept on since  94.87% of shell-pairs survive, threshold=   0.20 IRatSp=95.
          There are    45 degrees of freedom in the 1st order CPHF.  IDoFFX=6 NUNeed=     0.
     39 vectors produced by pass  0 Test12= 2.43D-14 2.22D-09 XBig12= 1.44D-01 1.37D-01.
 AX will form    39 AO Fock derivatives at one time.
     39 vectors produced by pass  1 Test12= 2.43D-14 2.22D-09 XBig12= 1.37D-02 2.71D-02.
     39 vectors produced by pass  2 Test12= 2.43D-14 2.22D-09 XBig12= 8.93D-04 5.58D-03.
     39 vectors produced by pass  3 Test12= 2.43D-14 2.22D-09 XBig12= 2.19D-05 6.14D-04.
     39 vectors produced by pass  4 Test12= 2.43D-14 2.22D-09 XBig12= 3.19D-07 6.40D-05.
     39 vectors produced by pass  5 Test12= 2.43D-14 2.22D-09 XBig12= 3.85D-09 8.02D-06.
     35 vectors produced by pass  6 Test12= 2.43D-14 2.22D-09 XBig12= 3.40D-11 7.37D-07.
     15 vectors produced by pass  7 Test12= 2.43D-14 2.22D-09 XBig12= 2.78D-13 5.34D-08.
      2 vectors produced by pass  8 Test12= 2.43D-14 2.22D-09 XBig12= 1.90D-15 4.35D-09.
 InvSVY:  IOpt=1 It=  1 EMax= 2.00D-15
 Solved reduced A of dimension   286 with    39 vectors.
 End of Minotr F.D. properties file   721 does not exist.
 End of Minotr F.D. properties file   722 does not exist.
 End of Minotr F.D. properties file   788 does not exist.
 Leave Link 1002 at Thu Sep  5 20:28:35 2019, MaxMem=   671088640 cpu:            6563.9 elap:            3282.3
 (Enter /shared/centos7/gaussian/g16/l601.exe)
 Copying SCF densities to generalized density rwf, IOpCl= 1 IROHF=0.

 **********************************************************************

            Population analysis using the SCF density.

 **********************************************************************

 Orbital symmetries:
 Alpha Orbitals:
       Occupied  (A) (A) (A) (A) (A) (A) (A) (A) (A) (A) (A) (A)
                 (A) (A) (A) (A) (A) (A) (A) (A) (A) (A)
       Virtual   (A) (A) (A) (A) (A) (A) (A) (A) (A) (A) (A) (A)
                 (A) (A) (A) (A) (A) (A) (A) (A) (A) (A) (A) (A)
                 (A) (A) (A) (A) (A) (A) (A) (A) (A) (A) (A) (A)
                 (A) (A) (A) (A) (A) (A) (A) (A) (A) (A) (A) (A)
                 (A) (A) (A) (A) (A) (A) (A) (A) (A) (A) (A) (A)
                 (A) (A) (A) (A) (A) (A) (A) (A) (A) (A) (A) (A)
                 (A) (A) (A) (A) (A) (A) (A) (A) (A) (A) (A) (A)
                 (A) (A) (A) (A) (A) (A) (A) (A) (A) (A) (A) (A)
                 (A) (A) (A) (A) (A) (A) (A) (A) (A) (A) (A) (A)
                 (A) (A) (A) (A) (A) (A) (A) (A) (A) (A) (A) (A)
                 (A) (A) (A) (A) (A) (A) (A) (A) (A) (A) (A) (A)
                 (A) (A) (A) (A) (A) (A) (A) (A) (A) (A) (A) (A)
                 (A) (A) (A) (A) (A) (A) (A) (A) (A) (A) (A) (A)
                 (A) (A) (A) (A) (A) (A) (A) (A) (A) (A) (A) (A)
                 (A) (A) (A) (A) (A) (A) (A) (A) (A) (A) (A) (A)
                 (A) (A) (A) (A) (A) (A) (A) (A) (A) (A) (A) (A)
                 (A) (A) (A) (A) (A) (A) (A) (A) (A) (A) (A) (A)
                 (A) (A) (A) (A) (A) (A) (A) (A) (A) (A) (A) (A)
                 (A) (A) (A) (A) (A) (A) (A) (A) (A) (A) (A) (A)
                 (A) (A) (A) (A) (A) (A) (A) (A) (A) (A) (A) (A)
                 (A) (A) (A) (A) (A) (A) (A) (A) (A) (A) (A) (A)
                 (A) (A)
 Beta  Orbitals:
       Occupied  (A) (A) (A) (A) (A) (A) (A) (A) (A) (A) (A) (A)
                 (A) (A) (A) (A) (A) (A) (A) (A) (A)
       Virtual   (A) (A) (A) (A) (A) (A) (A) (A) (A) (A) (A) (A)
                 (A) (A) (A) (A) (A) (A) (A) (A) (A) (A) (A) (A)
                 (A) (A) (A) (A) (A) (A) (A) (A) (A) (A) (A) (A)
                 (A) (A) (A) (A) (A) (A) (A) (A) (A) (A) (A) (A)
                 (A) (A) (A) (A) (A) (A) (A) (A) (A) (A) (A) (A)
                 (A) (A) (A) (A) (A) (A) (A) (A) (A) (A) (A) (A)
                 (A) (A) (A) (A) (A) (A) (A) (A) (A) (A) (A) (A)
                 (A) (A) (A) (A) (A) (A) (A) (A) (A) (A) (A) (A)
                 (A) (A) (A) (A) (A) (A) (A) (A) (A) (A) (A) (A)
                 (A) (A) (A) (A) (A) (A) (A) (A) (A) (A) (A) (A)
                 (A) (A) (A) (A) (A) (A) (A) (A) (A) (A) (A) (A)
                 (A) (A) (A) (A) (A) (A) (A) (A) (A) (A) (A) (A)
                 (A) (A) (A) (A) (A) (A) (A) (A) (A) (A) (A) (A)
                 (A) (A) (A) (A) (A) (A) (A) (A) (A) (A) (A) (A)
                 (A) (A) (A) (A) (A) (A) (A) (A) (A) (A) (A) (A)
                 (A) (A) (A) (A) (A) (A) (A) (A) (A) (A) (A) (A)
                 (A) (A) (A) (A) (A) (A) (A) (A) (A) (A) (A) (A)
                 (A) (A) (A) (A) (A) (A) (A) (A) (A) (A) (A) (A)
                 (A) (A) (A) (A) (A) (A) (A) (A) (A) (A) (A) (A)
                 (A) (A) (A) (A) (A) (A) (A) (A) (A) (A) (A) (A)
                 (A) (A) (A) (A) (A) (A) (A) (A) (A) (A) (A) (A)
                 (A) (A) (A)
 The electronic state is 2-A.
 Alpha  occ. eigenvalues --  -19.68807 -19.68401 -10.55337 -10.54126 -10.52599
 Alpha  occ. eigenvalues --   -1.26773  -0.99130  -0.89641  -0.78299  -0.68210
 Alpha  occ. eigenvalues --   -0.61795  -0.59081  -0.53602  -0.51891  -0.51743
 Alpha  occ. eigenvalues --   -0.47902  -0.42882  -0.41792  -0.40815  -0.39813
 Alpha  occ. eigenvalues --   -0.37483  -0.28815
 Alpha virt. eigenvalues --    0.05375   0.08093   0.10273   0.11560   0.12310
 Alpha virt. eigenvalues --    0.14794   0.15192   0.16601   0.16910   0.19947
 Alpha virt. eigenvalues --    0.23138   0.26423   0.28257   0.29150   0.30286
 Alpha virt. eigenvalues --    0.32404   0.35465   0.38243   0.43076   0.43755
 Alpha virt. eigenvalues --    0.44677   0.46384   0.47652   0.48588   0.49198
 Alpha virt. eigenvalues --    0.50800   0.51256   0.52381   0.53186   0.53613
 Alpha virt. eigenvalues --    0.56345   0.58465   0.59830   0.62463   0.65190
 Alpha virt. eigenvalues --    0.69157   0.70017   0.70784   0.73048   0.75082
 Alpha virt. eigenvalues --    0.78283   0.78652   0.82822   0.86058   0.88363
 Alpha virt. eigenvalues --    0.90988   0.92719   0.95047   0.97281   0.99685
 Alpha virt. eigenvalues --    1.01104   1.04310   1.06221   1.07782   1.11708
 Alpha virt. eigenvalues --    1.12742   1.13210   1.15665   1.17017   1.18949
 Alpha virt. eigenvalues --    1.20062   1.21208   1.22062   1.22642   1.26278
 Alpha virt. eigenvalues --    1.29459   1.30399   1.32016   1.35402   1.35788
 Alpha virt. eigenvalues --    1.38161   1.40675   1.42729   1.43411   1.46727
 Alpha virt. eigenvalues --    1.48581   1.52728   1.54312   1.55192   1.58270
 Alpha virt. eigenvalues --    1.61231   1.61525   1.65202   1.67855   1.80841
 Alpha virt. eigenvalues --    1.83448   1.92031   1.93676   2.00926   2.09963
 Alpha virt. eigenvalues --    2.16122   2.21252   2.23507   2.26401   2.29573
 Alpha virt. eigenvalues --    2.34152   2.37796   2.38722   2.41677   2.46062
 Alpha virt. eigenvalues --    2.49561   2.51336   2.53842   2.56582   2.59479
 Alpha virt. eigenvalues --    2.63348   2.64824   2.66193   2.70881   2.72023
 Alpha virt. eigenvalues --    2.77340   2.80032   2.80616   2.84044   2.85843
 Alpha virt. eigenvalues --    2.88102   2.90675   2.94303   2.98905   3.00040
 Alpha virt. eigenvalues --    3.02171   3.03800   3.05448   3.05904   3.08919
 Alpha virt. eigenvalues --    3.09797   3.13573   3.14028   3.16505   3.19160
 Alpha virt. eigenvalues --    3.21553   3.22674   3.24805   3.25721   3.27229
 Alpha virt. eigenvalues --    3.29891   3.32730   3.33324   3.34478   3.37092
 Alpha virt. eigenvalues --    3.40939   3.42347   3.43224   3.47828   3.49063
 Alpha virt. eigenvalues --    3.50308   3.53625   3.54816   3.55784   3.58435
 Alpha virt. eigenvalues --    3.63386   3.66318   3.68281   3.69451   3.73439
 Alpha virt. eigenvalues --    3.74410   3.76758   3.77660   3.78614   3.79690
 Alpha virt. eigenvalues --    3.81216   3.82524   3.85365   3.86592   3.88727
 Alpha virt. eigenvalues --    3.89895   3.90238   3.94825   3.98093   3.98324
 Alpha virt. eigenvalues --    3.99099   4.02192   4.03595   4.06909   4.07195
 Alpha virt. eigenvalues --    4.08733   4.11205   4.12901   4.14762   4.15449
 Alpha virt. eigenvalues --    4.17990   4.21703   4.23102   4.24200   4.28482
 Alpha virt. eigenvalues --    4.29616   4.30965   4.34466   4.40221   4.42418
 Alpha virt. eigenvalues --    4.44776   4.51405   4.53129   4.58057   4.65189
 Alpha virt. eigenvalues --    4.70600   4.72020   4.75307   4.80053   4.81851
 Alpha virt. eigenvalues --    4.85024   4.86779   4.87934   4.89301   4.91773
 Alpha virt. eigenvalues --    4.96136   4.98050   5.03576   5.04917   5.06253
 Alpha virt. eigenvalues --    5.11978   5.14864   5.15579   5.18381   5.22592
 Alpha virt. eigenvalues --    5.29493   5.30832   5.31244   5.32574   5.35979
 Alpha virt. eigenvalues --    5.40194   5.43828   5.45667   5.48331   5.54079
 Alpha virt. eigenvalues --    5.58393   5.77475   5.79827   5.81352   5.82742
 Alpha virt. eigenvalues --    5.90771   5.95281   6.11813   6.20030   6.33365
 Alpha virt. eigenvalues --    6.36618   6.38237   6.48345   6.55054   6.57994
 Alpha virt. eigenvalues --    6.62896   6.71609   6.73861   6.84933   6.88370
 Alpha virt. eigenvalues --    7.13813   7.19823   7.44197   7.58192   9.95261
 Alpha virt. eigenvalues --   11.25156  12.28614  12.81244  13.45424
  Beta  occ. eigenvalues --  -19.68682 -19.67457 -10.54799 -10.54145 -10.52590
  Beta  occ. eigenvalues --   -1.25185  -0.96800  -0.88779  -0.77073  -0.67141
  Beta  occ. eigenvalues --   -0.60437  -0.56322  -0.52825  -0.51109  -0.49332
  Beta  occ. eigenvalues --   -0.47293  -0.42028  -0.41253  -0.40414  -0.37131
  Beta  occ. eigenvalues --   -0.35246
  Beta virt. eigenvalues --   -0.06883   0.05557   0.08027   0.10344   0.11331
  Beta virt. eigenvalues --    0.12622   0.15068   0.15291   0.16849   0.17052
  Beta virt. eigenvalues --    0.20181   0.23796   0.26609   0.28373   0.29213
  Beta virt. eigenvalues --    0.30302   0.32777   0.35809   0.38397   0.43341
  Beta virt. eigenvalues --    0.44027   0.45291   0.46622   0.48048   0.49030
  Beta virt. eigenvalues --    0.50202   0.51447   0.52073   0.52488   0.53363
  Beta virt. eigenvalues --    0.54230   0.56604   0.59151   0.60360   0.62649
  Beta virt. eigenvalues --    0.65402   0.69314   0.70373   0.70924   0.73279
  Beta virt. eigenvalues --    0.75377   0.78562   0.78746   0.82918   0.86479
  Beta virt. eigenvalues --    0.88564   0.91181   0.92875   0.95314   0.97368
  Beta virt. eigenvalues --    0.99809   1.01222   1.04451   1.06572   1.07942
  Beta virt. eigenvalues --    1.11710   1.12870   1.13392   1.15867   1.17352
  Beta virt. eigenvalues --    1.19283   1.19994   1.21456   1.22710   1.23051
  Beta virt. eigenvalues --    1.26696   1.29780   1.30736   1.32184   1.35661
  Beta virt. eigenvalues --    1.36250   1.38716   1.40732   1.42992   1.43754
  Beta virt. eigenvalues --    1.47103   1.48847   1.52962   1.54531   1.55479
  Beta virt. eigenvalues --    1.58912   1.61288   1.62291   1.65762   1.68962
  Beta virt. eigenvalues --    1.81498   1.84186   1.92713   1.94246   2.01051
  Beta virt. eigenvalues --    2.11063   2.16393   2.21375   2.23736   2.26999
  Beta virt. eigenvalues --    2.30079   2.35187   2.38191   2.39061   2.42344
  Beta virt. eigenvalues --    2.46410   2.49475   2.52051   2.55059   2.57578
  Beta virt. eigenvalues --    2.59828   2.63779   2.65633   2.67761   2.71718
  Beta virt. eigenvalues --    2.72793   2.78845   2.80428   2.81275   2.84615
  Beta virt. eigenvalues --    2.86645   2.89351   2.92074   2.95231   3.00358
  Beta virt. eigenvalues --    3.01855   3.03525   3.04589   3.06116   3.06843
  Beta virt. eigenvalues --    3.09450   3.10696   3.13830   3.16079   3.16707
  Beta virt. eigenvalues --    3.20656   3.22438   3.23440   3.25010   3.26669
  Beta virt. eigenvalues --    3.27612   3.30175   3.33167   3.33591   3.35150
  Beta virt. eigenvalues --    3.38395   3.41166   3.42993   3.44241   3.48106
  Beta virt. eigenvalues --    3.49362   3.50636   3.54042   3.55232   3.56244
  Beta virt. eigenvalues --    3.58839   3.63999   3.66805   3.68583   3.69881
  Beta virt. eigenvalues --    3.73812   3.74607   3.76949   3.77960   3.78850
  Beta virt. eigenvalues --    3.80001   3.81664   3.82924   3.86041   3.87088
  Beta virt. eigenvalues --    3.89142   3.90383   3.90605   3.95116   3.98285
  Beta virt. eigenvalues --    3.98601   3.99289   4.02509   4.03919   4.07347
  Beta virt. eigenvalues --    4.07591   4.09346   4.11485   4.13093   4.14931
  Beta virt. eigenvalues --    4.16082   4.18370   4.22763   4.23345   4.24224
  Beta virt. eigenvalues --    4.29190   4.30187   4.31702   4.34853   4.41182
  Beta virt. eigenvalues --    4.42792   4.45615   4.51855   4.53831   4.59447
  Beta virt. eigenvalues --    4.65754   4.71194   4.72666   4.76250   4.80665
  Beta virt. eigenvalues --    4.82040   4.85612   4.87221   4.88623   4.90659
  Beta virt. eigenvalues --    4.92356   4.97110   4.99236   5.04049   5.06292
  Beta virt. eigenvalues --    5.07751   5.12851   5.15309   5.17139   5.19210
  Beta virt. eigenvalues --    5.23806   5.29805   5.31336   5.31723   5.33737
  Beta virt. eigenvalues --    5.37524   5.41276   5.44536   5.46381   5.49514
  Beta virt. eigenvalues --    5.55069   5.60036   5.78097   5.80655   5.81770
  Beta virt. eigenvalues --    5.87316   5.90500   5.95645   6.12578   6.22020
  Beta virt. eigenvalues --    6.34071   6.37186   6.38339   6.49104   6.55897
  Beta virt. eigenvalues --    6.60338   6.64073   6.73381   6.74579   6.85057
  Beta virt. eigenvalues --    6.89619   7.13981   7.20597   7.44455   7.58450
  Beta virt. eigenvalues --    9.96079  11.25309  12.29467  12.81977  13.45420
          Condensed to atoms (all electrons):
               1          2          3          4          5          6
     1  O    7.897957   0.055153  -0.015288   0.012317  -0.001126   0.020440
     2  O    0.055153   8.091429   0.002330  -0.093272  -0.000385  -0.002461
     3  C   -0.015288   0.002330   5.085641   0.266856   0.303660   0.400266
     4  C    0.012317  -0.093272   0.266856   5.351559  -0.052421  -0.041595
     5  C   -0.001126  -0.000385   0.303660  -0.052421   4.948419  -0.037069
     6  H    0.020440  -0.002461   0.400266  -0.041595  -0.037069   0.565675
     7  H    0.000183  -0.000300   0.392553  -0.041653  -0.035471  -0.039418
     8  H   -0.034421   0.199330  -0.013323   0.230664  -0.001225  -0.006945
     9  H    0.000566  -0.002706  -0.050771   0.403126   0.007222  -0.004862
    10  H    0.001376   0.000909  -0.032958   0.380854  -0.003919   0.008091
    11  H    0.000013   0.004383  -0.037999  -0.003658   0.403120  -0.007006
    12  H   -0.000099  -0.000014  -0.036638   0.007964   0.405280  -0.005216
    13  H   -0.000024  -0.000042  -0.038980  -0.004904   0.403367   0.007592
    14  H    0.309155  -0.031629  -0.000716  -0.002447   0.000094  -0.001061
               7          8          9         10         11         12
     1  O    0.000183  -0.034421   0.000566   0.001376   0.000013  -0.000099
     2  O   -0.000300   0.199330  -0.002706   0.000909   0.004383  -0.000014
     3  C    0.392553  -0.013323  -0.050771  -0.032958  -0.037999  -0.036638
     4  C   -0.041653   0.230664   0.403126   0.380854  -0.003658   0.007964
     5  C   -0.035471  -0.001225   0.007222  -0.003919   0.403120   0.405280
     6  H   -0.039418  -0.006945  -0.004862   0.008091  -0.007006  -0.005216
     7  H    0.598572   0.004018  -0.003055  -0.005606   0.007496  -0.004572
     8  H    0.004018   0.398234  -0.011064  -0.014575   0.004066   0.000181
     9  H   -0.003055  -0.011064   0.527451  -0.024305   0.000143  -0.000375
    10  H   -0.005606  -0.014575  -0.024305   0.542257  -0.000310  -0.000271
    11  H    0.007496   0.004066   0.000143  -0.000310   0.571952  -0.029126
    12  H   -0.004572   0.000181  -0.000375  -0.000271  -0.029126   0.580512
    13  H   -0.006991  -0.000953  -0.000078   0.003705  -0.039923  -0.033280
    14  H   -0.000130   0.001302   0.001690   0.000072   0.000065   0.000002
              13         14
     1  O   -0.000024   0.309155
     2  O   -0.000042  -0.031629
     3  C   -0.038980  -0.000716
     4  C   -0.004904  -0.002447
     5  C    0.403367   0.000094
     6  H    0.007592  -0.001061
     7  H   -0.006991  -0.000130
     8  H   -0.000953   0.001302
     9  H   -0.000078   0.001690
    10  H    0.003705   0.000072
    11  H   -0.039923   0.000065
    12  H   -0.033280   0.000002
    13  H    0.601468  -0.000004
    14  H   -0.000004   0.452944
          Atomic-Atomic Spin Densities.
               1          2          3          4          5          6
     1  O    0.056229  -0.041158  -0.003435   0.019419  -0.000497  -0.002694
     2  O   -0.041158   0.553398   0.011624  -0.118156   0.000681   0.001548
     3  C   -0.003435   0.011624  -0.027738  -0.049684   0.009189   0.007846
     4  C    0.019419  -0.118156  -0.049684   0.783304  -0.004141  -0.006200
     5  C   -0.000497   0.000681   0.009189  -0.004141   0.001558   0.001395
     6  H   -0.002694   0.001548   0.007846  -0.006200   0.001395   0.010550
     7  H    0.000540  -0.001016   0.003693  -0.017346  -0.002443  -0.005583
     8  H    0.009120  -0.039292  -0.007246   0.069745  -0.000301   0.000620
     9  H   -0.001403   0.004277   0.006421  -0.010241  -0.000308   0.000452
    10  H   -0.000378   0.003097   0.006777  -0.007833   0.000145  -0.000080
    11  H    0.000286  -0.001154  -0.001011   0.002717  -0.000958  -0.000486
    12  H    0.000033  -0.000039   0.000047   0.000219  -0.000334  -0.000108
    13  H   -0.000024   0.000153   0.001182  -0.000817   0.000065   0.000237
    14  H    0.000845  -0.000935  -0.000049  -0.000045   0.000010  -0.000090
               7          8          9         10         11         12
     1  O    0.000540   0.009120  -0.001403  -0.000378   0.000286   0.000033
     2  O   -0.001016  -0.039292   0.004277   0.003097  -0.001154  -0.000039
     3  C    0.003693  -0.007246   0.006421   0.006777  -0.001011   0.000047
     4  C   -0.017346   0.069745  -0.010241  -0.007833   0.002717   0.000219
     5  C   -0.002443  -0.000301  -0.000308   0.000145  -0.000958  -0.000334
     6  H   -0.005583   0.000620   0.000452  -0.000080  -0.000486  -0.000108
     7  H    0.071366   0.000935  -0.001712  -0.002442   0.000680   0.000808
     8  H    0.000935  -0.054928   0.000079  -0.000346   0.000593   0.000075
     9  H   -0.001712   0.000079  -0.037985   0.004395  -0.000085   0.000006
    10  H   -0.002442  -0.000346   0.004395  -0.032464  -0.000249  -0.000044
    11  H    0.000680   0.000593  -0.000085  -0.000249   0.001848   0.000156
    12  H    0.000808   0.000075   0.000006  -0.000044   0.000156  -0.000000
    13  H   -0.001520  -0.000381   0.000073   0.000491  -0.000799  -0.000220
    14  H    0.000012   0.000151  -0.000103  -0.000006  -0.000009  -0.000000
              13         14
     1  O   -0.000024   0.000845
     2  O    0.000153  -0.000935
     3  C    0.001182  -0.000049
     4  C   -0.000817  -0.000045
     5  C    0.000065   0.000010
     6  H    0.000237  -0.000090
     7  H   -0.001520   0.000012
     8  H   -0.000381   0.000151
     9  H    0.000073  -0.000103
    10  H    0.000491  -0.000006
    11  H   -0.000799  -0.000009
    12  H   -0.000220  -0.000000
    13  H    0.001744   0.000001
    14  H    0.000001  -0.001756
 Mulliken charges and spin densities:
               1          2
     1  O   -0.246201   0.036882
     2  O   -0.222725   0.373027
     3  C   -0.224635  -0.042384
     4  C   -0.413390   0.660942
     5  C   -0.339544   0.004060
     6  H    0.143570   0.007408
     7  H    0.134376   0.045972
     8  H    0.244711  -0.021176
     9  H    0.157017  -0.036134
    10  H    0.144678  -0.028936
    11  H    0.126782   0.001527
    12  H    0.115650   0.000599
    13  H    0.109049   0.000186
    14  H    0.270663  -0.001972
 Sum of Mulliken charges =  -0.00000   1.00000
 Mulliken charges and spin densities with hydrogens summed into heavy atoms:
               1          2
     1  O    0.024462   0.034909
     2  O    0.021986   0.351851
     3  C    0.053310   0.010995
     4  C   -0.111695   0.595872
     5  C    0.011936   0.006372
 APT charges:
               1
     1  O   -0.530083
     2  O   -0.168644
     3  C   -0.582833
     4  C   -0.823228
     5  C   -1.087903
     6  H    0.259337
     7  H    0.435872
     8  H    0.162065
     9  H    0.364117
    10  H    0.383854
    11  H    0.204654
    12  H    0.452251
    13  H    0.375616
    14  H    0.554926
 Sum of APT charges =  -0.00000
 APT charges with hydrogens summed into heavy atoms:
               1
     1  O    0.024843
     2  O   -0.006578
     3  C    0.112375
     4  C   -0.075257
     5  C   -0.055382
 Electronic spatial extent (au):  <R**2>=            597.7139
 Charge=             -0.0000 electrons
 Dipole moment (field-independent basis, Debye):
    X=              0.9302    Y=              1.4950    Z=              1.4715  Tot=              2.2947
 Quadrupole moment (field-independent basis, Debye-Ang):
   XX=            -32.1454   YY=            -33.4001   ZZ=            -31.7337
   XY=             -1.9184   XZ=             -4.0786   YZ=              0.2896
 Traceless Quadrupole moment (field-independent basis, Debye-Ang):
   XX=              0.2810   YY=             -0.9737   ZZ=              0.6927
   XY=             -1.9184   XZ=             -4.0786   YZ=              0.2896
 Octapole moment (field-independent basis, Debye-Ang**2):
  XXX=            -18.8310  YYY=             -1.2086  ZZZ=              2.6372  XYY=             -2.7741
  XXY=              3.0126  XXZ=             10.6512  XZZ=             -7.3824  YZZ=              0.4956
  YYZ=             -0.3664  XYZ=             -2.3189
 Hexadecapole moment (field-independent basis, Debye-Ang**3):
 XXXX=           -473.2134 YYYY=           -164.4485 ZZZZ=           -106.5462 XXXY=             -1.9275
 XXXZ=            -22.3130 YYYX=              1.2953 YYYZ=             -1.5159 ZZZX=             -7.4960
 ZZZY=             -3.2225 XXYY=           -111.7598 XXZZ=            -91.8418 YYZZ=            -43.6592
 XXYZ=              0.6773 YYXZ=              0.1542 ZZXY=              1.8741
 N-N= 1.891549036816D+02 E-N=-1.010394463727D+03  KE= 2.685261807765D+02
  Exact polarizability:   0.000   0.000   0.000   0.000   0.000   0.000
 Approx polarizability:  69.104   7.726  58.544   0.892  -2.006  59.607
                          Isotropic Fermi Contact Couplings
        Atom                 a.u.       MegaHertz       Gauss      10(-4) cm-1
     1  O(17)              0.00041      -0.25119      -0.08963      -0.08379
     2  O(17)              0.11050     -66.98544     -23.90207     -22.34394
     3  C(13)             -0.01055     -11.86009      -4.23197      -3.95610
     4  C(13)              0.18141     203.94277      72.77185      68.02799
     5  C(13)              0.00661       7.43400       2.65264       2.47972
     6  H(1)               0.00488      21.83255       7.79039       7.28255
     7  H(1)               0.02192      97.96344      34.95579      32.67708
     8  H(1)              -0.02945    -131.65383     -46.97736     -43.91499
     9  H(1)              -0.00838     -37.43743     -13.35861     -12.48778
    10  H(1)              -0.00386     -17.23506      -6.14990      -5.74900
    11  H(1)              -0.00021      -0.92061      -0.32850      -0.30708
    12  H(1)              -0.00032      -1.44852      -0.51687      -0.48317
    13  H(1)              -0.00013      -0.56649      -0.20214      -0.18896
    14  H(1)              -0.00104      -4.62878      -1.65166      -1.54399
 --------------------------------------------------------
       Center         ----  Spin Dipole Couplings  ----
                      3XX-RR        3YY-RR        3ZZ-RR
 --------------------------------------------------------
     1   Atom        0.219600     -0.035952     -0.183648
     2   Atom        1.204023     -0.475982     -0.728041
     3   Atom        0.020941     -0.012957     -0.007984
     4   Atom        0.165260     -0.037785     -0.127475
     5   Atom        0.003362      0.001438     -0.004801
     6   Atom       -0.005369      0.001103      0.004266
     7   Atom        0.003808     -0.002712     -0.001096
     8   Atom        0.126360     -0.044375     -0.081986
     9   Atom        0.005821     -0.001651     -0.004171
    10   Atom       -0.012757     -0.011802      0.024559
    11   Atom       -0.000265      0.004735     -0.004470
    12   Atom        0.001290      0.001447     -0.002738
    13   Atom        0.004538     -0.002174     -0.002364
    14   Atom       -0.000560     -0.007347      0.007907
 --------------------------------------------------------
                        XY            XZ            YZ
 --------------------------------------------------------
     1   Atom        0.200641      0.025020      0.058098
     2   Atom        1.005826      0.677249      0.298997
     3   Atom        0.002407      0.021318      0.000379
     4   Atom        0.411759      0.344123      0.273061
     5   Atom       -0.010410     -0.003714      0.003771
     6   Atom       -0.001680      0.003912     -0.010566
     7   Atom       -0.000302      0.010314      0.000516
     8   Atom        0.129265      0.050073      0.039209
     9   Atom       -0.013702     -0.019949      0.042470
    10   Atom        0.033340     -0.016335     -0.025904
    11   Atom       -0.005762     -0.001370      0.003557
    12   Atom       -0.003772      0.000490      0.000106
    13   Atom       -0.004059     -0.003481      0.002085
    14   Atom        0.001305     -0.013274      0.004908
 --------------------------------------------------------


 ---------------------------------------------------------------------------------
              Anisotropic Spin Dipole Couplings in Principal Axis System
 ---------------------------------------------------------------------------------

       Atom             a.u.   MegaHertz   Gauss  10(-4) cm-1        Axes

              Baa    -0.2114    15.297     5.458     5.102  0.1760 -0.4850  0.8566
     1 O(17)  Bbb    -0.1231     8.910     3.179     2.972 -0.4628  0.7273  0.5069
              Bcc     0.3345   -24.206    -8.637    -8.074  0.8688  0.4856  0.0964
 
              Baa    -0.9582    69.333    24.740    23.127 -0.4857  0.6526  0.5815
     2 O(17)  Bbb    -0.9260    67.005    23.909    22.351  0.0583 -0.6396  0.7665
              Bcc     1.8842  -136.339   -48.649   -45.478  0.8722  0.4062  0.2726
 
              Baa    -0.0194    -2.601    -0.928    -0.868 -0.4695  0.1244  0.8741
     3 C(13)  Bbb    -0.0130    -1.741    -0.621    -0.581  0.0137  0.9909 -0.1337
              Bcc     0.0324     4.342     1.549     1.448  0.8828  0.0508  0.4670
 
              Baa    -0.3615   -48.505   -17.308   -16.179 -0.4112  0.8338 -0.3683
     4 C(13)  Bbb    -0.3550   -47.641   -16.999   -15.891 -0.5868  0.0671  0.8069
              Bcc     0.7165    96.145    34.307    32.071  0.6976  0.5479  0.4617
 
              Baa    -0.0081    -1.086    -0.388    -0.362  0.6397  0.7552 -0.1433
     5 C(13)  Bbb    -0.0062    -0.835    -0.298    -0.278  0.2947 -0.0687  0.9531
              Bcc     0.0143     1.921     0.685     0.641  0.7099 -0.6519 -0.2665
 
              Baa    -0.0086    -4.614    -1.646    -1.539 -0.4500  0.6195  0.6432
     6 H(1)   Bbb    -0.0056    -2.969    -1.060    -0.991  0.8695  0.4683  0.1573
              Bcc     0.0142     7.584     2.706     2.530  0.2038 -0.6301  0.7493
 
              Baa    -0.0093    -4.961    -1.770    -1.655 -0.6172 -0.0895  0.7817
     7 H(1)   Bbb    -0.0027    -1.419    -0.506    -0.473 -0.0599  0.9960  0.0667
              Bcc     0.0120     6.380     2.277     2.128  0.7845  0.0057  0.6201
 
              Baa    -0.1187   -63.349   -22.605   -21.131 -0.3602  0.8401 -0.4055
     8 H(1)   Bbb    -0.0907   -48.377   -17.262   -16.137 -0.3672  0.2719  0.8895
              Bcc     0.2094   111.726    39.867    37.268  0.8576  0.4693  0.2105
 
              Baa    -0.0459   -24.492    -8.739    -8.170  0.1050 -0.6715  0.7335
     9 H(1)   Bbb    -0.0060    -3.182    -1.135    -1.061  0.8818  0.4039  0.2435
              Bcc     0.0519    27.673     9.875     9.231 -0.4598  0.6213  0.6345
 
              Baa    -0.0464   -24.740    -8.828    -8.252 -0.6716  0.7323  0.1128
    10 H(1)   Bbb    -0.0066    -3.544    -1.264    -1.182  0.5926  0.4395  0.6751
              Bcc     0.0530    28.283    10.092     9.434 -0.4448 -0.5202  0.7291
 
              Baa    -0.0058    -3.099    -1.106    -1.034 -0.2122 -0.4146  0.8849
    11 H(1)   Bbb    -0.0037    -1.976    -0.705    -0.659  0.8292  0.4028  0.3876
              Bcc     0.0095     5.075     1.811     1.693 -0.5171  0.8160  0.2583
 
              Baa    -0.0030    -1.618    -0.577    -0.540 -0.4184 -0.3719  0.8286
    12 H(1)   Bbb    -0.0021    -1.130    -0.403    -0.377  0.5779  0.5948  0.5588
              Bcc     0.0052     2.748     0.981     0.917 -0.7007  0.7127 -0.0339
 
              Baa    -0.0044    -2.345    -0.837    -0.782  0.1296  0.7943 -0.5936
    13 H(1)   Bbb    -0.0036    -1.935    -0.690    -0.645  0.5302  0.4503  0.7184
              Bcc     0.0080     4.279     1.527     1.427  0.8379 -0.4078 -0.3627
 
              Baa    -0.0131    -7.002    -2.499    -2.336  0.6165 -0.5861  0.5259
    14 H(1)   Bbb    -0.0049    -2.611    -0.932    -0.871  0.5425  0.8002  0.2558
              Bcc     0.0180     9.613     3.430     3.207 -0.5707  0.1276  0.8112
 

 ---------------------------------------------------------------------------------

 No NMR shielding tensors so no spin-rotation constants.
 Leave Link  601 at Thu Sep  5 20:29:21 2019, MaxMem=   671088640 cpu:              91.1 elap:              45.6
 (Enter /shared/centos7/gaussian/g16/l701.exe)
 SCFChk:  SCF convergence  5.31D-09 required  1.00D-08
 ... and contract with generalized density number  0.
 Compute integral second derivatives.
 Entering OneElI...
 Calculate overlap and kinetic energy integrals
    NBasis = 310  MinDer = 2  MaxDer = 2
 Requested accuracy = 0.1000D-12
 PrmmSu-InSpLW:  IPartL=    0 NPrtUS=   20 NPrtUL=    1 DoSpLW=F IThBeg=    0 IThEnd=   19 NThAct=   20.
 PrsmSu:  NPrtUS=  20 ThrOK=T IAlg=1 NPAlg=1 LenDen=           0 ISkipM=0 DoSpLW=F IThBeg=    0 IThEnd=   19.
 Prism:   IPart=     0 DynPar=F LinDyn=F Incr=           2.
 PRISM was handed    33401692 working-precision words and  5455 shell-pairs
 PRISM was handed    33401692 working-precision words and  5455 shell-pairs
 PRISM was handed    33401692 working-precision words and  5455 shell-pairs
 PRISM was handed    33401692 working-precision words and  5455 shell-pairs
 PRISM was handed    33401692 working-precision words and  5455 shell-pairs
 PRISM was handed    33401692 working-precision words and  5455 shell-pairs
 PRISM was handed    33401692 working-precision words and  5455 shell-pairs
 PRISM was handed    33401692 working-precision words and  5455 shell-pairs
 PRISM was handed    33401692 working-precision words and  5455 shell-pairs
 PRISM was handed    33401692 working-precision words and  5455 shell-pairs
 PRISM was handed    33401692 working-precision words and  5455 shell-pairs
 PRISM was handed    33401692 working-precision words and  5455 shell-pairs
 PRISM was handed    33401692 working-precision words and  5455 shell-pairs
 PRISM was handed    33401692 working-precision words and  5455 shell-pairs
 PRISM was handed    33401692 working-precision words and  5455 shell-pairs
 PRISM was handed    33401692 working-precision words and  5455 shell-pairs
 PRISM was handed    33401692 working-precision words and  5455 shell-pairs
 PRISM was handed    33401692 working-precision words and  5455 shell-pairs
 PRISM was handed    33401692 working-precision words and  5455 shell-pairs
 PRISM was handed    33401692 working-precision words and  5455 shell-pairs
 IPart= 17 NShTot=         252 NBatch=          28 AvBLen=         9.0
 IPart=  3 NShTot=         294 NBatch=          53 AvBLen=         5.5
 IPart=  6 NShTot=         276 NBatch=          40 AvBLen=         6.9
 IPart=  0 NShTot=         315 NBatch=          72 AvBLen=         4.4
 IPart= 14 NShTot=         258 NBatch=          31 AvBLen=         8.3
 IPart= 18 NShTot=         252 NBatch=          28 AvBLen=         9.0
 IPart= 11 NShTot=         266 NBatch=          34 AvBLen=         7.8
 IPart=  5 NShTot=         282 NBatch=          45 AvBLen=         6.3
 IPart=  4 NShTot=         292 NBatch=          51 AvBLen=         5.7
 IPart=  2 NShTot=         300 NBatch=          58 AvBLen=         5.2
 IPart= 15 NShTot=         255 NBatch=          30 AvBLen=         8.5
 IPart= 13 NShTot=         259 NBatch=          31 AvBLen=         8.4
 IPart=  1 NShTot=         307 NBatch=          65 AvBLen=         4.7
 IPart= 10 NShTot=         268 NBatch=          36 AvBLen=         7.4
 IPart= 19 NShTot=         248 NBatch=          27 AvBLen=         9.2
 IPart=  7 NShTot=         274 NBatch=          39 AvBLen=         7.0
 IPart= 12 NShTot=         261 NBatch=          31 AvBLen=         8.4
 IPart= 16 NShTot=         253 NBatch=          29 AvBLen=         8.7
 IPart=  8 NShTot=         273 NBatch=          38 AvBLen=         7.2
 IPart=  9 NShTot=         270 NBatch=          36 AvBLen=         7.5
 PrSmSu:  NxtVal=             41.
 Entering OneElI...
 Calculate potential energy integrals
    NBasis = 310  MinDer = 2  MaxDer = 2
 Requested accuracy = 0.1000D-12
 PrmmSu-InSpLW:  IPartL=    0 NPrtUS=   20 NPrtUL=    1 DoSpLW=F IThBeg=    0 IThEnd=   19 NThAct=   20.
 PrsmSu:  NPrtUS=  20 ThrOK=T IAlg=1 NPAlg=1 LenDen=           0 ISkipM=0 DoSpLW=F IThBeg=    0 IThEnd=   19.
 Prism:   IPart=     0 DynPar=F LinDyn=F Incr=          36.
 PRISM was handed    33424885 working-precision words and  5147 shell-pairs
 PRISM was handed    33424885 working-precision words and  5147 shell-pairs
 PRISM was handed    33424885 working-precision words and  5147 shell-pairs
 PRISM was handed    33424885 working-precision words and  5147 shell-pairs
 PRISM was handed    33424885 working-precision words and  5147 shell-pairs
 PRISM was handed    33424885 working-precision words and  5147 shell-pairs
 PRISM was handed    33424885 working-precision words and  5147 shell-pairs
 PRISM was handed    33424885 working-precision words and  5147 shell-pairs
 PRISM was handed    33424885 working-precision words and  5147 shell-pairs
 PRISM was handed    33424885 working-precision words and  5147 shell-pairs
 PRISM was handed    33424885 working-precision words and  5147 shell-pairs
 PRISM was handed    33424885 working-precision words and  5147 shell-pairs
 PRISM was handed    33424885 working-precision words and  5147 shell-pairs
 PRISM was handed    33424885 working-precision words and  5147 shell-pairs
 PRISM was handed    33424885 working-precision words and  5147 shell-pairs
 PRISM was handed    33424885 working-precision words and  5147 shell-pairs
 PRISM was handed    33424885 working-precision words and  5147 shell-pairs
 PRISM was handed    33424885 working-precision words and  5147 shell-pairs
 PRISM was handed    33424885 working-precision words and  5147 shell-pairs
 PRISM was handed    33424885 working-precision words and  5147 shell-pairs
 IPart= 16 NShTot=        3360 NBatch=         240 AvBLen=        14.0
 IPart=  0 NShTot=        4158 NBatch=         297 AvBLen=        14.0
 IPart= 18 NShTot=        3290 NBatch=         235 AvBLen=        14.0
 IPart= 10 NShTot=        3556 NBatch=         254 AvBLen=        14.0
 IPart= 14 NShTot=        3444 NBatch=         246 AvBLen=        14.0
 IPart=  7 NShTot=        3612 NBatch=         258 AvBLen=        14.0
 IPart=  6 NShTot=        3640 NBatch=         260 AvBLen=        14.0
 IPart=  8 NShTot=        3612 NBatch=         258 AvBLen=        14.0
 IPart= 19 NShTot=        3276 NBatch=         234 AvBLen=        14.0
 IPart=  4 NShTot=        3808 NBatch=         272 AvBLen=        14.0
 IPart=  1 NShTot=        4032 NBatch=         288 AvBLen=        14.0
 IPart= 17 NShTot=        3332 NBatch=         238 AvBLen=        14.0
 IPart= 12 NShTot=        3514 NBatch=         251 AvBLen=        14.0
 IPart=  2 NShTot=        3920 NBatch=         280 AvBLen=        14.0
 IPart= 11 NShTot=        3528 NBatch=         252 AvBLen=        14.0
 IPart=  3 NShTot=        3850 NBatch=         275 AvBLen=        14.0
 IPart= 13 NShTot=        3486 NBatch=         249 AvBLen=        14.0
 IPart=  9 NShTot=        3584 NBatch=         256 AvBLen=        14.0
 IPart=  5 NShTot=        3654 NBatch=         261 AvBLen=        14.0
 IPart= 15 NShTot=        3402 NBatch=         243 AvBLen=        14.0
 PrSmSu:  NxtVal=            721.
 Polarizability after L701:
                1             2             3 
      1  0.000000D+00
      2  0.000000D+00  0.000000D+00
      3  0.000000D+00  0.000000D+00  0.000000D+00
 Dipole Derivatives after L701:
                 1             2             3             4             5 
      1  -0.754434D+00  0.589849D+00  0.954646D+00 -0.526217D-01  0.178571D+00
      2   0.474815D-01 -0.274719D+00  0.795833D-02 -0.211070D-01 -0.204277D+00
      3   0.248940D+00 -0.368903D+00 -0.561097D+00  0.172316D+00  0.945278D-01
                 6             7             8             9            10 
      1  -0.288623D+00 -0.559941D+00 -0.380706D+00 -0.736313D+00 -0.487996D+00
      2   0.351212D-01 -0.419039D+00 -0.354033D+00 -0.332071D-01  0.305842D+00
      3  -0.249033D+00 -0.107904D+00  0.888581D-01 -0.834526D+00  0.331490D+00
                11            12            13            14            15 
      1  -0.912405D-01  0.419678D+00 -0.135312D+01  0.550088D+00  0.573939D+00
      2  -0.116684D+01  0.258345D+00  0.464731D-01 -0.103801D+01 -0.815613D-01
      3  -0.583378D-02 -0.814851D+00 -0.480243D-01  0.634280D-01 -0.872578D+00
                16            17            18            19            20 
      1   0.430949D-01 -0.104601D+00  0.134603D+00  0.651569D+00  0.347623D+00
      2   0.733975D-01  0.242254D+00 -0.109297D+00  0.183023D+00  0.289683D+00
      3  -0.237271D+00 -0.260937D+00  0.492661D+00  0.292446D+00  0.210389D+00
                21            22            23            24            25 
      1   0.390829D+00  0.303842D-01 -0.560351D-01 -0.287575D-01  0.209921D+00
      2   0.145181D+00 -0.251679D-01  0.159325D+00 -0.823510D-01 -0.459324D+00
      3   0.366363D+00 -0.139670D+00 -0.197937D-01  0.296487D+00 -0.156561D+00
                26            27            28            29            30 
      1  -0.860079D-01 -0.802312D-01  0.274974D+00  0.170806D+00 -0.284877D+00
      2   0.569876D+00  0.434841D+00  0.303209D+00  0.467184D+00 -0.594307D+00
      3   0.146767D+00  0.312554D+00 -0.159298D+00 -0.191825D+00  0.409405D+00
                31            32            33            34            35 
      1  -0.695548D-01 -0.162532D+00 -0.201732D+00  0.674244D+00 -0.656451D+00
      2   0.333632D+00  0.374495D+00  0.279672D+00 -0.353331D+00  0.503184D+00
      3   0.223599D+00  0.194153D+00  0.309022D+00  0.648514D-01 -0.724215D-01
                36            37            38            39            40 
      1   0.416411D+00  0.614423D+00  0.419829D+00 -0.625718D+00  0.779060D+00
      2  -0.264762D+00  0.793744D-02  0.126869D+00  0.164878D-01 -0.230279D-01
      3   0.179324D+00 -0.240654D+00 -0.196928D+00  0.385556D+00 -0.244261D+00
                41            42 
      1  -0.719193D+00 -0.643852D+00
      2   0.305005D+00 -0.121202D-01
      3   0.318519D+00  0.580714D+00
 Hessian after L701:
                1             2             3             4             5 
      1  0.100658D+02
      2  0.264565D+00  0.837116D+01
      3  0.230335D+01  0.232485D+01  0.416477D+01
      4 -0.615426D+01  0.313688D+00 -0.863624D+00  0.523823D+01
      5  0.285193D+00 -0.378808D+01 -0.378531D+01 -0.174604D+01  0.689523D+01
[...]
   R10        2.05636  -0.00000   0.00000   0.00012   0.00012   2.05648
   R11        2.05899  -0.00004   0.00000   0.00002   0.00002   2.05901
   R12        2.05772   0.00000   0.00000  -0.00000  -0.00000   2.05772
   R13        2.06157  -0.00001   0.00000  -0.00002  -0.00002   2.06155
    A1        1.79994   0.00001   0.00000  -0.00018  -0.00018   1.79975
    A2        1.81516  -0.00005   0.00000   0.00078   0.00078   1.81595
    A3        1.96439  -0.00001   0.00000  -0.00055  -0.00055   1.96383
    A4        1.91161   0.00000   0.00000   0.00004   0.00004   1.91165
    A5        1.89581   0.00003   0.00000   0.00079   0.00079   1.89660
    A6        1.91804  -0.00001   0.00000  -0.00076  -0.00076   1.91727
    A7        1.91898  -0.00002   0.00000   0.00045   0.00045   1.91943
    A8        1.85148   0.00000   0.00000   0.00009   0.00009   1.85157
    A9        1.81959  -0.00012   0.00000  -0.00166  -0.00166   1.81793
   A10        2.03534   0.00009   0.00000   0.00112   0.00112   2.03646
   A11        2.02036  -0.00009   0.00000  -0.00140  -0.00140   2.01896
   A12        1.79831   0.00004   0.00000   0.00207   0.00207   1.80038
   A13        1.77038   0.00008   0.00000   0.00002   0.00002   1.77040
   A14        1.97309  -0.00000   0.00000  -0.00001  -0.00001   1.97308
   A15        1.92410   0.00007   0.00000   0.00011   0.00011   1.92421
   A16        1.94164  -0.00001   0.00000   0.00016   0.00016   1.94180
   A17        1.93220  -0.00003   0.00000   0.00004   0.00004   1.93224
   A18        1.89091  -0.00002   0.00000  -0.00015  -0.00015   1.89076
   A19        1.88746  -0.00003   0.00000  -0.00032  -0.00032   1.88714
   A20        1.88595   0.00001   0.00000   0.00014   0.00014   1.88610
   A21        2.99223   0.00013   0.00000   0.00407   0.00407   2.99630
    D1        1.66210   0.00012   0.00000   0.00959   0.00959   1.67169
    D2        0.50423  -0.00000   0.00000  -0.13897  -0.13897   0.36526
    D3        1.09705   0.00001   0.00000   0.00079   0.00079   1.09784
    D4        3.06590   0.00003   0.00000   0.00278   0.00278   3.06868
    D5       -0.83101   0.00002   0.00000   0.00241   0.00241  -0.82860
    D6       -1.04209   0.00002   0.00000   0.00212   0.00212  -1.03997
    D7        0.92676   0.00004   0.00000   0.00411   0.00411   0.93086
    D8       -2.97015   0.00004   0.00000   0.00374   0.00374  -2.96642
    D9       -3.05701   0.00000   0.00000   0.00155   0.00155  -3.05546
   D10       -1.08816   0.00002   0.00000   0.00354   0.00354  -1.08462
   D11        1.29812   0.00002   0.00000   0.00317   0.00317   1.30128
   D12       -1.06103   0.00002   0.00000  -0.00210  -0.00210  -1.06313
   D13        3.12400  -0.00000   0.00000  -0.00209  -0.00209   3.12192
   D14        1.02670   0.00000   0.00000  -0.00240  -0.00240   1.02430
   D15        1.07449   0.00001   0.00000  -0.00298  -0.00298   1.07151
   D16       -1.02366  -0.00001   0.00000  -0.00297  -0.00297  -1.02663
   D17       -3.12096  -0.00001   0.00000  -0.00328  -0.00328  -3.12425
   D18        3.10619  -0.00001   0.00000  -0.00305  -0.00305   3.10314
   D19        1.00805  -0.00002   0.00000  -0.00304  -0.00304   1.00501
   D20       -1.08926  -0.00002   0.00000  -0.00335  -0.00335  -1.09261
   D21        0.07666   0.00009   0.00000   0.12860   0.12860   0.20526
   D22       -2.05662   0.00002   0.00000   0.12714   0.12714  -1.92948
   D23        2.18130  -0.00002   0.00000   0.12643   0.12643   2.30773
         Item               Value     Threshold  Converged?
 Maximum Force            0.000164     0.000450     YES
 RMS     Force            0.000053     0.000300     YES
 Maximum Displacement     0.017027     0.001800     NO 
 RMS     Displacement     0.006009     0.001200     NO 
 Predicted change in Energy=-8.348297D-06
 GradGradGradGradGradGradGradGradGradGradGradGradGradGradGradGradGradGrad

 Leave Link  103 at Fri Sep  6 18:20:06 2019, MaxMem=   671088640 cpu:             166.5 elap:              83.3
 (Enter /shared/centos7/gaussian/g16/l202.exe)
                          Input orientation:                          
 ---------------------------------------------------------------------
 Center     Atomic      Atomic             Coordinates (Angstroms)
 Number     Number       Type             X           Y           Z
 ---------------------------------------------------------------------
      1          8           0       -1.586970   -0.938094    0.243097
      2          8           0       -1.531924   -0.003274   -0.782918
      3          6           0        1.256200    0.286490    0.649015
      4          6           0        0.443687    1.350400   -0.028579
      5          6           0        1.720794   -0.796778   -0.316689
      6          1           0        0.671578   -0.161327    1.455146
      7          1           0        2.122999    0.758365    1.128030
      8          1           0       -0.634167    0.700352   -0.481352
      9          1           0        0.018170    2.120283    0.609825
     10          1           0        0.861151    1.745772   -0.952524
     11          1           0        0.862209   -1.294924   -0.765989
     12          1           0        2.324351   -1.546810    0.192101
     13          1           0        2.321681   -0.366407   -1.119081
     14          1           0       -2.259437   -0.576210    0.833315
 ---------------------------------------------------------------------
                    Distance matrix (angstroms):
                    1          2          3          4          5
     1  O    0.000000
     2  O    1.389110   0.000000
     3  C    3.122177   3.147702   0.000000
     4  C    3.071577   2.510877   1.500404   0.000000
     5  C    3.357772   3.380413   1.523779   2.514832   0.000000
     6  H    2.678333   3.144731   1.091865   2.130421   2.155005
     7  H    4.174321   4.194078   1.097025   2.123285   2.160429
     8  H    2.029080   1.179830   2.241093   1.337661   2.795417
     9  H    3.473419   2.975235   2.212928   1.086897   3.502371
    10  H    3.824388   2.968962   2.202383   1.088242   2.758230
    11  H    2.672837   2.720390   2.158318   2.777891   1.089582
    12  H    3.958733   4.266618   2.170416   3.461130   1.088897
    13  H    4.178505   3.885247   2.165107   2.768299   1.090925
    14  H    0.965158   1.862724   3.624627   3.429515   4.148903
                    6          7          8          9         10
     6  H    0.000000
     7  H    1.749132   0.000000
     8  H    2.489475   3.193031   0.000000
     9  H    2.519376   2.560013   1.905890   0.000000
    10  H    3.077310   2.626012   1.884379   1.814335   0.000000
    11  H    2.500964   3.064784   2.510237   3.777421   3.046413
    12  H    2.499300   2.496064   3.775726   4.352073   3.780505
    13  H    3.064562   2.520733   3.206511   3.805116   2.573361
    14  H    3.024840   4.590610   2.449380   3.536739   4.280058
                   11         12         13         14
    11  H    0.000000
    12  H    1.766138   0.000000
    13  H    1.765468   1.764244   0.000000
    14  H    3.580363   4.729095   4.984226   0.000000
 Stoichiometry    C3H9O2(2)
 Framework group  C1[X(C3H9O2)]
 Deg. of freedom    36
 Full point group                 C1      NOp   1
 RotChk:  IX=0 Diff= 6.41D-03
 Largest Abelian subgroup         C1      NOp   1
 Largest concise Abelian subgroup C1      NOp   1
                         Standard orientation:                         
 ---------------------------------------------------------------------
 Center     Atomic      Atomic             Coordinates (Angstroms)
 Number     Number       Type             X           Y           Z
 ---------------------------------------------------------------------
      1          8           0       -1.712292   -0.670293    0.432716
      2          8           0       -1.613686    0.236643   -0.614839
      3          6           0        1.297977    0.145353    0.577603
      4          6           0        0.587937    1.306050   -0.054724
      5          6           0        1.523925   -1.002643   -0.398591
      6          1           0        0.726398   -0.207103    1.438557
      7          1           0        2.259340    0.495280    0.973576
      8          1           0       -0.604333    0.809773   -0.403346
      9          1           0        0.329273    2.134875    0.599100
     10          1           0        0.977368    1.628923   -1.018242
     11          1           0        0.569496   -1.379425   -0.765045
     12          1           0        2.057445   -1.824919    0.075661
     13          1           0        2.109431   -0.669713   -1.256763
     14          1           0       -2.275627   -0.211052    1.067761
 ---------------------------------------------------------------------
 Rotational constants (GHZ):           6.5068995           2.7366693           2.3327367
 Leave Link  202 at Fri Sep  6 18:20:08 2019, MaxMem=   671088640 cpu:               3.4 elap:               1.7
 (Enter /shared/centos7/gaussian/g16/l301.exe)
 Standard basis: CC-pVTZ (5D, 7F)
 Ernie: Thresh=  0.10000D-02 Tol=  0.10000D-05 Strict=F.
 Ernie:  15 primitive shells out of 202 were deleted.
 There are   310 symmetry adapted cartesian basis functions of A   symmetry.
 There are   276 symmetry adapted basis functions of A   symmetry.
   276 basis functions,   413 primitive gaussians,   310 cartesian basis functions
    22 alpha electrons       21 beta electrons
       nuclear repulsion energy       189.9245126647 Hartrees.
 IExCor= 4336 DFT=T Ex+Corr=M062X ExCW=0 ScaHFX=  0.540000
 ScaDFX=  1.000000  1.000000  1.000000  1.000000 ScalE2=  1.000000  1.000000
 IRadAn=      5 IRanWt=     -1 IRanGd=            0 ICorTp=0 IEmpDi=  4
 NAtoms=   14 NActive=   14 NUniq=   14 SFac= 1.00D+00 NAtFMM=   60 NAOKFM=F Big=F
 Integral buffers will be    131072 words long.
 Raffenetti 2 integral format.
 Two-electron integral symmetry is turned on.
 Leave Link  301 at Fri Sep  6 18:20:09 2019, MaxMem=   671088640 cpu:               2.0 elap:               1.0
 (Enter /shared/centos7/gaussian/g16/l302.exe)
 NPDir=0 NMtPBC=     1 NCelOv=     1 NCel=       1 NClECP=     1 NCelD=      1
         NCelK=      1 NCelE2=     1 NClLst=     1 CellRange=     0.0.
 One-electron integrals computed using PRISM.
 One-electron integral symmetry used in STVInt
 NBasis=   276 RedAO= T EigKep=  7.07D-04  NBF=   276
 NBsUse=   276 1.00D-06 EigRej= -1.00D+00 NBFU=   276
 Precomputing XC quadrature grid using
 IXCGrd= 4 IRadAn=           5 IRanWt=          -1 IRanGd=           0 AccXCQ= 0.00D+00.
 Generated NRdTot=       0 NPtTot=           0 NUsed=           0 NTot=          32
 NSgBfM=   310   310   310   310   310 MxSgAt=    14 MxSgA2=    14.
 Leave Link  302 at Fri Sep  6 18:21:22 2019, MaxMem=   671088640 cpu:             146.9 elap:              73.5
 (Enter /shared/centos7/gaussian/g16/l303.exe)
 DipDrv:  MaxL=1.
 Leave Link  303 at Fri Sep  6 18:21:27 2019, MaxMem=   671088640 cpu:              10.2 elap:               5.1
 (Enter /shared/centos7/gaussian/g16/l401.exe)
 Initial guess from the checkpoint file:  "/scratch/harms.n/gauss_scrdir/Gau-19128.chk"
 B after Tr=     0.000000   -0.000000   -0.000000
         Rot=    0.999998   -0.001687    0.000243   -0.001189 Ang=  -0.24 deg.
 Guess basis will be translated and rotated to current coordinates.
 JPrj=2 DoOrth=T DoCkMO=T.
 Initial guess <Sx>= 0.0000 <Sy>= 0.0000 <Sz>= 0.5000 <S**2>= 0.7597 S= 0.5049
 Leave Link  401 at Fri Sep  6 18:22:17 2019, MaxMem=   671088640 cpu:              98.5 elap:              49.3
 (Enter /shared/centos7/gaussian/g16/l502.exe)
 Integral symmetry usage will be decided dynamically.
 UHF open shell SCF:
 Using DIIS extrapolation, IDIIS=  1040.
 NGot=   671088640 LenX=   670887394 LenY=   670790853
 Requested convergence on RMS density matrix=1.00D-08 within 900 cycles.
 Requested convergence on MAX density matrix=1.00D-06.
 Requested convergence on             energy=1.00D-06.
 No special actions if energy rises.
 Fock matrices will be formed incrementally for  20 cycles.

 Cycle   1  Pass 1  IDiag  1:
 FoFJK:  IHMeth= 1 ICntrl=       0 DoSepK=F KAlg= 0 I1Cent=           0 FoldK=F
 IRaf= 980000000 NMat=       1 IRICut=       1 DoRegI=T DoRafI=F ISym2E= 0 IDoP0=0 IntGTp=1.
 FoFCou: FMM=F IPFlag=           0 FMFlag=      100000 FMFlg1=           0
         NFxFlg=           0 DoJE=F BraDBF=F KetDBF=F FulRan=T
         wScrn=  0.000000 ICntrl=         0 IOpCl=  1 I1Cent=           0 NGrid=           0
         NMat0=    1 NMatS0=      1 NMatT0=    0 NMatD0=    1 NMtDS0=    0 NMtDT0=    0
 Symmetry not used in FoFCou.
 E= -269.985092808352    
 DIIS: error= 2.61D-04 at cycle   1 NSaved=   1.
 NSaved= 1 IEnMin= 1 EnMin= -269.985092808352     IErMin= 1 ErrMin= 2.61D-04
 ErrMax= 2.61D-04  0.00D+00 EMaxC= 1.00D-01 BMatC= 1.82D-04 BMatP= 1.82D-04
 IDIUse=3 WtCom= 9.97D-01 WtEn= 2.61D-03
 Coeff-Com:  0.100D+01
 Coeff-En:   0.100D+01
 Coeff:      0.100D+01
 Gap=     0.790 Goal=   None    Shift=    0.000
 Gap=     0.825 Goal=   None    Shift=    0.000
 RMSDP=2.89D-05 MaxDP=7.19D-04              OVMax= 2.27D-03

 Cycle   2  Pass 1  IDiag  1:
 RMSU=  2.89D-05    CP:  1.00D+00
 E= -269.985151810565     Delta-E=       -0.000059002213 Rises=F Damp=F
 DIIS: error= 5.65D-05 at cycle   2 NSaved=   2.
 NSaved= 2 IEnMin= 2 EnMin= -269.985151810565     IErMin= 2 ErrMin= 5.65D-05
 ErrMax= 5.65D-05  0.00D+00 EMaxC= 1.00D-01 BMatC= 5.74D-06 BMatP= 1.82D-04
 IDIUse=1 WtCom= 1.00D+00 WtEn= 0.00D+00
 Coeff-Com: -0.143D+00 0.114D+01
 Coeff:     -0.143D+00 0.114D+01
 Gap=     0.351 Goal=   None    Shift=    0.000
 Gap=     0.279 Goal=   None    Shift=    0.000
 RMSDP=7.51D-06 MaxDP=2.12D-04 DE=-5.90D-05 OVMax= 1.03D-03

 Cycle   3  Pass 1  IDiag  1:
 RMSU=  3.90D-06    CP:  1.00D+00  1.22D+00
 E= -269.985155384921     Delta-E=       -0.000003574357 Rises=F Damp=F
 DIIS: error= 2.24D-05 at cycle   3 NSaved=   3.
 NSaved= 3 IEnMin= 3 EnMin= -269.985155384921     IErMin= 3 ErrMin= 2.24D-05
 ErrMax= 2.24D-05  0.00D+00 EMaxC= 1.00D-01 BMatC= 4.91D-07 BMatP= 5.74D-06
 IDIUse=1 WtCom= 1.00D+00 WtEn= 0.00D+00
 Coeff-Com: -0.165D-01 0.222D-01 0.994D+00
 Coeff:     -0.165D-01 0.222D-01 0.994D+00
 Gap=     0.351 Goal=   None    Shift=    0.000
 Gap=     0.279 Goal=   None    Shift=    0.000
 RMSDP=2.34D-06 MaxDP=1.33D-04 DE=-3.57D-06 OVMax= 6.13D-04

 Cycle   4  Pass 1  IDiag  1:
 RMSU=  1.71D-06    CP:  1.00D+00  1.26D+00  1.32D+00
 E= -269.985155695244     Delta-E=       -0.000000310323 Rises=F Damp=F
 DIIS: error= 1.56D-05 at cycle   4 NSaved=   4.
 NSaved= 4 IEnMin= 4 EnMin= -269.985155695244     IErMin= 4 ErrMin= 1.56D-05
 ErrMax= 1.56D-05  0.00D+00 EMaxC= 1.00D-01 BMatC= 4.95D-07 BMatP= 4.91D-07
 IDIUse=1 WtCom= 1.00D+00 WtEn= 0.00D+00
 Coeff-Com:  0.113D-01-0.158D+00 0.584D+00 0.563D+00
 Coeff:      0.113D-01-0.158D+00 0.584D+00 0.563D+00
 Gap=     0.351 Goal=   None    Shift=    0.000
 Gap=     0.279 Goal=   None    Shift=    0.000
 RMSDP=1.12D-06 MaxDP=5.64D-05 DE=-3.10D-07 OVMax= 2.50D-04

 Cycle   5  Pass 1  IDiag  1:
 RMSU=  7.97D-07    CP:  1.00D+00  1.27D+00  1.50D+00  1.00D+00
 E= -269.985155861477     Delta-E=       -0.000000166233 Rises=F Damp=F
 DIIS: error= 9.26D-06 at cycle   5 NSaved=   5.
 NSaved= 5 IEnMin= 5 EnMin= -269.985155861477     IErMin= 5 ErrMin= 9.26D-06
 ErrMax= 9.26D-06  0.00D+00 EMaxC= 1.00D-01 BMatC= 5.82D-08 BMatP= 4.91D-07
 IDIUse=1 WtCom= 1.00D+00 WtEn= 0.00D+00
 Coeff-Com:  0.699D-02-0.574D-01-0.333D-01 0.153D+00 0.930D+00
 Coeff:      0.699D-02-0.574D-01-0.333D-01 0.153D+00 0.930D+00
 Gap=     0.351 Goal=   None    Shift=    0.000
 Gap=     0.279 Goal=   None    Shift=    0.000
 RMSDP=9.62D-07 MaxDP=6.07D-05 DE=-1.66D-07 OVMax= 3.17D-04

 Cycle   6  Pass 1  IDiag  1:
 RMSU=  4.18D-07    CP:  1.00D+00  1.27D+00  1.63D+00  1.32D+00  1.48D+00
 E= -269.985155937578     Delta-E=       -0.000000076100 Rises=F Damp=F
 DIIS: error= 6.56D-06 at cycle   6 NSaved=   6.
 NSaved= 6 IEnMin= 6 EnMin= -269.985155937578     IErMin= 6 ErrMin= 6.56D-06
 ErrMax= 6.56D-06  0.00D+00 EMaxC= 1.00D-01 BMatC= 2.00D-08 BMatP= 5.82D-08
 IDIUse=1 WtCom= 1.00D+00 WtEn= 0.00D+00
 Coeff-Com: -0.312D-02 0.508D-01-0.234D+00-0.215D+00 0.135D+00 0.127D+01
 Coeff:     -0.312D-02 0.508D-01-0.234D+00-0.215D+00 0.135D+00 0.127D+01
 Gap=     0.351 Goal=   None    Shift=    0.000
 Gap=     0.279 Goal=   None    Shift=    0.000
 RMSDP=1.05D-06 MaxDP=6.44D-05 DE=-7.61D-08 OVMax= 3.58D-04

 Cycle   7  Pass 1  IDiag  1:
 RMSU=  2.40D-07    CP:  1.00D+00  1.28D+00  1.75D+00  1.67D+00  2.21D+00
                    CP:  1.78D+00
 E= -269.985155982374     Delta-E=       -0.000000044796 Rises=F Damp=F
 DIIS: error= 2.88D-06 at cycle   7 NSaved=   7.
 NSaved= 7 IEnMin= 7 EnMin= -269.985155982374     IErMin= 7 ErrMin= 2.88D-06
 ErrMax= 2.88D-06  0.00D+00 EMaxC= 1.00D-01 BMatC= 5.82D-09 BMatP= 2.00D-08
 IDIUse=1 WtCom= 1.00D+00 WtEn= 0.00D+00
 Coeff-Com: -0.343D-02 0.383D-01-0.839D-01-0.135D+00-0.209D+00 0.521D+00
 Coeff-Com:  0.873D+00
 Coeff:     -0.343D-02 0.383D-01-0.839D-01-0.135D+00-0.209D+00 0.521D+00
 Coeff:      0.873D+00
 Gap=     0.351 Goal=   None    Shift=    0.000
 Gap=     0.279 Goal=   None    Shift=    0.000
 RMSDP=4.75D-07 MaxDP=2.64D-05 DE=-4.48D-08 OVMax= 1.49D-04

 Cycle   8  Pass 1  IDiag  1:
 RMSU=  1.05D-07    CP:  1.00D+00  1.28D+00  1.80D+00  1.81D+00  2.57D+00
                    CP:  2.28D+00  1.26D+00
 E= -269.985155990650     Delta-E=       -0.000000008276 Rises=F Damp=F
 DIIS: error= 1.09D-06 at cycle   8 NSaved=   8.
 NSaved= 8 IEnMin= 8 EnMin= -269.985155990650     IErMin= 8 ErrMin= 1.09D-06
 ErrMax= 1.09D-06  0.00D+00 EMaxC= 1.00D-01 BMatC= 9.49D-10 BMatP= 5.82D-09
 IDIUse=1 WtCom= 1.00D+00 WtEn= 0.00D+00
 Coeff-Com: -0.838D-04-0.312D-02 0.333D-01 0.225D-01-0.717D-01-0.181D+00
 Coeff-Com:  0.208D+00 0.992D+00
 Coeff:     -0.838D-04-0.312D-02 0.333D-01 0.225D-01-0.717D-01-0.181D+00
 Coeff:      0.208D+00 0.992D+00
 Gap=     0.351 Goal=   None    Shift=    0.000
 Gap=     0.279 Goal=   None    Shift=    0.000
 RMSDP=1.80D-07 MaxDP=1.06D-05 DE=-8.28D-09 OVMax= 5.70D-05

 Cycle   9  Pass 1  IDiag  1:
 RMSU=  4.65D-08    CP:  1.00D+00  1.28D+00  1.81D+00  1.85D+00  2.68D+00
                    CP:  2.48D+00  1.58D+00  1.18D+00
 E= -269.985155991721     Delta-E=       -0.000000001071 Rises=F Damp=F
 DIIS: error= 3.44D-07 at cycle   9 NSaved=   9.
 NSaved= 9 IEnMin= 9 EnMin= -269.985155991721     IErMin= 9 ErrMin= 3.44D-07
 ErrMax= 3.44D-07  0.00D+00 EMaxC= 1.00D-01 BMatC= 2.02D-10 BMatP= 9.49D-10
 IDIUse=1 WtCom= 1.00D+00 WtEn= 0.00D+00
 Coeff-Com:  0.523D-03-0.779D-02 0.274D-01 0.336D-01 0.545D-02-0.167D+00
 Coeff-Com: -0.630D-01 0.405D+00 0.766D+00
 Coeff:      0.523D-03-0.779D-02 0.274D-01 0.336D-01 0.545D-02-0.167D+00
 Coeff:     -0.630D-01 0.405D+00 0.766D+00
 Gap=     0.351 Goal=   None    Shift=    0.000
 Gap=     0.279 Goal=   None    Shift=    0.000
 RMSDP=5.45D-08 MaxDP=2.43D-06 DE=-1.07D-09 OVMax= 1.60D-05

 Cycle  10  Pass 1  IDiag  1:
 RMSU=  1.76D-08    CP:  1.00D+00  1.28D+00  1.82D+00  1.86D+00  2.71D+00
                    CP:  2.54D+00  1.67D+00  1.38D+00  1.06D+00
 E= -269.985155991851     Delta-E=       -0.000000000131 Rises=F Damp=F
 DIIS: error= 1.08D-07 at cycle  10 NSaved=  10.
 NSaved=10 IEnMin=10 EnMin= -269.985155991851     IErMin=10 ErrMin= 1.08D-07
 ErrMax= 1.08D-07  0.00D+00 EMaxC= 1.00D-01 BMatC= 1.97D-11 BMatP= 2.02D-10
 IDIUse=1 WtCom= 1.00D+00 WtEn= 0.00D+00
 Coeff-Com:  0.928D-04-0.937D-03 0.273D-03 0.413D-02 0.937D-02-0.846D-02
 Coeff-Com: -0.355D-01-0.649D-01 0.181D+00 0.915D+00
 Coeff:      0.928D-04-0.937D-03 0.273D-03 0.413D-02 0.937D-02-0.846D-02
 Coeff:     -0.355D-01-0.649D-01 0.181D+00 0.915D+00
 Gap=     0.351 Goal=   None    Shift=    0.000
 Gap=     0.279 Goal=   None    Shift=    0.000
 RMSDP=1.61D-08 MaxDP=6.14D-07 DE=-1.31D-10 OVMax= 3.71D-06

 Cycle  11  Pass 1  IDiag  1:
 RMSU=  5.86D-09    CP:  1.00D+00  1.28D+00  1.82D+00  1.87D+00  2.71D+00
                    CP:  2.55D+00  1.70D+00  1.43D+00  1.24D+00  1.18D+00
